<LesHouchesEvents version="1.0">
<header>
<!--
#*********************************************************************
#                                                                    *
#                       MadGraph/MadEvent                            *
#                                                                    *
#                      The new web generation                        *
#                                                                    *
#                   http://madgraph.hep.uiuc.edu                     *
#                   http://madgraph.phys.ucl.ac.be                   *
#                   http://madgraph.roma2.infn.it                    *
#                                                                    *
#            CP3 team                      Tim Stelzer               *
#      Universite de Louvain          University of Illinois         *
#                                                                    *
#....................................................................*
#                                                                    *
# This file contains all the information necessary to reproduce      *
# the events generated:                                              *
#                                                                    *
# 1. software version                                                *
# 2. proc_card.dat      : code generation info including model       *
# 3. param_card.dat     : model primary parameters in the LH format  *
# 4. run_card.dat       : running parameters (collider and cuts)     *
# 5. pythia_card.dat    : present only in the pythia event file      *
# 6. pgs_card.dat       : present only in the pgs event file         *
#                                                                    *
#                                                                    *
#*********************************************************************
-->
<MGVersion>
# MG/ME version    : 4.4.17
# madgraph version : 4.4.2
# template version : 2.4.8
# helas version    : 3.5
# model version    : usrmod_1.0.4
</MGVersion>
<MGProcCard>
#*********************************************************************
#                        MadGraph/MadEvent                           *
#                   http://madgraph.hep.uiuc.edu                     *
#                                                                    *
#                          proc_card.dat                             *
#                                                                    *
# This file is used to generate the code for a specific process.     *
# Some notation/conventions:                                         *
#                                                                    *
# 0. Do not modify the TAGS and their order.                         *
# 1. hash/pound is a comment.                                        *
# 2. The number after the @ is used as an identifier for the class   *
#    of processes. It can be any positive integer.                   *
# 3. The number of lines for the max couplings depends on how many   *
#    different classes of couplings are present in the model         *
#    In the SM these are just two: QED (which include EW) and QCD    *
# 4. Write "end_coup" after  the couplings list,                     *
#    to tell MG that the couplings input is over.                    *
# 5. Write "done" after the proc list to                             *
#    to tell MG that the proc input is over.                         *
# 6. Some model names available at present are:                      *
#    sm     =  Standard Model                                        *
#    smckm =  Standard Model with Cabibbo matrix                     *
#    mssm   =  Minimal Supersymmetric Standard Model                 *
#    2hdm   =  Generic Two Higgs Doublet model                       *
#    heft   =  Higgs EFT (+Standard Model)                           *
#    usrmod =  User Model                                            *
# 7. Don't leave spaces between the particles name in the            *
#    definition of the multiparticles.                               *
#*********************************************************************
#*********************************************************************
# Process(es) requested : mg2 input                                  *
#*********************************************************************
# Begin PROCESS # This is TAG. Do not modify this line
e- N+ > e- N+ x      # Radiative
QCD=0             # Max QCD couplings
QED=1             # Max QED couplings
QFD=0 
QND=1
QWD=9
QDS=2
end_coup           # End the couplings input
done               # this tells MG there are no more procs
# End PROCESS  # This is TAG. Do not modify this line
#*********************************************************************
# Model information                                                  *
#*********************************************************************
# Begin MODEL  # This is TAG. Do not modify this line
fixedAP2     
# End   MODEL  # This is TAG. Do not modify this line
#*********************************************************************
# Start multiparticle definitions                                    *
#*********************************************************************
# Begin MULTIPARTICLES # This is TAG. Do not modify this line
P uu~cc~dd~ss~gf+f-
J uu~cc~dd~ss~gf+f-
L+ e+mu+
L- e-mu-
vl vevm
vl~ ve~vm~
# End  MULTIPARTICLES # This is TAG. Do not modify this line
</MGProcCard>
<slha>
#*********************************************************************
#                        MadGraph/MadEvent                           *
#                   http://madgraph.hep.uiuc.edu                     *
#                                                                    *
#                         param_card.dat                             *
#                                                                    *
#   Les Houches friendly file for the SM parameters of MadGraph      *
#        Spectrum and decay widths produced by SMCalc                *
#                                                                    *
#  Please note the following IMPORTANT issues:                       *
#                                                                    *
# 0. REFRAIN from editing this file by hand! Some of the parame-     *
#    ters are not independent                                        *
#    (such as G_Fermi, alpha_em, sin(theta_W),MZ,MW) and serious     *
#    problems might be encountered (such as violation of unitarity   *
#    or gauge invariance).  Always use a calculator.                 *
#                                                                    *
# 1. alpha_S(MZ) has been used in the calculation of the parameters  *
#    but, for consistency, it will be reset by madgraph to the       *
#    value expected IF the pdfs for collisions with hadrons are      *
#    used. This value is KEPT by madgraph when no pdf are used       *
#    lpp(i)=0 .                                                      *
#                                                                    *
#  2. Values of the charm and bottom kinematic (pole) masses are     *
#     those used in the matrix elements and phase space UNLESS they  *
#     are set to ZERO from the start in the model (particles.dat)    *
#     This happens, for example,  when using 5-flavor QCD where      *
#     charm and bottom are treated as partons in the initial state   *
#     and a zero mass might be hardwired in the model definition.    *
#                                                                    *
##********************************************************************
Block MODSEL # Select Model
     0   1   #  0 1 = SM
Block SMINPUTS      # Standard Model inputs
     1         1.27900000E+02   # alpha_em(MZ)(-1) SM MSbar
     2         1.16600000E-05   # G_Fermi
     3         1.18000000E-01   # alpha_s(MZ) SM MSbar
     4         9.15445065E+01   # Z mass (as input parameter)
Block MGYUKAWA     # Yukawa masses m/v=y/sqrt(2)
#    PDG          YMASS
     5         4.20000000E+00   # mbottom for the Yukawa  y_b
     4         1.25000000E+00   # mcharm  for the Yukawa  y_c
     6         1.74300000E+02   # mtop    for the Yukawa  y_t
    15         1.77700000E+00   # mtau    for the Yukawa  y_ta
Block MGCKM     # CKM elements for MadGraph
     1   1     9.75000000E-01   # Vud for Cabibbo matrix
#===========================================================
# QUANTUM NUMBERS OF NEW STATE(S) (NON SM PDG CODE) IF ANY
# (see below for masses and decay tables)
# These blocks are automatically created by the MadGraph
# qnumbers.pl script from the particles.dat model file
#===========================================================
BLOCK QNUMBERS 611 # f-
         1  -3 # 3 times electric charge
         2  2 # number of spin states (2S+1)
         3  1 # colour rep (1: singlet, 3: triplet, 8: octet)
         4  1 # Particle/Antiparticle distinction (0=own anti)
BLOCK QNUMBERS 622 # x
         1  0 # 3 times electric charge
         2  3 # number of spin states (2S+1)
         3  1 # colour rep (1: singlet, 3: triplet, 8: octet)
         4  0 # Particle/Antiparticle distinction (0=own anti)
BLOCK QNUMBERS 623 # N-
         1  0 # 3 times electric charge
         2  2 # number of spin states (2S+1)
         3  1 # colour rep (1: singlet, 3: triplet, 8: octet)
         4  1 # Particle/Antiparticle distinction (0=own anti)
# END of QNUMBERS blocks
#===========================================================
Block MASS      #  Mass spectrum (kinematic masses)
#       PDG       Mass
         4     1.40000000E+00   # charm    pole mass
         5     4.20000000E+00   # bottom   pole mass
         6     1.74300000E+02   # top      pole mass
        11     0.51109989E-03   # electron mass
        13     0.10565837E+00   # muon     mass
        15     1.77700000E+00   # tau      mass
        23     9.15445065E+01   # Z        mass
        24     8.02673592E+01   # W        mass
        25     1.20000000E+02   # H        mass
       611 0.0001 # FMASS
       622 0.04 # APMASS
       623     1.71300000e+02   # HPMASS (tungsten)
#            PDG       Width
DECAY       611     0.00000000e+00   # ELWIDTH
DECAY 622 0.00143758142686 # APWIDTH
DECAY       623     0.00000000e+00   # HPWIDTH
DECAY         6     1.51013490E+00   # top width
DECAY        23     2.44639985E+00   # Z   width
DECAY        24     2.03535570E+00   # W   width
DECAY        25     6.79485838E-03   # H   width
#        BR           NDA        ID1       ID2
     7.00588389E-02    2           4        -4   # BR( H -> c  cbar  )
     7.61074375E-01    2           5        -5   # BR( H -> b  bbar  )
     0.00000000E+00    2           6        -6   # BR( H -> t  tbar  )
     3.65529942E-02    2          15       -15   # BR( H -> tau- tau+)
     5.84716539E-03    2          23        23   # BR( H -> Z   Z^(*))
     6.31545979E-02    2          24       -24   # BR( H -> W   W^(*))
     2.55499652E-02    2          21        21   # BR( H -> g   g    )
     1.20906932E-03    2          22        22   # BR( H -> A   A    )
BLOCK MGUSER
         1     1.00000000e-00   # epsilon ,mixing coefficient
         2     74.0000000e+00   # Znuc    ,nuclear charge
</slha>
<MGRunCard>
#*********************************************************************
#                       MadGraph/MadEvent                            *
#                  http://madgraph.hep.uiuc.edu                      *
#                                                                    *
#                        run_card.dat                                *
#                                                                    *
#  This file is used to set the parameters of the run.               *
#                                                                    *
#  Some notation/conventions:                                        *
#                                                                    *
#   Lines starting with a '# ' are info or comments                  *
#                                                                    *
#   mind the format:   value    = variable     ! comment             *
#*********************************************************************
#
#*******************                                                 
# Running parameters
#*******************                                                 
#                                                                    
#*********************************************************************
# Tag name for the run (one word)                                    *
#*********************************************************************
  'HPS'     = run_tag ! name of the run 
#*********************************************************************
# Run to generate the grid pack                                      *
#*********************************************************************
  .false.     = gridpack  !True = setting up the grid pack
#*********************************************************************
# Number of events and rnd seed                                      *
#*********************************************************************
   50000      = nevents ! Number of unweighted events requested 
226495 = iseed ! rnd seed (0=assigned automatically=default))
#*********************************************************************
# Collider type and energy                                           *
#*********************************************************************
        0     = lpp1  ! beam 1 type (0=NO PDF)
        0     = lpp2  ! beam 2 type (0=NO PDF)
4.0 = ebeam1  ! beam 1 energy in GeV
    171.3    = ebeam2  ! beam 2 energy in GeV
    0.000511  = mbeam1  ! beam 1 energy in GeV
    171.3    = mbeam2  ! beam 2 energy in GeV
#*********************************************************************
# Beam polarization from -100 (left-handed) to 100 (right-handed)    *
#*********************************************************************
        0     = polbeam1 ! beam polarization for beam 1
        0     = polbeam2 ! beam polarization for beam 2
#*********************************************************************
# PDF CHOICE: this automatically fixes also alpha_s and its evol.    *
#*********************************************************************
 'cteq6l1'    = pdlabel     ! PDF set                                     
#*********************************************************************
# Renormalization and factorization scales                           *
#*********************************************************************
 F        = fixed_ren_scale  ! if .true. use fixed ren scale
 F        = fixed_fac_scale  ! if .true. use fixed fac scale
 91.1880  = scale            ! fixed ren scale
 91.1880  = dsqrt_q2fact1    ! fixed fact scale for pdf1
 91.1880  = dsqrt_q2fact2    ! fixed fact scale for pdf2
 1        = scalefact        ! scale factor for event-by-event scales
 F        = fixed_couplings  ! if .false. calc. coupl. for every event
#*********************************************************************
# Matching - Warning! ickkw > 0 is still beta
#*********************************************************************
 0        = ickkw            ! 0 no matching, 1 MLM, 2 CKKW matching
#*********************************************************************
#                                                                    
#**********************************
27.8245108434 = bwcutoff*Gamma)
#**********************************
27.8245108434 = bwcutoff
#*******************                                                 
# Fixed-Target Cuts
#*******************                                                 
#
 0.0 = ef        ! minimum E for all f's
 100.0 = efmax     ! maximum E for all f's
 0.0 = thetafmin ! min angle for both f's
 100.0 = thetafmax ! max angle for both f's
 0.0 = thetaxfmin ! min angle (x direction) for both f's
 100.0 = thetaxfmax ! max angle (x direction) for both f's 
 0.0 = thetayfmin ! min angle (y direction) for both f's
 100.0 = thetayfmax ! max angle (y direction) for both f's 
 0.0 = xthetaxfmin ! min angle (x direction) for >=1 f's
 100.0 = xthetaxfmax ! max angle (x direction) for >=1 f's 
 0.0 = xthetayfmin ! min angle (y direction) for >=1 f's
 100.0 = xthetayfmax ! max angle (y direction) for >=1 f's 
 0.0 = mmff      ! min invariant mass of f+f- lepton pair
 100.0 = mmffmax  ! max invariant mass of f+f- lepton pair
 0.0 = xef       ! min. energy for at least one f
 0.0 = xthetaf   ! minimum angle for at least one f
 0.0 = eftot     ! minimum energy for the two f's
 0d0 = efrat     ! min. ratio Emin/Emax for the two f's
0.0 = el  ! minimum E for the charged leptons
 0.0  = drll  !!! was 0.1  ! min distance between leptons 
 0.0  = mmll    ! min invariant mass of l+l- (same flavour) lepton pair
#
#*******************                                                 
# Standard Cuts
#*******************                                                 
#                                                                    
#*********************************************************************
# Minimum and maximum pt's                                           *
#*********************************************************************
  0  = ptj       ! minimum pt for the jets 
  0  = ptb       ! minimum pt for the b 
  0  = pta       ! minimum pt for the photons 
  0  = ptl       ! minimum pt for the charged leptons 
  0  = misset    ! minimum missing Et (sum of neutrino's momenta)
  0  = ptheavy   ! minimum pt for one heavy final state
 1.0 = ptonium   ! minimum pt for the quarkonium states
 1d5 = ptjmax    ! maximum pt for the jets
 1d5 = ptbmax    ! maximum pt for the b
 1d5 = ptamax    ! maximum pt for the photons
 1d9 = ptlmax    ! maximum pt for the charged leptons
 1d9 = missetmax ! maximum missing Et (sum of neutrino's momenta)
#*********************************************************************
# Minimum and maximum E's (in the lab frame)                         *
#*********************************************************************
  0  = ej     ! minimum E for the jets 
  0  = eb     ! minimum E for the b 
  0  = ea     ! minimum E for the photons 
 1d5  = ejmax ! maximum E for the jets
 1d5  = ebmax ! maximum E for the b
 1d5  = eamax ! maximum E for the photons
4.0 = elmax  ! maximum E for the charged leptons
#*********************************************************************
# Maximum and minimum rapidity                                       *
#*********************************************************************
 1d5  = etaj    ! max rap for the jets 
 1d5  = etab    ! max rap for the b 
 1d5  = etaa    ! max rap for the photons 
 1d5  = etal     !!! 1(2) wth cuts ! max rap for the charged leptons 
 1d5  = etafl     !!! 0(1) wth cuts ! max rap for the charged leptons 
 0.0  = etaonium ! max rap for the quarkonium states
 0d0  = etajmin ! min rap for the jets
 0d0  = etabmin ! min rap for the b
 0d0  = etaamin ! min rap for the photons
 0d0  = etalmin ! main rap for the charged lepton
#*********************************************************************
# Minimum and maximum DeltaR distance                                *
#*********************************************************************
 0   = drjj    ! min distance between jets 
 0   = drbb    ! min distance between b's 
 0   = draa    ! min distance between gammas 
 0   = drbj    ! min distance between b and jet 
 0   = draj    ! min distance between gamma and jet 
 0   = drjl    ! min distance between jet and lepton 
 0   = drab    ! min distance between gamma and b 
 0   = drbl    ! min distance between b and lepton 
 0   = dral    ! min distance between gamma and lepton 
 1d2 = drjjmax ! max distance between jets
 1d2 = drbbmax ! max distance between b's
 1d9 = drllmax ! max distance between leptons
 1d2 = draamax ! max distance between gammas
 1d2 = drbjmax ! max distance between b and jet
 1d2 = drajmax ! max distance between gamma and jet
 1d2 = drjlmax ! max distance between jet and lepton
 1d2 = drabmax ! max distance between gamma and b
 1d2 = drblmax ! max distance between b and lepton
 1d2 = dralmax ! maxdistance between gamma and lepton
#*********************************************************************
# Minimum and maximum invariant mass for pairs                       *
#*********************************************************************
 0   = mmjj    ! min invariant mass of a jet pair 
 0   = mmbb    ! min invariant mass of a b pair 
 0   = mmaa    ! min invariant mass of gamma gamma pair
 1d5 = mmjjmax ! max invariant mass of a jet pair
 1d5 = mmbbmax ! max invariant mass of a b pair
 1d5 = mmaamax ! max invariant mass of gamma gamma pair
 1d5 = mmllmax ! max invariant mass of l+l- (same flavour) lepton pair
#*********************************************************************
# Minimum and maximum invariant mass for all letpons                 *
#*********************************************************************
 0   = mmnl    ! min invariant mass for all letpons (l+- and vl) 
 1d9 = mmnlmax ! max invariant mass for all letpons (l+- and vl) 
#*********************************************************************
# Inclusive cuts                                                     *
#*********************************************************************
 0  = xptj ! minimum pt for at least one jet  
 0  = xptb ! minimum pt for at least one b 
 0  = xpta ! minimum pt for at least one photon 
 0  = xptl ! minimum pt for at least one charged lepton 
#*********************************************************************
# Control the pt's of the jets sorted by pt                          *
#*********************************************************************
 0   = ptj1min ! minimum pt for the leading jet in pt
 0   = ptj2min ! minimum pt for the second jet in pt
 0   = ptj3min ! minimum pt for the third jet in pt
 0   = ptj4min ! minimum pt for the fourth jet in pt
 1d5 = ptj1max ! maximum pt for the leading jet in pt 
 1d5 = ptj2max ! maximum pt for the second jet in pt
 1d5 = ptj3max ! maximum pt for the third jet in pt
 1d5 = ptj4max ! maximum pt for the fourth jet in pt
 0   = cutuse  ! reject event if fails any (0) / all (1) jet pt cuts
#*********************************************************************
# Control the Ht(k)=Sum of k leading jets                            *
#*********************************************************************
 0   = htjmin ! minimum jet HT=Sum(jet pt)
 1d5 = htjmax ! maximum jet HT=Sum(jet pt)
 0   = ht2min ! minimum Ht for the two leading jets
 0   = ht3min ! minimum Ht for the three leading jets
 0   = ht4min ! minimum Ht for the four leading jets
 1d5 = ht2max ! maximum Ht for the two leading jets
 1d5 = ht3max ! maximum Ht for the three leading jets
 1d5 = ht4max ! maximum Ht for the four leading jets
#*********************************************************************
# WBF cuts                                                           *
#*********************************************************************
 0   = xetamin ! minimum rapidity for two jets in the WBF case  
 0   = deltaeta ! minimum rapidity for two jets in the WBF case 
#*********************************************************************
# maximal pdg code for quark to be considered as a jet               *
# otherwise b cuts are applied                                       *
#*********************************************************************
 4 = maxjetflavor
#*********************************************************************
# Jet measure cuts                                                   *
#*********************************************************************
 0   = xqcut   ! minimum kt jet measure between partons
#*********************************************************************
</MGRunCard>
<MGGenerationInfo>
#  Number of Events        :        5030
#  Integrated weight (pb)  :  .31189E+11
#  Truncated wgt (pb)      :  .14426E+09
#  Unit wgt                :  .62006E+07
</MGGenerationInfo>
</header>
<init>
       11     -623  0.40000000000E+01  0.17130000000E+03 0 0     0     0 3  1
  0.14770200740E+11  0.00000000000E+00  0.62005964215E+07   0
</init>
<event>
 5   0  0.6200596E+07  0.9118800E+02  0.7818608E-02  0.1180000E+00
       11   -1    0    0    0    0  0.00000000000E+00  0.00000000000E+00  0.39999999673E+01  0.40000000000E+01  0.51109989000E-03 0.  1.
     -623   -1    0    0    0    0  0.00000000000E+00  0.00000000000E+00  0.12525980253E-10  0.17130000000E+03  0.17130000000E+03 0.  1.
       11    1    1    2    0    0 -0.12291600371E-02  0.50469089900E-03  0.63925900786E-02  0.65491965419E-02  0.51109989000E-03 0.  1.
     -623    1    1    2    0    0  0.24129334943E-02  0.24980225090E-03  0.35717113339E-03  0.17130000002E+03  0.17130000000E+03 0.  1.
      622    1    1    2    0    0 -0.11837734572E-02 -0.75449314990E-03  0.39932502061E+01  0.39934507859E+01  0.40000000000E-01 0.  1.
</event>
<event>
 5   0  0.6200596E+07  0.9118800E+02  0.7818608E-02  0.1180000E+00
       11   -1    0    0    0    0  0.00000000000E+00  0.00000000000E+00  0.39999999673E+01  0.40000000000E+01  0.51109989000E-03 0.  1.
     -623   -1    0    0    0    0  0.00000000000E+00  0.00000000000E+00  0.12525980253E-10  0.17130000000E+03  0.17130000000E+03 0. -1.
       11    1    1    2    0    0  0.19102375358E-02 -0.16687975204E-02  0.25790002719E-01  0.25919478283E-01  0.51109989000E-03 0.  1.
     -623    1    1    2    0    0  0.13973901151E-02  0.19607582941E-02  0.33215695717E-03  0.17130000002E+03  0.17130000000E+03 0. -1.
      622    1    1    2    0    0 -0.33076276509E-02 -0.29196077376E-03  0.39738778077E+01  0.39740805045E+01  0.40000000000E-01 0.  1.
</event>
<event>
 5   0  0.6200596E+07  0.9118800E+02  0.7818608E-02  0.1180000E+00
       11   -1    0    0    0    0  0.00000000000E+00  0.00000000000E+00  0.39999999673E+01  0.40000000000E+01  0.51109989000E-03 0. -1.
     -623   -1    0    0    0    0  0.00000000000E+00  0.00000000000E+00  0.12525980253E-10  0.17130000000E+03  0.17130000000E+03 0. -1.
       11    1    1    2    0    0  0.31319951701E-01  0.99749042105E-04  0.32379629184E+00  0.32530792974E+00  0.51109989000E-03 0. -1.
     -623    1    1    2    0    0  0.15499772031E-01  0.14417691783E-01  0.20576162366E-02  0.17130000132E+03  0.17130000000E+03 0. -1.
      622    1    1    2    0    0 -0.46819723732E-01 -0.14517440826E-01  0.36741460593E+01  0.36746907499E+01  0.40000000000E-01 0. -1.
</event>
<event>
 5   0  0.6200596E+07  0.9118800E+02  0.7818608E-02  0.1180000E+00
       11   -1    0    0    0    0  0.00000000000E+00  0.00000000000E+00  0.39999999673E+01  0.40000000000E+01  0.51109989000E-03 0. -1.
     -623   -1    0    0    0    0  0.00000000000E+00  0.00000000000E+00  0.12525980253E-10  0.17130000000E+03  0.17130000000E+03 0.  1.
       11    1    1    2    0    0  0.65750779551E-02 -0.48489661367E-02  0.31027864927E-01  0.32089464731E-01  0.51109989000E-03 0. -1.
     -623    1    1    2    0    0  0.56933199370E-03 -0.21274328528E-02  0.12757741946E-02  0.17130000002E+03  0.17130000000E+03 0.  1.
      622    1    1    2    0    0 -0.71444099488E-02  0.69763989895E-02  0.39676963282E+01  0.39679105164E+01  0.40000000000E-01 0. -1.
</event>
<event>
 5   0  0.6200596E+07  0.9118800E+02  0.7818608E-02  0.1180000E+00
       11   -1    0    0    0    0  0.00000000000E+00  0.00000000000E+00  0.39999999673E+01  0.40000000000E+01  0.51109989000E-03 0.  1.
     -623   -1    0    0    0    0  0.00000000000E+00  0.00000000000E+00  0.12525980253E-10  0.17130000000E+03  0.17130000000E+03 0.  1.
       11    1    1    2    0    0  0.10113866359E-01  0.87840487642E-02  0.16985223440E+00  0.17038043478E+00  0.51109989000E-03 0.  1.
     -623    1    1    2    0    0 -0.20986180308E-01 -0.15205160317E-01  0.75985123546E-03  0.17130000196E+03  0.17130000000E+03 0.  1.
      622    1    1    2    0    0  0.10872313949E-01  0.64211115529E-02  0.38293878817E+01  0.38296176032E+01  0.40000000000E-01 0.  1.
</event>
<event>
 5   0  0.6200596E+07  0.9118800E+02  0.7818608E-02  0.1180000E+00
       11   -1    0    0    0    0  0.00000000000E+00  0.00000000000E+00  0.39999999673E+01  0.40000000000E+01  0.51109989000E-03 0. -1.
     -623   -1    0    0    0    0  0.00000000000E+00  0.00000000000E+00  0.12525980253E-10  0.17130000000E+03  0.17130000000E+03 0. -1.
       11    1    1    2    0    0 -0.42249832245E-03 -0.19647406473E-03  0.10801949832E-01  0.10824068026E-01  0.51109989000E-03 0. -1.
     -623    1    1    2    0    0 -0.13000146338E-03 -0.92184398654E-03  0.22283096573E-03  0.17130000000E+03  0.17130000000E+03 0. -1.
      622    1    1    2    0    0  0.55249978583E-03  0.11183180513E-02  0.39889751866E+01  0.39891759293E+01  0.40000000000E-01 0. -1.
</event>
<event>
 5   0  0.6200596E+07  0.9118800E+02  0.7818608E-02  0.1180000E+00
       11   -1    0    0    0    0  0.00000000000E+00  0.00000000000E+00  0.39999999673E+01  0.40000000000E+01  0.51109989000E-03 0. -1.
     -623   -1    0    0    0    0  0.00000000000E+00  0.00000000000E+00  0.12525980253E-10  0.17130000000E+03  0.17130000000E+03 0. -1.
       11    1    1    2    0    0  0.26267875898E-01 -0.82498116067E-02  0.10933009540E+00  0.11274480777E+00  0.51109989000E-03 0. -1.
     -623    1    1    2    0    0 -0.20563420968E-01 -0.14161869802E-02  0.36379688629E-02  0.17130000128E+03  0.17130000000E+03 0. -1.
      622    1    1    2    0    0 -0.57044549304E-02  0.96659985869E-02  0.38870319031E+01  0.38872539135E+01  0.40000000000E-01 0. -1.
</event>
<event>
 5   0  0.6200596E+07  0.9118800E+02  0.7818608E-02  0.1180000E+00
       11   -1    0    0    0    0  0.00000000000E+00  0.00000000000E+00  0.39999999673E+01  0.40000000000E+01  0.51109989000E-03 0. -1.
     -623   -1    0    0    0    0  0.00000000000E+00  0.00000000000E+00  0.12525980253E-10  0.17130000000E+03  0.17130000000E+03 0.  1.
       11    1    1    2    0    0 -0.79468714710E-02 -0.86015377570E-03  0.63763917676E+00  0.63768948054E+00  0.51109989000E-03 0. -1.
     -623    1    1    2    0    0  0.51685147648E-03 -0.52462443657E-03  0.29670821079E-03  0.17130000000E+03  0.17130000000E+03 0.  1.
      622    1    1    2    0    0  0.74300199945E-02  0.13847782123E-02  0.33620640824E+01  0.33623105176E+01  0.40000000000E-01 0. -1.
</event>
<event>
 5   0  0.6200596E+07  0.9118800E+02  0.7818608E-02  0.1180000E+00
       11   -1    0    0    0    0  0.00000000000E+00  0.00000000000E+00  0.39999999673E+01  0.40000000000E+01  0.51109989000E-03 0. -1.
     -623   -1    0    0    0    0  0.00000000000E+00  0.00000000000E+00  0.12525980253E-10  0.17130000000E+03  0.17130000000E+03 0.  1.
       11    1    1    2    0    0 -0.98596470923E-02 -0.72274593968E-02  0.62874468134E-01  0.64053952054E-01  0.51109989000E-03 0. -1.
     -623    1    1    2    0    0  0.12826319152E-02  0.65103331513E-02  0.13922566545E-02  0.17130000013E+03  0.17130000000E+03 0.  1.
      622    1    1    2    0    0  0.85770151771E-02  0.71712624551E-03  0.39357332426E+01  0.39359459138E+01  0.40000000000E-01 0. -1.
</event>
<event>
 5   0  0.6200596E+07  0.9118800E+02  0.7818608E-02  0.1180000E+00
       11   -1    0    0    0    0  0.00000000000E+00  0.00000000000E+00  0.39999999673E+01  0.40000000000E+01  0.51109989000E-03 0. -1.
     -623   -1    0    0    0    0  0.00000000000E+00  0.00000000000E+00  0.12525980253E-10  0.17130000000E+03  0.17130000000E+03 0.  1.
       11    1    1    2    0    0 -0.16024435412E-02  0.72265157953E-03  0.18208866863E+00  0.18209787070E+00  0.51109989000E-03 0. -1.
     -623    1    1    2    0    0  0.66308940978E-02 -0.97320729421E-03  0.22216542204E-03  0.17130000013E+03  0.17130000000E+03 0.  1.
      622    1    1    2    0    0 -0.50284505565E-02  0.25055571468E-03  0.38176891333E+01  0.38179019980E+01  0.40000000000E-01 0. -1.
</event>
<event>
 5   0  0.6200596E+07  0.9118800E+02  0.7818608E-02  0.1180000E+00
       11   -1    0    0    0    0  0.00000000000E+00  0.00000000000E+00  0.39999999673E+01  0.40000000000E+01  0.51109989000E-03 0.  1.
     -623   -1    0    0    0    0  0.00000000000E+00  0.00000000000E+00  0.12525980253E-10  0.17130000000E+03  0.17130000000E+03 0. -1.
       11    1    1    2    0    0 -0.14194419501E-02 -0.17634251629E-03  0.15210457870E-02  0.21495844500E-02  0.51109989000E-03 0.  1.
     -623    1    1    2    0    0  0.13210981886E-02  0.13834195384E-02  0.82881470043E-03  0.17130000001E+03  0.17130000000E+03 0. -1.
      622    1    1    2    0    0  0.98343761559E-04 -0.12070770221E-02  0.39976501069E+01  0.39978504029E+01  0.40000000000E-01 0.  1.
</event>
<event>
 5   0  0.6200596E+07  0.9118800E+02  0.7818608E-02  0.1180000E+00
       11   -1    0    0    0    0  0.00000000000E+00  0.00000000000E+00  0.39999999673E+01  0.40000000000E+01  0.51109989000E-03 0. -1.
     -623   -1    0    0    0    0  0.00000000000E+00  0.00000000000E+00  0.12525980253E-10  0.17130000000E+03  0.17130000000E+03 0. -1.
       11    1    1    2    0    0  0.76658929956E-02 -0.60333633438E-02  0.33491897888E+00  0.33506141381E+00  0.51109989000E-03 0. -1.
     -623    1    1    2    0    0  0.61336947981E-03 -0.32869897220E-02  0.38193084114E-03  0.17130000003E+03  0.17130000000E+03 0. -1.
      622    1    1    2    0    0 -0.82792624754E-02  0.93203530657E-02  0.36646990576E+01  0.36649385531E+01  0.40000000000E-01 0. -1.
</event>
<event>
 5   0  0.6200596E+07  0.9118800E+02  0.7818608E-02  0.1180000E+00
       11   -1    0    0    0    0  0.00000000000E+00  0.00000000000E+00  0.39999999673E+01  0.40000000000E+01  0.51109989000E-03 0. -1.
     -623   -1    0    0    0    0  0.00000000000E+00  0.00000000000E+00  0.12525980253E-10  0.17130000000E+03  0.17130000000E+03 0.  1.
       11    1    1    2    0    0 -0.18470003277E-01 -0.66253831679E-01  0.20168890228E+01  0.20180615210E+01  0.51109989000E-03 0. -1.
     -623    1    1    2    0    0 -0.27624943508E-02  0.69509157535E-02  0.25777447961E-02  0.17130000018E+03  0.17130000000E+03 0.  1.
      622    1    1    2    0    0  0.21232497628E-01  0.59302915925E-01  0.19805331998E+01  0.19819382963E+01  0.40000000000E-01 0.  0.
</event>
<event>
 5   0  0.6200596E+07  0.9118800E+02  0.7818608E-02  0.1180000E+00
       11   -1    0    0    0    0  0.00000000000E+00  0.00000000000E+00  0.39999999673E+01  0.40000000000E+01  0.51109989000E-03 0.  1.
     -623   -1    0    0    0    0  0.00000000000E+00  0.00000000000E+00  0.12525980253E-10  0.17130000000E+03  0.17130000000E+03 0.  1.
       11    1    1    2    0    0 -0.25917886261E-01 -0.73427762781E-01  0.15981525242E+01  0.16000484759E+01  0.51109989000E-03 0.  1.
     -623    1    1    2    0    0  0.62473975102E-02  0.44407438330E-02  0.33020077767E-02  0.17130000020E+03  0.17130000000E+03 0.  1.
      622    1    1    2    0    0  0.19670488751E-01  0.68987018948E-01  0.23985454353E+01  0.23999513208E+01  0.40000000000E-01 0.  1.
</event>
<event>
 5   0  0.6200596E+07  0.9118800E+02  0.7818608E-02  0.1180000E+00
       11   -1    0    0    0    0  0.00000000000E+00  0.00000000000E+00  0.39999999673E+01  0.40000000000E+01  0.51109989000E-03 0.  1.
     -623   -1    0    0    0    0  0.00000000000E+00  0.00000000000E+00  0.12525980253E-10  0.17130000000E+03  0.17130000000E+03 0.  1.
       11    1    1    2    0    0  0.12220414081E-01  0.10934958775E-01  0.11242989655E+01  0.11244186662E+01  0.51109989000E-03 0.  1.
     -623    1    1    2    0    0 -0.16632603205E-02  0.44021848991E-02  0.45823809702E-03  0.17130000007E+03  0.17130000000E+03 0.  1.
      622    1    1    2    0    0 -0.10557153761E-01 -0.15337143674E-01  0.28752427637E+01  0.28755812685E+01  0.40000000000E-01 0.  1.
</event>
<event>
 5   0  0.6200596E+07  0.9118800E+02  0.7818608E-02  0.1180000E+00
       11   -1    0    0    0    0  0.00000000000E+00  0.00000000000E+00  0.39999999673E+01  0.40000000000E+01  0.51109989000E-03 0.  1.
     -623   -1    0    0    0    0  0.00000000000E+00  0.00000000000E+00  0.12525980253E-10  0.17130000000E+03  0.17130000000E+03 0.  1.
       11    1    1    2    0    0 -0.61839664535E-02 -0.79961634152E-02  0.22261430296E-01  0.24454295534E-01  0.51109989000E-03 0.  1.
     -623    1    1    2    0    0 -0.94247089934E-05 -0.24227487492E-02  0.24125799681E-02  0.17130000003E+03  0.17130000000E+03 0.  1.
      622    1    1    2    0    0  0.61933911625E-02  0.10418912164E-01  0.39753259571E+01  0.39755456703E+01  0.40000000000E-01 0.  1.
</event>
<event>
 5   0  0.6200596E+07  0.9118800E+02  0.7818608E-02  0.1180000E+00
       11   -1    0    0    0    0  0.00000000000E+00  0.00000000000E+00  0.39999999673E+01  0.40000000000E+01  0.51109989000E-03 0.  1.
     -623   -1    0    0    0    0  0.00000000000E+00  0.00000000000E+00  0.12525980253E-10  0.17130000000E+03  0.17130000000E+03 0.  1.
       11    1    1    2    0    0 -0.54287941913E-02 -0.48046512398E-02  0.10764049386E+00  0.10788555797E+00  0.51109989000E-03 0.  1.
     -623    1    1    2    0    0  0.67976692567E-05 -0.53891117798E-03  0.45802731962E-03  0.17130000000E+03  0.17130000000E+03 0.  1.
      622    1    1    2    0    0  0.54219965221E-02  0.53435624177E-02  0.38919014462E+01  0.38921144406E+01  0.40000000000E-01 0.  0.
</event>
<event>
 5   0  0.6200596E+07  0.9118800E+02  0.7818608E-02  0.1180000E+00
       11   -1    0    0    0    0  0.00000000000E+00  0.00000000000E+00  0.39999999673E+01  0.40000000000E+01  0.51109989000E-03 0.  1.
     -623   -1    0    0    0    0  0.00000000000E+00  0.00000000000E+00  0.12525980253E-10  0.17130000000E+03  0.17130000000E+03 0. -1.
       11    1    1    2    0    0 -0.34983348499E-02 -0.96610151391E-02  0.22583162908E+00  0.22606582996E+00  0.51109989000E-03 0.  1.
     -623    1    1    2    0    0 -0.23338884313E-02  0.26070756899E-02  0.45729044475E-03  0.17130000004E+03  0.17130000000E+03 0. -1.
      622    1    1    2    0    0  0.58322232812E-02  0.70539394492E-02  0.37737110478E+01  0.37739341337E+01  0.40000000000E-01 0.  1.
</event>
<event>
 5   0  0.6200596E+07  0.9118800E+02  0.7818608E-02  0.1180000E+00
       11   -1    0    0    0    0  0.00000000000E+00  0.00000000000E+00  0.39999999673E+01  0.40000000000E+01  0.51109989000E-03 0.  1.
     -623   -1    0    0    0    0  0.00000000000E+00  0.00000000000E+00  0.12525980253E-10  0.17130000000E+03  0.17130000000E+03 0.  1.
       11    1    1    2    0    0  0.15208973831E-01 -0.20669195939E-02  0.24258021309E+00  0.24306584714E+00  0.51109989000E-03 0.  1.
     -623    1    1    2    0    0 -0.46889722062E-02 -0.58840391388E-02  0.72185747420E-03  0.17130000017E+03  0.17130000000E+03 0.  1.
      622    1    1    2    0    0 -0.10520001624E-01  0.79509587327E-02  0.37566978968E+01  0.37569339861E+01  0.40000000000E-01 0.  1.
</event>
<event>
 5   0  0.6200596E+07  0.9118800E+02  0.7818608E-02  0.1180000E+00
       11   -1    0    0    0    0  0.00000000000E+00  0.00000000000E+00  0.39999999673E+01  0.40000000000E+01  0.51109989000E-03 0.  1.
     -623   -1    0    0    0    0  0.00000000000E+00  0.00000000000E+00  0.12525980253E-10  0.17130000000E+03  0.17130000000E+03 0.  1.
       11    1    1    2    0    0  0.21613066695E-01 -0.75287258193E-02  0.49472202459E+00  0.49525140000E+00  0.51109989000E-03 0.  1.
     -623    1    1    2    0    0 -0.63913771574E-02 -0.16967488676E-01  0.87724606508E-03  0.17130000096E+03  0.17130000000E+03 0.  1.
      622    1    1    2    0    0 -0.15221689537E-01  0.24496214495E-01  0.35044006967E+01  0.35047476382E+01  0.40000000000E-01 0.  1.
</event>
<event>
 5   0  0.6200596E+07  0.9118800E+02  0.7818608E-02  0.1180000E+00
       11   -1    0    0    0    0  0.00000000000E+00  0.00000000000E+00  0.39999999673E+01  0.40000000000E+01  0.51109989000E-03 0. -1.
     -623   -1    0    0    0    0  0.00000000000E+00  0.00000000000E+00  0.12525980253E-10  0.17130000000E+03  0.17130000000E+03 0.  1.
       11    1    1    2    0    0  0.27927286726E-04  0.32749303714E-03  0.49909879696E-01  0.49913578765E-01  0.51109989000E-03 0. -1.
     -623    1    1    2    0    0 -0.45807200619E-03 -0.60061436431E-03  0.20623348933E-03  0.17130000000E+03  0.17130000000E+03 0.  1.
      622    1    1    2    0    0  0.43014471946E-03  0.27312132717E-03  0.39498838542E+01  0.39500864194E+01  0.40000000000E-01 0. -1.
</event>
<event>
 5   0  0.6200596E+07  0.9118800E+02  0.7818608E-02  0.1180000E+00
       11   -1    0    0    0    0  0.00000000000E+00  0.00000000000E+00  0.39999999673E+01  0.40000000000E+01  0.51109989000E-03 0. -1.
     -623   -1    0    0    0    0  0.00000000000E+00  0.00000000000E+00  0.12525980253E-10  0.17130000000E+03  0.17130000000E+03 0.  1.
       11    1    1    2    0    0 -0.16050729388E-02 -0.58448294176E-02  0.70466797620E-01  0.70728841917E-01  0.51109989000E-03 0. -1.
     -623    1    1    2    0    0 -0.11128548884E-02  0.81474943671E-02  0.46742986422E-03  0.17130000020E+03  0.17130000000E+03 0.  1.
      622    1    1    2    0    0  0.27179278272E-02 -0.23026649495E-02  0.39290657399E+01  0.39292709601E+01  0.40000000000E-01 0. -1.
</event>
<event>
 5   0  0.6200596E+07  0.9118800E+02  0.7818608E-02  0.1180000E+00
       11   -1    0    0    0    0  0.00000000000E+00  0.00000000000E+00  0.39999999673E+01  0.40000000000E+01  0.51109989000E-03 0. -1.
     -623   -1    0    0    0    0  0.00000000000E+00  0.00000000000E+00  0.12525980253E-10  0.17130000000E+03  0.17130000000E+03 0. -1.
       11    1    1    2    0    0  0.21272943171E-02  0.75956931860E-02  0.40319605163E+00  0.40327352655E+00  0.51109989000E-03 0. -1.
     -623    1    1    2    0    0 -0.10998002380E-02 -0.30198042432E-03  0.30742030580E-03  0.17130000000E+03  0.17130000000E+03 0. -1.
      622    1    1    2    0    0 -0.10274940791E-02 -0.72937127616E-02  0.35964964954E+01  0.35967264694E+01  0.40000000000E-01 0. -1.
</event>
<event>
 5   0  0.6200596E+07  0.9118800E+02  0.7818608E-02  0.1180000E+00
       11   -1    0    0    0    0  0.00000000000E+00  0.00000000000E+00  0.39999999673E+01  0.40000000000E+01  0.51109989000E-03 0.  1.
     -623   -1    0    0    0    0  0.00000000000E+00  0.00000000000E+00  0.12525980253E-10  0.17130000000E+03  0.17130000000E+03 0.  1.
       11    1    1    2    0    0 -0.59163884195E-02  0.26621732952E-02  0.18787811834E+00  0.18799079603E+00  0.51109989000E-03 0.  1.
     -623    1    1    2    0    0 -0.39976161581E-03 -0.11777339980E-02  0.32804071652E-03  0.17130000000E+03  0.17130000000E+03 0.  1.
      622    1    1    2    0    0  0.63161500353E-02 -0.14844392972E-02  0.38117938083E+01  0.38120091991E+01  0.40000000000E-01 0.  1.
</event>
<event>
 5   0  0.6200596E+07  0.9118800E+02  0.7818608E-02  0.1180000E+00
       11   -1    0    0    0    0  0.00000000000E+00  0.00000000000E+00  0.39999999673E+01  0.40000000000E+01  0.51109989000E-03 0. -1.
     -623   -1    0    0    0    0  0.00000000000E+00  0.00000000000E+00  0.12525980253E-10  0.17130000000E+03  0.17130000000E+03 0. -1.
       11    1    1    2    0    0  0.21091824775E-02 -0.11421868991E-02  0.18664801934E-01  0.18825230290E-01  0.51109989000E-03 0. -1.
     -623    1    1    2    0    0 -0.19671750158E-02 -0.39550045374E-03  0.36165813939E-03  0.17130000001E+03  0.17130000000E+03 0. -1.
      622    1    1    2    0    0 -0.14200746172E-03  0.15376873528E-02  0.39809735073E+01  0.39811747576E+01  0.40000000000E-01 0. -1.
</event>
<event>
 5   0  0.6200596E+07  0.9118800E+02  0.7818608E-02  0.1180000E+00
       11   -1    0    0    0    0  0.00000000000E+00  0.00000000000E+00  0.39999999673E+01  0.40000000000E+01  0.51109989000E-03 0.  1.
     -623   -1    0    0    0    0  0.00000000000E+00  0.00000000000E+00  0.12525980253E-10  0.17130000000E+03  0.17130000000E+03 0.  1.
       11    1    1    2    0    0 -0.30550675162E-01 -0.37250831402E-01  0.16740636360E+00  0.17420137769E+00  0.51109989000E-03 0.  1.
     -623    1    1    2    0    0  0.10789005953E-01  0.65892035778E-01  0.71755170160E-02  0.17130001316E+03  0.17130000000E+03 0.  1.
      622    1    1    2    0    0  0.19761669208E-01 -0.28641204376E-01  0.38254180867E+01  0.38257854593E+01  0.40000000000E-01 0.  1.
</event>
<event>
 5   0  0.6200596E+07  0.9118800E+02  0.7818608E-02  0.1180000E+00
       11   -1    0    0    0    0  0.00000000000E+00  0.00000000000E+00  0.39999999673E+01  0.40000000000E+01  0.51109989000E-03 0. -1.
     -623   -1    0    0    0    0  0.00000000000E+00  0.00000000000E+00  0.12525980253E-10  0.17130000000E+03  0.17130000000E+03 0.  1.
       11    1    1    2    0    0  0.13347517262E-02  0.14362944886E-02  0.71704222045E-02  0.74512200819E-02  0.51109989000E-03 0. -1.
     -623    1    1    2    0    0 -0.11790827066E-02 -0.55338755034E-04  0.48139013703E-03  0.17130000000E+03  0.17130000000E+03 0.  1.
      622    1    1    2    0    0 -0.15566901958E-03 -0.13809557336E-02  0.39923481550E+01  0.39925487752E+01  0.40000000000E-01 0. -1.
</event>
<event>
 5   0  0.6200596E+07  0.9118800E+02  0.7818608E-02  0.1180000E+00
       11   -1    0    0    0    0  0.00000000000E+00  0.00000000000E+00  0.39999999673E+01  0.40000000000E+01  0.51109989000E-03 0.  1.
     -623   -1    0    0    0    0  0.00000000000E+00  0.00000000000E+00  0.12525980253E-10  0.17130000000E+03  0.17130000000E+03 0. -1.
       11    1    1    2    0    0 -0.80855178269E-03  0.15982597405E-02  0.15881003957E-02  0.24477488306E-02  0.51109989000E-03 0.  1.
     -623    1    1    2    0    0  0.45476612352E-02 -0.30792356946E-02  0.10618577219E-02  0.17130000009E+03  0.17130000000E+03 0. -1.
      622    1    1    2    0    0 -0.37391094526E-02  0.14809759542E-02  0.39973500092E+01  0.39975521598E+01  0.40000000000E-01 0.  1.
</event>
<event>
 5   0  0.6200596E+07  0.9118800E+02  0.7818608E-02  0.1180000E+00
       11   -1    0    0    0    0  0.00000000000E+00  0.00000000000E+00  0.39999999673E+01  0.40000000000E+01  0.51109989000E-03 0. -1.
     -623   -1    0    0    0    0  0.00000000000E+00  0.00000000000E+00  0.12525980253E-10  0.17130000000E+03  0.17130000000E+03 0. -1.
       11    1    1    2    0    0 -0.12322041073E-02  0.12601867059E-01  0.16990595119E+01  0.16991067687E+01  0.51109989000E-03 0. -1.
     -623    1    1    2    0    0 -0.18120453953E-03 -0.13379380125E-02  0.42295695082E-03  0.17130000001E+03  0.17130000000E+03 0. -1.
      622    1    1    2    0    0  0.14134086468E-02 -0.11263929047E-01  0.23005174985E+01  0.23008932254E+01  0.40000000000E-01 0.  0.
</event>
<event>
 5   0  0.6200596E+07  0.9118800E+02  0.7818608E-02  0.1180000E+00
       11   -1    0    0    0    0  0.00000000000E+00  0.00000000000E+00  0.39999999673E+01  0.40000000000E+01  0.51109989000E-03 0.  1.
     -623   -1    0    0    0    0  0.00000000000E+00  0.00000000000E+00  0.12525980253E-10  0.17130000000E+03  0.17130000000E+03 0. -1.
       11    1    1    2    0    0  0.16144416876E-01  0.13811060098E-01  0.13379675440E+01  0.13381363150E+01  0.51109989000E-03 0.  1.
     -623    1    1    2    0    0 -0.79590587554E-02 -0.20267939380E-01  0.49110026147E-03  0.17130000138E+03  0.17130000000E+03 0. -1.
      622    1    1    2    0    0 -0.81853581206E-02  0.64568792816E-02  0.26615413231E+01  0.26618623004E+01  0.40000000000E-01 0.  1.
</event>
<event>
 5   0  0.6200596E+07  0.9118800E+02  0.7818608E-02  0.1180000E+00
       11   -1    0    0    0    0  0.00000000000E+00  0.00000000000E+00  0.39999999673E+01  0.40000000000E+01  0.51109989000E-03 0. -1.
     -623   -1    0    0    0    0  0.00000000000E+00  0.00000000000E+00  0.12525980253E-10  0.17130000000E+03  0.17130000000E+03 0. -1.
       11    1    1    2    0    0 -0.11853413366E-02 -0.36353682194E-03  0.25054127641E-01  0.25089992540E-01  0.51109989000E-03 0. -1.
     -623    1    1    2    0    0  0.58370952294E-03 -0.12188806719E-02  0.23746579853E-03  0.17130000001E+03  0.17130000000E+03 0. -1.
      622    1    1    2    0    0  0.60163181369E-03  0.15824174939E-02  0.39747083739E+01  0.39749100020E+01  0.40000000000E-01 0. -1.
</event>
<event>
 5   0  0.6200596E+07  0.9118800E+02  0.7818608E-02  0.1180000E+00
       11   -1    0    0    0    0  0.00000000000E+00  0.00000000000E+00  0.39999999673E+01  0.40000000000E+01  0.51109989000E-03 0.  1.
     -623   -1    0    0    0    0  0.00000000000E+00  0.00000000000E+00  0.12525980253E-10  0.17130000000E+03  0.17130000000E+03 0.  1.
       11    1    1    2    0    0 -0.18166523254E-02  0.10515284464E-03  0.67983828321E-02  0.70562392468E-02  0.51109989000E-03 0.  1.
     -623    1    1    2    0    0 -0.21418929770E-03 -0.67755505172E-03  0.45874183189E-03  0.17130000000E+03  0.17130000000E+03 0.  1.
      622    1    1    2    0    0  0.20308416231E-02  0.57240220708E-03  0.39927428427E+01  0.39929437587E+01  0.40000000000E-01 0.  1.
</event>
<event>
 5   0  0.6200596E+07  0.9118800E+02  0.7818608E-02  0.1180000E+00
       11   -1    0    0    0    0  0.00000000000E+00  0.00000000000E+00  0.39999999673E+01  0.40000000000E+01  0.51109989000E-03 0.  1.
     -623   -1    0    0    0    0  0.00000000000E+00  0.00000000000E+00  0.12525980253E-10  0.17130000000E+03  0.17130000000E+03 0. -1.
       11    1    1    2    0    0 -0.31158781510E-02 -0.33591470939E-02  0.16614900110E+00  0.16621294881E+00  0.51109989000E-03 0.  1.
     -623    1    1    2    0    0  0.30495921121E-02 -0.27493467229E-02  0.27750841454E-03  0.17130000005E+03  0.17130000000E+03 0. -1.
      622    1    1    2    0    0  0.66286038959E-04  0.61084938168E-02  0.38335734578E+01  0.38337870018E+01  0.40000000000E-01 0.  1.
</event>
<event>
 5   0  0.6200596E+07  0.9118800E+02  0.7818608E-02  0.1180000E+00
       11   -1    0    0    0    0  0.00000000000E+00  0.00000000000E+00  0.39999999673E+01  0.40000000000E+01  0.51109989000E-03 0.  1.
     -623   -1    0    0    0    0  0.00000000000E+00  0.00000000000E+00  0.12525980253E-10  0.17130000000E+03  0.17130000000E+03 0. -1.
       11    1    1    2    0    0 -0.62481624397E-02 -0.46258012163E-02  0.21595246743E+01  0.21595387280E+01  0.51109989000E-03 0.  1.
     -623    1    1    2    0    0 -0.92679085146E-03  0.16946839481E-02  0.46508114715E-03  0.17130000001E+03  0.17130000000E+03 0. -1.
      622    1    1    2    0    0  0.71749532912E-02  0.29311172682E-02  0.18400102119E+01  0.18404612605E+01  0.40000000000E-01 0. -1.
</event>
<event>
 5   0  0.6200596E+07  0.9118800E+02  0.7818608E-02  0.1180000E+00
       11   -1    0    0    0    0  0.00000000000E+00  0.00000000000E+00  0.39999999673E+01  0.40000000000E+01  0.51109989000E-03 0.  1.
     -623   -1    0    0    0    0  0.00000000000E+00  0.00000000000E+00  0.12525980253E-10  0.17130000000E+03  0.17130000000E+03 0.  1.
       11    1    1    2    0    0 -0.15814774541E-01  0.13998561811E-03  0.24718744264E+01  0.24719250732E+01  0.51109989000E-03 0.  1.
     -623    1    1    2    0    0 -0.88196773282E-02 -0.80634298996E-02  0.79385955106E-03  0.17130000042E+03  0.17130000000E+03 0.  1.
      622    1    1    2    0    0  0.24634451869E-01  0.79234442815E-02  0.15273316814E+01  0.15280745081E+01  0.40000000000E-01 0. -1.
</event>
<event>
 5   0  0.6200596E+07  0.9118800E+02  0.7818608E-02  0.1180000E+00
       11   -1    0    0    0    0  0.00000000000E+00  0.00000000000E+00  0.39999999673E+01  0.40000000000E+01  0.51109989000E-03 0. -1.
     -623   -1    0    0    0    0  0.00000000000E+00  0.00000000000E+00  0.12525980253E-10  0.17130000000E+03  0.17130000000E+03 0.  1.
       11    1    1    2    0    0  0.39571287399E-02 -0.86161735457E-03  0.66724685141E+00  0.66725933728E+00  0.51109989000E-03 0. -1.
     -623    1    1    2    0    0 -0.17805201345E-03 -0.63772023549E-03  0.25498606298E-03  0.17130000000E+03  0.17130000000E+03 0.  1.
      622    1    1    2    0    0 -0.37790767264E-02  0.14993375901E-02  0.33324981299E+01  0.33327406612E+01  0.40000000000E-01 0. -1.
</event>
<event>
 5   0  0.6200596E+07  0.9118800E+02  0.7818608E-02  0.1180000E+00
       11   -1    0    0    0    0  0.00000000000E+00  0.00000000000E+00  0.39999999673E+01  0.40000000000E+01  0.51109989000E-03 0. -1.
     -623   -1    0    0    0    0  0.00000000000E+00  0.00000000000E+00  0.12525980253E-10  0.17130000000E+03  0.17130000000E+03 0. -1.
       11    1    1    2    0    0  0.54269587639E-02  0.31600968444E-01  0.23504303703E+01  0.23506491145E+01  0.51109989000E-03 0. -1.
     -623    1    1    2    0    0 -0.17877926575E-01 -0.10038122273E-01  0.89306573540E-03  0.17130000123E+03  0.17130000000E+03 0. -1.
      622    1    1    2    0    0  0.12450967811E-01 -0.21562846171E-01  0.16486765314E+01  0.16493496561E+01  0.40000000000E-01 0. -1.
</event>
<event>
 5   0  0.6200596E+07  0.9118800E+02  0.7818608E-02  0.1180000E+00
       11   -1    0    0    0    0  0.00000000000E+00  0.00000000000E+00  0.39999999673E+01  0.40000000000E+01  0.51109989000E-03 0.  1.
     -623   -1    0    0    0    0  0.00000000000E+00  0.00000000000E+00  0.12525980253E-10  0.17130000000E+03  0.17130000000E+03 0. -1.
       11    1    1    2    0    0  0.23037364956E-03 -0.87042854801E-03  0.66412802962E-02  0.67214985528E-02  0.51109989000E-03 0.  1.
     -623    1    1    2    0    0  0.16133030171E-02  0.12225627553E-02  0.28098062945E-03  0.17130000001E+03  0.17130000000E+03 0. -1.
      622    1    1    2    0    0 -0.18436766667E-02 -0.35213420734E-03  0.39930777064E+01  0.39932784893E+01  0.40000000000E-01 0.  1.
</event>
<event>
 5   0  0.6200596E+07  0.9118800E+02  0.7818608E-02  0.1180000E+00
       11   -1    0    0    0    0  0.00000000000E+00  0.00000000000E+00  0.39999999673E+01  0.40000000000E+01  0.51109989000E-03 0.  1.
     -623   -1    0    0    0    0  0.00000000000E+00  0.00000000000E+00  0.12525980253E-10  0.17130000000E+03  0.17130000000E+03 0. -1.
       11    1    1    2    0    0 -0.76785103968E-02  0.19620766578E-01  0.56989416410E+00  0.57028374824E+00  0.51109989000E-03 0.  1.
     -623    1    1    2    0    0 -0.14752738702E-01 -0.31267934457E-01  0.71944308490E-03  0.17130000349E+03  0.17130000000E+03 0. -1.
      622    1    1    2    0    0  0.22431249098E-01  0.11647167879E-01  0.34293863602E+01  0.34297127613E+01  0.40000000000E-01 0.  1.
</event>
<event>
 5   0  0.6200596E+07  0.9118800E+02  0.7818608E-02  0.1180000E+00
       11   -1    0    0    0    0  0.00000000000E+00  0.00000000000E+00  0.39999999673E+01  0.40000000000E+01  0.51109989000E-03 0. -1.
     -623   -1    0    0    0    0  0.00000000000E+00  0.00000000000E+00  0.12525980253E-10  0.17130000000E+03  0.17130000000E+03 0. -1.
       11    1    1    2    0    0  0.28683182295E-02 -0.49328941179E-02  0.74568992205E-02  0.94035770449E-02  0.51109989000E-03 0. -1.
     -623    1    1    2    0    0 -0.60219729401E-02  0.31123828198E-02  0.21489305821E-02  0.17130000015E+03  0.17130000000E+03 0. -1.
      622    1    1    2    0    0  0.31536547106E-02  0.18205112981E-02  0.39903941376E+01  0.39905962754E+01  0.40000000000E-01 0. -1.
</event>
<event>
 5   0  0.6200596E+07  0.9118800E+02  0.7818608E-02  0.1180000E+00
       11   -1    0    0    0    0  0.00000000000E+00  0.00000000000E+00  0.39999999673E+01  0.40000000000E+01  0.51109989000E-03 0.  1.
     -623   -1    0    0    0    0  0.00000000000E+00  0.00000000000E+00  0.12525980253E-10  0.17130000000E+03  0.17130000000E+03 0.  1.
       11    1    1    2    0    0  0.76255466394E-02 -0.12209789170E-01  0.23318574891E+00  0.23363022628E+00  0.51109989000E-03 0.  1.
     -623    1    1    2    0    0 -0.94981576630E-02  0.81493568844E-03  0.67482712618E-03  0.17130000027E+03  0.17130000000E+03 0.  1.
      622    1    1    2    0    0  0.18726110236E-02  0.11394853482E-01  0.37661393913E+01  0.37663695071E+01  0.40000000000E-01 0.  1.
</event>
<event>
 5   0  0.6200596E+07  0.9118800E+02  0.7818608E-02  0.1180000E+00
       11   -1    0    0    0    0  0.00000000000E+00  0.00000000000E+00  0.39999999673E+01  0.40000000000E+01  0.51109989000E-03 0.  1.
     -623   -1    0    0    0    0  0.00000000000E+00  0.00000000000E+00  0.12525980253E-10  0.17130000000E+03  0.17130000000E+03 0. -1.
       11    1    1    2    0    0  0.10863160657E-03  0.30029481737E-02  0.26247475202E+00  0.26249244974E+00  0.51109989000E-03 0.  1.
     -623    1    1    2    0    0  0.37826017155E-04  0.28287399037E-03  0.23316530450E-03  0.17130000000E+03  0.17130000000E+03 0. -1.
      622    1    1    2    0    0 -0.14645762373E-03 -0.32858221640E-02  0.37372920500E+01  0.37375075499E+01  0.40000000000E-01 0.  1.
</event>
<event>
 5   0  0.6200596E+07  0.9118800E+02  0.7818608E-02  0.1180000E+00
       11   -1    0    0    0    0  0.00000000000E+00  0.00000000000E+00  0.39999999673E+01  0.40000000000E+01  0.51109989000E-03 0. -1.
     -623   -1    0    0    0    0  0.00000000000E+00  0.00000000000E+00  0.12525980253E-10  0.17130000000E+03  0.17130000000E+03 0. -1.
       11    1    1    2    0    0  0.49980774571E-03 -0.33248561441E-01  0.92039160675E+00  0.92099222996E+00  0.51109989000E-03 0. -1.
     -623    1    1    2    0    0  0.10962117759E-02 -0.30434832947E-03  0.10436852945E-02  0.17130000001E+03  0.17130000000E+03 0. -1.
      622    1    1    2    0    0 -0.15960195216E-02  0.33552909770E-01  0.30785646753E+01  0.30790077631E+01  0.40000000000E-01 0. -1.
</event>
<event>
 5   0  0.6200596E+07  0.9118800E+02  0.7818608E-02  0.1180000E+00
       11   -1    0    0    0    0  0.00000000000E+00  0.00000000000E+00  0.39999999673E+01  0.40000000000E+01  0.51109989000E-03 0. -1.
     -623   -1    0    0    0    0  0.00000000000E+00  0.00000000000E+00  0.12525980253E-10  0.17130000000E+03  0.17130000000E+03 0.  1.
       11    1    1    2    0    0  0.33166106681E-03  0.43891217516E-04  0.31981618848E-03  0.68951378738E-03  0.51109989000E-03 0. -1.
     -623    1    1    2    0    0 -0.64253716282E-03 -0.14159068903E-02  0.56995988748E-03  0.17130000001E+03  0.17130000000E+03 0.  1.
      622    1    1    2    0    0  0.31087609601E-03  0.13720156727E-02  0.39991101913E+01  0.39993104782E+01  0.40000000000E-01 0. -1.
</event>
<event>
 5   0  0.6200596E+07  0.9118800E+02  0.7818608E-02  0.1180000E+00
       11   -1    0    0    0    0  0.00000000000E+00  0.00000000000E+00  0.39999999673E+01  0.40000000000E+01  0.51109989000E-03 0.  1.
     -623   -1    0    0    0    0  0.00000000000E+00  0.00000000000E+00  0.12525980253E-10  0.17130000000E+03  0.17130000000E+03 0.  1.
       11    1    1    2    0    0 -0.54562727764E-02 -0.12122273636E-01  0.12675990312E+00  0.12745608926E+00  0.51109989000E-03 0.  1.
     -623    1    1    2    0    0 -0.74014057695E-02  0.43963367534E-02  0.93201404786E-03  0.17130000022E+03  0.17130000000E+03 0.  1.
      622    1    1    2    0    0  0.12857678546E-01  0.77259368824E-02  0.38723080502E+01  0.38725436919E+01  0.40000000000E-01 0.  1.
</event>
<event>
 5   0  0.6200596E+07  0.9118800E+02  0.7818608E-02  0.1180000E+00
       11   -1    0    0    0    0  0.00000000000E+00  0.00000000000E+00  0.39999999673E+01  0.40000000000E+01  0.51109989000E-03 0. -1.
     -623   -1    0    0    0    0  0.00000000000E+00  0.00000000000E+00  0.12525980253E-10  0.17130000000E+03  0.17130000000E+03 0.  1.
       11    1    1    2    0    0 -0.16562625814E-01  0.36717079357E-01  0.50686408044E-01  0.64744402636E-01  0.51109989000E-03 0. -1.
     -623    1    1    2    0    0  0.16513231318E-01 -0.14539391672E-01  0.14325766589E-01  0.17130000201E+03  0.17130000000E+03 0.  1.
      622    1    1    2    0    0  0.49394495930E-04 -0.22177687685E-01  0.39349877927E+01  0.39352535854E+01  0.40000000000E-01 0. -1.
</event>
<event>
 5   0  0.6200596E+07  0.9118800E+02  0.7818608E-02  0.1180000E+00
       11   -1    0    0    0    0  0.00000000000E+00  0.00000000000E+00  0.39999999673E+01  0.40000000000E+01  0.51109989000E-03 0. -1.
     -623   -1    0    0    0    0  0.00000000000E+00  0.00000000000E+00  0.12525980253E-10  0.17130000000E+03  0.17130000000E+03 0.  1.
       11    1    1    2    0    0  0.52945080949E-04 -0.45622692895E-02  0.43586391357E-01  0.43827523751E-01  0.51109989000E-03 0. -1.
     -623    1    1    2    0    0 -0.74075558941E-02  0.17691477621E-02  0.45131307060E-03  0.17130000017E+03  0.17130000000E+03 0.  1.
      622    1    1    2    0    0  0.73546108132E-02  0.27931215275E-02  0.39559622629E+01  0.39561723064E+01  0.40000000000E-01 0. -1.
</event>
<event>
 5   0  0.6200596E+07  0.9118800E+02  0.7818608E-02  0.1180000E+00
       11   -1    0    0    0    0  0.00000000000E+00  0.00000000000E+00  0.39999999673E+01  0.40000000000E+01  0.51109989000E-03 0.  1.
     -623   -1    0    0    0    0  0.00000000000E+00  0.00000000000E+00  0.12525980253E-10  0.17130000000E+03  0.17130000000E+03 0.  1.
       11    1    1    2    0    0 -0.42310737495E-02  0.26723989880E-02  0.40617846881E-01  0.40928161533E-01  0.51109989000E-03 0.  1.
     -623    1    1    2    0    0  0.52511462443E-02 -0.68595231046E-02  0.51491903449E-03  0.17130000022E+03  0.17130000000E+03 0.  1.
      622    1    1    2    0    0 -0.10200724949E-02  0.41871241166E-02  0.39588672014E+01  0.39590716199E+01  0.40000000000E-01 0.  1.
</event>
<event>
 5   0  0.6200596E+07  0.9118800E+02  0.7818608E-02  0.1180000E+00
       11   -1    0    0    0    0  0.00000000000E+00  0.00000000000E+00  0.39999999673E+01  0.40000000000E+01  0.51109989000E-03 0. -1.
     -623   -1    0    0    0    0  0.00000000000E+00  0.00000000000E+00  0.12525980253E-10  0.17130000000E+03  0.17130000000E+03 0.  1.
       11    1    1    2    0    0  0.43217539365E-02  0.81935019684E-03  0.30941496371E-01  0.31256780247E-01  0.51109989000E-03 0. -1.
     -623    1    1    2    0    0  0.49211623513E-03  0.94187547514E-03  0.52014603348E-03  0.17130000000E+03  0.17130000000E+03 0.  1.
      622    1    1    2    0    0 -0.48138701716E-02 -0.17612256720E-02  0.39685383250E+01  0.39687432157E+01  0.40000000000E-01 0. -1.
</event>
<event>
 5   0  0.6200596E+07  0.9118800E+02  0.7818608E-02  0.1180000E+00
       11   -1    0    0    0    0  0.00000000000E+00  0.00000000000E+00  0.39999999673E+01  0.40000000000E+01  0.51109989000E-03 0.  1.
     -623   -1    0    0    0    0  0.00000000000E+00  0.00000000000E+00  0.12525980253E-10  0.17130000000E+03  0.17130000000E+03 0.  1.
       11    1    1    2    0    0 -0.15183914872E-02  0.11705021497E-02  0.16410470372E-01  0.16529983273E-01  0.51109989000E-03 0.  1.
     -623    1    1    2    0    0  0.12820210609E-02  0.15131778198E-02  0.32123809635E-03  0.17130000001E+03  0.17130000000E+03 0.  1.
      622    1    1    2    0    0  0.23637042635E-03 -0.26836799695E-02  0.39832682589E+01  0.39834700049E+01  0.40000000000E-01 0.  1.
</event>
<event>
 5   0  0.6200596E+07  0.9118800E+02  0.7818608E-02  0.1180000E+00
       11   -1    0    0    0    0  0.00000000000E+00  0.00000000000E+00  0.39999999673E+01  0.40000000000E+01  0.51109989000E-03 0. -1.
     -623   -1    0    0    0    0  0.00000000000E+00  0.00000000000E+00  0.12525980253E-10  0.17130000000E+03  0.17130000000E+03 0. -1.
       11    1    1    2    0    0 -0.12530964462E-02  0.75377959570E-03  0.37142338502E-01  0.37174627957E-01  0.51109989000E-03 0. -1.
     -623    1    1    2    0    0  0.65847492663E-03 -0.32108830926E-03  0.23420808925E-03  0.17130000000E+03  0.17130000000E+03 0. -1.
      622    1    1    2    0    0  0.59462151958E-03 -0.43269128644E-03  0.39626234208E+01  0.39628253703E+01  0.40000000000E-01 0. -1.
</event>
<event>
 5   0  0.6200596E+07  0.9118800E+02  0.7818608E-02  0.1180000E+00
       11   -1    0    0    0    0  0.00000000000E+00  0.00000000000E+00  0.39999999673E+01  0.40000000000E+01  0.51109989000E-03 0.  1.
     -623   -1    0    0    0    0  0.00000000000E+00  0.00000000000E+00  0.12525980253E-10  0.17130000000E+03  0.17130000000E+03 0. -1.
       11    1    1    2    0    0 -0.63258868232E-02  0.45470463982E-02  0.69456533515E+00  0.69460921279E+00  0.51109989000E-03 0.  1.
     -623    1    1    2    0    0 -0.34429129486E-02 -0.12966569039E-02  0.30195729597E-03  0.17130000004E+03  0.17130000000E+03 0. -1.
      622    1    1    2    0    0  0.97687997718E-02 -0.32503894943E-02  0.33051326749E+01  0.33053907474E+01  0.40000000000E-01 0.  1.
</event>
<event>
 5   0  0.6200596E+07  0.9118800E+02  0.7818608E-02  0.1180000E+00
       11   -1    0    0    0    0  0.00000000000E+00  0.00000000000E+00  0.39999999673E+01  0.40000000000E+01  0.51109989000E-03 0. -1.
     -623   -1    0    0    0    0  0.00000000000E+00  0.00000000000E+00  0.12525980253E-10  0.17130000000E+03  0.17130000000E+03 0.  1.
       11    1    1    2    0    0 -0.74723508619E-03 -0.11103909722E-02  0.73181189188E-02  0.74570379457E-02  0.51109989000E-03 0. -1.
     -623    1    1    2    0    0  0.23063058409E-02  0.84666394104E-03  0.33959604986E-03  0.17130000002E+03  0.17130000000E+03 0.  1.
      622    1    1    2    0    0 -0.15590707547E-02  0.26372703117E-03  0.39923422524E+01  0.39925429441E+01  0.40000000000E-01 0. -1.
</event>
<event>
 5   0  0.6200596E+07  0.9118800E+02  0.7818608E-02  0.1180000E+00
       11   -1    0    0    0    0  0.00000000000E+00  0.00000000000E+00  0.39999999673E+01  0.40000000000E+01  0.51109989000E-03 0.  1.
     -623   -1    0    0    0    0  0.00000000000E+00  0.00000000000E+00  0.12525980253E-10  0.17130000000E+03  0.17130000000E+03 0. -1.
       11    1    1    2    0    0 -0.15785073879E-01  0.22950971329E-01  0.11662169145E+01  0.11665496425E+01  0.51109989000E-03 0.  1.
     -623    1    1    2    0    0  0.18150751433E-01  0.13506200440E-01  0.85210989479E-03  0.17130000150E+03  0.17130000000E+03 0. -1.
      622    1    1    2    0    0 -0.23656775547E-02 -0.36457171769E-01  0.28329309430E+01  0.28334488613E+01  0.40000000000E-01 0.  0.
</event>
<event>
 5   0  0.6200596E+07  0.9118800E+02  0.7818608E-02  0.1180000E+00
       11   -1    0    0    0    0  0.00000000000E+00  0.00000000000E+00  0.39999999673E+01  0.40000000000E+01  0.51109989000E-03 0. -1.
     -623   -1    0    0    0    0  0.00000000000E+00  0.00000000000E+00  0.12525980253E-10  0.17130000000E+03  0.17130000000E+03 0.  1.
       11    1    1    2    0    0 -0.47936218112E-02  0.34767713871E-02  0.35535450568E+00  0.35540421027E+00  0.51109989000E-03 0. -1.
     -623    1    1    2    0    0 -0.33632457348E-03 -0.10366972196E-03  0.27435377785E-03  0.17130000000E+03  0.17130000000E+03 0.  1.
      622    1    1    2    0    0  0.51299463847E-02 -0.33731016651E-02  0.36443711079E+01  0.36445957891E+01  0.40000000000E-01 0. -1.
</event>
<event>
 5   0  0.6200596E+07  0.9118800E+02  0.7818608E-02  0.1180000E+00
       11   -1    0    0    0    0  0.00000000000E+00  0.00000000000E+00  0.39999999673E+01  0.40000000000E+01  0.51109989000E-03 0. -1.
     -623   -1    0    0    0    0  0.00000000000E+00  0.00000000000E+00  0.12525980253E-10  0.17130000000E+03  0.17130000000E+03 0.  1.
       11    1    1    2    0    0 -0.34361725844E-01  0.17707067592E-01  0.71307471829E+00  0.71412189683E+00  0.51109989000E-03 0. -1.
     -623    1    1    2    0    0 -0.14389250308E-03 -0.27449173218E-02  0.15059125423E-02  0.17130000003E+03  0.17130000000E+03 0.  1.
      622    1    1    2    0    0  0.34505618347E-01 -0.14962150271E-01  0.32854193365E+01  0.32858780745E+01  0.40000000000E-01 0. -1.
</event>
<event>
 5   0  0.6200596E+07  0.9118800E+02  0.7818608E-02  0.1180000E+00
       11   -1    0    0    0    0  0.00000000000E+00  0.00000000000E+00  0.39999999673E+01  0.40000000000E+01  0.51109989000E-03 0.  1.
     -623   -1    0    0    0    0  0.00000000000E+00  0.00000000000E+00  0.12525980253E-10  0.17130000000E+03  0.17130000000E+03 0. -1.
       11    1    1    2    0    0  0.60229136726E-02 -0.13432999733E-01  0.22066932437E+01  0.22067424077E+01  0.51109989000E-03 0.  1.
     -623    1    1    2    0    0  0.38353786622E-02  0.15925312495E-02  0.56155888012E-03  0.17130000005E+03  0.17130000000E+03 0. -1.
      622    1    1    2    0    0 -0.98582923348E-02  0.11840468484E-01  0.17927451648E+01  0.17932575410E+01  0.40000000000E-01 0. -1.
</event>
<event>
 5   0  0.6200596E+07  0.9118800E+02  0.7818608E-02  0.1180000E+00
       11   -1    0    0    0    0  0.00000000000E+00  0.00000000000E+00  0.39999999673E+01  0.40000000000E+01  0.51109989000E-03 0. -1.
     -623   -1    0    0    0    0  0.00000000000E+00  0.00000000000E+00  0.12525980253E-10  0.17130000000E+03  0.17130000000E+03 0.  1.
       11    1    1    2    0    0 -0.36628049097E-03 -0.99212398887E-04  0.18753664843E-01  0.18764465663E-01  0.51109989000E-03 0. -1.
     -623    1    1    2    0    0  0.67292386101E-03  0.10371609475E-02  0.21184279121E-03  0.17130000000E+03  0.17130000000E+03 0.  1.
      622    1    1    2    0    0 -0.30664337004E-03 -0.93794854865E-03  0.39810344597E+01  0.39812355297E+01  0.40000000000E-01 0. -1.
</event>
<event>
 5   0  0.6200596E+07  0.9118800E+02  0.7818608E-02  0.1180000E+00
       11   -1    0    0    0    0  0.00000000000E+00  0.00000000000E+00  0.39999999673E+01  0.40000000000E+01  0.51109989000E-03 0.  1.
     -623   -1    0    0    0    0  0.00000000000E+00  0.00000000000E+00  0.12525980253E-10  0.17130000000E+03  0.17130000000E+03 0.  1.
       11    1    1    2    0    0  0.48289626519E-02 -0.69440500351E-02  0.46900993325E+00  0.46908647115E+00  0.51109989000E-03 0.  1.
     -623    1    1    2    0    0 -0.16210674720E-02 -0.11030157913E-02  0.31372197760E-03  0.17130000001E+03  0.17130000000E+03 0.  1.
      622    1    1    2    0    0 -0.32078951799E-02  0.80470658264E-02  0.35306763121E+01  0.35309135173E+01  0.40000000000E-01 0.  1.
</event>
<event>
 5   0  0.6200596E+07  0.9118800E+02  0.7818608E-02  0.1180000E+00
       11   -1    0    0    0    0  0.00000000000E+00  0.00000000000E+00  0.39999999673E+01  0.40000000000E+01  0.51109989000E-03 0.  1.
     -623   -1    0    0    0    0  0.00000000000E+00  0.00000000000E+00  0.12525980253E-10  0.17130000000E+03  0.17130000000E+03 0.  1.
       11    1    1    2    0    0 -0.28951178428E-01  0.58351279704E-01  0.74732554969E+00  0.75015917045E+00  0.51109989000E-03 0.  1.
     -623    1    1    2    0    0  0.76344287300E-02 -0.10025659220E-01  0.35095400991E-02  0.17130000050E+03  0.17130000000E+03 0.  1.
      622    1    1    2    0    0  0.21316749698E-01 -0.48325620484E-01  0.32491648776E+01  0.32498403301E+01  0.40000000000E-01 0.  1.
</event>
<event>
 5   0  0.6200596E+07  0.9118800E+02  0.7818608E-02  0.1180000E+00
       11   -1    0    0    0    0  0.00000000000E+00  0.00000000000E+00  0.39999999673E+01  0.40000000000E+01  0.51109989000E-03 0.  1.
     -623   -1    0    0    0    0  0.00000000000E+00  0.00000000000E+00  0.12525980253E-10  0.17130000000E+03  0.17130000000E+03 0. -1.
       11    1    1    2    0    0 -0.17385405286E-01 -0.48274593331E-02  0.13992963953E+01  0.13994128125E+01  0.51109989000E-03 0.  1.
     -623    1    1    2    0    0  0.19461131863E-01  0.20405887125E-01  0.47384202222E-03  0.17130000232E+03  0.17130000000E+03 0. -1.
      622    1    1    2    0    0 -0.20757265773E-02 -0.15578427792E-01  0.26002297300E+01  0.26005848660E+01  0.40000000000E-01 0. -1.
</event>
<event>
 5   0  0.6200596E+07  0.9118800E+02  0.7818608E-02  0.1180000E+00
       11   -1    0    0    0    0  0.00000000000E+00  0.00000000000E+00  0.39999999673E+01  0.40000000000E+01  0.51109989000E-03 0.  1.
     -623   -1    0    0    0    0  0.00000000000E+00  0.00000000000E+00  0.12525980253E-10  0.17130000000E+03  0.17130000000E+03 0.  1.
       11    1    1    2    0    0 -0.37450063564E-02  0.32155509618E-02  0.78135072378E-01  0.78292500267E-01  0.51109989000E-03 0.  1.
     -623    1    1    2    0    0  0.55363853188E-02 -0.11932554143E-02  0.36241794413E-03  0.17130000009E+03  0.17130000000E+03 0.  1.
      622    1    1    2    0    0 -0.17913789624E-02 -0.20222955474E-02  0.39215024770E+01  0.39217074057E+01  0.40000000000E-01 0.  1.
</event>
<event>
 5   0  0.6200596E+07  0.9118800E+02  0.7818608E-02  0.1180000E+00
       11   -1    0    0    0    0  0.00000000000E+00  0.00000000000E+00  0.39999999673E+01  0.40000000000E+01  0.51109989000E-03 0. -1.
     -623   -1    0    0    0    0  0.00000000000E+00  0.00000000000E+00  0.12525980253E-10  0.17130000000E+03  0.17130000000E+03 0. -1.
       11    1    1    2    0    0 -0.18082738281E-01  0.62534924726E-02  0.96671907883E-01  0.98548518951E-01  0.51109989000E-03 0. -1.
     -623    1    1    2    0    0 -0.11845828513E-01 -0.26501856218E-01  0.22514598860E-02  0.17130000247E+03  0.17130000000E+03 0. -1.
      622    1    1    2    0    0  0.29928566795E-01  0.20248363745E-01  0.39010765996E+01  0.39014490066E+01  0.40000000000E-01 0. -1.
</event>
<event>
 5   0  0.6200596E+07  0.9118800E+02  0.7818608E-02  0.1180000E+00
       11   -1    0    0    0    0  0.00000000000E+00  0.00000000000E+00  0.39999999673E+01  0.40000000000E+01  0.51109989000E-03 0. -1.
     -623   -1    0    0    0    0  0.00000000000E+00  0.00000000000E+00  0.12525980253E-10  0.17130000000E+03  0.17130000000E+03 0. -1.
       11    1    1    2    0    0 -0.70972575922E-02  0.99971462669E-02  0.29453864027E+00  0.29479414145E+00  0.51109989000E-03 0. -1.
     -623    1    1    2    0    0  0.11475337834E-02 -0.19931113440E-03  0.48912436835E-03  0.17130000000E+03  0.17130000000E+03 0. -1.
      622    1    1    2    0    0  0.59497238087E-02 -0.97978351325E-02  0.37049722027E+01  0.37052058539E+01  0.40000000000E-01 0. -1.
</event>
<event>
 5   0  0.6200596E+07  0.9118800E+02  0.7818608E-02  0.1180000E+00
       11   -1    0    0    0    0  0.00000000000E+00  0.00000000000E+00  0.39999999673E+01  0.40000000000E+01  0.51109989000E-03 0. -1.
     -623   -1    0    0    0    0  0.00000000000E+00  0.00000000000E+00  0.12525980253E-10  0.17130000000E+03  0.17130000000E+03 0. -1.
       11    1    1    2    0    0  0.10895955923E-01  0.11117126734E-01  0.89158402323E+00  0.89172004803E+00  0.51109989000E-03 0. -1.
     -623    1    1    2    0    0 -0.34352035516E-03  0.43284820678E-04  0.43133258889E-03  0.17130000000E+03  0.17130000000E+03 0. -1.
      622    1    1    2    0    0 -0.10552435567E-01 -0.11160411554E-01  0.31079846115E+01  0.31082799511E+01  0.40000000000E-01 0. -1.
</event>
<event>
 5   0  0.6200596E+07  0.9118800E+02  0.7818608E-02  0.1180000E+00
       11   -1    0    0    0    0  0.00000000000E+00  0.00000000000E+00  0.39999999673E+01  0.40000000000E+01  0.51109989000E-03 0. -1.
     -623   -1    0    0    0    0  0.00000000000E+00  0.00000000000E+00  0.12525980253E-10  0.17130000000E+03  0.17130000000E+03 0.  1.
       11    1    1    2    0    0 -0.11085355102E-01 -0.84917857442E-02  0.58088005173E+00  0.58104809718E+00  0.51109989000E-03 0. -1.
     -623    1    1    2    0    0 -0.12864612711E-02  0.94009664135E-03  0.43274516442E-03  0.17130000001E+03  0.17130000000E+03 0.  1.
      622    1    1    2    0    0  0.12371816373E-01  0.75516891029E-02  0.34186871705E+01  0.34189518949E+01  0.40000000000E-01 0. -1.
</event>
<event>
 5   0  0.6200596E+07  0.9118800E+02  0.7818608E-02  0.1180000E+00
       11   -1    0    0    0    0  0.00000000000E+00  0.00000000000E+00  0.39999999673E+01  0.40000000000E+01  0.51109989000E-03 0. -1.
     -623   -1    0    0    0    0  0.00000000000E+00  0.00000000000E+00  0.12525980253E-10  0.17130000000E+03  0.17130000000E+03 0. -1.
       11    1    1    2    0    0 -0.15939710268E-01  0.20545694327E-01  0.13778893768E+01  0.13781348250E+01  0.51109989000E-03 0. -1.
     -623    1    1    2    0    0  0.24689858220E-02  0.14346521808E-02  0.67734363608E-03  0.17130000003E+03  0.17130000000E+03 0. -1.
      622    1    1    2    0    0  0.13470724446E-01 -0.21980346508E-01  0.26214332469E+01  0.26218651499E+01  0.40000000000E-01 0. -1.
</event>
<event>
 5   0  0.6200596E+07  0.9118800E+02  0.7818608E-02  0.1180000E+00
       11   -1    0    0    0    0  0.00000000000E+00  0.00000000000E+00  0.39999999673E+01  0.40000000000E+01  0.51109989000E-03 0.  1.
     -623   -1    0    0    0    0  0.00000000000E+00  0.00000000000E+00  0.12525980253E-10  0.17130000000E+03  0.17130000000E+03 0. -1.
       11    1    1    2    0    0 -0.17999591632E-03 -0.43139294928E-03  0.23939892864E-01  0.23949909996E-01  0.51109989000E-03 0.  1.
     -623    1    1    2    0    0  0.11547326675E-02 -0.50695070123E-03  0.21142927979E-03  0.17130000000E+03  0.17130000000E+03 0. -1.
      622    1    1    2    0    0 -0.97473675114E-03  0.93834365051E-03  0.39758486452E+01  0.39760500852E+01  0.40000000000E-01 0.  1.
</event>
<event>
 5   0  0.6200596E+07  0.9118800E+02  0.7818608E-02  0.1180000E+00
       11   -1    0    0    0    0  0.00000000000E+00  0.00000000000E+00  0.39999999673E+01  0.40000000000E+01  0.51109989000E-03 0.  1.
     -623   -1    0    0    0    0  0.00000000000E+00  0.00000000000E+00  0.12525980253E-10  0.17130000000E+03  0.17130000000E+03 0.  1.
       11    1    1    2    0    0  0.15010765601E-02 -0.60443406611E-03  0.14260250479E-01  0.14360868251E-01  0.51109989000E-03 0.  1.
     -623    1    1    2    0    0  0.18431129499E-03  0.16749260399E-03  0.30169157980E-03  0.17130000000E+03  0.17130000000E+03 0.  1.
      622    1    1    2    0    0 -0.16853878551E-02  0.43694146212E-03  0.39854380253E+01  0.39856391313E+01  0.40000000000E-01 0.  1.
</event>
<event>
 5   0  0.6200596E+07  0.9118800E+02  0.7818608E-02  0.1180000E+00
       11   -1    0    0    0    0  0.00000000000E+00  0.00000000000E+00  0.39999999673E+01  0.40000000000E+01  0.51109989000E-03 0.  1.
     -623   -1    0    0    0    0  0.00000000000E+00  0.00000000000E+00  0.12525980253E-10  0.17130000000E+03  0.17130000000E+03 0.  1.
       11    1    1    2    0    0  0.13043855810E-01 -0.10888100458E-01  0.47470849830E+00  0.47501274981E+00  0.51109989000E-03 0.  1.
     -623    1    1    2    0    0  0.43689323547E-02 -0.74074024228E-02  0.62188830228E-03  0.17130000022E+03  0.17130000000E+03 0.  1.
      622    1    1    2    0    0 -0.17412788164E-01  0.18295502881E-01  0.35246695808E+01  0.35249870332E+01  0.40000000000E-01 0.  0.
</event>
<event>
 5   0  0.6200596E+07  0.9118800E+02  0.7818608E-02  0.1180000E+00
       11   -1    0    0    0    0  0.00000000000E+00  0.00000000000E+00  0.39999999673E+01  0.40000000000E+01  0.51109989000E-03 0.  1.
     -623   -1    0    0    0    0  0.00000000000E+00  0.00000000000E+00  0.12525980253E-10  0.17130000000E+03  0.17130000000E+03 0.  1.
       11    1    1    2    0    0 -0.14359924472E-01  0.10077523752E-01  0.17432910854E+01  0.17433794291E+01  0.51109989000E-03 0.  1.
     -623    1    1    2    0    0  0.18678122048E-03  0.16281941284E-02  0.51774187868E-03  0.17130000001E+03  0.17130000000E+03 0.  1.
      622    1    1    2    0    0  0.14173143252E-01 -0.11705717880E-01  0.22561911401E+01  0.22566205623E+01  0.40000000000E-01 0.  1.
</event>
<event>
 5   0  0.6200596E+07  0.9118800E+02  0.7818608E-02  0.1180000E+00
       11   -1    0    0    0    0  0.00000000000E+00  0.00000000000E+00  0.39999999673E+01  0.40000000000E+01  0.51109989000E-03 0.  1.
     -623   -1    0    0    0    0  0.00000000000E+00  0.00000000000E+00  0.12525980253E-10  0.17130000000E+03  0.17130000000E+03 0. -1.
       11    1    1    2    0    0  0.12259426611E-01 -0.17783991850E-01  0.15429830964E+01  0.15431343626E+01  0.51109989000E-03 0.  1.
     -623    1    1    2    0    0 -0.26403694627E-02 -0.12778492633E-01  0.68633131273E-03  0.17130000050E+03  0.17130000000E+03 0. -1.
      622    1    1    2    0    0 -0.96190571478E-02  0.30562484483E-01  0.24563305396E+01  0.24568651391E+01  0.40000000000E-01 0.  1.
</event>
<event>
 5   0  0.6200596E+07  0.9118800E+02  0.7818608E-02  0.1180000E+00
       11   -1    0    0    0    0  0.00000000000E+00  0.00000000000E+00  0.39999999673E+01  0.40000000000E+01  0.51109989000E-03 0. -1.
     -623   -1    0    0    0    0  0.00000000000E+00  0.00000000000E+00  0.12525980253E-10  0.17130000000E+03  0.17130000000E+03 0.  1.
       11    1    1    2    0    0 -0.12755580562E-01 -0.28908893187E-02  0.22111190695E-01  0.25694903217E-01  0.51109989000E-03 0. -1.
     -623    1    1    2    0    0 -0.10495864159E-02  0.38310958039E-02  0.38091557998E-02  0.17130000009E+03  0.17130000000E+03 0.  1.
      622    1    1    2    0    0  0.13805166978E-01 -0.94020648523E-03  0.39740796209E+01  0.39743050084E+01  0.40000000000E-01 0. -1.
</event>
<event>
 5   0  0.6200596E+07  0.9118800E+02  0.7818608E-02  0.1180000E+00
       11   -1    0    0    0    0  0.00000000000E+00  0.00000000000E+00  0.39999999673E+01  0.40000000000E+01  0.51109989000E-03 0. -1.
     -623   -1    0    0    0    0  0.00000000000E+00  0.00000000000E+00  0.12525980253E-10  0.17130000000E+03  0.17130000000E+03 0.  1.
       11    1    1    2    0    0 -0.15118710000E-02  0.29897059834E-02  0.15992018330E+00  0.15995608879E+00  0.51109989000E-03 0. -1.
     -623    1    1    2    0    0 -0.64796841774E-03 -0.66751842858E-04  0.24593081401E-03  0.17130000000E+03  0.17130000000E+03 0.  1.
      622    1    1    2    0    0  0.21598394177E-02 -0.29229541405E-02  0.38398338532E+01  0.38400439098E+01  0.40000000000E-01 0. -1.
</event>
<event>
 5   0  0.6200596E+07  0.9118800E+02  0.7818608E-02  0.1180000E+00
       11   -1    0    0    0    0  0.00000000000E+00  0.00000000000E+00  0.39999999673E+01  0.40000000000E+01  0.51109989000E-03 0. -1.
     -623   -1    0    0    0    0  0.00000000000E+00  0.00000000000E+00  0.12525980253E-10  0.17130000000E+03  0.17130000000E+03 0. -1.
       11    1    1    2    0    0 -0.10996863382E-01  0.97154452709E-02  0.35719159026E+00  0.35749323666E+00  0.51109989000E-03 0. -1.
     -623    1    1    2    0    0  0.12757967375E-01 -0.20205812055E-01  0.53844984304E-03  0.17130000167E+03  0.17130000000E+03 0. -1.
      622    1    1    2    0    0 -0.17611039936E-02  0.10490366784E-01  0.36422699273E+01  0.36425050957E+01  0.40000000000E-01 0. -1.
</event>
<event>
 5   0  0.6200596E+07  0.9118800E+02  0.7818608E-02  0.1180000E+00
       11   -1    0    0    0    0  0.00000000000E+00  0.00000000000E+00  0.39999999673E+01  0.40000000000E+01  0.51109989000E-03 0.  1.
     -623   -1    0    0    0    0  0.00000000000E+00  0.00000000000E+00  0.12525980253E-10  0.17130000000E+03  0.17130000000E+03 0. -1.
       11    1    1    2    0    0 -0.24334671619E-01 -0.18915107396E-02  0.22787025662E+00  0.22917432040E+00  0.51109989000E-03 0.  1.
     -623    1    1    2    0    0  0.23174648989E-02  0.22421438813E-02  0.15805276970E-02  0.17130000004E+03  0.17130000000E+03 0. -1.
      622    1    1    2    0    0  0.22017206721E-01 -0.35063314166E-03  0.37705491830E+01  0.37708256420E+01  0.40000000000E-01 0.  1.
</event>
<event>
 5   0  0.6200596E+07  0.9118800E+02  0.7818608E-02  0.1180000E+00
       11   -1    0    0    0    0  0.00000000000E+00  0.00000000000E+00  0.39999999673E+01  0.40000000000E+01  0.51109989000E-03 0.  1.
     -623   -1    0    0    0    0  0.00000000000E+00  0.00000000000E+00  0.12525980253E-10  0.17130000000E+03  0.17130000000E+03 0.  1.
       11    1    1    2    0    0 -0.63595415574E-02  0.40378694980E-02  0.17978297600E+00  0.17994145670E+00  0.51109989000E-03 0.  1.
     -623    1    1    2    0    0  0.13332310264E-03  0.30274857804E-02  0.37951037101E-03  0.17130000003E+03  0.17130000000E+03 0.  1.
      622    1    1    2    0    0  0.62262184547E-02 -0.70653552784E-02  0.38198374810E+01  0.38200585161E+01  0.40000000000E-01 0.  1.
</event>
<event>
 5   0  0.6200596E+07  0.9118800E+02  0.7818608E-02  0.1180000E+00
       11   -1    0    0    0    0  0.00000000000E+00  0.00000000000E+00  0.39999999673E+01  0.40000000000E+01  0.51109989000E-03 0.  1.
     -623   -1    0    0    0    0  0.00000000000E+00  0.00000000000E+00  0.12525980253E-10  0.17130000000E+03  0.17130000000E+03 0. -1.
       11    1    1    2    0    0 -0.62384047324E-03 -0.89980204527E-03  0.57158688975E-02  0.58421912372E-02  0.51109989000E-03 0.  1.
     -623    1    1    2    0    0  0.16857511354E-02  0.14329410212E-03  0.32680874175E-03  0.17130000001E+03  0.17130000000E+03 0. -1.
      622    1    1    2    0    0 -0.10619106621E-02  0.75650794315E-03  0.39939572897E+01  0.39941578001E+01  0.40000000000E-01 0.  1.
</event>
<event>
 5   0  0.6200596E+07  0.9118800E+02  0.7818608E-02  0.1180000E+00
       11   -1    0    0    0    0  0.00000000000E+00  0.00000000000E+00  0.39999999673E+01  0.40000000000E+01  0.51109989000E-03 0. -1.
     -623   -1    0    0    0    0  0.00000000000E+00  0.00000000000E+00  0.12525980253E-10  0.17130000000E+03  0.17130000000E+03 0. -1.
       11    1    1    2    0    0  0.39846436143E-02  0.74334639104E-02  0.41394096616E+00  0.41402719531E+00  0.51109989000E-03 0. -1.
     -623    1    1    2    0    0 -0.90258696599E-02 -0.99648145044E-02  0.31426012991E-03  0.17130000053E+03  0.17130000000E+03 0. -1.
      622    1    1    2    0    0  0.50412260455E-02  0.25313505940E-02  0.35857447411E+01  0.35859722768E+01  0.40000000000E-01 0. -1.
</event>
<event>
 5   0  0.6200596E+07  0.9118800E+02  0.7818608E-02  0.1180000E+00
       11   -1    0    0    0    0  0.00000000000E+00  0.00000000000E+00  0.39999999673E+01  0.40000000000E+01  0.51109989000E-03 0.  1.
     -623   -1    0    0    0    0  0.00000000000E+00  0.00000000000E+00  0.12525980253E-10  0.17130000000E+03  0.17130000000E+03 0. -1.
       11    1    1    2    0    0 -0.95826564093E-03  0.13532438309E-03  0.15861780459E-01  0.15899493290E-01  0.51109989000E-03 0.  1.
     -623    1    1    2    0    0  0.92913016694E-04  0.17105651380E-03  0.23858943849E-03  0.17130000000E+03  0.17130000000E+03 0. -1.
      622    1    1    2    0    0  0.86535262423E-03 -0.30638089689E-03  0.39838995975E+01  0.39841005064E+01  0.40000000000E-01 0.  1.
</event>
<event>
 5   0  0.6200596E+07  0.9118800E+02  0.7818608E-02  0.1180000E+00
       11   -1    0    0    0    0  0.00000000000E+00  0.00000000000E+00  0.39999999673E+01  0.40000000000E+01  0.51109989000E-03 0. -1.
     -623   -1    0    0    0    0  0.00000000000E+00  0.00000000000E+00  0.12525980253E-10  0.17130000000E+03  0.17130000000E+03 0. -1.
       11    1    1    2    0    0  0.11181347780E-01 -0.10840774278E-01  0.11243102683E+00  0.11350569123E+00  0.51109989000E-03 0. -1.
     -623    1    1    2    0    0  0.28982207184E-02  0.49159589802E-02  0.13105990648E-02  0.17130000010E+03  0.17130000000E+03 0. -1.
      622    1    1    2    0    0 -0.14079568498E-01  0.59248152977E-02  0.38862583415E+01  0.38864942087E+01  0.40000000000E-01 0. -1.
</event>
<event>
 5   0  0.6200596E+07  0.9118800E+02  0.7818608E-02  0.1180000E+00
       11   -1    0    0    0    0  0.00000000000E+00  0.00000000000E+00  0.39999999673E+01  0.40000000000E+01  0.51109989000E-03 0. -1.
     -623   -1    0    0    0    0  0.00000000000E+00  0.00000000000E+00  0.12525980253E-10  0.17130000000E+03  0.17130000000E+03 0.  1.
       11    1    1    2    0    0  0.53355130145E-02  0.42998971327E-02  0.16776419522E+00  0.16790486364E+00  0.51109989000E-03 0. -1.
     -623    1    1    2    0    0 -0.26702317704E-03  0.28711223339E-02  0.35949123903E-03  0.17130000002E+03  0.17130000000E+03 0.  1.
      622    1    1    2    0    0 -0.50684898374E-02 -0.71710194666E-02  0.38318762809E+01  0.38320951117E+01  0.40000000000E-01 0. -1.
</event>
<event>
 5   0  0.6200596E+07  0.9118800E+02  0.7818608E-02  0.1180000E+00
       11   -1    0    0    0    0  0.00000000000E+00  0.00000000000E+00  0.39999999673E+01  0.40000000000E+01  0.51109989000E-03 0.  1.
     -623   -1    0    0    0    0  0.00000000000E+00  0.00000000000E+00  0.12525980253E-10  0.17130000000E+03  0.17130000000E+03 0. -1.
       11    1    1    2    0    0 -0.26182336485E-03 -0.35965626371E-03  0.35754852946E-02  0.36391236532E-02  0.51109989000E-03 0.  1.
     -623    1    1    2    0    0  0.42741407841E-03  0.19801254009E-02  0.26413702257E-03  0.17130000001E+03  0.17130000000E+03 0. -1.
      622    1    1    2    0    0 -0.16559071356E-03 -0.16204691372E-02  0.39961603450E+01  0.39963608642E+01  0.40000000000E-01 0.  1.
</event>
<event>
 5   0  0.6200596E+07  0.9118800E+02  0.7818608E-02  0.1180000E+00
       11   -1    0    0    0    0  0.00000000000E+00  0.00000000000E+00  0.39999999673E+01  0.40000000000E+01  0.51109989000E-03 0. -1.
     -623   -1    0    0    0    0  0.00000000000E+00  0.00000000000E+00  0.12525980253E-10  0.17130000000E+03  0.17130000000E+03 0. -1.
       11    1    1    2    0    0 -0.49196811385E-02  0.69277327794E-02  0.12565589578E+00  0.12594388475E+00  0.51109989000E-03 0. -1.
     -623    1    1    2    0    0 -0.37741067961E-02 -0.43085649229E-02  0.50520111735E-03  0.17130000010E+03  0.17130000000E+03 0. -1.
      622    1    1    2    0    0  0.86937879346E-02 -0.26191678564E-02  0.38738388705E+01  0.38740560187E+01  0.40000000000E-01 0. -1.
</event>
<event>
 5   0  0.6200596E+07  0.9118800E+02  0.7818608E-02  0.1180000E+00
       11   -1    0    0    0    0  0.00000000000E+00  0.00000000000E+00  0.39999999673E+01  0.40000000000E+01  0.51109989000E-03 0. -1.
     -623   -1    0    0    0    0  0.00000000000E+00  0.00000000000E+00  0.12525980253E-10  0.17130000000E+03  0.17130000000E+03 0.  1.
       11    1    1    2    0    0 -0.71227607844E-02  0.53277423153E-02  0.21088013539E+00  0.21106826214E+00  0.51109989000E-03 0. -1.
     -623    1    1    2    0    0 -0.88980863885E-03 -0.56607933420E-02  0.40782496856E-03  0.17130000010E+03  0.17130000000E+03 0.  1.
      622    1    1    2    0    0  0.80125694232E-02  0.33305102670E-03  0.37887120070E+01  0.37889316415E+01  0.40000000000E-01 0. -1.
</event>
<event>
 5   0  0.6200596E+07  0.9118800E+02  0.7818608E-02  0.1180000E+00
       11   -1    0    0    0    0  0.00000000000E+00  0.00000000000E+00  0.39999999673E+01  0.40000000000E+01  0.51109989000E-03 0. -1.
     -623   -1    0    0    0    0  0.00000000000E+00  0.00000000000E+00  0.12525980253E-10  0.17130000000E+03  0.17130000000E+03 0. -1.
       11    1    1    2    0    0  0.94540038593E-02  0.33376832821E-01  0.15340743012E+01  0.15344665569E+01  0.51109989000E-03 0. -1.
     -623    1    1    2    0    0 -0.13118455381E-01  0.34903446639E-03  0.95065504605E-03  0.17130000051E+03  0.17130000000E+03 0. -1.
      622    1    1    2    0    0  0.36644515217E-02 -0.33725867287E-01  0.24649750111E+01  0.24655329378E+01  0.40000000000E-01 0. -1.
</event>
<event>
 5   0  0.6200596E+07  0.9118800E+02  0.7818608E-02  0.1180000E+00
       11   -1    0    0    0    0  0.00000000000E+00  0.00000000000E+00  0.39999999673E+01  0.40000000000E+01  0.51109989000E-03 0.  1.
     -623   -1    0    0    0    0  0.00000000000E+00  0.00000000000E+00  0.12525980253E-10  0.17130000000E+03  0.17130000000E+03 0. -1.
       11    1    1    2    0    0 -0.14716246205E-01 -0.42508382399E-01  0.23867179965E+01  0.23871419284E+01  0.51109989000E-03 0.  1.
     -623    1    1    2    0    0 -0.11015919391E-01 -0.15102252065E-01  0.21560615431E-02  0.17130000103E+03  0.17130000000E+03 0. -1.
      622    1    1    2    0    0  0.25732165595E-01  0.57610634463E-01  0.16111259093E+01  0.16128570381E+01  0.40000000000E-01 0.  1.
</event>
<event>
 5   0  0.6200596E+07  0.9118800E+02  0.7818608E-02  0.1180000E+00
       11   -1    0    0    0    0  0.00000000000E+00  0.00000000000E+00  0.39999999673E+01  0.40000000000E+01  0.51109989000E-03 0. -1.
     -623   -1    0    0    0    0  0.00000000000E+00  0.00000000000E+00  0.12525980253E-10  0.17130000000E+03  0.17130000000E+03 0. -1.
       11    1    1    2    0    0  0.96038795470E-04 -0.38833618232E-02  0.58428559527E-01  0.58559777255E-01  0.51109989000E-03 0. -1.
     -623    1    1    2    0    0 -0.92711154415E-05  0.26149404398E-03  0.33582747966E-03  0.17130000000E+03  0.17130000000E+03 0. -1.
      622    1    1    2    0    0 -0.86767680029E-04  0.36218677792E-02  0.39412355804E+01  0.39414402222E+01  0.40000000000E-01 0. -1.
</event>
<event>
 5   0  0.6200596E+07  0.9118800E+02  0.7818608E-02  0.1180000E+00
       11   -1    0    0    0    0  0.00000000000E+00  0.00000000000E+00  0.39999999673E+01  0.40000000000E+01  0.51109989000E-03 0. -1.
     -623   -1    0    0    0    0  0.00000000000E+00  0.00000000000E+00  0.12525980253E-10  0.17130000000E+03  0.17130000000E+03 0. -1.
       11    1    1    2    0    0 -0.23483218337E-02  0.11922988799E-01 -0.42738329643E-02  0.12891824777E-01  0.51109989000E-03 0. -1.
     -623    1    1    2    0    0  0.14606991310E-01 -0.14603060216E-01  0.17388151579E-01  0.17130000213E+03  0.17130000000E+03 0. -1.
      622    1    1    2    0    0 -0.12258669476E-01  0.26800714175E-02  0.39868856487E+01  0.39871060475E+01  0.40000000000E-01 0. -1.
</event>
<event>
 5   0  0.6200596E+07  0.9118800E+02  0.7818608E-02  0.1180000E+00
       11   -1    0    0    0    0  0.00000000000E+00  0.00000000000E+00  0.39999999673E+01  0.40000000000E+01  0.51109989000E-03 0. -1.
     -623   -1    0    0    0    0  0.00000000000E+00  0.00000000000E+00  0.12525980253E-10  0.17130000000E+03  0.17130000000E+03 0. -1.
       11    1    1    2    0    0 -0.85356151586E-03 -0.22657491389E-02  0.15799878232E-02  0.29359444938E-02  0.51109989000E-03 0. -1.
     -623    1    1    2    0    0  0.89597089344E-03  0.37148236828E-02  0.15563885511E-02  0.17130000005E+03  0.17130000000E+03 0. -1.
      622    1    1    2    0    0 -0.42409377580E-04 -0.14490745439E-02  0.39968635910E+01  0.39970640058E+01  0.40000000000E-01 0. -1.
</event>
<event>
 5   0  0.6200596E+07  0.9118800E+02  0.7818608E-02  0.1180000E+00
       11   -1    0    0    0    0  0.00000000000E+00  0.00000000000E+00  0.39999999673E+01  0.40000000000E+01  0.51109989000E-03 0. -1.
     -623   -1    0    0    0    0  0.00000000000E+00  0.00000000000E+00  0.12525980253E-10  0.17130000000E+03  0.17130000000E+03 0. -1.
       11    1    1    2    0    0  0.17886782378E-01  0.29900464726E-02  0.60803557565E+00  0.60830617278E+00  0.51109989000E-03 0. -1.
     -623    1    1    2    0    0  0.26357374744E-02  0.53369266103E-02  0.57886405646E-03  0.17130000010E+03  0.17130000000E+03 0. -1.
      622    1    1    2    0    0 -0.20522519852E-01 -0.83269730829E-02  0.33913855277E+01  0.33916937228E+01  0.40000000000E-01 0. -1.
</event>
<event>
 5   0  0.6200596E+07  0.9118800E+02  0.7818608E-02  0.1180000E+00
       11   -1    0    0    0    0  0.00000000000E+00  0.00000000000E+00  0.39999999673E+01  0.40000000000E+01  0.51109989000E-03 0.  1.
     -623   -1    0    0    0    0  0.00000000000E+00  0.00000000000E+00  0.12525980253E-10  0.17130000000E+03  0.17130000000E+03 0. -1.
       11    1    1    2    0    0  0.41101915093E-03 -0.30645691790E-03  0.10309898941E-01  0.10335283725E-01  0.51109989000E-03 0.  1.
     -623    1    1    2    0    0  0.13754765117E-03  0.27437869924E-03  0.22591355379E-03  0.17130000000E+03  0.17130000000E+03 0. -1.
      622    1    1    2    0    0 -0.54856680210E-03  0.32078218660E-04  0.39894641549E+01  0.39896647159E+01  0.40000000000E-01 0.  1.
</event>
<event>
 5   0  0.6200596E+07  0.9118800E+02  0.7818608E-02  0.1180000E+00
       11   -1    0    0    0    0  0.00000000000E+00  0.00000000000E+00  0.39999999673E+01  0.40000000000E+01  0.51109989000E-03 0. -1.
     -623   -1    0    0    0    0  0.00000000000E+00  0.00000000000E+00  0.12525980253E-10  0.17130000000E+03  0.17130000000E+03 0. -1.
       11    1    1    2    0    0 -0.17380214729E-02 -0.26047753036E-02  0.23781569653E-01  0.23992287264E-01  0.51109989000E-03 0. -1.
     -623    1    1    2    0    0  0.85137541704E-04  0.22434786698E-02  0.41227212204E-03  0.17130000002E+03  0.17130000000E+03 0. -1.
      622    1    1    2    0    0  0.16528839312E-02  0.36129663384E-03  0.39758061256E+01  0.39760076975E+01  0.40000000000E-01 0. -1.
</event>
<event>
 5   0  0.6200596E+07  0.9118800E+02  0.7818608E-02  0.1180000E+00
       11   -1    0    0    0    0  0.00000000000E+00  0.00000000000E+00  0.39999999673E+01  0.40000000000E+01  0.51109989000E-03 0.  1.
     -623   -1    0    0    0    0  0.00000000000E+00  0.00000000000E+00  0.12525980253E-10  0.17130000000E+03  0.17130000000E+03 0. -1.
       11    1    1    2    0    0  0.40975211201E-03 -0.20773704784E-02  0.37062208651E-02  0.42989136885E-02  0.51109989000E-03 0.  1.
     -623    1    1    2    0    0 -0.70764804157E-03  0.26401273805E-02  0.79295475666E-03  0.17130000002E+03  0.17130000000E+03 0. -1.
      622    1    1    2    0    0  0.29789592956E-03 -0.56275690211E-03  0.39955007917E+01  0.39957010627E+01  0.40000000000E-01 0.  1.
</event>
<event>
 5   0  0.6200596E+07  0.9118800E+02  0.7818608E-02  0.1180000E+00
       11   -1    0    0    0    0  0.00000000000E+00  0.00000000000E+00  0.39999999673E+01  0.40000000000E+01  0.51109989000E-03 0.  1.
     -623   -1    0    0    0    0  0.00000000000E+00  0.00000000000E+00  0.12525980253E-10  0.17130000000E+03  0.17130000000E+03 0. -1.
       11    1    1    2    0    0  0.59368504273E-02 -0.81691460897E-02  0.19508104129E+01  0.19508366178E+01  0.51109989000E-03 0.  1.
     -623    1    1    2    0    0 -0.20574441032E-02  0.30101832329E-02  0.42682028320E-03  0.17130000004E+03  0.17130000000E+03 0. -1.
      622    1    1    2    0    0 -0.38794063241E-02  0.51589628568E-02  0.20487627342E+01  0.20491633429E+01  0.40000000000E-01 0. -1.
</event>
<event>
 5   0  0.6200596E+07  0.9118800E+02  0.7818608E-02  0.1180000E+00
       11   -1    0    0    0    0  0.00000000000E+00  0.00000000000E+00  0.39999999673E+01  0.40000000000E+01  0.51109989000E-03 0. -1.
     -623   -1    0    0    0    0  0.00000000000E+00  0.00000000000E+00  0.12525980253E-10  0.17130000000E+03  0.17130000000E+03 0. -1.
       11    1    1    2    0    0  0.12783028785E-02 -0.35611556177E-01  0.89918755314E+00  0.89989351256E+00  0.51109989000E-03 0. -1.
     -623    1    1    2    0    0 -0.11258179819E-01  0.39885774625E-02  0.11417837373E-02  0.17130000042E+03  0.17130000000E+03 0. -1.
      622    1    1    2    0    0  0.99798769408E-02  0.31622978715E-01  0.30996706305E+01  0.31001060672E+01  0.40000000000E-01 0. -1.
</event>
<event>
 5   0  0.6200596E+07  0.9118800E+02  0.7818608E-02  0.1180000E+00
       11   -1    0    0    0    0  0.00000000000E+00  0.00000000000E+00  0.39999999673E+01  0.40000000000E+01  0.51109989000E-03 0. -1.
     -623   -1    0    0    0    0  0.00000000000E+00  0.00000000000E+00  0.12525980253E-10  0.17130000000E+03  0.17130000000E+03 0.  1.
       11    1    1    2    0    0 -0.51844714411E-02 -0.82266313398E-03  0.85445468383E-01  0.85608088436E-01  0.51109989000E-03 0. -1.
     -623    1    1    2    0    0  0.13196135576E-02 -0.25442027592E-02  0.37034725900E-03  0.17130000002E+03  0.17130000000E+03 0.  1.
      622    1    1    2    0    0  0.38648578835E-02  0.33668658932E-02  0.39141841517E+01  0.39143918872E+01  0.40000000000E-01 0. -1.
</event>
<event>
 5   0  0.6200596E+07  0.9118800E+02  0.7818608E-02  0.1180000E+00
       11   -1    0    0    0    0  0.00000000000E+00  0.00000000000E+00  0.39999999673E+01  0.40000000000E+01  0.51109989000E-03 0. -1.
     -623   -1    0    0    0    0  0.00000000000E+00  0.00000000000E+00  0.12525980253E-10  0.17130000000E+03  0.17130000000E+03 0.  1.
       11    1    1    2    0    0 -0.19868678387E-01 -0.69776031424E-02  0.41899489398E-01  0.46896479187E-01  0.51109989000E-03 0. -1.
     -623    1    1    2    0    0  0.17731894890E-01  0.12980542114E-01  0.52059593268E-02  0.17130000149E+03  0.17130000000E+03 0.  1.
      622    1    1    2    0    0  0.21367834971E-02 -0.60029389718E-02  0.39528945186E+01  0.39531020321E+01  0.40000000000E-01 0. -1.
</event>
<event>
 5   0  0.6200596E+07  0.9118800E+02  0.7818608E-02  0.1180000E+00
       11   -1    0    0    0    0  0.00000000000E+00  0.00000000000E+00  0.39999999673E+01  0.40000000000E+01  0.51109989000E-03 0.  1.
     -623   -1    0    0    0    0  0.00000000000E+00  0.00000000000E+00  0.12525980253E-10  0.17130000000E+03  0.17130000000E+03 0. -1.
       11    1    1    2    0    0 -0.24229853712E-02 -0.85938636225E-03  0.35033932253E-01  0.35131852127E-01  0.51109989000E-03 0.  1.
     -623    1    1    2    0    0  0.21386466361E-03  0.21782787627E-03  0.30033243166E-03  0.17130000000E+03  0.17130000000E+03 0. -1.
      622    1    1    2    0    0  0.22091207076E-02  0.64155848598E-03  0.39646657027E+01  0.39648681473E+01  0.40000000000E-01 0.  1.
</event>
<event>
 5   0  0.6200596E+07  0.9118800E+02  0.7818608E-02  0.1180000E+00
       11   -1    0    0    0    0  0.00000000000E+00  0.00000000000E+00  0.39999999673E+01  0.40000000000E+01  0.51109989000E-03 0. -1.
     -623   -1    0    0    0    0  0.00000000000E+00  0.00000000000E+00  0.12525980253E-10  0.17130000000E+03  0.17130000000E+03 0. -1.
       11    1    1    2    0    0 -0.58478168581E-04 -0.21508464780E-02  0.15580332993E-01  0.15736503974E-01  0.51109989000E-03 0. -1.
     -623    1    1    2    0    0  0.78530504533E-03  0.36322701528E-02  0.35731574120E-03  0.17130000004E+03  0.17130000000E+03 0. -1.
      622    1    1    2    0    0 -0.72682687675E-03 -0.14814236748E-02  0.39840623186E+01  0.39842634553E+01  0.40000000000E-01 0. -1.
</event>
<event>
 5   0  0.6200596E+07  0.9118800E+02  0.7818608E-02  0.1180000E+00
       11   -1    0    0    0    0  0.00000000000E+00  0.00000000000E+00  0.39999999673E+01  0.40000000000E+01  0.51109989000E-03 0. -1.
     -623   -1    0    0    0    0  0.00000000000E+00  0.00000000000E+00  0.12525980253E-10  0.17130000000E+03  0.17130000000E+03 0.  1.
       11    1    1    2    0    0 -0.12686593217E-01  0.25028479866E-02  0.46023571955E+00  0.46041762853E+00  0.51109989000E-03 0. -1.
     -623    1    1    2    0    0  0.25840468691E-03  0.47979613667E-03  0.43097749343E-03  0.17130000000E+03  0.17130000000E+03 0.  1.
      622    1    1    2    0    0  0.12428188530E-01 -0.29826441232E-02  0.35393332703E+01  0.35395823701E+01  0.40000000000E-01 0. -1.
</event>
<event>
 5   0  0.6200596E+07  0.9118800E+02  0.7818608E-02  0.1180000E+00
       11   -1    0    0    0    0  0.00000000000E+00  0.00000000000E+00  0.39999999673E+01  0.40000000000E+01  0.51109989000E-03 0.  1.
     -623   -1    0    0    0    0  0.00000000000E+00  0.00000000000E+00  0.12525980253E-10  0.17130000000E+03  0.17130000000E+03 0. -1.
       11    1    1    2    0    0  0.71422761428E-03  0.14043043740E-02  0.11408504075E-01  0.11528112571E-01  0.51109989000E-03 0.  1.
     -623    1    1    2    0    0  0.42454889807E-03  0.19615998725E-03  0.32064361594E-03  0.17130000000E+03  0.17130000000E+03 0. -1.
      622    1    1    2    0    0 -0.11387765124E-02 -0.16004643612E-02  0.39882708197E+01  0.39884718865E+01  0.40000000000E-01 0.  1.
</event>
<event>
 5   0  0.6200596E+07  0.9118800E+02  0.7818608E-02  0.1180000E+00
       11   -1    0    0    0    0  0.00000000000E+00  0.00000000000E+00  0.39999999673E+01  0.40000000000E+01  0.51109989000E-03 0. -1.
     -623   -1    0    0    0    0  0.00000000000E+00  0.00000000000E+00  0.12525980253E-10  0.17130000000E+03  0.17130000000E+03 0. -1.
       11    1    1    2    0    0  0.22070270080E-02  0.14346108566E-02  0.83209291516E-02  0.87423201058E-02  0.51109989000E-03 0. -1.
     -623    1    1    2    0    0 -0.24484046141E-02 -0.28644676586E-02  0.62210743294E-03  0.17130000004E+03  0.17130000000E+03 0. -1.
      622    1    1    2    0    0  0.24137760608E-03  0.14298568019E-02  0.39910569308E+01  0.39912576373E+01  0.40000000000E-01 0. -1.
</event>
<event>
 5   0  0.6200596E+07  0.9118800E+02  0.7818608E-02  0.1180000E+00
       11   -1    0    0    0    0  0.00000000000E+00  0.00000000000E+00  0.39999999673E+01  0.40000000000E+01  0.51109989000E-03 0. -1.
     -623   -1    0    0    0    0  0.00000000000E+00  0.00000000000E+00  0.12525980253E-10  0.17130000000E+03  0.17130000000E+03 0. -1.
       11    1    1    2    0    0 -0.12515213341E-03 -0.99810361022E-03  0.23596305446E-01  0.23623266632E-01  0.51109989000E-03 0. -1.
     -623    1    1    2    0    0  0.15085296000E-02  0.50632049952E-03  0.22840042172E-03  0.17130000001E+03  0.17130000000E+03 0. -1.
      622    1    1    2    0    0 -0.13833774666E-02  0.49178311070E-03  0.39761752615E+01  0.39763767258E+01  0.40000000000E-01 0. -1.
</event>
<event>
 5   0  0.6200596E+07  0.9118800E+02  0.7818608E-02  0.1180000E+00
       11   -1    0    0    0    0  0.00000000000E+00  0.00000000000E+00  0.39999999673E+01  0.40000000000E+01  0.51109989000E-03 0. -1.
     -623   -1    0    0    0    0  0.00000000000E+00  0.00000000000E+00  0.12525980253E-10  0.17130000000E+03  0.17130000000E+03 0. -1.
       11    1    1    2    0    0  0.10809487744E-04 -0.15067628768E-02  0.24019114466E-01  0.24071758007E-01  0.51109989000E-03 0. -1.
     -623    1    1    2    0    0 -0.11821514461E-02  0.11022082434E-02  0.25402781660E-03  0.17130000001E+03  0.17130000000E+03 0. -1.
      622    1    1    2    0    0  0.11713419584E-02  0.40455463344E-03  0.39757268251E+01  0.39759282342E+01  0.40000000000E-01 0. -1.
</event>
<event>
 5   0  0.6200596E+07  0.9118800E+02  0.7818608E-02  0.1180000E+00
       11   -1    0    0    0    0  0.00000000000E+00  0.00000000000E+00  0.39999999673E+01  0.40000000000E+01  0.51109989000E-03 0.  1.
     -623   -1    0    0    0    0  0.00000000000E+00  0.00000000000E+00  0.12525980253E-10  0.17130000000E+03  0.17130000000E+03 0.  1.
       11    1    1    2    0    0  0.49810481223E-02  0.97389661333E-02  0.22250581294E+00  0.22277512499E+00  0.51109989000E-03 0.  1.
     -623    1    1    2    0    0 -0.17881640439E-02  0.10038793979E-02  0.49772141469E-03  0.17130000001E+03  0.17130000000E+03 0.  1.
      622    1    1    2    0    0 -0.31928840785E-02 -0.10742845531E-01  0.37769964330E+01  0.37772248620E+01  0.40000000000E-01 0.  1.
</event>
<event>
 5   0  0.6200596E+07  0.9118800E+02  0.7818608E-02  0.1180000E+00
       11   -1    0    0    0    0  0.00000000000E+00  0.00000000000E+00  0.39999999673E+01  0.40000000000E+01  0.51109989000E-03 0.  1.
     -623   -1    0    0    0    0  0.00000000000E+00  0.00000000000E+00  0.12525980253E-10  0.17130000000E+03  0.17130000000E+03 0.  1.
       11    1    1    2    0    0  0.10356475208E-01 -0.27133863276E-01  0.61767901824E+00  0.61836165301E+00  0.51109989000E-03 0.  1.
     -623    1    1    2    0    0 -0.56047453416E-02  0.18519099754E-03  0.10300036040E-02  0.17130000009E+03  0.17130000000E+03 0.  1.
      622    1    1    2    0    0 -0.47517298661E-02  0.26948672279E-01  0.33812909455E+01  0.33816382521E+01  0.40000000000E-01 0.  1.
</event>
<event>
 5   0  0.6200596E+07  0.9118800E+02  0.7818608E-02  0.1180000E+00
       11   -1    0    0    0    0  0.00000000000E+00  0.00000000000E+00  0.39999999673E+01  0.40000000000E+01  0.51109989000E-03 0.  1.
     -623   -1    0    0    0    0  0.00000000000E+00  0.00000000000E+00  0.12525980253E-10  0.17130000000E+03  0.17130000000E+03 0.  1.
       11    1    1    2    0    0  0.11420396805E-02 -0.29597127362E-04  0.28151560365E-02  0.30808204454E-02  0.51109989000E-03 0.  1.
     -623    1    1    2    0    0 -0.11207717973E-02  0.13177314941E-02  0.46600794772E-03  0.17130000001E+03  0.17130000000E+03 0.  1.
      622    1    1    2    0    0 -0.21267883203E-04 -0.12881343668E-02  0.39967188034E+01  0.39969191702E+01  0.40000000000E-01 0.  1.
</event>
<event>
 5   0  0.6200596E+07  0.9118800E+02  0.7818608E-02  0.1180000E+00
       11   -1    0    0    0    0  0.00000000000E+00  0.00000000000E+00  0.39999999673E+01  0.40000000000E+01  0.51109989000E-03 0. -1.
     -623   -1    0    0    0    0  0.00000000000E+00  0.00000000000E+00  0.12525980253E-10  0.17130000000E+03  0.17130000000E+03 0. -1.
       11    1    1    2    0    0 -0.30901908947E-02  0.10231088196E-02  0.11069277853E-01  0.11549292867E-01  0.51109989000E-03 0. -1.
     -623    1    1    2    0    0  0.14385280563E-02 -0.17578659077E-02  0.68099265461E-03  0.17130000002E+03  0.17130000000E+03 0. -1.
      622    1    1    2    0    0  0.16516628384E-02  0.73475708813E-03  0.39882496969E+01  0.39884506907E+01  0.40000000000E-01 0. -1.
</event>
<event>
 5   0  0.6200596E+07  0.9118800E+02  0.7818608E-02  0.1180000E+00
       11   -1    0    0    0    0  0.00000000000E+00  0.00000000000E+00  0.39999999673E+01  0.40000000000E+01  0.51109989000E-03 0. -1.
     -623   -1    0    0    0    0  0.00000000000E+00  0.00000000000E+00  0.12525980253E-10  0.17130000000E+03  0.17130000000E+03 0. -1.
       11    1    1    2    0    0 -0.10959818876E-02  0.11052847921E-01  0.48593743082E-01  0.49849570815E-01  0.51109989000E-03 0. -1.
     -623    1    1    2    0    0 -0.39583957429E-02 -0.22103901768E-02  0.14715218453E-02  0.17130000007E+03  0.17130000000E+03 0. -1.
      622    1    1    2    0    0  0.50543776305E-02 -0.88424577442E-02  0.39499347024E+01  0.39501503629E+01  0.40000000000E-01 0. -1.
</event>
<event>
 5   0  0.6200596E+07  0.9118800E+02  0.7818608E-02  0.1180000E+00
       11   -1    0    0    0    0  0.00000000000E+00  0.00000000000E+00  0.39999999673E+01  0.40000000000E+01  0.51109989000E-03 0. -1.
     -623   -1    0    0    0    0  0.00000000000E+00  0.00000000000E+00  0.12525980253E-10  0.17130000000E+03  0.17130000000E+03 0. -1.
       11    1    1    2    0    0  0.59572144259E-02  0.10892872774E-01  0.13986680613E+00  0.14041769033E+00  0.51109989000E-03 0. -1.
     -623    1    1    2    0    0 -0.16197687833E-01 -0.11237577130E-01  0.77287112606E-03  0.17130000114E+03  0.17130000000E+03 0. -1.
      622    1    1    2    0    0  0.10240473407E-01  0.34470435552E-03  0.38593602901E+01  0.38595811735E+01  0.40000000000E-01 0. -1.
</event>
<event>
 5   0  0.6200596E+07  0.9118800E+02  0.7818608E-02  0.1180000E+00
       11   -1    0    0    0    0  0.00000000000E+00  0.00000000000E+00  0.39999999673E+01  0.40000000000E+01  0.51109989000E-03 0. -1.
     -623   -1    0    0    0    0  0.00000000000E+00  0.00000000000E+00  0.12525980253E-10  0.17130000000E+03  0.17130000000E+03 0.  1.
       11    1    1    2    0    0  0.47097945730E-02 -0.64120679410E-02  0.15208014377E+00  0.15228896261E+00  0.51109989000E-03 0. -1.
     -623    1    1    2    0    0  0.15392757276E-02  0.14851969463E-03  0.42688836614E-03  0.17130000001E+03  0.17130000000E+03 0.  1.
      622    1    1    2    0    0 -0.62490703006E-02  0.62635482464E-02  0.38474929352E+01  0.38477110299E+01  0.40000000000E-01 0. -1.
</event>
<event>
 5   0  0.6200596E+07  0.9118800E+02  0.7818608E-02  0.1180000E+00
       11   -1    0    0    0    0  0.00000000000E+00  0.00000000000E+00  0.39999999673E+01  0.40000000000E+01  0.51109989000E-03 0.  1.
     -623   -1    0    0    0    0  0.00000000000E+00  0.00000000000E+00  0.12525980253E-10  0.17130000000E+03  0.17130000000E+03 0.  1.
       11    1    1    2    0    0  0.59422933739E-02  0.81489608249E-01  0.84533434445E+00  0.84927397360E+00  0.51109989000E-03 0.  1.
     -623    1    1    2    0    0 -0.19522488933E-02 -0.41296922070E-02  0.51461126502E-02  0.17130000014E+03  0.17130000000E+03 0.  1.
      622    1    1    2    0    0 -0.39900444806E-02 -0.77359916042E-01  0.31495195103E+01  0.31507258882E+01  0.40000000000E-01 0.  1.
</event>
<event>
 5   0  0.6200596E+07  0.9118800E+02  0.7818608E-02  0.1180000E+00
       11   -1    0    0    0    0  0.00000000000E+00  0.00000000000E+00  0.39999999673E+01  0.40000000000E+01  0.51109989000E-03 0. -1.
     -623   -1    0    0    0    0  0.00000000000E+00  0.00000000000E+00  0.12525980253E-10  0.17130000000E+03  0.17130000000E+03 0. -1.
       11    1    1    2    0    0 -0.19377232669E-01  0.10457663608E-01  0.27411142431E+01  0.27412027278E+01  0.51109989000E-03 0. -1.
     -623    1    1    2    0    0 -0.17333697575E-02  0.60338033523E-02  0.10094785924E-02  0.17130000012E+03  0.17130000000E+03 0. -1.
      622    1    1    2    0    0  0.21110602427E-01 -0.16491466960E-01  0.12578762457E+01  0.12587971542E+01  0.40000000000E-01 0. -1.
</event>
<event>
 5   0  0.6200596E+07  0.9118800E+02  0.7818608E-02  0.1180000E+00
       11   -1    0    0    0    0  0.00000000000E+00  0.00000000000E+00  0.39999999673E+01  0.40000000000E+01  0.51109989000E-03 0.  1.
     -623   -1    0    0    0    0  0.00000000000E+00  0.00000000000E+00  0.12525980253E-10  0.17130000000E+03  0.17130000000E+03 0. -1.
       11    1    1    2    0    0 -0.20120217885E-01  0.12123335529E-01  0.66479056013E+00  0.66520564376E+00  0.51109989000E-03 0.  1.
     -623    1    1    2    0    0 -0.69152081764E-02  0.32871316695E-03  0.78794534294E-03  0.17130000014E+03  0.17130000000E+03 0. -1.
      622    1    1    2    0    0  0.27035426061E-01 -0.12452048696E-01  0.33344214619E+01  0.33347942145E+01  0.40000000000E-01 0.  1.
</event>
<event>
 5   0  0.6200596E+07  0.9118800E+02  0.7818608E-02  0.1180000E+00
       11   -1    0    0    0    0  0.00000000000E+00  0.00000000000E+00  0.39999999673E+01  0.40000000000E+01  0.51109989000E-03 0. -1.
     -623   -1    0    0    0    0  0.00000000000E+00  0.00000000000E+00  0.12525980253E-10  0.17130000000E+03  0.17130000000E+03 0. -1.
       11    1    1    2    0    0 -0.47523918375E-02 -0.10544781432E-01  0.25255489327E+01  0.25255754692E+01  0.51109989000E-03 0. -1.
     -623    1    1    2    0    0 -0.12304196217E-02  0.41070448237E-02  0.59544558561E-03  0.17130000005E+03  0.17130000000E+03 0. -1.
      622    1    1    2    0    0  0.59828114593E-02  0.64377366084E-02  0.14738555890E+01  0.14744244761E+01  0.40000000000E-01 0.  0.
</event>
<event>
 5   0  0.6200596E+07  0.9118800E+02  0.7818608E-02  0.1180000E+00
       11   -1    0    0    0    0  0.00000000000E+00  0.00000000000E+00  0.39999999673E+01  0.40000000000E+01  0.51109989000E-03 0.  1.
     -623   -1    0    0    0    0  0.00000000000E+00  0.00000000000E+00  0.12525980253E-10  0.17130000000E+03  0.17130000000E+03 0. -1.
       11    1    1    2    0    0  0.14578965861E-02  0.29856368495E-02  0.28740739899E-01  0.28936669500E-01  0.51109989000E-03 0.  1.
     -623    1    1    2    0    0 -0.19089968377E-03  0.89553314513E-03  0.39946124569E-03  0.17130000000E+03  0.17130000000E+03 0. -1.
      622    1    1    2    0    0 -0.12669969023E-02 -0.38811699946E-02  0.39708597662E+01  0.39710633276E+01  0.40000000000E-01 0.  1.
</event>
<event>
 5   0  0.6200596E+07  0.9118800E+02  0.7818608E-02  0.1180000E+00
       11   -1    0    0    0    0  0.00000000000E+00  0.00000000000E+00  0.39999999673E+01  0.40000000000E+01  0.51109989000E-03 0. -1.
     -623   -1    0    0    0    0  0.00000000000E+00  0.00000000000E+00  0.12525980253E-10  0.17130000000E+03  0.17130000000E+03 0. -1.
       11    1    1    2    0    0  0.27222976054E-02  0.18988409235E-02  0.85333995235E-02  0.91704215077E-02  0.51109989000E-03 0. -1.
     -623    1    1    2    0    0 -0.14853354237E-02 -0.50400018249E-02  0.83896456198E-03  0.17130000008E+03  0.17130000000E+03 0. -1.
      622    1    1    2    0    0 -0.12369621817E-02  0.31411609014E-02  0.39906276033E+01  0.39908294959E+01  0.40000000000E-01 0. -1.
</event>
<event>
 5   0  0.6200596E+07  0.9118800E+02  0.7818608E-02  0.1180000E+00
       11   -1    0    0    0    0  0.00000000000E+00  0.00000000000E+00  0.39999999673E+01  0.40000000000E+01  0.51109989000E-03 0. -1.
     -623   -1    0    0    0    0  0.00000000000E+00  0.00000000000E+00  0.12525980253E-10  0.17130000000E+03  0.17130000000E+03 0.  1.
       11    1    1    2    0    0  0.17154778984E-02  0.62229378825E-03  0.79559083932E-01  0.79581650968E-01  0.51109989000E-03 0. -1.
     -623    1    1    2    0    0 -0.29311969868E-03  0.76864394599E-04  0.22692036072E-03  0.17130000000E+03  0.17130000000E+03 0.  1.
      622    1    1    2    0    0 -0.14223581997E-02 -0.69915818284E-03  0.39202139631E+01  0.39204183486E+01  0.40000000000E-01 0. -1.
</event>
<event>
 5   0  0.6200596E+07  0.9118800E+02  0.7818608E-02  0.1180000E+00
       11   -1    0    0    0    0  0.00000000000E+00  0.00000000000E+00  0.39999999673E+01  0.40000000000E+01  0.51109989000E-03 0. -1.
     -623   -1    0    0    0    0  0.00000000000E+00  0.00000000000E+00  0.12525980253E-10  0.17130000000E+03  0.17130000000E+03 0.  1.
       11    1    1    2    0    0  0.62341032410E-02  0.36621316354E-02  0.54087927192E-01  0.54571424214E-01  0.51109989000E-03 0. -1.
     -623    1    1    2    0    0 -0.21232472900E-02 -0.54574008672E-02  0.68888757385E-03  0.17130000010E+03  0.17130000000E+03 0.  1.
      622    1    1    2    0    0 -0.41108559510E-02  0.17952692317E-02  0.39452231526E+01  0.39454284743E+01  0.40000000000E-01 0. -1.
</event>
<event>
 5   0  0.6200596E+07  0.9118800E+02  0.7818608E-02  0.1180000E+00
       11   -1    0    0    0    0  0.00000000000E+00  0.00000000000E+00  0.39999999673E+01  0.40000000000E+01  0.51109989000E-03 0.  1.
     -623   -1    0    0    0    0  0.00000000000E+00  0.00000000000E+00  0.12525980253E-10  0.17130000000E+03  0.17130000000E+03 0.  1.
       11    1    1    2    0    0  0.16364346183E-02  0.32915976479E-02  0.10125952116E+00  0.10132751048E+00  0.51109989000E-03 0.  1.
     -623    1    1    2    0    0  0.17229771685E-03 -0.43077918084E-03  0.27463025086E-03  0.17130000000E+03  0.17130000000E+03 0.  1.
      622    1    1    2    0    0 -0.18087323352E-02 -0.28608184670E-02  0.38984658160E+01  0.38986724887E+01  0.40000000000E-01 0.  1.
</event>
<event>
 5   0  0.6200596E+07  0.9118800E+02  0.7818608E-02  0.1180000E+00
       11   -1    0    0    0    0  0.00000000000E+00  0.00000000000E+00  0.39999999673E+01  0.40000000000E+01  0.51109989000E-03 0. -1.
     -623   -1    0    0    0    0  0.00000000000E+00  0.00000000000E+00  0.12525980253E-10  0.17130000000E+03  0.17130000000E+03 0.  1.
       11    1    1    2    0    0  0.72318195414E-04  0.60248230594E-03  0.16409833955E-02  0.18227073320E-02  0.51109989000E-03 0. -1.
     -623    1    1    2    0    0  0.96013467834E-03  0.25878357106E-03  0.38201687442E-03  0.17130000000E+03  0.17130000000E+03 0.  1.
      622    1    1    2    0    0 -0.10324528738E-02 -0.86126587700E-03  0.39979769671E+01  0.39981772894E+01  0.40000000000E-01 0. -1.
</event>
<event>
 5   0  0.6200596E+07  0.9118800E+02  0.7818608E-02  0.1180000E+00
       11   -1    0    0    0    0  0.00000000000E+00  0.00000000000E+00  0.39999999673E+01  0.40000000000E+01  0.51109989000E-03 0.  1.
     -623   -1    0    0    0    0  0.00000000000E+00  0.00000000000E+00  0.12525980253E-10  0.17130000000E+03  0.17130000000E+03 0. -1.
       11    1    1    2    0    0 -0.37579208447E-03 -0.12751166488E-03  0.24935503065E-02  0.25761391516E-02  0.51109989000E-03 0.  1.
     -623    1    1    2    0    0  0.45958401498E-03  0.13510690090E-02  0.28288442800E-03  0.17130000001E+03  0.17130000000E+03 0. -1.
      622    1    1    2    0    0 -0.83791930508E-04 -0.12235573442E-02  0.39972235326E+01  0.39974238547E+01  0.40000000000E-01 0.  1.
</event>
<event>
 5   0  0.6200596E+07  0.9118800E+02  0.7818608E-02  0.1180000E+00
       11   -1    0    0    0    0  0.00000000000E+00  0.00000000000E+00  0.39999999673E+01  0.40000000000E+01  0.51109989000E-03 0. -1.
     -623   -1    0    0    0    0  0.00000000000E+00  0.00000000000E+00  0.12525980253E-10  0.17130000000E+03  0.17130000000E+03 0.  1.
       11    1    1    2    0    0 -0.55190152512E-02  0.58160135011E-02  0.48888115108E+00  0.48894716141E+00  0.51109989000E-03 0. -1.
     -623    1    1    2    0    0  0.12352425921E-01 -0.36834299173E-03  0.30515977484E-03  0.17130000045E+03  0.17130000000E+03 0.  1.
      622    1    1    2    0    0 -0.68334106696E-02 -0.54476705094E-02  0.35108136565E+01  0.35110523926E+01  0.40000000000E-01 0. -1.
</event>
<event>
 5   0  0.6200596E+07  0.9118800E+02  0.7818608E-02  0.1180000E+00
       11   -1    0    0    0    0  0.00000000000E+00  0.00000000000E+00  0.39999999673E+01  0.40000000000E+01  0.51109989000E-03 0. -1.
     -623   -1    0    0    0    0  0.00000000000E+00  0.00000000000E+00  0.12525980253E-10  0.17130000000E+03  0.17130000000E+03 0.  1.
       11    1    1    2    0    0  0.12721954691E-01 -0.30926723625E-02  0.56870444054E+00  0.56885535479E+00  0.51109989000E-03 0. -1.
     -623    1    1    2    0    0 -0.15713695712E-02  0.12092705705E-02  0.40269671651E-03  0.17130000001E+03  0.17130000000E+03 0.  1.
      622    1    1    2    0    0 -0.11150585120E-01  0.18834017920E-02  0.34308928301E+01  0.34311446333E+01  0.40000000000E-01 0.  0.
</event>
<event>
 5   0  0.6200596E+07  0.9118800E+02  0.7818608E-02  0.1180000E+00
       11   -1    0    0    0    0  0.00000000000E+00  0.00000000000E+00  0.39999999673E+01  0.40000000000E+01  0.51109989000E-03 0. -1.
     -623   -1    0    0    0    0  0.00000000000E+00  0.00000000000E+00  0.12525980253E-10  0.17130000000E+03  0.17130000000E+03 0.  1.
       11    1    1    2    0    0 -0.25577095398E-01  0.27693266311E-01  0.19886637629E+01  0.19890210979E+01  0.51109989000E-03 0. -1.
     -623    1    1    2    0    0 -0.99601606881E-02  0.31473349260E-02  0.13061538154E-02  0.17130000032E+03  0.17130000000E+03 0.  1.
      622    1    1    2    0    0  0.35537256086E-01 -0.30840601237E-01  0.20100300506E+01  0.20109785786E+01  0.40000000000E-01 0.  0.
</event>
<event>
 5   0  0.6200596E+07  0.9118800E+02  0.7818608E-02  0.1180000E+00
       11   -1    0    0    0    0  0.00000000000E+00  0.00000000000E+00  0.39999999673E+01  0.40000000000E+01  0.51109989000E-03 0.  1.
     -623   -1    0    0    0    0  0.00000000000E+00  0.00000000000E+00  0.12525980253E-10  0.17130000000E+03  0.17130000000E+03 0.  1.
       11    1    1    2    0    0  0.88633160415E-02 -0.69339297249E-02  0.64494837008E+00  0.64504674175E+00  0.51109989000E-03 0.  1.
     -623    1    1    2    0    0 -0.16705625650E-01  0.54675350127E-02  0.34719014376E-03  0.17130000090E+03  0.17130000000E+03 0.  1.
      622    1    1    2    0    0  0.78423096086E-02  0.14663947122E-02  0.33547044071E+01  0.33549523561E+01  0.40000000000E-01 0.  1.
</event>
<event>
 5   0  0.6200596E+07  0.9118800E+02  0.7818608E-02  0.1180000E+00
       11   -1    0    0    0    0  0.00000000000E+00  0.00000000000E+00  0.39999999673E+01  0.40000000000E+01  0.51109989000E-03 0.  1.
     -623   -1    0    0    0    0  0.00000000000E+00  0.00000000000E+00  0.12525980253E-10  0.17130000000E+03  0.17130000000E+03 0.  1.
       11    1    1    2    0    0  0.64320787874E-03  0.52926343935E-02  0.73009761376E-01  0.73205957223E-01  0.51109989000E-03 0.  1.
     -623    1    1    2    0    0 -0.24257576283E-02  0.58516830757E-03  0.40471960415E-03  0.17130000002E+03  0.17130000000E+03 0.  1.
      622    1    1    2    0    0  0.17825497496E-02 -0.58778027010E-02  0.39265854864E+01  0.39267940241E+01  0.40000000000E-01 0.  1.
</event>
<event>
 5   0  0.6200596E+07  0.9118800E+02  0.7818608E-02  0.1180000E+00
       11   -1    0    0    0    0  0.00000000000E+00  0.00000000000E+00  0.39999999673E+01  0.40000000000E+01  0.51109989000E-03 0.  1.
     -623   -1    0    0    0    0  0.00000000000E+00  0.00000000000E+00  0.12525980253E-10  0.17130000000E+03  0.17130000000E+03 0.  1.
       11    1    1    2    0    0 -0.23683575726E-02  0.42842025359E-04  0.77380966091E-02  0.81086567790E-02  0.51109989000E-03 0.  1.
     -623    1    1    2    0    0  0.19285832847E-02 -0.27268521618E-02  0.57189892254E-03  0.17130000003E+03  0.17130000000E+03 0.  1.
      622    1    1    2    0    0  0.43977428790E-03  0.26840101364E-02  0.39916899718E+01  0.39918913097E+01  0.40000000000E-01 0.  1.
</event>
<event>
 5   0  0.6200596E+07  0.9118800E+02  0.7818608E-02  0.1180000E+00
       11   -1    0    0    0    0  0.00000000000E+00  0.00000000000E+00  0.39999999673E+01  0.40000000000E+01  0.51109989000E-03 0. -1.
     -623   -1    0    0    0    0  0.00000000000E+00  0.00000000000E+00  0.12525980253E-10  0.17130000000E+03  0.17130000000E+03 0. -1.
       11    1    1    2    0    0 -0.16996946071E-02 -0.46764932375E-02  0.53122797343E-01  0.53357767665E-01  0.51109989000E-03 0. -1.
     -623    1    1    2    0    0  0.57043667297E-02  0.24321385858E-02  0.44042973091E-03  0.17130000011E+03  0.17130000000E+03 0. -1.
      622    1    1    2    0    0 -0.40046721226E-02  0.22443546517E-02  0.39464367403E+01  0.39466421195E+01  0.40000000000E-01 0. -1.
</event>
<event>
 5   0  0.6200596E+07  0.9118800E+02  0.7818608E-02  0.1180000E+00
       11   -1    0    0    0    0  0.00000000000E+00  0.00000000000E+00  0.39999999673E+01  0.40000000000E+01  0.51109989000E-03 0. -1.
     -623   -1    0    0    0    0  0.00000000000E+00  0.00000000000E+00  0.12525980253E-10  0.17130000000E+03  0.17130000000E+03 0.  1.
       11    1    1    2    0    0  0.61906106094E-03  0.25390143879E-02  0.29245540424E-02  0.39552582637E-02  0.51109989000E-03 0. -1.
     -623    1    1    2    0    0  0.25822539276E-03  0.10627270448E-02  0.12326020396E-02  0.17130000001E+03  0.17130000000E+03 0.  1.
      622    1    1    2    0    0 -0.87728645369E-03 -0.36017414327E-02  0.39958428113E+01  0.39960447338E+01  0.40000000000E-01 0. -1.
</event>
<event>
 5   0  0.6200596E+07  0.9118800E+02  0.7818608E-02  0.1180000E+00
       11   -1    0    0    0    0  0.00000000000E+00  0.00000000000E+00  0.39999999673E+01  0.40000000000E+01  0.51109989000E-03 0.  1.
     -623   -1    0    0    0    0  0.00000000000E+00  0.00000000000E+00  0.12525980253E-10  0.17130000000E+03  0.17130000000E+03 0.  1.
       11    1    1    2    0    0 -0.26462600923E-02  0.17276798665E-03  0.10898619596E+01  0.10898653058E+01  0.51109989000E-03 0.  1.
     -623    1    1    2    0    0 -0.60409593632E-02 -0.33297520798E-02  0.29304721945E-03  0.17130000014E+03  0.17130000000E+03 0.  1.
      622    1    1    2    0    0  0.86872194554E-02  0.31569840932E-02  0.29098449605E+01  0.29101345551E+01  0.40000000000E-01 0.  1.
</event>
<event>
 5   0  0.6200596E+07  0.9118800E+02  0.7818608E-02  0.1180000E+00
       11   -1    0    0    0    0  0.00000000000E+00  0.00000000000E+00  0.39999999673E+01  0.40000000000E+01  0.51109989000E-03 0. -1.
     -623   -1    0    0    0    0  0.00000000000E+00  0.00000000000E+00  0.12525980253E-10  0.17130000000E+03  0.17130000000E+03 0. -1.
       11    1    1    2    0    0  0.18256173826E-01  0.13975910883E-01  0.17514824946E+01  0.17516334673E+01  0.51109989000E-03 0. -1.
     -623    1    1    2    0    0  0.74923281277E-03 -0.38166138409E-03  0.62823140465E-03  0.17130000000E+03  0.17130000000E+03 0. -1.
      622    1    1    2    0    0 -0.19005406639E-01 -0.13594249499E-01  0.22478892414E+01  0.22483665294E+01  0.40000000000E-01 0.  0.
</event>
<event>
 5   0  0.6200596E+07  0.9118800E+02  0.7818608E-02  0.1180000E+00
       11   -1    0    0    0    0  0.00000000000E+00  0.00000000000E+00  0.39999999673E+01  0.40000000000E+01  0.51109989000E-03 0. -1.
     -623   -1    0    0    0    0  0.00000000000E+00  0.00000000000E+00  0.12525980253E-10  0.17130000000E+03  0.17130000000E+03 0.  1.
       11    1    1    2    0    0  0.63935450855E-02  0.26395934265E-02  0.37970171714E-01  0.38598446005E-01  0.51109989000E-03 0. -1.
     -623    1    1    2    0    0  0.55465956125E-03 -0.21162895938E-02  0.83633991352E-03  0.17130000002E+03  0.17130000000E+03 0.  1.
      622    1    1    2    0    0 -0.69482046467E-02 -0.52330383274E-03  0.39611934557E+01  0.39614015380E+01  0.40000000000E-01 0. -1.
</event>
<event>
 5   0  0.6200596E+07  0.9118800E+02  0.7818608E-02  0.1180000E+00
       11   -1    0    0    0    0  0.00000000000E+00  0.00000000000E+00  0.39999999673E+01  0.40000000000E+01  0.51109989000E-03 0.  1.
     -623   -1    0    0    0    0  0.00000000000E+00  0.00000000000E+00  0.12525980253E-10  0.17130000000E+03  0.17130000000E+03 0.  1.
       11    1    1    2    0    0 -0.13980122054E-01  0.58533030592E-02  0.67653511394E+00  0.67670505139E+00  0.51109989000E-03 0.  1.
     -623    1    1    2    0    0  0.23834093504E-03 -0.33206903664E-02  0.44004972794E-03  0.17130000003E+03  0.17130000000E+03 0.  1.
      622    1    1    2    0    0  0.13741781119E-01 -0.25326126928E-02  0.33230248037E+01  0.33232949157E+01  0.40000000000E-01 0.  1.
</event>
<event>
 5   0  0.6200596E+07  0.9118800E+02  0.7818608E-02  0.1180000E+00
       11   -1    0    0    0    0  0.00000000000E+00  0.00000000000E+00  0.39999999673E+01  0.40000000000E+01  0.51109989000E-03 0.  1.
     -623   -1    0    0    0    0  0.00000000000E+00  0.00000000000E+00  0.12525980253E-10  0.17130000000E+03  0.17130000000E+03 0.  1.
       11    1    1    2    0    0  0.16033180530E-01 -0.38594010710E-01  0.34960379170E-01  0.54488988561E-01  0.51109989000E-03 0.  1.
     -623    1    1    2    0    0 -0.10859920009E-01  0.39183940769E-01  0.19740743426E-01  0.17130000596E+03  0.17130000000E+03 0.  1.
      622    1    1    2    0    0 -0.51732605214E-02 -0.58993005913E-03  0.39452988448E+01  0.39455050482E+01  0.40000000000E-01 0.  1.
</event>
<event>
 5   0  0.6200596E+07  0.9118800E+02  0.7818608E-02  0.1180000E+00
       11   -1    0    0    0    0  0.00000000000E+00  0.00000000000E+00  0.39999999673E+01  0.40000000000E+01  0.51109989000E-03 0.  1.
     -623   -1    0    0    0    0  0.00000000000E+00  0.00000000000E+00  0.12525980253E-10  0.17130000000E+03  0.17130000000E+03 0.  1.
       11    1    1    2    0    0  0.43481340167E-02 -0.81010225175E-03  0.97376172820E-01  0.97477909239E-01  0.51109989000E-03 0.  1.
     -623    1    1    2    0    0 -0.14809719667E-02 -0.33254802389E-02  0.30998845909E-03  0.17130000004E+03  0.17130000000E+03 0.  1.
      622    1    1    2    0    0 -0.28671620500E-02  0.41355824906E-02  0.39023138061E+01  0.39025220518E+01  0.40000000000E-01 0.  1.
</event>
<event>
 5   0  0.6200596E+07  0.9118800E+02  0.7818608E-02  0.1180000E+00
       11   -1    0    0    0    0  0.00000000000E+00  0.00000000000E+00  0.39999999673E+01  0.40000000000E+01  0.51109989000E-03 0.  1.
     -623   -1    0    0    0    0  0.00000000000E+00  0.00000000000E+00  0.12525980253E-10  0.17130000000E+03  0.17130000000E+03 0. -1.
       11    1    1    2    0    0 -0.54825671468E-02 -0.93894851998E-02  0.15115826589E+01  0.15116218499E+01  0.51109989000E-03 0.  1.
     -623    1    1    2    0    0  0.13679854955E-03 -0.82956474968E-03  0.38740518854E-03  0.17130000000E+03  0.17130000000E+03 0. -1.
      622    1    1    2    0    0  0.53457685972E-02  0.10219049949E-01  0.24880299032E+01  0.24883781476E+01  0.40000000000E-01 0.  1.
</event>
<event>
 5   0  0.6200596E+07  0.9118800E+02  0.7818608E-02  0.1180000E+00
       11   -1    0    0    0    0  0.00000000000E+00  0.00000000000E+00  0.39999999673E+01  0.40000000000E+01  0.51109989000E-03 0. -1.
     -623   -1    0    0    0    0  0.00000000000E+00  0.00000000000E+00  0.12525980253E-10  0.17130000000E+03  0.17130000000E+03 0. -1.
       11    1    1    2    0    0  0.20541606264E-01  0.46521724711E-01  0.13404455617E+01  0.13414100021E+01  0.51109989000E-03 0. -1.
     -623    1    1    2    0    0 -0.23739301224E-02 -0.35636520372E-02  0.16746136596E-02  0.17130000006E+03  0.17130000000E+03 0. -1.
      622    1    1    2    0    0 -0.18167676142E-01 -0.42958072673E-01  0.26578797920E+01  0.26585899362E+01  0.40000000000E-01 0.  0.
</event>
<event>
 5   0  0.6200596E+07  0.9118800E+02  0.7818608E-02  0.1180000E+00
       11   -1    0    0    0    0  0.00000000000E+00  0.00000000000E+00  0.39999999673E+01  0.40000000000E+01  0.51109989000E-03 0.  1.
     -623   -1    0    0    0    0  0.00000000000E+00  0.00000000000E+00  0.12525980253E-10  0.17130000000E+03  0.17130000000E+03 0.  1.
       11    1    1    2    0    0  0.50923439995E-02 -0.12737455644E-01  0.10733429447E+01  0.10734307211E+01  0.51109989000E-03 0.  1.
     -623    1    1    2    0    0 -0.62958530403E-02 -0.14900304426E-02  0.39607105695E-03  0.17130000012E+03  0.17130000000E+03 0.  1.
      622    1    1    2    0    0  0.12035090408E-02  0.14227486087E-01  0.29262609516E+01  0.29265691563E+01  0.40000000000E-01 0.  1.
</event>
<event>
 5   0  0.6200596E+07  0.9118800E+02  0.7818608E-02  0.1180000E+00
       11   -1    0    0    0    0  0.00000000000E+00  0.00000000000E+00  0.39999999673E+01  0.40000000000E+01  0.51109989000E-03 0.  1.
     -623   -1    0    0    0    0  0.00000000000E+00  0.00000000000E+00  0.12525980253E-10  0.17130000000E+03  0.17130000000E+03 0.  1.
       11    1    1    2    0    0  0.34227073926E-01  0.13022157238E-02  0.57056404714E-01  0.66549852699E-01  0.51109989000E-03 0.  1.
     -623    1    1    2    0    0 -0.20574083468E-01 -0.13432439460E-01  0.97412448156E-02  0.17130000204E+03  0.17130000000E+03 0.  1.
      622    1    1    2    0    0 -0.13652990459E-01  0.12130223736E-01  0.39332023178E+01  0.39334481081E+01  0.40000000000E-01 0.  1.
</event>
<event>
 5   0  0.6200596E+07  0.9118800E+02  0.7818608E-02  0.1180000E+00
       11   -1    0    0    0    0  0.00000000000E+00  0.00000000000E+00  0.39999999673E+01  0.40000000000E+01  0.51109989000E-03 0.  1.
     -623   -1    0    0    0    0  0.00000000000E+00  0.00000000000E+00  0.12525980253E-10  0.17130000000E+03  0.17130000000E+03 0.  1.
       11    1    1    2    0    0  0.74894511112E-03  0.17274776373E-02  0.40184512176E-02  0.44670202589E-02  0.51109989000E-03 0.  1.
     -623    1    1    2    0    0 -0.22219255408E-02  0.21647145063E-02  0.65096172866E-03  0.17130000003E+03  0.17130000000E+03 0.  1.
      622    1    1    2    0    0  0.14729804297E-02 -0.38921921436E-02  0.39953305544E+01  0.39955329504E+01  0.40000000000E-01 0.  1.
</event>
<event>
 5   0  0.6200596E+07  0.9118800E+02  0.7818608E-02  0.1180000E+00
       11   -1    0    0    0    0  0.00000000000E+00  0.00000000000E+00  0.39999999673E+01  0.40000000000E+01  0.51109989000E-03 0.  1.
     -623   -1    0    0    0    0  0.00000000000E+00  0.00000000000E+00  0.12525980253E-10  0.17130000000E+03  0.17130000000E+03 0. -1.
       11    1    1    2    0    0 -0.84046084077E-02 -0.10752750999E-01  0.18950665459E+01  0.18951157573E+01  0.51109989000E-03 0.  1.
     -623    1    1    2    0    0  0.16010148391E-02  0.66705795459E-02  0.44437627165E-03  0.17130000014E+03  0.17130000000E+03 0. -1.
      622    1    1    2    0    0  0.68035935686E-02  0.40821714531E-02  0.21044890452E+01  0.21048841047E+01  0.40000000000E-01 0. -1.
</event>
<event>
 5   0  0.6200596E+07  0.9118800E+02  0.7818608E-02  0.1180000E+00
       11   -1    0    0    0    0  0.00000000000E+00  0.00000000000E+00  0.39999999673E+01  0.40000000000E+01  0.51109989000E-03 0.  1.
     -623   -1    0    0    0    0  0.00000000000E+00  0.00000000000E+00  0.12525980253E-10  0.17130000000E+03  0.17130000000E+03 0. -1.
       11    1    1    2    0    0  0.27697363383E-01 -0.27588417387E-01  0.30212427351E+01  0.30214956877E+01  0.51109989000E-03 0.  1.
     -623    1    1    2    0    0 -0.12132648086E-01  0.97735572280E-02  0.13577935902E-02  0.17130000071E+03  0.17130000000E+03 0. -1.
      622    1    1    2    0    0 -0.15564715297E-01  0.17814860159E-01  0.97739943862E+00  0.97850359847E+00  0.40000000000E-01 0.  0.
</event>
<event>
 5   0  0.6200596E+07  0.9118800E+02  0.7818608E-02  0.1180000E+00
       11   -1    0    0    0    0  0.00000000000E+00  0.00000000000E+00  0.39999999673E+01  0.40000000000E+01  0.51109989000E-03 0. -1.
     -623   -1    0    0    0    0  0.00000000000E+00  0.00000000000E+00  0.12525980253E-10  0.17130000000E+03  0.17130000000E+03 0. -1.
       11    1    1    2    0    0  0.26770844534E-02  0.13825741855E-04  0.66994055001E-01  0.67049471286E-01  0.51109989000E-03 0. -1.
     -623    1    1    2    0    0 -0.16667833766E-05 -0.21637049566E-03  0.25971411487E-03  0.17130000000E+03  0.17130000000E+03 0. -1.
      622    1    1    2    0    0 -0.26754176700E-02  0.20254475380E-03  0.39327461982E+01  0.39329505284E+01  0.40000000000E-01 0. -1.
</event>
<event>
 5   0  0.6200596E+07  0.9118800E+02  0.7818608E-02  0.1180000E+00
       11   -1    0    0    0    0  0.00000000000E+00  0.00000000000E+00  0.39999999673E+01  0.40000000000E+01  0.51109989000E-03 0.  1.
     -623   -1    0    0    0    0  0.00000000000E+00  0.00000000000E+00  0.12525980253E-10  0.17130000000E+03  0.17130000000E+03 0. -1.
       11    1    1    2    0    0 -0.22575576581E-01  0.59025602620E-01  0.72830854670E+00  0.73104533296E+00  0.51109989000E-03 0.  1.
     -623    1    1    2    0    0  0.34903502796E-01 -0.50854700239E-01  0.30260817324E-02  0.17130001113E+03  0.17130000000E+03 0. -1.
      622    1    1    2    0    0 -0.12327926215E-01 -0.81709023807E-02  0.32686653389E+01  0.32689435357E+01  0.40000000000E-01 0.  1.
</event>
<event>
 5   0  0.6200596E+07  0.9118800E+02  0.7818608E-02  0.1180000E+00
       11   -1    0    0    0    0  0.00000000000E+00  0.00000000000E+00  0.39999999673E+01  0.40000000000E+01  0.51109989000E-03 0. -1.
     -623   -1    0    0    0    0  0.00000000000E+00  0.00000000000E+00  0.12525980253E-10  0.17130000000E+03  0.17130000000E+03 0.  1.
       11    1    1    2    0    0 -0.11634841551E-01 -0.11969233560E-02  0.20822669230E-01  0.23888217571E-01  0.51109989000E-03 0. -1.
     -623    1    1    2    0    0  0.93155760889E-02  0.74557485543E-02  0.32727719490E-02  0.17130000045E+03  0.17130000000E+03 0.  1.
      622    1    1    2    0    0  0.23192654625E-02 -0.62588251983E-02  0.39759045262E+01  0.39761113356E+01  0.40000000000E-01 0. -1.
</event>
<event>
 5   0  0.6200596E+07  0.9118800E+02  0.7818608E-02  0.1180000E+00
       11   -1    0    0    0    0  0.00000000000E+00  0.00000000000E+00  0.39999999673E+01  0.40000000000E+01  0.51109989000E-03 0. -1.
     -623   -1    0    0    0    0  0.00000000000E+00  0.00000000000E+00  0.12525980253E-10  0.17130000000E+03  0.17130000000E+03 0.  1.
       11    1    1    2    0    0  0.26203124529E-02 -0.88618206720E-02  0.27523707937E-01  0.29038140811E-01  0.51109989000E-03 0. -1.
     -623    1    1    2    0    0 -0.84972354121E-02  0.55364099436E-02  0.17219183042E-02  0.17130000031E+03  0.17130000000E+03 0.  1.
      622    1    1    2    0    0  0.58769229592E-02  0.33254107284E-02  0.39707543411E+01  0.39709615503E+01  0.40000000000E-01 0. -1.
</event>
<event>
 5   0  0.6200596E+07  0.9118800E+02  0.7818608E-02  0.1180000E+00
       11   -1    0    0    0    0  0.00000000000E+00  0.00000000000E+00  0.39999999673E+01  0.40000000000E+01  0.51109989000E-03 0.  1.
     -623   -1    0    0    0    0  0.00000000000E+00  0.00000000000E+00  0.12525980253E-10  0.17130000000E+03  0.17130000000E+03 0.  1.
       11    1    1    2    0    0 -0.95375465116E-02 -0.71827985794E-02  0.71483095426E+00  0.71493084405E+00  0.51109989000E-03 0.  1.
     -623    1    1    2    0    0  0.19006094442E-01  0.14085604335E-02  0.36317468174E-03  0.17130000106E+03  0.17130000000E+03 0.  1.
      622    1    1    2    0    0 -0.94685479302E-02  0.57742381459E-02  0.32848058384E+01  0.32850680954E+01  0.40000000000E-01 0.  1.
</event>
<event>
 5   0  0.6200596E+07  0.9118800E+02  0.7818608E-02  0.1180000E+00
       11   -1    0    0    0    0  0.00000000000E+00  0.00000000000E+00  0.39999999673E+01  0.40000000000E+01  0.51109989000E-03 0. -1.
     -623   -1    0    0    0    0  0.00000000000E+00  0.00000000000E+00  0.12525980253E-10  0.17130000000E+03  0.17130000000E+03 0. -1.
       11    1    1    2    0    0 -0.34941483975E-02  0.14119784486E-02  0.82914629008E-02  0.91220794895E-02  0.51109989000E-03 0. -1.
     -623    1    1    2    0    0  0.32601029712E-02 -0.35507417089E-02  0.10316970502E-02  0.17130000007E+03  0.17130000000E+03 0. -1.
      622    1    1    2    0    0  0.23404542631E-03  0.21387632603E-02  0.39906768074E+01  0.39908778496E+01  0.40000000000E-01 0. -1.
</event>
<event>
 5   0  0.6200596E+07  0.9118800E+02  0.7818608E-02  0.1180000E+00
       11   -1    0    0    0    0  0.00000000000E+00  0.00000000000E+00  0.39999999673E+01  0.40000000000E+01  0.51109989000E-03 0.  1.
     -623   -1    0    0    0    0  0.00000000000E+00  0.00000000000E+00  0.12525980253E-10  0.17130000000E+03  0.17130000000E+03 0.  1.
       11    1    1    2    0    0  0.15258998888E-02 -0.25028678063E-03  0.78026457343E-02  0.79707913966E-02  0.51109989000E-03 0.  1.
     -623    1    1    2    0    0 -0.47359059807E-03  0.37372747087E-03  0.36865945809E-03  0.17130000000E+03  0.17130000000E+03 0.  1.
      622    1    1    2    0    0 -0.10523092908E-02 -0.12344069025E-03  0.39918286622E+01  0.39920292071E+01  0.40000000000E-01 0.  1.
</event>
<event>
 5   0  0.6200596E+07  0.9118800E+02  0.7818608E-02  0.1180000E+00
       11   -1    0    0    0    0  0.00000000000E+00  0.00000000000E+00  0.39999999673E+01  0.40000000000E+01  0.51109989000E-03 0.  1.
     -623   -1    0    0    0    0  0.00000000000E+00  0.00000000000E+00  0.12525980253E-10  0.17130000000E+03  0.17130000000E+03 0.  1.
       11    1    1    2    0    0  0.15936954552E-01 -0.44788668229E-01  0.18817655665E+00  0.19408938410E+00  0.51109989000E-03 0.  1.
     -623    1    1    2    0    0 -0.11297597718E-01 -0.34626951222E-02  0.64322511619E-02  0.17130000053E+03  0.17130000000E+03 0.  1.
      622    1    1    2    0    0 -0.46393568337E-02  0.48251363351E-01  0.38053911595E+01  0.38059100876E+01  0.40000000000E-01 0.  1.
</event>
<event>
 5   0  0.6200596E+07  0.9118800E+02  0.7818608E-02  0.1180000E+00
       11   -1    0    0    0    0  0.00000000000E+00  0.00000000000E+00  0.39999999673E+01  0.40000000000E+01  0.51109989000E-03 0. -1.
     -623   -1    0    0    0    0  0.00000000000E+00  0.00000000000E+00  0.12525980253E-10  0.17130000000E+03  0.17130000000E+03 0. -1.
       11    1    1    2    0    0 -0.16313106308E-01  0.98205679834E-02  0.31085528160E+01  0.31086111742E+01  0.51109989000E-03 0. -1.
     -623    1    1    2    0    0 -0.18580189858E-02  0.10404965036E-02  0.12079390486E-02  0.17130000002E+03  0.17130000000E+03 0. -1.
      622    1    1    2    0    0  0.18171125294E-01 -0.10861064487E-01  0.89023921230E+00  0.89138880834E+00  0.40000000000E-01 0.  1.
</event>
<event>
 5   0  0.6200596E+07  0.9118800E+02  0.7818608E-02  0.1180000E+00
       11   -1    0    0    0    0  0.00000000000E+00  0.00000000000E+00  0.39999999673E+01  0.40000000000E+01  0.51109989000E-03 0.  1.
     -623   -1    0    0    0    0  0.00000000000E+00  0.00000000000E+00  0.12525980253E-10  0.17130000000E+03  0.17130000000E+03 0.  1.
       11    1    1    2    0    0  0.37472979372E-02 -0.30793205007E-01  0.15694817004E+01  0.15697883083E+01  0.51109989000E-03 0.  1.
     -623    1    1    2    0    0 -0.14384712136E-01  0.20390627930E-01  0.68315782072E-03  0.17130000182E+03  0.17130000000E+03 0.  1.
      622    1    1    2    0    0  0.10637414199E-01  0.10402577077E-01  0.24298351092E+01  0.24302098728E+01  0.40000000000E-01 0.  1.
</event>
<event>
 5   0  0.6200596E+07  0.9118800E+02  0.7818608E-02  0.1180000E+00
       11   -1    0    0    0    0  0.00000000000E+00  0.00000000000E+00  0.39999999673E+01  0.40000000000E+01  0.51109989000E-03 0. -1.
     -623   -1    0    0    0    0  0.00000000000E+00  0.00000000000E+00  0.12525980253E-10  0.17130000000E+03  0.17130000000E+03 0. -1.
       11    1    1    2    0    0 -0.13614827343E-02  0.90622555600E-02  0.15180208644E+00  0.15207929768E+00  0.51109989000E-03 0. -1.
     -623    1    1    2    0    0  0.46090758902E-02 -0.19648445711E-02  0.49307910601E-03  0.17130000007E+03  0.17130000000E+03 0. -1.
      622    1    1    2    0    0 -0.32475931559E-02 -0.70974109889E-02  0.38477048018E+01  0.38479206283E+01  0.40000000000E-01 0. -1.
</event>
<event>
 5   0  0.6200596E+07  0.9118800E+02  0.7818608E-02  0.1180000E+00
       11   -1    0    0    0    0  0.00000000000E+00  0.00000000000E+00  0.39999999673E+01  0.40000000000E+01  0.51109989000E-03 0. -1.
     -623   -1    0    0    0    0  0.00000000000E+00  0.00000000000E+00  0.12525980253E-10  0.17130000000E+03  0.17130000000E+03 0.  1.
       11    1    1    2    0    0 -0.11259036007E-01  0.19752743597E-02  0.22147753171E+01  0.22148048750E+01  0.51109989000E-03 0. -1.
     -623    1    1    2    0    0  0.47957969837E-02 -0.10317222483E-01  0.50928884328E-03  0.17130000038E+03  0.17130000000E+03 0.  1.
      622    1    1    2    0    0  0.64632390232E-02  0.83419481232E-02  0.17847153614E+01  0.17851947465E+01  0.40000000000E-01 0. -1.
</event>
<event>
 5   0  0.6200596E+07  0.9118800E+02  0.7818608E-02  0.1180000E+00
       11   -1    0    0    0    0  0.00000000000E+00  0.00000000000E+00  0.39999999673E+01  0.40000000000E+01  0.51109989000E-03 0. -1.
     -623   -1    0    0    0    0  0.00000000000E+00  0.00000000000E+00  0.12525980253E-10  0.17130000000E+03  0.17130000000E+03 0. -1.
       11    1    1    2    0    0 -0.38323368201E-02  0.22213762575E-01  0.17386694542E+01  0.17388156516E+01  0.51109989000E-03 0. -1.
     -623    1    1    2    0    0  0.59554720805E-03 -0.23139804889E-02  0.58990456148E-03  0.17130000002E+03  0.17130000000E+03 0. -1.
      622    1    1    2    0    0  0.32367896121E-02 -0.19899782086E-01  0.22607406086E+01  0.22611843307E+01  0.40000000000E-01 0.  0.
</event>
<event>
 5   0  0.6200596E+07  0.9118800E+02  0.7818608E-02  0.1180000E+00
       11   -1    0    0    0    0  0.00000000000E+00  0.00000000000E+00  0.39999999673E+01  0.40000000000E+01  0.51109989000E-03 0.  1.
     -623   -1    0    0    0    0  0.00000000000E+00  0.00000000000E+00  0.12525980253E-10  0.17130000000E+03  0.17130000000E+03 0. -1.
       11    1    1    2    0    0  0.63602793023E-02 -0.47572789916E-02  0.28996603512E-01  0.30069072029E-01  0.51109989000E-03 0.  1.
     -623    1    1    2    0    0 -0.62576718867E-02 -0.74615373724E-02  0.12930436444E-02  0.17130000028E+03  0.17130000000E+03 0. -1.
      622    1    1    2    0    0 -0.10260741561E-03  0.12218816364E-01  0.39697103202E+01  0.39699306463E+01  0.40000000000E-01 0.  1.
</event>
<event>
 5   0  0.6200596E+07  0.9118800E+02  0.7818608E-02  0.1180000E+00
       11   -1    0    0    0    0  0.00000000000E+00  0.00000000000E+00  0.39999999673E+01  0.40000000000E+01  0.51109989000E-03 0. -1.
     -623   -1    0    0    0    0  0.00000000000E+00  0.00000000000E+00  0.12525980253E-10  0.17130000000E+03  0.17130000000E+03 0.  1.
       11    1    1    2    0    0 -0.13801230970E-02 -0.35795072591E-02  0.93833282738E+00  0.93834080897E+00  0.51109989000E-03 0. -1.
     -623    1    1    2    0    0  0.39372950204E-02 -0.71191702649E-02  0.28921218636E-03  0.17130000019E+03  0.17130000000E+03 0.  1.
      622    1    1    2    0    0 -0.25571719235E-02  0.10698677524E-01  0.30613779278E+01  0.30616589976E+01  0.40000000000E-01 0. -1.
</event>
<event>
 5   0  0.6200596E+07  0.9118800E+02  0.7818608E-02  0.1180000E+00
       11   -1    0    0    0    0  0.00000000000E+00  0.00000000000E+00  0.39999999673E+01  0.40000000000E+01  0.51109989000E-03 0.  1.
     -623   -1    0    0    0    0  0.00000000000E+00  0.00000000000E+00  0.12525980253E-10  0.17130000000E+03  0.17130000000E+03 0.  1.
       11    1    1    2    0    0 -0.16861246424E-03 -0.52075205991E-03  0.62747492835E-02  0.63192811144E-02  0.51109989000E-03 0.  1.
     -623    1    1    2    0    0  0.84564103659E-04  0.14137156724E-02  0.24492742897E-03  0.17130000001E+03  0.17130000000E+03 0.  1.
      622    1    1    2    0    0  0.84048360581E-04 -0.89296361246E-03  0.39934802906E+01  0.39936807129E+01  0.40000000000E-01 0.  1.
</event>
<event>
 5   0  0.6200596E+07  0.9118800E+02  0.7818608E-02  0.1180000E+00
       11   -1    0    0    0    0  0.00000000000E+00  0.00000000000E+00  0.39999999673E+01  0.40000000000E+01  0.51109989000E-03 0.  1.
     -623   -1    0    0    0    0  0.00000000000E+00  0.00000000000E+00  0.12525980253E-10  0.17130000000E+03  0.17130000000E+03 0.  1.
       11    1    1    2    0    0  0.40261290039E-01  0.11208367340E+00  0.25471637456E+01  0.25499464954E+01  0.51109989000E-03 0.  1.
     -623    1    1    2    0    0 -0.19906248888E-01  0.24211322830E-02  0.80090552714E-02  0.17130000136E+03  0.17130000000E+03 0.  1.
      622    1    1    2    0    0 -0.20355041152E-01 -0.11450480568E+00  0.14448271665E+01  0.14500521436E+01  0.40000000000E-01 0. -1.
</event>
<event>
 5   0  0.6200596E+07  0.9118800E+02  0.7818608E-02  0.1180000E+00
       11   -1    0    0    0    0  0.00000000000E+00  0.00000000000E+00  0.39999999673E+01  0.40000000000E+01  0.51109989000E-03 0. -1.
     -623   -1    0    0    0    0  0.00000000000E+00  0.00000000000E+00  0.12525980253E-10  0.17130000000E+03  0.17130000000E+03 0.  1.
       11    1    1    2    0    0  0.31821657148E-02 -0.70383474808E-02  0.23316284954E+01  0.23316413460E+01  0.51109989000E-03 0. -1.
     -623    1    1    2    0    0 -0.14093562613E-02 -0.18467075190E-02  0.51702500880E-03  0.17130000002E+03  0.17130000000E+03 0.  1.
      622    1    1    2    0    0 -0.17728094535E-02  0.88850549998E-02  0.16678544470E+01  0.16683586375E+01  0.40000000000E-01 0. -1.
</event>
<event>
 5   0  0.6200596E+07  0.9118800E+02  0.7818608E-02  0.1180000E+00
       11   -1    0    0    0    0  0.00000000000E+00  0.00000000000E+00  0.39999999673E+01  0.40000000000E+01  0.51109989000E-03 0. -1.
     -623   -1    0    0    0    0  0.00000000000E+00  0.00000000000E+00  0.12525980253E-10  0.17130000000E+03  0.17130000000E+03 0.  1.
       11    1    1    2    0    0 -0.18256658917E-02 -0.60599359235E-03  0.50560012313E-01  0.50599173415E-01  0.51109989000E-03 0. -1.
     -623    1    1    2    0    0 -0.25574350201E-03  0.90706410780E-03  0.24225876805E-03  0.17130000000E+03  0.17130000000E+03 0.  1.
      622    1    1    2    0    0  0.20814093937E-02 -0.30107051545E-03  0.39491976963E+01  0.39494008238E+01  0.40000000000E-01 0. -1.
</event>
<event>
 5   0  0.6200596E+07  0.9118800E+02  0.7818608E-02  0.1180000E+00
       11   -1    0    0    0    0  0.00000000000E+00  0.00000000000E+00  0.39999999673E+01  0.40000000000E+01  0.51109989000E-03 0.  1.
     -623   -1    0    0    0    0  0.00000000000E+00  0.00000000000E+00  0.12525980253E-10  0.17130000000E+03  0.17130000000E+03 0. -1.
       11    1    1    2    0    0  0.14498096479E-01  0.66623801998E-02  0.55591030670E+00  0.55613947210E+00  0.51109989000E-03 0.  1.
     -623    1    1    2    0    0  0.88308916893E-02 -0.15217023311E-01  0.55199094200E-03  0.17130000090E+03  0.17130000000E+03 0. -1.
      622    1    1    2    0    0 -0.23328988168E-01  0.85546431113E-02  0.34435376697E+01  0.34438596235E+01  0.40000000000E-01 0.  0.
</event>
<event>
 5   0  0.6200596E+07  0.9118800E+02  0.7818608E-02  0.1180000E+00
       11   -1    0    0    0    0  0.00000000000E+00  0.00000000000E+00  0.39999999673E+01  0.40000000000E+01  0.51109989000E-03 0.  1.
     -623   -1    0    0    0    0  0.00000000000E+00  0.00000000000E+00  0.12525980253E-10  0.17130000000E+03  0.17130000000E+03 0. -1.
       11    1    1    2    0    0 -0.31291689773E-02 -0.51597191677E-02  0.55419261803E+00  0.55422570628E+00  0.51109989000E-03 0.  1.
     -623    1    1    2    0    0  0.29492492575E-02 -0.57694931983E-02  0.28269304722E-03  0.17130000012E+03  0.17130000000E+03 0. -1.
      622    1    1    2    0    0  0.17991971970E-03  0.10929212366E-01  0.34455246563E+01  0.34457741709E+01  0.40000000000E-01 0.  1.
</event>
<event>
 5   0  0.6200596E+07  0.9118800E+02  0.7818608E-02  0.1180000E+00
       11   -1    0    0    0    0  0.00000000000E+00  0.00000000000E+00  0.39999999673E+01  0.40000000000E+01  0.51109989000E-03 0. -1.
     -623   -1    0    0    0    0  0.00000000000E+00  0.00000000000E+00  0.12525980253E-10  0.17130000000E+03  0.17130000000E+03 0.  1.
       11    1    1    2    0    0 -0.28632537262E-02  0.19823911899E-02  0.75015066240E-01  0.75097599709E-01  0.51109989000E-03 0. -1.
     -623    1    1    2    0    0 -0.10437468508E-02 -0.14281574473E-02  0.28832604691E-03  0.17130000001E+03  0.17130000000E+03 0.  1.
      622    1    1    2    0    0  0.39070005770E-02 -0.55423374260E-03  0.39246965751E+01  0.39249023909E+01  0.40000000000E-01 0. -1.
</event>
<event>
 5   0  0.6200596E+07  0.9118800E+02  0.7818608E-02  0.1180000E+00
       11   -1    0    0    0    0  0.00000000000E+00  0.00000000000E+00  0.39999999673E+01  0.40000000000E+01  0.51109989000E-03 0. -1.
     -623   -1    0    0    0    0  0.00000000000E+00  0.00000000000E+00  0.12525980253E-10  0.17130000000E+03  0.17130000000E+03 0. -1.
       11    1    1    2    0    0  0.76594898792E-02 -0.68135894438E-02  0.43571006021E+00  0.43583094265E+00  0.51109989000E-03 0. -1.
     -623    1    1    2    0    0  0.83773374492E-03  0.18642911505E-03  0.36160691247E-03  0.17130000000E+03  0.17130000000E+03 0. -1.
      622    1    1    2    0    0 -0.84972236241E-02  0.66271603287E-02  0.35639283002E+01  0.35641690548E+01  0.40000000000E-01 0. -1.
</event>
<event>
 5   0  0.6200596E+07  0.9118800E+02  0.7818608E-02  0.1180000E+00
       11   -1    0    0    0    0  0.00000000000E+00  0.00000000000E+00  0.39999999673E+01  0.40000000000E+01  0.51109989000E-03 0.  1.
     -623   -1    0    0    0    0  0.00000000000E+00  0.00000000000E+00  0.12525980253E-10  0.17130000000E+03  0.17130000000E+03 0. -1.
       11    1    1    2    0    0 -0.40186985464E-02 -0.14837532022E-02  0.38065269405E+00  0.38067714164E+00  0.51109989000E-03 0.  1.
     -623    1    1    2    0    0  0.26595480726E-02 -0.14772296977E-03  0.24610135913E-03  0.17130000002E+03  0.17130000000E+03 0. -1.
      622    1    1    2    0    0  0.13591504738E-02  0.16314761720E-02  0.36191011720E+01  0.36193228375E+01  0.40000000000E-01 0.  1.
</event>
<event>
 5   0  0.6200596E+07  0.9118800E+02  0.7818608E-02  0.1180000E+00
       11   -1    0    0    0    0  0.00000000000E+00  0.00000000000E+00  0.39999999673E+01  0.40000000000E+01  0.51109989000E-03 0. -1.
     -623   -1    0    0    0    0  0.00000000000E+00  0.00000000000E+00  0.12525980253E-10  0.17130000000E+03  0.17130000000E+03 0.  1.
       11    1    1    2    0    0 -0.19979821928E-03  0.86612622909E-03  0.63235560538E-02  0.64061436854E-02  0.51109989000E-03 0. -1.
     -623    1    1    2    0    0  0.83410118272E-03 -0.15662622101E-02  0.28300201303E-03  0.17130000001E+03  0.17130000000E+03 0.  1.
      622    1    1    2    0    0 -0.63430296344E-03  0.70013598105E-03  0.39933934093E+01  0.39935938469E+01  0.40000000000E-01 0. -1.
</event>
<event>
 5   0  0.6200596E+07  0.9118800E+02  0.7818608E-02  0.1180000E+00
       11   -1    0    0    0    0  0.00000000000E+00  0.00000000000E+00  0.39999999673E+01  0.40000000000E+01  0.51109989000E-03 0.  1.
     -623   -1    0    0    0    0  0.00000000000E+00  0.00000000000E+00  0.12525980253E-10  0.17130000000E+03  0.17130000000E+03 0. -1.
       11    1    1    2    0    0 -0.13834404464E-02  0.51725905804E-02  0.38950270143E-01  0.39319897845E-01  0.51109989000E-03 0.  1.
     -623    1    1    2    0    0 -0.13722970676E-02  0.68081645945E-03  0.57687781925E-03  0.17130000001E+03  0.17130000000E+03 0. -1.
      622    1    1    2    0    0  0.27557375140E-02 -0.58534070398E-02  0.39604728194E+01  0.39606800943E+01  0.40000000000E-01 0.  1.
</event>
<event>
 5   0  0.6200596E+07  0.9118800E+02  0.7818608E-02  0.1180000E+00
       11   -1    0    0    0    0  0.00000000000E+00  0.00000000000E+00  0.39999999673E+01  0.40000000000E+01  0.51109989000E-03 0. -1.
     -623   -1    0    0    0    0  0.00000000000E+00  0.00000000000E+00  0.12525980253E-10  0.17130000000E+03  0.17130000000E+03 0.  1.
       11    1    1    2    0    0  0.26413536147E-02  0.68877307292E-03  0.10049600053E-01  0.10426257188E-01  0.51109989000E-03 0. -1.
     -623    1    1    2    0    0  0.50870655114E-03 -0.61025552200E-03  0.57839946549E-03  0.17130000000E+03  0.17130000000E+03 0.  1.
      622    1    1    2    0    0 -0.31500601659E-02 -0.78517550925E-04  0.39893719678E+01  0.39895737400E+01  0.40000000000E-01 0. -1.
</event>
<event>
 5   0  0.6200596E+07  0.9118800E+02  0.7818608E-02  0.1180000E+00
       11   -1    0    0    0    0  0.00000000000E+00  0.00000000000E+00  0.39999999673E+01  0.40000000000E+01  0.51109989000E-03 0. -1.
     -623   -1    0    0    0    0  0.00000000000E+00  0.00000000000E+00  0.12525980253E-10  0.17130000000E+03  0.17130000000E+03 0. -1.
       11    1    1    2    0    0 -0.49631253428E-03 -0.64765742639E-03  0.90249393504E-02  0.90761522360E-02  0.51109989000E-03 0. -1.
     -623    1    1    2    0    0  0.25361353139E-02  0.21833527207E-04  0.25222947129E-03  0.17130000002E+03  0.17130000000E+03 0. -1.
      622    1    1    2    0    0 -0.20398227797E-02  0.62582389919E-03  0.39907227985E+01  0.39909238288E+01  0.40000000000E-01 0. -1.
</event>
<event>
 5   0  0.6200596E+07  0.9118800E+02  0.7818608E-02  0.1180000E+00
       11   -1    0    0    0    0  0.00000000000E+00  0.00000000000E+00  0.39999999673E+01  0.40000000000E+01  0.51109989000E-03 0.  1.
     -623   -1    0    0    0    0  0.00000000000E+00  0.00000000000E+00  0.12525980253E-10  0.17130000000E+03  0.17130000000E+03 0. -1.
       11    1    1    2    0    0 -0.65687236415E-03 -0.66862627602E-05  0.43708742862E-02  0.44494146625E-02  0.51109989000E-03 0.  1.
     -623    1    1    2    0    0  0.17798002580E-02 -0.75310593956E-03  0.27897664977E-03  0.17130000001E+03  0.17130000000E+03 0. -1.
      622    1    1    2    0    0 -0.11229278938E-02  0.75979220232E-03  0.39953501164E+01  0.39955505742E+01  0.40000000000E-01 0.  1.
</event>
<event>
 5   0  0.6200596E+07  0.9118800E+02  0.7818608E-02  0.1180000E+00
       11   -1    0    0    0    0  0.00000000000E+00  0.00000000000E+00  0.39999999673E+01  0.40000000000E+01  0.51109989000E-03 0. -1.
     -623   -1    0    0    0    0  0.00000000000E+00  0.00000000000E+00  0.12525980253E-10  0.17130000000E+03  0.17130000000E+03 0. -1.
       11    1    1    2    0    0 -0.30634470595E-01  0.47009077115E-01  0.54791021434E+00  0.55077598742E+00  0.51109989000E-03 0. -1.
     -623    1    1    2    0    0  0.10472018704E-01 -0.11216007278E-01  0.33430742330E-02  0.17130000072E+03  0.17130000000E+03 0. -1.
      622    1    1    2    0    0  0.20162451891E-01 -0.35793069838E-01  0.34487466788E+01  0.34492232927E+01  0.40000000000E-01 0. -1.
</event>
<event>
 5   0  0.6200596E+07  0.9118800E+02  0.7818608E-02  0.1180000E+00
       11   -1    0    0    0    0  0.00000000000E+00  0.00000000000E+00  0.39999999673E+01  0.40000000000E+01  0.51109989000E-03 0.  1.
     -623   -1    0    0    0    0  0.00000000000E+00  0.00000000000E+00  0.12525980253E-10  0.17130000000E+03  0.17130000000E+03 0.  1.
       11    1    1    2    0    0 -0.25935378606E-03  0.20126307867E-02  0.13145551539E-01  0.13311074120E-01  0.51109989000E-03 0.  1.
     -623    1    1    2    0    0  0.11307115666E-02 -0.17158827946E-02  0.36628175896E-03  0.17130000001E+03  0.17130000000E+03 0.  1.
      622    1    1    2    0    0 -0.87135778052E-03 -0.29674799211E-03  0.39864881341E+01  0.39866889132E+01  0.40000000000E-01 0.  1.
</event>
<event>
 5   0  0.6200596E+07  0.9118800E+02  0.7818608E-02  0.1180000E+00
       11   -1    0    0    0    0  0.00000000000E+00  0.00000000000E+00  0.39999999673E+01  0.40000000000E+01  0.51109989000E-03 0. -1.
     -623   -1    0    0    0    0  0.00000000000E+00  0.00000000000E+00  0.12525980253E-10  0.17130000000E+03  0.17130000000E+03 0. -1.
       11    1    1    2    0    0 -0.71752672834E-01  0.90592775439E-02  0.91300586860E+00  0.91586598031E+00  0.51109989000E-03 0. -1.
     -623    1    1    2    0    0  0.16069246880E-01  0.13575563540E-01  0.37066556413E-02  0.17130000133E+03  0.17130000000E+03 0. -1.
      622    1    1    2    0    0  0.55683425954E-01 -0.22634841084E-01  0.30832874431E+01  0.30841326879E+01  0.40000000000E-01 0. -1.
</event>
<event>
 5   0  0.6200596E+07  0.9118800E+02  0.7818608E-02  0.1180000E+00
       11   -1    0    0    0    0  0.00000000000E+00  0.00000000000E+00  0.39999999673E+01  0.40000000000E+01  0.51109989000E-03 0.  1.
     -623   -1    0    0    0    0  0.00000000000E+00  0.00000000000E+00  0.12525980253E-10  0.17130000000E+03  0.17130000000E+03 0. -1.
       11    1    1    2    0    0  0.61166941711E-03 -0.80730790383E-05  0.34164933013E-02  0.35082550605E-02  0.51109989000E-03 0.  1.
     -623    1    1    2    0    0 -0.71957640770E-03 -0.10298515796E-02  0.29205079825E-03  0.17130000000E+03  0.17130000000E+03 0. -1.
      622    1    1    2    0    0  0.10790699059E-03  0.10379246586E-02  0.39962914233E+01  0.39964917401E+01  0.40000000000E-01 0.  1.
</event>
<event>
 5   0  0.6200596E+07  0.9118800E+02  0.7818608E-02  0.1180000E+00
       11   -1    0    0    0    0  0.00000000000E+00  0.00000000000E+00  0.39999999673E+01  0.40000000000E+01  0.51109989000E-03 0.  1.
     -623   -1    0    0    0    0  0.00000000000E+00  0.00000000000E+00  0.12525980253E-10  0.17130000000E+03  0.17130000000E+03 0.  1.
       11    1    1    2    0    0 -0.15693721993E-03 -0.76002136387E-02  0.21862833614E-01  0.23152377666E-01  0.51109989000E-03 0.  1.
     -623    1    1    2    0    0  0.14532179868E-02  0.57855124100E-02  0.14914165581E-02  0.17130000011E+03  0.17130000000E+03 0.  1.
      622    1    1    2    0    0 -0.12962807669E-02  0.18147012288E-02  0.39766457172E+01  0.39768475120E+01  0.40000000000E-01 0.  1.
</event>
<event>
 5   0  0.6200596E+07  0.9118800E+02  0.7818608E-02  0.1180000E+00
       11   -1    0    0    0    0  0.00000000000E+00  0.00000000000E+00  0.39999999673E+01  0.40000000000E+01  0.51109989000E-03 0. -1.
     -623   -1    0    0    0    0  0.00000000000E+00  0.00000000000E+00  0.12525980253E-10  0.17130000000E+03  0.17130000000E+03 0.  1.
       11    1    1    2    0    0 -0.41191392094E-02 -0.18686230031E-01  0.14933641986E+01  0.14934868708E+01  0.51109989000E-03 0. -1.
     -623    1    1    2    0    0  0.24279157493E-02  0.26039402760E-04  0.51188643021E-03  0.17130000002E+03  0.17130000000E+03 0.  1.
      622    1    1    2    0    0  0.16912234601E-02  0.18660190628E-01  0.25061238823E+01  0.25065131112E+01  0.40000000000E-01 0. -1.
</event>
<event>
 5   0  0.6200596E+07  0.9118800E+02  0.7818608E-02  0.1180000E+00
       11   -1    0    0    0    0  0.00000000000E+00  0.00000000000E+00  0.39999999673E+01  0.40000000000E+01  0.51109989000E-03 0. -1.
     -623   -1    0    0    0    0  0.00000000000E+00  0.00000000000E+00  0.12525980253E-10  0.17130000000E+03  0.17130000000E+03 0. -1.
       11    1    1    2    0    0 -0.22176488296E-01 -0.24282584693E-01  0.13641175559E+01  0.13645139824E+01  0.51109989000E-03 0. -1.
     -623    1    1    2    0    0 -0.15441914083E-02 -0.77953272174E-03  0.92592045051E-03  0.17130000001E+03  0.17130000000E+03 0. -1.
      622    1    1    2    0    0  0.23720679704E-01  0.25062117414E-01  0.26349564910E+01  0.26354860064E+01  0.40000000000E-01 0.  0.
</event>
<event>
 5   0  0.6200596E+07  0.9118800E+02  0.7818608E-02  0.1180000E+00
       11   -1    0    0    0    0  0.00000000000E+00  0.00000000000E+00  0.39999999673E+01  0.40000000000E+01  0.51109989000E-03 0.  1.
     -623   -1    0    0    0    0  0.00000000000E+00  0.00000000000E+00  0.12525980253E-10  0.17130000000E+03  0.17130000000E+03 0.  1.
       11    1    1    2    0    0  0.35489602867E-02  0.13370053672E-02  0.38503367011E-01  0.38693063923E-01  0.51109989000E-03 0.  1.
     -623    1    1    2    0    0  0.61425097743E-03 -0.45359539180E-03  0.39391145071E-03  0.17130000000E+03  0.17130000000E+03 0.  1.
      622    1    1    2    0    0 -0.41632112641E-02 -0.88340997544E-03  0.39611026889E+01  0.39613069339E+01  0.40000000000E-01 0.  1.
</event>
<event>
 5   0  0.6200596E+07  0.9118800E+02  0.7818608E-02  0.1180000E+00
       11   -1    0    0    0    0  0.00000000000E+00  0.00000000000E+00  0.39999999673E+01  0.40000000000E+01  0.51109989000E-03 0.  1.
     -623   -1    0    0    0    0  0.00000000000E+00  0.00000000000E+00  0.12525980253E-10  0.17130000000E+03  0.17130000000E+03 0.  1.
       11    1    1    2    0    0 -0.17707504023E-03  0.18743310169E-01  0.17515823652E+00  0.17615905335E+00  0.51109989000E-03 0.  1.
     -623    1    1    2    0    0 -0.48074937017E-02 -0.74563581782E-02  0.12301457876E-02  0.17130000023E+03  0.17130000000E+03 0.  1.
      622    1    1    2    0    0  0.49845687419E-02 -0.11286951991E-01  0.38236115851E+01  0.38238407125E+01  0.40000000000E-01 0.  0.
</event>
<event>
 5   0  0.6200596E+07  0.9118800E+02  0.7818608E-02  0.1180000E+00
       11   -1    0    0    0    0  0.00000000000E+00  0.00000000000E+00  0.39999999673E+01  0.40000000000E+01  0.51109989000E-03 0.  1.
     -623   -1    0    0    0    0  0.00000000000E+00  0.00000000000E+00  0.12525980253E-10  0.17130000000E+03  0.17130000000E+03 0.  1.
       11    1    1    2    0    0 -0.21621602211E-02  0.33010991819E-02  0.11718340765E-01  0.12375496938E-01  0.51109989000E-03 0.  1.
     -623    1    1    2    0    0 -0.58792732474E-03 -0.47175026570E-02  0.85901731976E-03  0.17130000007E+03  0.17130000000E+03 0.  1.
      622    1    1    2    0    0  0.27500875458E-02  0.14164034751E-02  0.39874226093E+01  0.39876244349E+01  0.40000000000E-01 0.  1.
</event>
<event>
 5   0  0.6200596E+07  0.9118800E+02  0.7818608E-02  0.1180000E+00
       11   -1    0    0    0    0  0.00000000000E+00  0.00000000000E+00  0.39999999673E+01  0.40000000000E+01  0.51109989000E-03 0. -1.
     -623   -1    0    0    0    0  0.00000000000E+00  0.00000000000E+00  0.12525980253E-10  0.17130000000E+03  0.17130000000E+03 0. -1.
       11    1    1    2    0    0 -0.47924650571E-01 -0.30524773233E-02  0.12305346599E+00  0.13209279490E+00  0.51109989000E-03 0. -1.
     -623    1    1    2    0    0  0.10517294135E-01 -0.44397623296E-02  0.94349305241E-02  0.17130000064E+03  0.17130000000E+03 0. -1.
      622    1    1    2    0    0  0.37407356437E-01  0.74922396529E-02  0.38675115708E+01  0.38679065649E+01  0.40000000000E-01 0. -1.
</event>
<event>
 5   0  0.6200596E+07  0.9118800E+02  0.7818608E-02  0.1180000E+00
       11   -1    0    0    0    0  0.00000000000E+00  0.00000000000E+00  0.39999999673E+01  0.40000000000E+01  0.51109989000E-03 0. -1.
     -623   -1    0    0    0    0  0.00000000000E+00  0.00000000000E+00  0.12525980253E-10  0.17130000000E+03  0.17130000000E+03 0.  1.
       11    1    1    2    0    0  0.33482555937E-01 -0.45213957806E-02  0.11929494939E+01  0.11934279537E+01  0.51109989000E-03 0. -1.
     -623    1    1    2    0    0 -0.27605735387E-03 -0.13667855950E-02  0.96614446703E-03  0.17130000001E+03  0.17130000000E+03 0.  1.
      622    1    1    2    0    0 -0.33206498583E-01  0.58881813755E-02  0.28060843290E+01  0.28065720379E+01  0.40000000000E-01 0. -1.
</event>
<event>
 5   0  0.6200596E+07  0.9118800E+02  0.7818608E-02  0.1180000E+00
       11   -1    0    0    0    0  0.00000000000E+00  0.00000000000E+00  0.39999999673E+01  0.40000000000E+01  0.51109989000E-03 0. -1.
     -623   -1    0    0    0    0  0.00000000000E+00  0.00000000000E+00  0.12525980253E-10  0.17130000000E+03  0.17130000000E+03 0. -1.
       11    1    1    2    0    0 -0.29454253598E-02  0.55096680263E-02  0.86771230924E-01  0.86997354617E-01  0.51109989000E-03 0. -1.
     -623    1    1    2    0    0  0.11192430904E-02  0.51419718865E-03  0.43561107220E-03  0.17130000000E+03  0.17130000000E+03 0. -1.
      622    1    1    2    0    0  0.18261822694E-02 -0.60238652149E-02  0.39127931254E+01  0.39130026404E+01  0.40000000000E-01 0. -1.
</event>
<event>
 5   0  0.6200596E+07  0.9118800E+02  0.7818608E-02  0.1180000E+00
       11   -1    0    0    0    0  0.00000000000E+00  0.00000000000E+00  0.39999999673E+01  0.40000000000E+01  0.51109989000E-03 0. -1.
     -623   -1    0    0    0    0  0.00000000000E+00  0.00000000000E+00  0.12525980253E-10  0.17130000000E+03  0.17130000000E+03 0.  1.
       11    1    1    2    0    0  0.27920189299E-02 -0.61744809143E-02  0.81956088310E-01  0.82237346841E-01  0.51109989000E-03 0. -1.
     -623    1    1    2    0    0  0.58504579738E-02 -0.28233528519E-03  0.50038430293E-03  0.17130000010E+03  0.17130000000E+03 0.  1.
      622    1    1    2    0    0 -0.86424769036E-02  0.64568161995E-02  0.39175434947E+01  0.39177625523E+01  0.40000000000E-01 0. -1.
</event>
<event>
 5   0  0.6200596E+07  0.9118800E+02  0.7818608E-02  0.1180000E+00
       11   -1    0    0    0    0  0.00000000000E+00  0.00000000000E+00  0.39999999673E+01  0.40000000000E+01  0.51109989000E-03 0. -1.
     -623   -1    0    0    0    0  0.00000000000E+00  0.00000000000E+00  0.12525980253E-10  0.17130000000E+03  0.17130000000E+03 0.  1.
       11    1    1    2    0    0 -0.61520123117E-02 -0.24001145308E-02  0.12965388508E+00  0.12982295230E+00  0.51109989000E-03 0. -1.
     -623    1    1    2    0    0 -0.66478875061E-02  0.52396690649E-02  0.39816819254E-03  0.17130000021E+03  0.17130000000E+03 0.  1.
      622    1    1    2    0    0  0.12799899818E-01 -0.28395545341E-02  0.38699479141E+01  0.38701768381E+01  0.40000000000E-01 0.  0.
</event>
<event>
 5   0  0.6200596E+07  0.9118800E+02  0.7818608E-02  0.1180000E+00
       11   -1    0    0    0    0  0.00000000000E+00  0.00000000000E+00  0.39999999673E+01  0.40000000000E+01  0.51109989000E-03 0. -1.
     -623   -1    0    0    0    0  0.00000000000E+00  0.00000000000E+00  0.12525980253E-10  0.17130000000E+03  0.17130000000E+03 0. -1.
       11    1    1    2    0    0 -0.51700137069E-02 -0.17868146533E-02  0.53023376407E-01  0.53307236043E-01  0.51109989000E-03 0. -1.
     -623    1    1    2    0    0  0.78852228270E-03  0.31915644620E-02  0.48924804154E-03  0.17130000003E+03  0.17130000000E+03 0. -1.
      622    1    1    2    0    0  0.43814914242E-02 -0.14047498087E-02  0.39464873429E+01  0.39466927317E+01  0.40000000000E-01 0. -1.
</event>
<event>
 5   0  0.6200596E+07  0.9118800E+02  0.7818608E-02  0.1180000E+00
       11   -1    0    0    0    0  0.00000000000E+00  0.00000000000E+00  0.39999999673E+01  0.40000000000E+01  0.51109989000E-03 0. -1.
     -623   -1    0    0    0    0  0.00000000000E+00  0.00000000000E+00  0.12525980253E-10  0.17130000000E+03  0.17130000000E+03 0. -1.
       11    1    1    2    0    0  0.13434913685E-02 -0.17230603576E-01  0.25311385134E+00  0.25370372806E+00  0.51109989000E-03 0. -1.
     -623    1    1    2    0    0 -0.31590110553E-02  0.11713998666E-01  0.80832789805E-03  0.17130000043E+03  0.17130000000E+03 0. -1.
      622    1    1    2    0    0  0.18155196868E-02  0.55166049103E-02  0.37460777881E+01  0.37462958404E+01  0.40000000000E-01 0.  0.
</event>
<event>
 5   0  0.6200596E+07  0.9118800E+02  0.7818608E-02  0.1180000E+00
       11   -1    0    0    0    0  0.00000000000E+00  0.00000000000E+00  0.39999999673E+01  0.40000000000E+01  0.51109989000E-03 0. -1.
     -623   -1    0    0    0    0  0.00000000000E+00  0.00000000000E+00  0.12525980253E-10  0.17130000000E+03  0.17130000000E+03 0.  1.
       11    1    1    2    0    0  0.29794189305E-01 -0.11175389296E-01  0.35146776260E+01  0.35148217108E+01  0.51109989000E-03 0. -1.
     -623    1    1    2    0    0  0.24180814107E-02  0.60526908778E-03  0.29857663407E-02  0.17130000004E+03  0.17130000000E+03 0.  1.
      622    1    1    2    0    0 -0.32212270716E-01  0.10570120208E-01  0.48233657506E+00  0.48517824505E+00  0.40000000000E-01 0.  0.
</event>
<event>
 5   0  0.6200596E+07  0.9118800E+02  0.7818608E-02  0.1180000E+00
       11   -1    0    0    0    0  0.00000000000E+00  0.00000000000E+00  0.39999999673E+01  0.40000000000E+01  0.51109989000E-03 0.  1.
     -623   -1    0    0    0    0  0.00000000000E+00  0.00000000000E+00  0.12525980253E-10  0.17130000000E+03  0.17130000000E+03 0.  1.
       11    1    1    2    0    0 -0.21628193657E-02  0.16070543307E-02  0.23569312990E-01  0.23728340602E-01  0.51109989000E-03 0.  1.
     -623    1    1    2    0    0  0.25708052837E-03 -0.24393277987E-02  0.36075531922E-03  0.17130000002E+03  0.17130000000E+03 0.  1.
      622    1    1    2    0    0  0.19057388374E-02  0.83227346808E-03  0.39760698991E+01  0.39762716415E+01  0.40000000000E-01 0.  1.
</event>
<event>
 5   0  0.6200596E+07  0.9118800E+02  0.7818608E-02  0.1180000E+00
       11   -1    0    0    0    0  0.00000000000E+00  0.00000000000E+00  0.39999999673E+01  0.40000000000E+01  0.51109989000E-03 0. -1.
     -623   -1    0    0    0    0  0.00000000000E+00  0.00000000000E+00  0.12525980253E-10  0.17130000000E+03  0.17130000000E+03 0.  1.
       11    1    1    2    0    0 -0.36352579486E-03  0.10908143723E-02  0.52549474020E-01  0.52564536230E-01  0.51109989000E-03 0. -1.
     -623    1    1    2    0    0  0.46537104042E-02  0.40905832449E-03  0.22037827332E-03  0.17130000006E+03  0.17130000000E+03 0.  1.
      622    1    1    2    0    0 -0.42901846094E-02 -0.14998726968E-02  0.39472301151E+01  0.39474353999E+01  0.40000000000E-01 0. -1.
</event>
<event>
 5   0  0.6200596E+07  0.9118800E+02  0.7818608E-02  0.1180000E+00
       11   -1    0    0    0    0  0.00000000000E+00  0.00000000000E+00  0.39999999673E+01  0.40000000000E+01  0.51109989000E-03 0. -1.
     -623   -1    0    0    0    0  0.00000000000E+00  0.00000000000E+00  0.12525980253E-10  0.17130000000E+03  0.17130000000E+03 0. -1.
       11    1    1    2    0    0  0.20811452195E-01  0.72341008432E-02  0.72533149378E+00  0.72566623584E+00  0.51109989000E-03 0. -1.
     -623    1    1    2    0    0 -0.25183073584E-01 -0.25863609888E-03  0.59124469611E-03  0.17130000185E+03  0.17130000000E+03 0. -1.
      622    1    1    2    0    0  0.43716213890E-02 -0.69754647443E-02  0.32740772289E+01  0.32743319118E+01  0.40000000000E-01 0. -1.
</event>
<event>
 5   0  0.6200596E+07  0.9118800E+02  0.7818608E-02  0.1180000E+00
       11   -1    0    0    0    0  0.00000000000E+00  0.00000000000E+00  0.39999999673E+01  0.40000000000E+01  0.51109989000E-03 0.  1.
     -623   -1    0    0    0    0  0.00000000000E+00  0.00000000000E+00  0.12525980253E-10  0.17130000000E+03  0.17130000000E+03 0. -1.
       11    1    1    2    0    0  0.32756149826E-01  0.18408489730E-01  0.11039371372E+01  0.11045765261E+01  0.51109989000E-03 0.  1.
     -623    1    1    2    0    0 -0.12910418001E-01  0.66213278758E-02  0.10925073456E-02  0.17130000062E+03  0.17130000000E+03 0. -1.
      622    1    1    2    0    0 -0.19845731825E-01 -0.25029817606E-01  0.28949703228E+01  0.28954228560E+01  0.40000000000E-01 0.  1.
</event>
<event>
 5   0  0.6200596E+07  0.9118800E+02  0.7818608E-02  0.1180000E+00
       11   -1    0    0    0    0  0.00000000000E+00  0.00000000000E+00  0.39999999673E+01  0.40000000000E+01  0.51109989000E-03 0. -1.
     -623   -1    0    0    0    0  0.00000000000E+00  0.00000000000E+00  0.12525980253E-10  0.17130000000E+03  0.17130000000E+03 0. -1.
       11    1    1    2    0    0  0.25756444216E-02  0.18473235900E-02  0.84837182076E+00  0.84837789577E+00  0.51109989000E-03 0. -1.
     -623    1    1    2    0    0  0.20698893604E-02  0.34917932304E-02  0.26788533824E-03  0.17130000005E+03  0.17130000000E+03 0. -1.
      622    1    1    2    0    0 -0.46455337820E-02 -0.53391168204E-02  0.31513602613E+01  0.31516220559E+01  0.40000000000E-01 0. -1.
</event>
<event>
 5   0  0.6200596E+07  0.9118800E+02  0.7818608E-02  0.1180000E+00
       11   -1    0    0    0    0  0.00000000000E+00  0.00000000000E+00  0.39999999673E+01  0.40000000000E+01  0.51109989000E-03 0.  1.
     -623   -1    0    0    0    0  0.00000000000E+00  0.00000000000E+00  0.12525980253E-10  0.17130000000E+03  0.17130000000E+03 0.  1.
       11    1    1    2    0    0 -0.16114522832E-01 -0.36425818058E-01  0.72159052945E+00  0.72268919424E+00  0.51109989000E-03 0.  1.
     -623    1    1    2    0    0  0.13138831799E-01  0.15392140969E-01  0.14127986735E-02  0.17130000120E+03  0.17130000000E+03 0.  1.
      622    1    1    2    0    0  0.29756910326E-02  0.21033677089E-01  0.32769966392E+01  0.32773096045E+01  0.40000000000E-01 0.  1.
</event>
<event>
 5   0  0.6200596E+07  0.9118800E+02  0.7818608E-02  0.1180000E+00
       11   -1    0    0    0    0  0.00000000000E+00  0.00000000000E+00  0.39999999673E+01  0.40000000000E+01  0.51109989000E-03 0.  1.
     -623   -1    0    0    0    0  0.00000000000E+00  0.00000000000E+00  0.12525980253E-10  0.17130000000E+03  0.17130000000E+03 0.  1.
       11    1    1    2    0    0  0.60759064656E-03 -0.46938656291E-01  0.83834802058E+00  0.83966140286E+00  0.51109989000E-03 0.  1.
     -623    1    1    2    0    0 -0.17046488856E-02  0.42097028039E-01  0.15755854469E-02  0.17130000519E+03  0.17130000000E+03 0.  1.
      622    1    1    2    0    0  0.10970582391E-02  0.48416282521E-02  0.31600763613E+01  0.31603334087E+01  0.40000000000E-01 0.  0.
</event>
<event>
 5   0  0.6200596E+07  0.9118800E+02  0.7818608E-02  0.1180000E+00
       11   -1    0    0    0    0  0.00000000000E+00  0.00000000000E+00  0.39999999673E+01  0.40000000000E+01  0.51109989000E-03 0.  1.
     -623   -1    0    0    0    0  0.00000000000E+00  0.00000000000E+00  0.12525980253E-10  0.17130000000E+03  0.17130000000E+03 0. -1.
       11    1    1    2    0    0 -0.14641230033E-01  0.34984992469E-01  0.81676929458E+00  0.81764947081E+00  0.51109989000E-03 0.  1.
     -623    1    1    2    0    0 -0.20705681085E-02 -0.29849260944E-01  0.11821859001E-02  0.17130000262E+03  0.17130000000E+03 0. -1.
      622    1    1    2    0    0  0.16711798141E-01 -0.51357315244E-02  0.31820484869E+01  0.31823479120E+01  0.40000000000E-01 0.  1.
</event>
<event>
 5   0  0.6200596E+07  0.9118800E+02  0.7818608E-02  0.1180000E+00
       11   -1    0    0    0    0  0.00000000000E+00  0.00000000000E+00  0.39999999673E+01  0.40000000000E+01  0.51109989000E-03 0. -1.
     -623   -1    0    0    0    0  0.00000000000E+00  0.00000000000E+00  0.12525980253E-10  0.17130000000E+03  0.17130000000E+03 0.  1.
       11    1    1    2    0    0  0.12691356604E+00  0.78190871817E-01  0.15454766769E+01  0.15526491187E+01  0.51109989000E-03 0. -1.
     -623    1    1    2    0    0 -0.12294699239E-01  0.14214298713E-02  0.11482836272E-01  0.17130000083E+03  0.17130000000E+03 0.  1.
      622    1    1    2    0    0 -0.11461886680E+00 -0.79612301688E-01  0.24430404542E+01  0.24473500494E+01  0.40000000000E-01 0. -1.
</event>
<event>
 5   0  0.6200596E+07  0.9118800E+02  0.7818608E-02  0.1180000E+00
       11   -1    0    0    0    0  0.00000000000E+00  0.00000000000E+00  0.39999999673E+01  0.40000000000E+01  0.51109989000E-03 0.  1.
     -623   -1    0    0    0    0  0.00000000000E+00  0.00000000000E+00  0.12525980253E-10  0.17130000000E+03  0.17130000000E+03 0.  1.
       11    1    1    2    0    0 -0.99535000974E-02 -0.97440356101E-02  0.23872210473E+01  0.23872617386E+01  0.51109989000E-03 0.  1.
     -623    1    1    2    0    0 -0.29759193545E-02 -0.23020193743E-02  0.63367672482E-03  0.17130000004E+03  0.17130000000E+03 0.  1.
      622    1    1    2    0    0  0.12929419452E-01  0.12046054984E-01  0.16121452433E+01  0.16127382190E+01  0.40000000000E-01 0.  0.
</event>
<event>
 5   0  0.6200596E+07  0.9118800E+02  0.7818608E-02  0.1180000E+00
       11   -1    0    0    0    0  0.00000000000E+00  0.00000000000E+00  0.39999999673E+01  0.40000000000E+01  0.51109989000E-03 0.  1.
     -623   -1    0    0    0    0  0.00000000000E+00  0.00000000000E+00  0.12525980253E-10  0.17130000000E+03  0.17130000000E+03 0. -1.
       11    1    1    2    0    0 -0.41629892319E-01 -0.93916707383E-02  0.23118745986E+01  0.23122685122E+01  0.51109989000E-03 0.  1.
     -623    1    1    2    0    0  0.71807757514E-03  0.13399551040E-02  0.13832643641E-02  0.17130000001E+03  0.17130000000E+03 0. -1.
      622    1    1    2    0    0  0.40911814744E-01  0.80517156343E-02  0.16867421044E+01  0.16877314755E+01  0.40000000000E-01 0. -1.
</event>
<event>
 5   0  0.6200596E+07  0.9118800E+02  0.7818608E-02  0.1180000E+00
       11   -1    0    0    0    0  0.00000000000E+00  0.00000000000E+00  0.39999999673E+01  0.40000000000E+01  0.51109989000E-03 0.  1.
     -623   -1    0    0    0    0  0.00000000000E+00  0.00000000000E+00  0.12525980253E-10  0.17130000000E+03  0.17130000000E+03 0. -1.
       11    1    1    2    0    0 -0.55629376595E-02 -0.51481938869E-02  0.15459675562E+00  0.15478329447E+00  0.51109989000E-03 0.  1.
     -623    1    1    2    0    0 -0.21272741486E-02  0.19453094540E-02  0.40361167245E-03  0.17130000002E+03  0.17130000000E+03 0. -1.
      622    1    1    2    0    0  0.76902118081E-02  0.32028844330E-02  0.38449996001E+01  0.38452166808E+01  0.40000000000E-01 0.  1.
</event>
<event>
 5   0  0.6200596E+07  0.9118800E+02  0.7818608E-02  0.1180000E+00
       11   -1    0    0    0    0  0.00000000000E+00  0.00000000000E+00  0.39999999673E+01  0.40000000000E+01  0.51109989000E-03 0. -1.
     -623   -1    0    0    0    0  0.00000000000E+00  0.00000000000E+00  0.12525980253E-10  0.17130000000E+03  0.17130000000E+03 0. -1.
       11    1    1    2    0    0 -0.33367232762E-02  0.65506141595E-02  0.31479862387E+00  0.31488486639E+00  0.51109989000E-03 0. -1.
     -623    1    1    2    0    0  0.45144683002E-02 -0.92028426012E-02  0.30475550001E-03  0.17130000031E+03  0.17130000000E+03 0. -1.
      622    1    1    2    0    0 -0.11777450240E-02  0.26522284417E-02  0.36848965880E+01  0.36851148266E+01  0.40000000000E-01 0. -1.
</event>
<event>
 5   0  0.6200596E+07  0.9118800E+02  0.7818608E-02  0.1180000E+00
       11   -1    0    0    0    0  0.00000000000E+00  0.00000000000E+00  0.39999999673E+01  0.40000000000E+01  0.51109989000E-03 0. -1.
     -623   -1    0    0    0    0  0.00000000000E+00  0.00000000000E+00  0.12525980253E-10  0.17130000000E+03  0.17130000000E+03 0.  1.
       11    1    1    2    0    0 -0.81249473760E-03 -0.81466492448E-03  0.41116273946E-01  0.41135544610E-01  0.51109989000E-03 0. -1.
     -623    1    1    2    0    0 -0.33322039533E-03  0.42888252813E-03  0.22150692931E-03  0.17130000000E+03  0.17130000000E+03 0.  1.
      622    1    1    2    0    0  0.11457151329E-02  0.38578239635E-03  0.39586621865E+01  0.39588644544E+01  0.40000000000E-01 0. -1.
</event>
<event>
 5   0  0.6200596E+07  0.9118800E+02  0.7818608E-02  0.1180000E+00
       11   -1    0    0    0    0  0.00000000000E+00  0.00000000000E+00  0.39999999673E+01  0.40000000000E+01  0.51109989000E-03 0.  1.
     -623   -1    0    0    0    0  0.00000000000E+00  0.00000000000E+00  0.12525980253E-10  0.17130000000E+03  0.17130000000E+03 0. -1.
       11    1    1    2    0    0 -0.14923290881E-01  0.46499880410E-02  0.43946368154E+00  0.43974187385E+00  0.51109989000E-03 0.  1.
     -623    1    1    2    0    0  0.34138703403E-02  0.61752569866E-02  0.53807916982E-03  0.17130000015E+03  0.17130000000E+03 0. -1.
      622    1    1    2    0    0  0.11509420540E-01 -0.10825245028E-01  0.35599982066E+01  0.35602579800E+01  0.40000000000E-01 0.  1.
</event>
<event>
 5   0  0.6200596E+07  0.9118800E+02  0.7818608E-02  0.1180000E+00
       11   -1    0    0    0    0  0.00000000000E+00  0.00000000000E+00  0.39999999673E+01  0.40000000000E+01  0.51109989000E-03 0. -1.
     -623   -1    0    0    0    0  0.00000000000E+00  0.00000000000E+00  0.12525980253E-10  0.17130000000E+03  0.17130000000E+03 0.  1.
       11    1    1    2    0    0  0.54586393055E-02 -0.19668357327E-02  0.58041713794E-01  0.58333240516E-01  0.51109989000E-03 0. -1.
     -623    1    1    2    0    0  0.80591261506E-04 -0.25291653071E-02  0.50093518585E-03  0.17130000002E+03  0.17130000000E+03 0.  1.
      622    1    1    2    0    0 -0.55392305670E-02  0.44960010398E-02  0.39414573184E+01  0.39416667401E+01  0.40000000000E-01 0. -1.
</event>
<event>
 5   0  0.6200596E+07  0.9118800E+02  0.7818608E-02  0.1180000E+00
       11   -1    0    0    0    0  0.00000000000E+00  0.00000000000E+00  0.39999999673E+01  0.40000000000E+01  0.51109989000E-03 0.  1.
     -623   -1    0    0    0    0  0.00000000000E+00  0.00000000000E+00  0.12525980253E-10  0.17130000000E+03  0.17130000000E+03 0. -1.
       11    1    1    2    0    0  0.57884164261E-02 -0.12518055921E-02  0.66987331308E-01  0.67250550622E-01  0.51109989000E-03 0.  1.
     -623    1    1    2    0    0 -0.82711228272E-03 -0.71766188097E-03  0.47023887039E-03  0.17130000000E+03  0.17130000000E+03 0. -1.
      622    1    1    2    0    0 -0.49613041434E-02  0.19694674731E-02  0.39325423972E+01  0.39327494452E+01  0.40000000000E-01 0.  1.
</event>
<event>
 5   0  0.6200596E+07  0.9118800E+02  0.7818608E-02  0.1180000E+00
       11   -1    0    0    0    0  0.00000000000E+00  0.00000000000E+00  0.39999999673E+01  0.40000000000E+01  0.51109989000E-03 0.  1.
     -623   -1    0    0    0    0  0.00000000000E+00  0.00000000000E+00  0.12525980253E-10  0.17130000000E+03  0.17130000000E+03 0. -1.
       11    1    1    2    0    0 -0.16355502001E-02  0.51605670809E-02  0.58548308909E-01  0.58800273592E-01  0.51109989000E-03 0.  1.
     -623    1    1    2    0    0 -0.13132941576E-02 -0.10339359491E-01  0.45974476194E-03  0.17130000032E+03  0.17130000000E+03 0. -1.
      622    1    1    2    0    0  0.29488443578E-02  0.51787924098E-02  0.39409919137E+01  0.39411994087E+01  0.40000000000E-01 0.  1.
</event>
<event>
 5   0  0.6200596E+07  0.9118800E+02  0.7818608E-02  0.1180000E+00
       11   -1    0    0    0    0  0.00000000000E+00  0.00000000000E+00  0.39999999673E+01  0.40000000000E+01  0.51109989000E-03 0.  1.
     -623   -1    0    0    0    0  0.00000000000E+00  0.00000000000E+00  0.12525980253E-10  0.17130000000E+03  0.17130000000E+03 0.  1.
       11    1    1    2    0    0 -0.35235892428E-02  0.14870885720E-01  0.73634475529E-01  0.75205426206E-01  0.51109989000E-03 0.  1.
     -623    1    1    2    0    0  0.67087956740E-02 -0.64408483535E-02  0.17853638840E-02  0.17130000026E+03  0.17130000000E+03 0.  1.
      622    1    1    2    0    0 -0.31852064312E-02 -0.84300373669E-02  0.39245801279E+01  0.39247943120E+01  0.40000000000E-01 0.  1.
</event>
<event>
 5   0  0.6200596E+07  0.9118800E+02  0.7818608E-02  0.1180000E+00
       11   -1    0    0    0    0  0.00000000000E+00  0.00000000000E+00  0.39999999673E+01  0.40000000000E+01  0.51109989000E-03 0.  1.
     -623   -1    0    0    0    0  0.00000000000E+00  0.00000000000E+00  0.12525980253E-10  0.17130000000E+03  0.17130000000E+03 0.  1.
       11    1    1    2    0    0 -0.47261157335E-02  0.36675755289E-02  0.20513180209E-01  0.21373793876E-01  0.51109989000E-03 0.  1.
     -623    1    1    2    0    0  0.18209525817E-02 -0.72230573830E-02  0.10644752870E-02  0.17130000017E+03  0.17130000000E+03 0.  1.
      622    1    1    2    0    0  0.29051631518E-02  0.35554818540E-02  0.39784223119E+01  0.39786260409E+01  0.40000000000E-01 0.  1.
</event>
<event>
 5   0  0.6200596E+07  0.9118800E+02  0.7818608E-02  0.1180000E+00
       11   -1    0    0    0    0  0.00000000000E+00  0.00000000000E+00  0.39999999673E+01  0.40000000000E+01  0.51109989000E-03 0.  1.
     -623   -1    0    0    0    0  0.00000000000E+00  0.00000000000E+00  0.12525980253E-10  0.17130000000E+03  0.17130000000E+03 0. -1.
       11    1    1    2    0    0 -0.18126718459E-01 -0.20838054369E-01  0.70643204746E+00  0.70697192401E+00  0.51109989000E-03 0.  1.
     -623    1    1    2    0    0  0.10864551764E-02  0.43770096737E-02  0.86809038968E-03  0.17130000006E+03  0.17130000000E+03 0. -1.
      622    1    1    2    0    0  0.17040263282E-01  0.16461044695E-01  0.32926998295E+01  0.32930280144E+01  0.40000000000E-01 0.  1.
</event>
<event>
 5   0  0.6200596E+07  0.9118800E+02  0.7818608E-02  0.1180000E+00
       11   -1    0    0    0    0  0.00000000000E+00  0.00000000000E+00  0.39999999673E+01  0.40000000000E+01  0.51109989000E-03 0.  1.
     -623   -1    0    0    0    0  0.00000000000E+00  0.00000000000E+00  0.12525980253E-10  0.17130000000E+03  0.17130000000E+03 0. -1.
       11    1    1    2    0    0 -0.26775717674E-02 -0.29427899362E-02  0.38213965797E-01  0.38423922301E-01  0.51109989000E-03 0.  1.
     -623    1    1    2    0    0  0.24184110748E-02  0.17689273945E-02  0.41207794456E-03  0.17130000003E+03  0.17130000000E+03 0. -1.
      622    1    1    2    0    0  0.25916069260E-03  0.11738625417E-02  0.39613739236E+01  0.39615760510E+01  0.40000000000E-01 0.  1.
</event>
<event>
 5   0  0.6200596E+07  0.9118800E+02  0.7818608E-02  0.1180000E+00
       11   -1    0    0    0    0  0.00000000000E+00  0.00000000000E+00  0.39999999673E+01  0.40000000000E+01  0.51109989000E-03 0. -1.
     -623   -1    0    0    0    0  0.00000000000E+00  0.00000000000E+00  0.12525980253E-10  0.17130000000E+03  0.17130000000E+03 0.  1.
       11    1    1    2    0    0  0.17885101351E-01 -0.17441732040E-01  0.24978705986E+00  0.25103371758E+00  0.51109989000E-03 0. -1.
     -623    1    1    2    0    0 -0.26363596170E-02  0.26718099353E-02  0.15201816185E-02  0.17130000005E+03  0.17130000000E+03 0.  1.
      622    1    1    2    0    0 -0.15248741734E-01  0.14769922105E-01  0.37486927259E+01  0.37489662345E+01  0.40000000000E-01 0. -1.
</event>
<event>
 5   0  0.6200596E+07  0.9118800E+02  0.7818608E-02  0.1180000E+00
       11   -1    0    0    0    0  0.00000000000E+00  0.00000000000E+00  0.39999999673E+01  0.40000000000E+01  0.51109989000E-03 0.  1.
     -623   -1    0    0    0    0  0.00000000000E+00  0.00000000000E+00  0.12525980253E-10  0.17130000000E+03  0.17130000000E+03 0. -1.
       11    1    1    2    0    0 -0.24867339187E-02 -0.64864498350E-02  0.55266661365E-01  0.55703886375E-01  0.51109989000E-03 0.  1.
     -623    1    1    2    0    0 -0.20888482218E-03  0.57547894889E-03  0.64537495201E-03  0.17130000000E+03  0.17130000000E+03 0. -1.
      622    1    1    2    0    0  0.26956187409E-02  0.59109708861E-02  0.39440879310E+01  0.39442961113E+01  0.40000000000E-01 0.  1.
</event>
<event>
 5   0  0.6200596E+07  0.9118800E+02  0.7818608E-02  0.1180000E+00
       11   -1    0    0    0    0  0.00000000000E+00  0.00000000000E+00  0.39999999673E+01  0.40000000000E+01  0.51109989000E-03 0.  1.
     -623   -1    0    0    0    0  0.00000000000E+00  0.00000000000E+00  0.12525980253E-10  0.17130000000E+03  0.17130000000E+03 0. -1.
       11    1    1    2    0    0  0.57829022352E-02  0.23003173109E-02  0.13989665212E-01  0.15320097030E-01  0.51109989000E-03 0.  1.
     -623    1    1    2    0    0 -0.50104120017E-02 -0.70191711135E-03  0.15316502395E-02  0.17130000008E+03  0.17130000000E+03 0. -1.
      622    1    1    2    0    0 -0.77249023358E-03 -0.15984001995E-02  0.39844786519E+01  0.39846798214E+01  0.40000000000E-01 0.  1.
</event>
<event>
 5   0  0.6200596E+07  0.9118800E+02  0.7818608E-02  0.1180000E+00
       11   -1    0    0    0    0  0.00000000000E+00  0.00000000000E+00  0.39999999673E+01  0.40000000000E+01  0.51109989000E-03 0.  1.
     -623   -1    0    0    0    0  0.00000000000E+00  0.00000000000E+00  0.12525980253E-10  0.17130000000E+03  0.17130000000E+03 0.  1.
       11    1    1    2    0    0 -0.25295077457E-01  0.10906677525E-02  0.60737138194E+00  0.60789907659E+00  0.51109989000E-03 0.  1.
     -623    1    1    2    0    0  0.25880129475E-01  0.20558897981E-01  0.83584676739E-03  0.17130000319E+03  0.17130000000E+03 0.  1.
      622    1    1    2    0    0 -0.58505201785E-03 -0.21649565734E-01  0.33917927387E+01  0.33920977327E+01  0.40000000000E-01 0.  1.
</event>
<event>
 5   0  0.6200596E+07  0.9118800E+02  0.7818608E-02  0.1180000E+00
       11   -1    0    0    0    0  0.00000000000E+00  0.00000000000E+00  0.39999999673E+01  0.40000000000E+01  0.51109989000E-03 0. -1.
     -623   -1    0    0    0    0  0.00000000000E+00  0.00000000000E+00  0.12525980253E-10  0.17130000000E+03  0.17130000000E+03 0. -1.
       11    1    1    2    0    0 -0.19457427940E-01 -0.27185011310E-01  0.46776985964E+00  0.46896323860E+00  0.51109989000E-03 0. -1.
     -623    1    1    2    0    0  0.52889568305E-02  0.20368524527E-01  0.14562225658E-02  0.17130000130E+03  0.17130000000E+03 0. -1.
      622    1    1    2    0    0  0.14168471110E-01  0.68164867826E-02  0.35307738852E+01  0.35310354626E+01  0.40000000000E-01 0. -1.
</event>
<event>
 5   0  0.6200596E+07  0.9118800E+02  0.7818608E-02  0.1180000E+00
       11   -1    0    0    0    0  0.00000000000E+00  0.00000000000E+00  0.39999999673E+01  0.40000000000E+01  0.51109989000E-03 0. -1.
     -623   -1    0    0    0    0  0.00000000000E+00  0.00000000000E+00  0.12525980253E-10  0.17130000000E+03  0.17130000000E+03 0. -1.
       11    1    1    2    0    0  0.36850225090E-02  0.13474199386E-02  0.69551315339E-01  0.69663775507E-01  0.51109989000E-03 0. -1.
     -623    1    1    2    0    0 -0.96578453259E-03 -0.18503082160E-02  0.31696362290E-03  0.17130000001E+03  0.17130000000E+03 0. -1.
      622    1    1    2    0    0 -0.27192379764E-02  0.50288827746E-03  0.39301316884E+01  0.39303362115E+01  0.40000000000E-01 0. -1.
</event>
<event>
 5   0  0.6200596E+07  0.9118800E+02  0.7818608E-02  0.1180000E+00
       11   -1    0    0    0    0  0.00000000000E+00  0.00000000000E+00  0.39999999673E+01  0.40000000000E+01  0.51109989000E-03 0.  1.
     -623   -1    0    0    0    0  0.00000000000E+00  0.00000000000E+00  0.12525980253E-10  0.17130000000E+03  0.17130000000E+03 0. -1.
       11    1    1    2    0    0 -0.18840679693E-03  0.11241898823E-02  0.20560002738E-01  0.20597918209E-01  0.51109989000E-03 0.  1.
     -623    1    1    2    0    0  0.76961192346E-04  0.21503391993E-03  0.23915037761E-03  0.17130000000E+03  0.17130000000E+03 0. -1.
      622    1    1    2    0    0  0.11144560458E-03 -0.13392238023E-02  0.39792008142E+01  0.39794020815E+01  0.40000000000E-01 0.  1.
</event>
<event>
 5   0  0.6200596E+07  0.9118800E+02  0.7818608E-02  0.1180000E+00
       11   -1    0    0    0    0  0.00000000000E+00  0.00000000000E+00  0.39999999673E+01  0.40000000000E+01  0.51109989000E-03 0.  1.
     -623   -1    0    0    0    0  0.00000000000E+00  0.00000000000E+00  0.12525980253E-10  0.17130000000E+03  0.17130000000E+03 0.  1.
       11    1    1    2    0    0  0.60990872231E-01  0.54472664350E-01  0.10705633684E+01  0.10736821432E+01  0.51109989000E-03 0.  1.
     -623    1    1    2    0    0 -0.94114561212E-02  0.15771344109E-02  0.43840697007E-02  0.17130000032E+03  0.17130000000E+03 0.  1.
      622    1    1    2    0    0 -0.51579416110E-01 -0.56049798761E-01  0.29250525293E+01  0.29263175349E+01  0.40000000000E-01 0.  1.
</event>
<event>
 5   0  0.6200596E+07  0.9118800E+02  0.7818608E-02  0.1180000E+00
       11   -1    0    0    0    0  0.00000000000E+00  0.00000000000E+00  0.39999999673E+01  0.40000000000E+01  0.51109989000E-03 0. -1.
     -623   -1    0    0    0    0  0.00000000000E+00  0.00000000000E+00  0.12525980253E-10  0.17130000000E+03  0.17130000000E+03 0. -1.
       11    1    1    2    0    0  0.19011055345E-01  0.27958851140E-01  0.27759630679E+00  0.27964815098E+00  0.51109989000E-03 0. -1.
     -623    1    1    2    0    0 -0.16994343113E-01  0.29589868865E-02  0.23967636259E-02  0.17130000089E+03  0.17130000000E+03 0. -1.
      622    1    1    2    0    0 -0.20167122324E-02 -0.30917838026E-01  0.37200068969E+01  0.37203509637E+01  0.40000000000E-01 0. -1.
</event>
<event>
 5   0  0.6200596E+07  0.9118800E+02  0.7818608E-02  0.1180000E+00
       11   -1    0    0    0    0  0.00000000000E+00  0.00000000000E+00  0.39999999673E+01  0.40000000000E+01  0.51109989000E-03 0. -1.
     -623   -1    0    0    0    0  0.00000000000E+00  0.00000000000E+00  0.12525980253E-10  0.17130000000E+03  0.17130000000E+03 0.  1.
       11    1    1    2    0    0 -0.88585056349E-02  0.17762407803E-02  0.15509867720E+00  0.15536244412E+00  0.51109989000E-03 0. -1.
     -623    1    1    2    0    0  0.51353319322E-03 -0.49337043951E-03  0.48109522768E-03  0.17130000000E+03  0.17130000000E+03 0.  1.
      622    1    1    2    0    0  0.83449724416E-02 -0.12828703408E-02  0.38444201949E+01  0.38446375537E+01  0.40000000000E-01 0. -1.
</event>
<event>
 5   0  0.6200596E+07  0.9118800E+02  0.7818608E-02  0.1180000E+00
       11   -1    0    0    0    0  0.00000000000E+00  0.00000000000E+00  0.39999999673E+01  0.40000000000E+01  0.51109989000E-03 0. -1.
     -623   -1    0    0    0    0  0.00000000000E+00  0.00000000000E+00  0.12525980253E-10  0.17130000000E+03  0.17130000000E+03 0. -1.
       11    1    1    2    0    0 -0.54581060175E-01 -0.84428540955E-02  0.28665732186E+00  0.29192988082E+00  0.51109989000E-03 0. -1.
     -623    1    1    2    0    0  0.49697083724E-01 -0.76704842666E-03  0.55102328275E-02  0.17130000730E+03  0.17130000000E+03 0. -1.
      622    1    1    2    0    0  0.48839764513E-02  0.92099025222E-02  0.37078324127E+01  0.37080628199E+01  0.40000000000E-01 0. -1.
</event>
<event>
 5   0  0.6200596E+07  0.9118800E+02  0.7818608E-02  0.1180000E+00
       11   -1    0    0    0    0  0.00000000000E+00  0.00000000000E+00  0.39999999673E+01  0.40000000000E+01  0.51109989000E-03 0.  1.
     -623   -1    0    0    0    0  0.00000000000E+00  0.00000000000E+00  0.12525980253E-10  0.17130000000E+03  0.17130000000E+03 0.  1.
       11    1    1    2    0    0 -0.23034383858E-01  0.78163989394E-02  0.14016744352E+00  0.14226332056E+00  0.51109989000E-03 0.  1.
     -623    1    1    2    0    0  0.51197955833E-02 -0.18314331232E-02  0.23495691880E-02  0.17130000010E+03  0.17130000000E+03 0.  1.
      622    1    1    2    0    0  0.17914588275E-01 -0.59849658162E-02  0.38574829547E+01  0.38577365770E+01  0.40000000000E-01 0.  1.
</event>
<event>
 5   0  0.6200596E+07  0.9118800E+02  0.7818608E-02  0.1180000E+00
       11   -1    0    0    0    0  0.00000000000E+00  0.00000000000E+00  0.39999999673E+01  0.40000000000E+01  0.51109989000E-03 0. -1.
     -623   -1    0    0    0    0  0.00000000000E+00  0.00000000000E+00  0.12525980253E-10  0.17130000000E+03  0.17130000000E+03 0.  1.
       11    1    1    2    0    0 -0.26708489491E-01 -0.16898992779E-01  0.62304981165E-01  0.69864807078E-01  0.51109989000E-03 0. -1.
     -623    1    1    2    0    0  0.17585818209E-01  0.23440283099E-01  0.77820695683E-02  0.17130000268E+03  0.17130000000E+03 0.  1.
      622    1    1    2    0    0  0.91226712820E-02 -0.65412903203E-02  0.39299129166E+01  0.39301325097E+01  0.40000000000E-01 0. -1.
</event>
<event>
 5   0  0.6200596E+07  0.9118800E+02  0.7818608E-02  0.1180000E+00
       11   -1    0    0    0    0  0.00000000000E+00  0.00000000000E+00  0.39999999673E+01  0.40000000000E+01  0.51109989000E-03 0.  1.
     -623   -1    0    0    0    0  0.00000000000E+00  0.00000000000E+00  0.12525980253E-10  0.17130000000E+03  0.17130000000E+03 0. -1.
       11    1    1    2    0    0  0.98868286071E-03  0.92683743139E-02  0.14599366408E+00  0.14629180233E+00  0.51109989000E-03 0.  1.
     -623    1    1    2    0    0 -0.60096317279E-03  0.74695017504E-03  0.51874147296E-03  0.17130000000E+03  0.17130000000E+03 0. -1.
      622    1    1    2    0    0 -0.38771968792E-03 -0.10015324489E-01  0.38534875618E+01  0.38537081942E+01  0.40000000000E-01 0.  1.
</event>
<event>
 5   0  0.6200596E+07  0.9118800E+02  0.7818608E-02  0.1180000E+00
       11   -1    0    0    0    0  0.00000000000E+00  0.00000000000E+00  0.39999999673E+01  0.40000000000E+01  0.51109989000E-03 0. -1.
     -623   -1    0    0    0    0  0.00000000000E+00  0.00000000000E+00  0.12525980253E-10  0.17130000000E+03  0.17130000000E+03 0.  1.
       11    1    1    2    0    0 -0.21938445166E-01 -0.39689228350E-01  0.41423233000E+00  0.41670758892E+00  0.51109989000E-03 0. -1.
     -623    1    1    2    0    0  0.14718696561E-01  0.48015698638E-01  0.27228239993E-02  0.17130000738E+03  0.17130000000E+03 0.  1.
      622    1    1    2    0    0  0.72197486048E-02 -0.83264702879E-02  0.35830448134E+01  0.35832850277E+01  0.40000000000E-01 0. -1.
</event>
<event>
 5   0  0.6200596E+07  0.9118800E+02  0.7818608E-02  0.1180000E+00
       11   -1    0    0    0    0  0.00000000000E+00  0.00000000000E+00  0.39999999673E+01  0.40000000000E+01  0.51109989000E-03 0.  1.
     -623   -1    0    0    0    0  0.00000000000E+00  0.00000000000E+00  0.12525980253E-10  0.17130000000E+03  0.17130000000E+03 0. -1.
       11    1    1    2    0    0 -0.10173850211E-02  0.13564580532E-02  0.39515830983E-01  0.39555494843E-01  0.51109989000E-03 0.  1.
     -623    1    1    2    0    0 -0.10462914164E-02 -0.25181672289E-02  0.24236385554E-03  0.17130000002E+03  0.17130000000E+03 0. -1.
      622    1    1    2    0    0  0.20636764375E-02  0.11617091757E-02  0.39602417725E+01  0.39604444833E+01  0.40000000000E-01 0.  1.
</event>
<event>
 5   0  0.6200596E+07  0.9118800E+02  0.7818608E-02  0.1180000E+00
       11   -1    0    0    0    0  0.00000000000E+00  0.00000000000E+00  0.39999999673E+01  0.40000000000E+01  0.51109989000E-03 0.  1.
     -623   -1    0    0    0    0  0.00000000000E+00  0.00000000000E+00  0.12525980253E-10  0.17130000000E+03  0.17130000000E+03 0. -1.
       11    1    1    2    0    0  0.25775627906E-01 -0.29857072699E-02  0.39682733837E+00  0.39767511255E+00  0.51109989000E-03 0.  1.
     -623    1    1    2    0    0 -0.35512871706E-01  0.69666474629E-02  0.10890144781E-02  0.17130000383E+03  0.17130000000E+03 0. -1.
      622    1    1    2    0    0  0.97372438008E-02 -0.39809401930E-02  0.36020836145E+01  0.36023210612E+01  0.40000000000E-01 0.  1.
</event>
<event>
 5   0  0.6200596E+07  0.9118800E+02  0.7818608E-02  0.1180000E+00
       11   -1    0    0    0    0  0.00000000000E+00  0.00000000000E+00  0.39999999673E+01  0.40000000000E+01  0.51109989000E-03 0. -1.
     -623   -1    0    0    0    0  0.00000000000E+00  0.00000000000E+00  0.12525980253E-10  0.17130000000E+03  0.17130000000E+03 0. -1.
       11    1    1    2    0    0  0.28569603489E-01  0.27053311813E-02  0.19378240331E+01  0.19380365800E+01  0.51109989000E-03 0. -1.
     -623    1    1    2    0    0 -0.24357684250E-01 -0.75370080442E-02  0.61239412311E-03  0.17130000190E+03  0.17130000000E+03 0. -1.
      622    1    1    2    0    0 -0.42119192389E-02  0.48316768629E-02  0.20615635401E+01  0.20619615213E+01  0.40000000000E-01 0. -1.
</event>
<event>
 5   0  0.6200596E+07  0.9118800E+02  0.7818608E-02  0.1180000E+00
       11   -1    0    0    0    0  0.00000000000E+00  0.00000000000E+00  0.39999999673E+01  0.40000000000E+01  0.51109989000E-03 0. -1.
     -623   -1    0    0    0    0  0.00000000000E+00  0.00000000000E+00  0.12525980253E-10  0.17130000000E+03  0.17130000000E+03 0.  1.
       11    1    1    2    0    0 -0.13470161750E-01  0.61261211988E-02  0.15814975405E+00  0.15884136913E+00  0.51109989000E-03 0. -1.
     -623    1    1    2    0    0  0.82921779911E-02  0.30116333056E-02  0.91444796993E-03  0.17130000023E+03  0.17130000000E+03 0.  1.
      622    1    1    2    0    0  0.51779837589E-02 -0.91377545044E-02  0.38409357653E+01  0.38411584013E+01  0.40000000000E-01 0. -1.
</event>
<event>
 5   0  0.6200596E+07  0.9118800E+02  0.7818608E-02  0.1180000E+00
       11   -1    0    0    0    0  0.00000000000E+00  0.00000000000E+00  0.39999999673E+01  0.40000000000E+01  0.51109989000E-03 0. -1.
     -623   -1    0    0    0    0  0.00000000000E+00  0.00000000000E+00  0.12525980253E-10  0.17130000000E+03  0.17130000000E+03 0. -1.
       11    1    1    2    0    0  0.10141426884E-02  0.37149045356E-03  0.81526986951E-02  0.82397942474E-02  0.51109989000E-03 0. -1.
     -623    1    1    2    0    0  0.81244445138E-05 -0.35636778383E-03  0.28761232951E-03  0.17130000000E+03  0.17130000000E+03 0. -1.
      622    1    1    2    0    0 -0.10222671329E-02 -0.15122669731E-04  0.39915596563E+01  0.39917602051E+01  0.40000000000E-01 0. -1.
</event>
<event>
 5   0  0.6200596E+07  0.9118800E+02  0.7818608E-02  0.1180000E+00
       11   -1    0    0    0    0  0.00000000000E+00  0.00000000000E+00  0.39999999673E+01  0.40000000000E+01  0.51109989000E-03 0.  1.
     -623   -1    0    0    0    0  0.00000000000E+00  0.00000000000E+00  0.12525980253E-10  0.17130000000E+03  0.17130000000E+03 0.  1.
       11    1    1    2    0    0 -0.21399550610E-01 -0.14213303612E-01  0.17259040229E+00  0.17449259856E+00  0.51109989000E-03 0.  1.
     -623    1    1    2    0    0  0.28057824125E-01 -0.11735590134E-01  0.22078141231E-02  0.17130000271E+03  0.17130000000E+03 0.  1.
      622    1    1    2    0    0 -0.66582735149E-02  0.25948893747E-01  0.38252017509E+01  0.38255046874E+01  0.40000000000E-01 0.  1.
</event>
<event>
 5   0  0.6200596E+07  0.9118800E+02  0.7818608E-02  0.1180000E+00
       11   -1    0    0    0    0  0.00000000000E+00  0.00000000000E+00  0.39999999673E+01  0.40000000000E+01  0.51109989000E-03 0.  1.
     -623   -1    0    0    0    0  0.00000000000E+00  0.00000000000E+00  0.12525980253E-10  0.17130000000E+03  0.17130000000E+03 0.  1.
       11    1    1    2    0    0  0.42037811067E-03 -0.17151396816E-02  0.13878347692E-01  0.13999577738E-01  0.51109989000E-03 0.  1.
     -623    1    1    2    0    0  0.51560858595E-02 -0.68906102302E-03  0.32661026364E-03  0.17130000008E+03  0.17130000000E+03 0.  1.
      622    1    1    2    0    0 -0.55764639702E-02  0.24042007046E-02  0.39857950094E+01  0.39860003430E+01  0.40000000000E-01 0.  1.
</event>
<event>
 5   0  0.6200596E+07  0.9118800E+02  0.7818608E-02  0.1180000E+00
       11   -1    0    0    0    0  0.00000000000E+00  0.00000000000E+00  0.39999999673E+01  0.40000000000E+01  0.51109989000E-03 0. -1.
     -623   -1    0    0    0    0  0.00000000000E+00  0.00000000000E+00  0.12525980253E-10  0.17130000000E+03  0.17130000000E+03 0. -1.
       11    1    1    2    0    0  0.73166777429E-03 -0.14168566645E-02  0.20382688536E-01  0.20451357744E-01  0.51109989000E-03 0. -1.
     -623    1    1    2    0    0 -0.22166042201E-03 -0.72338459168E-03  0.27027958607E-03  0.17130000000E+03  0.17130000000E+03 0. -1.
      622    1    1    2    0    0 -0.51000735229E-03  0.21402412562E-02  0.39793469992E+01  0.39795486404E+01  0.40000000000E-01 0. -1.
</event>
<event>
 5   0  0.6200596E+07  0.9118800E+02  0.7818608E-02  0.1180000E+00
       11   -1    0    0    0    0  0.00000000000E+00  0.00000000000E+00  0.39999999673E+01  0.40000000000E+01  0.51109989000E-03 0.  1.
     -623   -1    0    0    0    0  0.00000000000E+00  0.00000000000E+00  0.12525980253E-10  0.17130000000E+03  0.17130000000E+03 0. -1.
       11    1    1    2    0    0 -0.14909890913E-03  0.21348310881E-02  0.60880534235E-02  0.64734341433E-02  0.51109989000E-03 0.  1.
     -623    1    1    2    0    0  0.41143656781E-03 -0.73737412397E-04  0.58621933178E-03  0.17130000000E+03  0.17130000000E+03 0. -1.
      622    1    1    2    0    0 -0.26233765867E-03 -0.20610936757E-02  0.39933256946E+01  0.39935265643E+01  0.40000000000E-01 0.  1.
</event>
<event>
 5   0  0.6200596E+07  0.9118800E+02  0.7818608E-02  0.1180000E+00
       11   -1    0    0    0    0  0.00000000000E+00  0.00000000000E+00  0.39999999673E+01  0.40000000000E+01  0.51109989000E-03 0.  1.
     -623   -1    0    0    0    0  0.00000000000E+00  0.00000000000E+00  0.12525980253E-10  0.17130000000E+03  0.17130000000E+03 0.  1.
       11    1    1    2    0    0  0.50568230426E-03  0.63985532137E-02  0.17240623243E+00  0.17252642522E+00  0.51109989000E-03 0.  1.
     -623    1    1    2    0    0  0.98293458488E-02 -0.12758475251E-01  0.34917707136E-03  0.17130000076E+03  0.17130000000E+03 0.  1.
      622    1    1    2    0    0 -0.10335028153E-01  0.63599220371E-02  0.38272445579E+01  0.38274728173E+01  0.40000000000E-01 0.  1.
</event>
<event>
 5   0  0.6200596E+07  0.9118800E+02  0.7818608E-02  0.1180000E+00
       11   -1    0    0    0    0  0.00000000000E+00  0.00000000000E+00  0.39999999673E+01  0.40000000000E+01  0.51109989000E-03 0.  1.
     -623   -1    0    0    0    0  0.00000000000E+00  0.00000000000E+00  0.12525980253E-10  0.17130000000E+03  0.17130000000E+03 0. -1.
       11    1    1    2    0    0  0.73282317305E-03 -0.54391085374E-02  0.28238023360E+00  0.28243402501E+00  0.51109989000E-03 0.  1.
     -623    1    1    2    0    0 -0.47469657310E-02  0.64460088727E-02  0.27145052306E-03  0.17130000019E+03  0.17130000000E+03 0. -1.
      622    1    1    2    0    0  0.40141425579E-02 -0.10069003354E-02  0.37173482832E+01  0.37175657877E+01  0.40000000000E-01 0.  1.
</event>
<event>
 5   0  0.6200596E+07  0.9118800E+02  0.7818608E-02  0.1180000E+00
       11   -1    0    0    0    0  0.00000000000E+00  0.00000000000E+00  0.39999999673E+01  0.40000000000E+01  0.51109989000E-03 0. -1.
     -623   -1    0    0    0    0  0.00000000000E+00  0.00000000000E+00  0.12525980253E-10  0.17130000000E+03  0.17130000000E+03 0. -1.
       11    1    1    2    0    0 -0.20958153136E-01  0.11298702965E-01  0.32156210300E+00  0.32244278900E+00  0.51109989000E-03 0. -1.
     -623    1    1    2    0    0 -0.61326917149E-02 -0.19361411657E-03  0.12148682152E-02  0.17130000011E+03  0.17130000000E+03 0. -1.
      622    1    1    2    0    0  0.27090844851E-01 -0.11105088849E-01  0.36772229961E+01  0.36775570968E+01  0.40000000000E-01 0. -1.
</event>
<event>
 5   0  0.6200596E+07  0.9118800E+02  0.7818608E-02  0.1180000E+00
       11   -1    0    0    0    0  0.00000000000E+00  0.00000000000E+00  0.39999999673E+01  0.40000000000E+01  0.51109989000E-03 0. -1.
     -623   -1    0    0    0    0  0.00000000000E+00  0.00000000000E+00  0.12525980253E-10  0.17130000000E+03  0.17130000000E+03 0.  1.
       11    1    1    2    0    0  0.66544026413E-03  0.15277704372E-02  0.12069077036E-01  0.12194291087E-01  0.51109989000E-03 0. -1.
     -623    1    1    2    0    0 -0.53655603484E-03  0.14886081883E-03  0.32615381302E-03  0.17130000000E+03  0.17130000000E+03 0.  1.
      622    1    1    2    0    0 -0.12888422929E-03 -0.16766312560E-02  0.39876047365E+01  0.39878057077E+01  0.40000000000E-01 0. -1.
</event>
<event>
 5   0  0.6200596E+07  0.9118800E+02  0.7818608E-02  0.1180000E+00
       11   -1    0    0    0    0  0.00000000000E+00  0.00000000000E+00  0.39999999673E+01  0.40000000000E+01  0.51109989000E-03 0.  1.
     -623   -1    0    0    0    0  0.00000000000E+00  0.00000000000E+00  0.12525980253E-10  0.17130000000E+03  0.17130000000E+03 0. -1.
       11    1    1    2    0    0 -0.48871749741E-02  0.17259755004E-01  0.18641184329E+00  0.18727365047E+00  0.51109989000E-03 0.  1.
     -623    1    1    2    0    0 -0.46578073011E-03 -0.19548203759E-02  0.11060973459E-02  0.17130000002E+03  0.17130000000E+03 0. -1.
      622    1    1    2    0    0  0.53529557042E-02 -0.15304934628E-01  0.38124820267E+01  0.38127263342E+01  0.40000000000E-01 0.  1.
</event>
<event>
 5   0  0.6200596E+07  0.9118800E+02  0.7818608E-02  0.1180000E+00
       11   -1    0    0    0    0  0.00000000000E+00  0.00000000000E+00  0.39999999673E+01  0.40000000000E+01  0.51109989000E-03 0.  1.
     -623   -1    0    0    0    0  0.00000000000E+00  0.00000000000E+00  0.12525980253E-10  0.17130000000E+03  0.17130000000E+03 0.  1.
       11    1    1    2    0    0  0.18566591172E-01  0.21447904891E-01  0.72197159620E-01  0.77572044007E-01  0.51109989000E-03 0.  1.
     -623    1    1    2    0    0 -0.16606147826E-01 -0.34767357800E-01  0.56063432248E-02  0.17130000442E+03  0.17130000000E+03 0.  1.
      622    1    1    2    0    0 -0.19604433457E-02  0.13319452909E-01  0.39221964645E+01  0.39224235311E+01  0.40000000000E-01 0.  1.
</event>
<event>
 5   0  0.6200596E+07  0.9118800E+02  0.7818608E-02  0.1180000E+00
       11   -1    0    0    0    0  0.00000000000E+00  0.00000000000E+00  0.39999999673E+01  0.40000000000E+01  0.51109989000E-03 0. -1.
     -623   -1    0    0    0    0  0.00000000000E+00  0.00000000000E+00  0.12525980253E-10  0.17130000000E+03  0.17130000000E+03 0.  1.
       11    1    1    2    0    0 -0.15773439607E-01  0.34241005919E-01  0.13068877902E+01  0.13074315298E+01  0.51109989000E-03 0. -1.
     -623    1    1    2    0    0 -0.16801658789E-02  0.11410621538E-02  0.11299405201E-02  0.17130000002E+03  0.17130000000E+03 0.  1.
      622    1    1    2    0    0  0.17453605486E-01 -0.35382068073E-01  0.26919822367E+01  0.26925684544E+01  0.40000000000E-01 0.  0.
</event>
<event>
 5   0  0.6200596E+07  0.9118800E+02  0.7818608E-02  0.1180000E+00
       11   -1    0    0    0    0  0.00000000000E+00  0.00000000000E+00  0.39999999673E+01  0.40000000000E+01  0.51109989000E-03 0. -1.
     -623   -1    0    0    0    0  0.00000000000E+00  0.00000000000E+00  0.12525980253E-10  0.17130000000E+03  0.17130000000E+03 0. -1.
       11    1    1    2    0    0  0.70863475933E-02  0.47355298325E-02  0.75470681055E+00  0.75475510775E+00  0.51109989000E-03 0. -1.
     -623    1    1    2    0    0 -0.15985528822E-01  0.31295842657E-02  0.31729762922E-03  0.17130000077E+03  0.17130000000E+03 0. -1.
      622    1    1    2    0    0  0.88991812290E-02 -0.78651140982E-02  0.32449758592E+01  0.32452441175E+01  0.40000000000E-01 0. -1.
</event>
<event>
 5   0  0.6200596E+07  0.9118800E+02  0.7818608E-02  0.1180000E+00
       11   -1    0    0    0    0  0.00000000000E+00  0.00000000000E+00  0.39999999673E+01  0.40000000000E+01  0.51109989000E-03 0. -1.
     -623   -1    0    0    0    0  0.00000000000E+00  0.00000000000E+00  0.12525980253E-10  0.17130000000E+03  0.17130000000E+03 0.  1.
       11    1    1    2    0    0  0.22467399909E-01 -0.58064267924E-03  0.37272883997E-01  0.43527580994E-01  0.51109989000E-03 0. -1.
     -623    1    1    2    0    0  0.98589578750E-03 -0.19726624150E-01  0.65797719062E-02  0.17130000127E+03  0.17130000000E+03 0.  1.
      622    1    1    2    0    0 -0.23453295697E-01  0.20307266829E-01  0.39561473115E+01  0.39564711540E+01  0.40000000000E-01 0. -1.
</event>
<event>
 5   0  0.6200596E+07  0.9118800E+02  0.7818608E-02  0.1180000E+00
       11   -1    0    0    0    0  0.00000000000E+00  0.00000000000E+00  0.39999999673E+01  0.40000000000E+01  0.51109989000E-03 0. -1.
     -623   -1    0    0    0    0  0.00000000000E+00  0.00000000000E+00  0.12525980253E-10  0.17130000000E+03  0.17130000000E+03 0. -1.
       11    1    1    2    0    0 -0.10108052814E-03 -0.23542914232E-02  0.25395965896E-02  0.35019534361E-02  0.51109989000E-03 0. -1.
     -623    1    1    2    0    0 -0.17906240857E-02  0.26011290937E-02  0.11629928837E-02  0.17130000003E+03  0.17130000000E+03 0. -1.
      622    1    1    2    0    0  0.18917046139E-02 -0.24683767050E-03  0.39962973779E+01  0.39964980135E+01  0.40000000000E-01 0. -1.
</event>
<event>
 5   0  0.6200596E+07  0.9118800E+02  0.7818608E-02  0.1180000E+00
       11   -1    0    0    0    0  0.00000000000E+00  0.00000000000E+00  0.39999999673E+01  0.40000000000E+01  0.51109989000E-03 0.  1.
     -623   -1    0    0    0    0  0.00000000000E+00  0.00000000000E+00  0.12525980253E-10  0.17130000000E+03  0.17130000000E+03 0. -1.
       11    1    1    2    0    0  0.71193246306E-02 -0.18416886565E-02  0.87500858984E-01  0.87810808807E-01  0.51109989000E-03 0.  1.
     -623    1    1    2    0    0  0.21900720829E-02  0.15233725567E-02  0.52552300440E-03  0.17130000002E+03  0.17130000000E+03 0. -1.
      622    1    1    2    0    0 -0.93093967135E-02  0.31831609979E-03  0.39119735854E+01  0.39121891696E+01  0.40000000000E-01 0.  1.
</event>
<event>
 5   0  0.6200596E+07  0.9118800E+02  0.7818608E-02  0.1180000E+00
       11   -1    0    0    0    0  0.00000000000E+00  0.00000000000E+00  0.39999999673E+01  0.40000000000E+01  0.51109989000E-03 0.  1.
     -623   -1    0    0    0    0  0.00000000000E+00  0.00000000000E+00  0.12525980253E-10  0.17130000000E+03  0.17130000000E+03 0. -1.
       11    1    1    2    0    0  0.96681919603E-02  0.37569503484E-01  0.18631022599E+01  0.18635061668E+01  0.51109989000E-03 0.  1.
     -623    1    1    2    0    0  0.12737057369E-01  0.15722529400E-01  0.15619665242E-02  0.17130000120E+03  0.17130000000E+03 0. -1.
      622    1    1    2    0    0 -0.22405249330E-01 -0.53292032884E-01  0.21353357409E+01  0.21364926310E+01  0.40000000000E-01 0.  0.
</event>
<event>
 5   0  0.6200596E+07  0.9118800E+02  0.7818608E-02  0.1180000E+00
       11   -1    0    0    0    0  0.00000000000E+00  0.00000000000E+00  0.39999999673E+01  0.40000000000E+01  0.51109989000E-03 0. -1.
     -623   -1    0    0    0    0  0.00000000000E+00  0.00000000000E+00  0.12525980253E-10  0.17130000000E+03  0.17130000000E+03 0.  1.
       11    1    1    2    0    0  0.21512190402E-01  0.12072834716E-01  0.17235988304E+01  0.17237754253E+01  0.51109989000E-03 0. -1.
     -623    1    1    2    0    0 -0.52473328655E-02  0.31363168480E-02  0.63710078068E-03  0.17130000011E+03  0.17130000000E+03 0.  1.
      622    1    1    2    0    0 -0.16264857536E-01 -0.15209151564E-01  0.22757640362E+01  0.22762244644E+01  0.40000000000E-01 0. -1.
</event>
<event>
 5   0  0.6200596E+07  0.9118800E+02  0.7818608E-02  0.1180000E+00
       11   -1    0    0    0    0  0.00000000000E+00  0.00000000000E+00  0.39999999673E+01  0.40000000000E+01  0.51109989000E-03 0.  1.
     -623   -1    0    0    0    0  0.00000000000E+00  0.00000000000E+00  0.12525980253E-10  0.17130000000E+03  0.17130000000E+03 0. -1.
       11    1    1    2    0    0 -0.43343761495E-03 -0.36112415069E-02  0.12386716361E-01  0.12919787002E-01  0.51109989000E-03 0.  1.
     -623    1    1    2    0    0 -0.31008150705E-03  0.37246035497E-02  0.73380442103E-03  0.17130000004E+03  0.17130000000E+03 0. -1.
      622    1    1    2    0    0  0.74351912200E-03 -0.11336204282E-03  0.39868794466E+01  0.39870801707E+01  0.40000000000E-01 0.  1.
</event>
<event>
 5   0  0.6200596E+07  0.9118800E+02  0.7818608E-02  0.1180000E+00
       11   -1    0    0    0    0  0.00000000000E+00  0.00000000000E+00  0.39999999673E+01  0.40000000000E+01  0.51109989000E-03 0.  1.
     -623   -1    0    0    0    0  0.00000000000E+00  0.00000000000E+00  0.12525980253E-10  0.17130000000E+03  0.17130000000E+03 0. -1.
       11    1    1    2    0    0 -0.24575834470E-02 -0.36008740254E-02  0.50877194492E+00  0.50879087961E+00  0.51109989000E-03 0.  1.
     -623    1    1    2    0    0  0.55066082064E-03 -0.87315701856E-04  0.25052672106E-03  0.17130000000E+03  0.17130000000E+03 0. -1.
      622    1    1    2    0    0  0.19069226264E-02  0.36881897273E-02  0.34909774957E+01  0.34912091193E+01  0.40000000000E-01 0.  1.
</event>
<event>
 5   0  0.6200596E+07  0.9118800E+02  0.7818608E-02  0.1180000E+00
       11   -1    0    0    0    0  0.00000000000E+00  0.00000000000E+00  0.39999999673E+01  0.40000000000E+01  0.51109989000E-03 0.  1.
     -623   -1    0    0    0    0  0.00000000000E+00  0.00000000000E+00  0.12525980253E-10  0.17130000000E+03  0.17130000000E+03 0.  1.
       11    1    1    2    0    0  0.11379097032E-01 -0.78948568989E-02  0.73768791979E+00  0.73781809468E+00  0.51109989000E-03 0.  1.
     -623    1    1    2    0    0 -0.15475143076E-02  0.44752924648E-03  0.39871208288E-03  0.17130000001E+03  0.17130000000E+03 0.  1.
      622    1    1    2    0    0 -0.98315827242E-02  0.74473276525E-02  0.32619133355E+01  0.32621818973E+01  0.40000000000E-01 0.  0.
</event>
<event>
 5   0  0.6200596E+07  0.9118800E+02  0.7818608E-02  0.1180000E+00
       11   -1    0    0    0    0  0.00000000000E+00  0.00000000000E+00  0.39999999673E+01  0.40000000000E+01  0.51109989000E-03 0.  1.
     -623   -1    0    0    0    0  0.00000000000E+00  0.00000000000E+00  0.12525980253E-10  0.17130000000E+03  0.17130000000E+03 0. -1.
       11    1    1    2    0    0  0.12099926200E-02 -0.30774829038E-03  0.11846362146E-01  0.11922932087E-01  0.51109989000E-03 0.  1.
     -623    1    1    2    0    0  0.63115336338E-03  0.97509364563E-03  0.27762529153E-03  0.17130000000E+03  0.17130000000E+03 0. -1.
      622    1    1    2    0    0 -0.18411459834E-02 -0.66734535525E-03  0.39878759799E+01  0.39880770638E+01  0.40000000000E-01 0.  1.
</event>
<event>
 5   0  0.6200596E+07  0.9118800E+02  0.7818608E-02  0.1180000E+00
       11   -1    0    0    0    0  0.00000000000E+00  0.00000000000E+00  0.39999999673E+01  0.40000000000E+01  0.51109989000E-03 0.  1.
     -623   -1    0    0    0    0  0.00000000000E+00  0.00000000000E+00  0.12525980253E-10  0.17130000000E+03  0.17130000000E+03 0. -1.
       11    1    1    2    0    0 -0.20419939594E-01 -0.74365352478E-02  0.15911965129E+01  0.15913449909E+01  0.51109989000E-03 0.  1.
     -623    1    1    2    0    0 -0.93797918403E-02  0.35067007400E-02  0.66847708362E-03  0.17130000029E+03  0.17130000000E+03 0. -1.
      622    1    1    2    0    0  0.29799731434E-01  0.39298345078E-02  0.24081349774E+01  0.24086547151E+01  0.40000000000E-01 0.  0.
</event>
<event>
 5   0  0.6200596E+07  0.9118800E+02  0.7818608E-02  0.1180000E+00
       11   -1    0    0    0    0  0.00000000000E+00  0.00000000000E+00  0.39999999673E+01  0.40000000000E+01  0.51109989000E-03 0. -1.
     -623   -1    0    0    0    0  0.00000000000E+00  0.00000000000E+00  0.12525980253E-10  0.17130000000E+03  0.17130000000E+03 0.  1.
       11    1    1    2    0    0 -0.27588553460E-02  0.91702765686E-03  0.10265729384E+00  0.10269972455E+00  0.51109989000E-03 0. -1.
     -623    1    1    2    0    0  0.43346133462E-03 -0.27022463031E-03  0.24842217671E-03  0.17130000000E+03  0.17130000000E+03 0.  1.
      622    1    1    2    0    0  0.23253940114E-02 -0.64680302655E-03  0.38970942513E+01  0.38973002745E+01  0.40000000000E-01 0. -1.
</event>
<event>
 5   0  0.6200596E+07  0.9118800E+02  0.7818608E-02  0.1180000E+00
       11   -1    0    0    0    0  0.00000000000E+00  0.00000000000E+00  0.39999999673E+01  0.40000000000E+01  0.51109989000E-03 0. -1.
     -623   -1    0    0    0    0  0.00000000000E+00  0.00000000000E+00  0.12525980253E-10  0.17130000000E+03  0.17130000000E+03 0. -1.
       11    1    1    2    0    0  0.12434403863E-02  0.28057459508E-02  0.30637429645E-01  0.30794994255E-01  0.51109989000E-03 0. -1.
     -623    1    1    2    0    0  0.34911085615E-03 -0.52479987260E-02  0.36024081285E-03  0.17130000008E+03  0.17130000000E+03 0. -1.
      622    1    1    2    0    0 -0.15925512425E-02  0.24422527752E-02  0.39690022969E+01  0.39692049246E+01  0.40000000000E-01 0. -1.
</event>
<event>
 5   0  0.6200596E+07  0.9118800E+02  0.7818608E-02  0.1180000E+00
       11   -1    0    0    0    0  0.00000000000E+00  0.00000000000E+00  0.39999999673E+01  0.40000000000E+01  0.51109989000E-03 0. -1.
     -623   -1    0    0    0    0  0.00000000000E+00  0.00000000000E+00  0.12525980253E-10  0.17130000000E+03  0.17130000000E+03 0. -1.
       11    1    1    2    0    0  0.11363152643E-01  0.70386704403E-02  0.17981632390E+00  0.18031316004E+00  0.51109989000E-03 0. -1.
     -623    1    1    2    0    0 -0.92475504672E-03  0.13598338794E-02  0.72975733683E-03  0.17130000001E+03  0.17130000000E+03 0. -1.
      622    1    1    2    0    0 -0.10438397596E-01 -0.83985043197E-02  0.38194538861E+01  0.38196868305E+01  0.40000000000E-01 0. -1.
</event>
<event>
 5   0  0.6200596E+07  0.9118800E+02  0.7818608E-02  0.1180000E+00
       11   -1    0    0    0    0  0.00000000000E+00  0.00000000000E+00  0.39999999673E+01  0.40000000000E+01  0.51109989000E-03 0.  1.
     -623   -1    0    0    0    0  0.00000000000E+00  0.00000000000E+00  0.12525980253E-10  0.17130000000E+03  0.17130000000E+03 0. -1.
       11    1    1    2    0    0  0.18329250375E-02 -0.19875402991E-02  0.17286703694E-01  0.17504321682E-01  0.51109989000E-03 0.  1.
     -623    1    1    2    0    0 -0.34337035608E-02 -0.82915845554E-03  0.41982428304E-03  0.17130000004E+03  0.17130000000E+03 0. -1.
      622    1    1    2    0    0  0.16007785234E-02  0.28166987546E-02  0.39822934394E+01  0.39824956414E+01  0.40000000000E-01 0.  1.
</event>
<event>
 5   0  0.6200596E+07  0.9118800E+02  0.7818608E-02  0.1180000E+00
       11   -1    0    0    0    0  0.00000000000E+00  0.00000000000E+00  0.39999999673E+01  0.40000000000E+01  0.51109989000E-03 0. -1.
     -623   -1    0    0    0    0  0.00000000000E+00  0.00000000000E+00  0.12525980253E-10  0.17130000000E+03  0.17130000000E+03 0. -1.
       11    1    1    2    0    0 -0.33504850225E-02  0.12755283958E-01  0.11100247294E+00  0.11178431572E+00  0.51109989000E-03 0. -1.
     -623    1    1    2    0    0  0.41377292276E-02 -0.98408734633E-03  0.10055199990E-02  0.17130000006E+03  0.17130000000E+03 0. -1.
      622    1    1    2    0    0 -0.78724420502E-03 -0.11771196612E-01  0.38879919744E+01  0.38882156285E+01  0.40000000000E-01 0. -1.
</event>
<event>
 5   0  0.6200596E+07  0.9118800E+02  0.7818608E-02  0.1180000E+00
       11   -1    0    0    0    0  0.00000000000E+00  0.00000000000E+00  0.39999999673E+01  0.40000000000E+01  0.51109989000E-03 0.  1.
     -623   -1    0    0    0    0  0.00000000000E+00  0.00000000000E+00  0.12525980253E-10  0.17130000000E+03  0.17130000000E+03 0.  1.
       11    1    1    2    0    0 -0.23219672909E-02 -0.13190615105E-01  0.82871956775E-01  0.83948831433E-01  0.51109989000E-03 0.  1.
     -623    1    1    2    0    0  0.80526264657E-02  0.44349260695E-02  0.12953683637E-02  0.17130000025E+03  0.17130000000E+03 0.  1.
      622    1    1    2    0    0 -0.57306591748E-02  0.87556890354E-02  0.39158326422E+01  0.39160509170E+01  0.40000000000E-01 0.  1.
</event>
<event>
 5   0  0.6200596E+07  0.9118800E+02  0.7818608E-02  0.1180000E+00
       11   -1    0    0    0    0  0.00000000000E+00  0.00000000000E+00  0.39999999673E+01  0.40000000000E+01  0.51109989000E-03 0. -1.
     -623   -1    0    0    0    0  0.00000000000E+00  0.00000000000E+00  0.12525980253E-10  0.17130000000E+03  0.17130000000E+03 0. -1.
       11    1    1    2    0    0  0.42213616569E-01 -0.70828163897E-01  0.15973700183E+01  0.15994967505E+01  0.51109989000E-03 0. -1.
     -623    1    1    2    0    0 -0.17465619891E-01  0.12474621872E-01  0.32984497097E-02  0.17130000138E+03  0.17130000000E+03 0. -1.
      622    1    1    2    0    0 -0.24747996678E-01  0.58353542026E-01  0.23993314994E+01  0.24005018732E+01  0.40000000000E-01 0. -1.
</event>
<event>
 5   0  0.6200596E+07  0.9118800E+02  0.7818608E-02  0.1180000E+00
       11   -1    0    0    0    0  0.00000000000E+00  0.00000000000E+00  0.39999999673E+01  0.40000000000E+01  0.51109989000E-03 0. -1.
     -623   -1    0    0    0    0  0.00000000000E+00  0.00000000000E+00  0.12525980253E-10  0.17130000000E+03  0.17130000000E+03 0.  1.
       11    1    1    2    0    0  0.24587190558E-02 -0.24868421509E-02  0.50578294354E-01  0.50701624877E-01  0.51109989000E-03 0. -1.
     -623    1    1    2    0    0 -0.28676245393E-03 -0.24948659451E-03  0.32741671700E-03  0.17130000000E+03  0.17130000000E+03 0.  1.
      622    1    1    2    0    0 -0.21719566019E-02  0.27363287454E-02  0.39490942563E+01  0.39492983744E+01  0.40000000000E-01 0. -1.
</event>
<event>
 5   0  0.6200596E+07  0.9118800E+02  0.7818608E-02  0.1180000E+00
       11   -1    0    0    0    0  0.00000000000E+00  0.00000000000E+00  0.39999999673E+01  0.40000000000E+01  0.51109989000E-03 0. -1.
     -623   -1    0    0    0    0  0.00000000000E+00  0.00000000000E+00  0.12525980253E-10  0.17130000000E+03  0.17130000000E+03 0. -1.
       11    1    1    2    0    0  0.38225243032E-02 -0.66653958481E-02  0.15747233581E+01  0.15747421868E+01  0.51109989000E-03 0. -1.
     -623    1    1    2    0    0 -0.18037840674E-02  0.99963437975E-03  0.35615237828E-03  0.17130000001E+03  0.17130000000E+03 0. -1.
      622    1    1    2    0    0 -0.20187402358E-02  0.56657614683E-02  0.24249204569E+01  0.24252578004E+01  0.40000000000E-01 0. -1.
</event>
<event>
 5   0  0.6200596E+07  0.9118800E+02  0.7818608E-02  0.1180000E+00
       11   -1    0    0    0    0  0.00000000000E+00  0.00000000000E+00  0.39999999673E+01  0.40000000000E+01  0.51109989000E-03 0.  1.
     -623   -1    0    0    0    0  0.00000000000E+00  0.00000000000E+00  0.12525980253E-10  0.17130000000E+03  0.17130000000E+03 0. -1.
       11    1    1    2    0    0 -0.48751907370E-04 -0.12340198148E-01  0.13742755519E+01  0.13743310506E+01  0.51109989000E-03 0.  1.
     -623    1    1    2    0    0  0.68694190045E-03 -0.30375020927E-03  0.39069492984E-03  0.17130000000E+03  0.17130000000E+03 0. -1.
      622    1    1    2    0    0 -0.63818999308E-03  0.12643948357E-01  0.26253337205E+01  0.26256689473E+01  0.40000000000E-01 0.  1.
</event>
<event>
 5   0  0.6200596E+07  0.9118800E+02  0.7818608E-02  0.1180000E+00
       11   -1    0    0    0    0  0.00000000000E+00  0.00000000000E+00  0.39999999673E+01  0.40000000000E+01  0.51109989000E-03 0.  1.
     -623   -1    0    0    0    0  0.00000000000E+00  0.00000000000E+00  0.12525980253E-10  0.17130000000E+03  0.17130000000E+03 0.  1.
       11    1    1    2    0    0 -0.15264832984E-02  0.78241980348E-02  0.38319006654E-01  0.39142760760E-01  0.51109989000E-03 0.  1.
     -623    1    1    2    0    0  0.31764967084E-02 -0.22917659348E-02  0.10299586597E-02  0.17130000005E+03  0.17130000000E+03 0.  1.
      622    1    1    2    0    0 -0.16500134100E-02 -0.55324320999E-02  0.39606510020E+01  0.39608571914E+01  0.40000000000E-01 0.  1.
</event>
<event>
 5   0  0.6200596E+07  0.9118800E+02  0.7818608E-02  0.1180000E+00
       11   -1    0    0    0    0  0.00000000000E+00  0.00000000000E+00  0.39999999673E+01  0.40000000000E+01  0.51109989000E-03 0.  1.
     -623   -1    0    0    0    0  0.00000000000E+00  0.00000000000E+00  0.12525980253E-10  0.17130000000E+03  0.17130000000E+03 0.  1.
       11    1    1    2    0    0 -0.31250966940E-03 -0.50795011823E-03  0.34169304148E-02  0.35060393491E-02  0.51109989000E-03 0.  1.
     -623    1    1    2    0    0  0.84982402110E-03  0.15176224039E-02  0.28942950881E-03  0.17130000001E+03  0.17130000000E+03 0.  1.
      622    1    1    2    0    0 -0.53731435170E-03 -0.10096722856E-02  0.39962936074E+01  0.39964939516E+01  0.40000000000E-01 0.  1.
</event>
<event>
 5   0  0.6200596E+07  0.9118800E+02  0.7818608E-02  0.1180000E+00
       11   -1    0    0    0    0  0.00000000000E+00  0.00000000000E+00  0.39999999673E+01  0.40000000000E+01  0.51109989000E-03 0. -1.
     -623   -1    0    0    0    0  0.00000000000E+00  0.00000000000E+00  0.12525980253E-10  0.17130000000E+03  0.17130000000E+03 0. -1.
       11    1    1    2    0    0 -0.34503692353E-03 -0.16809364845E-01  0.26051503463E-01  0.31009931481E-01  0.51109989000E-03 0. -1.
     -623    1    1    2    0    0 -0.11051118168E-02  0.10374013864E-01  0.51658410787E-02  0.17130000040E+03  0.17130000000E+03 0. -1.
      622    1    1    2    0    0  0.14501487403E-02  0.64353509815E-02  0.39687826228E+01  0.39689896729E+01  0.40000000000E-01 0. -1.
</event>
<event>
 5   0  0.6200596E+07  0.9118800E+02  0.7818608E-02  0.1180000E+00
       11   -1    0    0    0    0  0.00000000000E+00  0.00000000000E+00  0.39999999673E+01  0.40000000000E+01  0.51109989000E-03 0.  1.
     -623   -1    0    0    0    0  0.00000000000E+00  0.00000000000E+00  0.12525980253E-10  0.17130000000E+03  0.17130000000E+03 0.  1.
       11    1    1    2    0    0 -0.20537065066E-01 -0.25689928158E-01  0.15936424368E+01  0.15939818760E+01  0.51109989000E-03 0.  1.
     -623    1    1    2    0    0  0.29455357525E-03 -0.14353298545E-02  0.91003948978E-03  0.17130000001E+03  0.17130000000E+03 0.  1.
      622    1    1    2    0    0  0.20242511491E-01  0.27125258013E-01  0.24054474911E+01  0.24060181153E+01  0.40000000000E-01 0.  1.
</event>
<event>
 5   0  0.6200596E+07  0.9118800E+02  0.7818608E-02  0.1180000E+00
       11   -1    0    0    0    0  0.00000000000E+00  0.00000000000E+00  0.39999999673E+01  0.40000000000E+01  0.51109989000E-03 0. -1.
     -623   -1    0    0    0    0  0.00000000000E+00  0.00000000000E+00  0.12525980253E-10  0.17130000000E+03  0.17130000000E+03 0.  1.
       11    1    1    2    0    0 -0.35917105882E-02  0.28695122087E-02  0.88440490113E-01  0.88561368546E-01  0.51109989000E-03 0. -1.
     -623    1    1    2    0    0 -0.19918714438E-03 -0.17619098649E-03  0.32814444760E-03  0.17130000000E+03  0.17130000000E+03 0.  1.
      622    1    1    2    0    0  0.37908977326E-02 -0.26933212222E-02  0.39112313328E+01  0.39114386309E+01  0.40000000000E-01 0. -1.
</event>
<event>
 5   0  0.6200596E+07  0.9118800E+02  0.7818608E-02  0.1180000E+00
       11   -1    0    0    0    0  0.00000000000E+00  0.00000000000E+00  0.39999999673E+01  0.40000000000E+01  0.51109989000E-03 0. -1.
     -623   -1    0    0    0    0  0.00000000000E+00  0.00000000000E+00  0.12525980253E-10  0.17130000000E+03  0.17130000000E+03 0.  1.
       11    1    1    2    0    0 -0.14101946825E-02 -0.41414469270E-02  0.12021044340E+01  0.12021125037E+01  0.51109989000E-03 0. -1.
     -623    1    1    2    0    0 -0.56604735723E-02  0.46270806656E-02  0.30311542285E-03  0.17130000016E+03  0.17130000000E+03 0.  1.
      622    1    1    2    0    0  0.70706682549E-02 -0.48563373857E-03  0.27975924180E+01  0.27978873400E+01  0.40000000000E-01 0. -1.
</event>
<event>
 5   0  0.6200596E+07  0.9118800E+02  0.7818608E-02  0.1180000E+00
       11   -1    0    0    0    0  0.00000000000E+00  0.00000000000E+00  0.39999999673E+01  0.40000000000E+01  0.51109989000E-03 0. -1.
     -623   -1    0    0    0    0  0.00000000000E+00  0.00000000000E+00  0.12525980253E-10  0.17130000000E+03  0.17130000000E+03 0. -1.
       11    1    1    2    0    0 -0.12466979171E-01 -0.21071346248E-01  0.29829508155E+01  0.29830513331E+01  0.51109989000E-03 0. -1.
     -623    1    1    2    0    0  0.52307682278E-02 -0.23199175224E-02  0.11825885829E-02  0.17130000010E+03  0.17130000000E+03 0. -1.
      622    1    1    2    0    0  0.72362109435E-02  0.23391263770E-01  0.10158665633E+01  0.10169485673E+01  0.40000000000E-01 0.  1.
</event>
<event>
 5   0  0.6200596E+07  0.9118800E+02  0.7818608E-02  0.1180000E+00
       11   -1    0    0    0    0  0.00000000000E+00  0.00000000000E+00  0.39999999673E+01  0.40000000000E+01  0.51109989000E-03 0. -1.
     -623   -1    0    0    0    0  0.00000000000E+00  0.00000000000E+00  0.12525980253E-10  0.17130000000E+03  0.17130000000E+03 0.  1.
       11    1    1    2    0    0 -0.33248721272E-01  0.12191904128E-01  0.25345230420E+01  0.25347704890E+01  0.51109989000E-03 0. -1.
     -623    1    1    2    0    0  0.39133346657E-02 -0.13026017685E-02  0.11278474902E-02  0.17130000005E+03  0.17130000000E+03 0.  1.
      622    1    1    2    0    0  0.29335386606E-01 -0.10889302359E-01  0.14643490779E+01  0.14652294577E+01  0.40000000000E-01 0.  0.
</event>
<event>
 5   0  0.6200596E+07  0.9118800E+02  0.7818608E-02  0.1180000E+00
       11   -1    0    0    0    0  0.00000000000E+00  0.00000000000E+00  0.39999999673E+01  0.40000000000E+01  0.51109989000E-03 0.  1.
     -623   -1    0    0    0    0  0.00000000000E+00  0.00000000000E+00  0.12525980253E-10  0.17130000000E+03  0.17130000000E+03 0. -1.
       11    1    1    2    0    0 -0.68615925015E-03 -0.42222554939E-03  0.27510509872E-01  0.27527049665E-01  0.51109989000E-03 0.  1.
     -623    1    1    2    0    0  0.79309589905E-03  0.37564053581E-02  0.21934204769E-03  0.17130000004E+03  0.17130000000E+03 0. -1.
      622    1    1    2    0    0 -0.10693664891E-03 -0.33341798087E-02  0.39722701154E+01  0.39724729072E+01  0.40000000000E-01 0.  1.
</event>
<event>
 5   0  0.6200596E+07  0.9118800E+02  0.7818608E-02  0.1180000E+00
       11   -1    0    0    0    0  0.00000000000E+00  0.00000000000E+00  0.39999999673E+01  0.40000000000E+01  0.51109989000E-03 0. -1.
     -623   -1    0    0    0    0  0.00000000000E+00  0.00000000000E+00  0.12525980253E-10  0.17130000000E+03  0.17130000000E+03 0.  1.
       11    1    1    2    0    0  0.30896231785E-02 -0.58586849283E-02  0.32287472579E+00  0.32294305958E+00  0.51109989000E-03 0. -1.
     -623    1    1    2    0    0  0.11043340968E-03  0.42802498411E-03  0.29127678412E-03  0.17130000000E+03  0.17130000000E+03 0.  1.
      622    1    1    2    0    0 -0.32000565882E-02  0.54306599442E-02  0.36768339648E+01  0.36770569396E+01  0.40000000000E-01 0. -1.
</event>
<event>
 5   0  0.6200596E+07  0.9118800E+02  0.7818608E-02  0.1180000E+00
       11   -1    0    0    0    0  0.00000000000E+00  0.00000000000E+00  0.39999999673E+01  0.40000000000E+01  0.51109989000E-03 0. -1.
     -623   -1    0    0    0    0  0.00000000000E+00  0.00000000000E+00  0.12525980253E-10  0.17130000000E+03  0.17130000000E+03 0. -1.
       11    1    1    2    0    0  0.14581821205E-02 -0.10417404387E-01  0.61592382493E-01  0.62486249781E-01  0.51109989000E-03 0. -1.
     -623    1    1    2    0    0  0.94280273026E-04 -0.73152222798E-03  0.11131097896E-02  0.17130000001E+03  0.17130000000E+03 0. -1.
      622    1    1    2    0    0 -0.15524623935E-02  0.11148926615E-01  0.39372944751E+01  0.39375137450E+01  0.40000000000E-01 0. -1.
</event>
<event>
 5   0  0.6200596E+07  0.9118800E+02  0.7818608E-02  0.1180000E+00
       11   -1    0    0    0    0  0.00000000000E+00  0.00000000000E+00  0.39999999673E+01  0.40000000000E+01  0.51109989000E-03 0.  1.
     -623   -1    0    0    0    0  0.00000000000E+00  0.00000000000E+00  0.12525980253E-10  0.17130000000E+03  0.17130000000E+03 0.  1.
       11    1    1    2    0    0 -0.21803338635E-01 -0.84639855785E-02  0.35184671058E+00  0.35262358627E+00  0.51109989000E-03 0.  1.
     -623    1    1    2    0    0  0.86093481950E-05 -0.14152654733E-02  0.10746962946E-02  0.17130000001E+03  0.17130000000E+03 0.  1.
      622    1    1    2    0    0  0.21794729287E-01  0.98792510518E-02  0.36470785605E+01  0.36473764045E+01  0.40000000000E-01 0.  1.
</event>
<event>
 5   0  0.6200596E+07  0.9118800E+02  0.7818608E-02  0.1180000E+00
       11   -1    0    0    0    0  0.00000000000E+00  0.00000000000E+00  0.39999999673E+01  0.40000000000E+01  0.51109989000E-03 0. -1.
     -623   -1    0    0    0    0  0.00000000000E+00  0.00000000000E+00  0.12525980253E-10  0.17130000000E+03  0.17130000000E+03 0.  1.
       11    1    1    2    0    0 -0.31246643918E-02 -0.51599631010E-02  0.90662674790E-01  0.90864572675E-01  0.51109989000E-03 0. -1.
     -623    1    1    2    0    0  0.51652581257E-02 -0.82105882057E-03  0.41170816350E-03  0.17130000008E+03  0.17130000000E+03 0.  1.
      622    1    1    2    0    0 -0.20405937339E-02  0.59810219216E-02  0.39089255844E+01  0.39091353470E+01  0.40000000000E-01 0. -1.
</event>
<event>
 5   0  0.6200596E+07  0.9118800E+02  0.7818608E-02  0.1180000E+00
       11   -1    0    0    0    0  0.00000000000E+00  0.00000000000E+00  0.39999999673E+01  0.40000000000E+01  0.51109989000E-03 0.  1.
     -623   -1    0    0    0    0  0.00000000000E+00  0.00000000000E+00  0.12525980253E-10  0.17130000000E+03  0.17130000000E+03 0.  1.
       11    1    1    2    0    0  0.36921139445E-02 -0.81773057630E-02  0.45441788419E+00  0.45450673783E+00  0.51109989000E-03 0.  1.
     -623    1    1    2    0    0 -0.45454468432E-02  0.18035839088E-02  0.32036891851E-03  0.17130000007E+03  0.17130000000E+03 0.  1.
      622    1    1    2    0    0  0.85333289863E-03  0.63737218542E-02  0.35452617143E+01  0.35454931921E+01  0.40000000000E-01 0.  1.
</event>
<event>
 5   0  0.6200596E+07  0.9118800E+02  0.7818608E-02  0.1180000E+00
       11   -1    0    0    0    0  0.00000000000E+00  0.00000000000E+00  0.39999999673E+01  0.40000000000E+01  0.51109989000E-03 0.  1.
     -623   -1    0    0    0    0  0.00000000000E+00  0.00000000000E+00  0.12525980253E-10  0.17130000000E+03  0.17130000000E+03 0. -1.
       11    1    1    2    0    0  0.34437044330E-02 -0.31894204530E-02  0.21276829648E+00  0.21282067735E+00  0.51109989000E-03 0.  1.
     -623    1    1    2    0    0  0.18422954237E-03  0.24893090429E-03  0.26647302308E-03  0.17130000000E+03  0.17130000000E+03 0. -1.
      622    1    1    2    0    0 -0.36279339754E-02  0.29404895487E-02  0.37869651979E+01  0.37871793222E+01  0.40000000000E-01 0.  1.
</event>
<event>
 5   0  0.6200596E+07  0.9118800E+02  0.7818608E-02  0.1180000E+00
       11   -1    0    0    0    0  0.00000000000E+00  0.00000000000E+00  0.39999999673E+01  0.40000000000E+01  0.51109989000E-03 0.  1.
     -623   -1    0    0    0    0  0.00000000000E+00  0.00000000000E+00  0.12525980253E-10  0.17130000000E+03  0.17130000000E+03 0.  1.
       11    1    1    2    0    0 -0.33962731960E-04  0.39907884941E-03  0.19579503615E-01  0.19590267988E-01  0.51109989000E-03 0.  1.
     -623    1    1    2    0    0  0.13484845398E-02 -0.81626919141E-03  0.21196745937E-03  0.17130000001E+03  0.17130000000E+03 0.  1.
      622    1    1    2    0    0 -0.13145218078E-02  0.41719034201E-03  0.39802084963E+01  0.39804097246E+01  0.40000000000E-01 0.  1.
</event>
<event>
 5   0  0.6200596E+07  0.9118800E+02  0.7818608E-02  0.1180000E+00
       11   -1    0    0    0    0  0.00000000000E+00  0.00000000000E+00  0.39999999673E+01  0.40000000000E+01  0.51109989000E-03 0.  1.
     -623   -1    0    0    0    0  0.00000000000E+00  0.00000000000E+00  0.12525980253E-10  0.17130000000E+03  0.17130000000E+03 0. -1.
       11    1    1    2    0    0  0.10261692418E-01 -0.12816828859E-01  0.19373908898E+01  0.19374605273E+01  0.51109989000E-03 0.  1.
     -623    1    1    2    0    0 -0.55864541674E-02  0.25074195963E-03  0.50119172160E-03  0.17130000009E+03  0.17130000000E+03 0. -1.
      622    1    1    2    0    0 -0.46752382502E-02  0.12566086899E-01  0.20621078858E+01  0.20625393807E+01  0.40000000000E-01 0.  0.
</event>
<event>
 5   0  0.6200596E+07  0.9118800E+02  0.7818608E-02  0.1180000E+00
       11   -1    0    0    0    0  0.00000000000E+00  0.00000000000E+00  0.39999999673E+01  0.40000000000E+01  0.51109989000E-03 0. -1.
     -623   -1    0    0    0    0  0.00000000000E+00  0.00000000000E+00  0.12525980253E-10  0.17130000000E+03  0.17130000000E+03 0.  1.
       11    1    1    2    0    0  0.70619709467E-02 -0.13038238606E-01  0.58559930243E+00  0.58578722359E+00  0.51109989000E-03 0. -1.
     -623    1    1    2    0    0 -0.93914444480E-04 -0.18855258020E-02  0.46195213508E-03  0.17130000001E+03  0.17130000000E+03 0.  1.
      622    1    1    2    0    0 -0.69680565022E-02  0.14923764408E-01  0.34139387128E+01  0.34142127654E+01  0.40000000000E-01 0. -1.
</event>
<event>
 5   0  0.6200596E+07  0.9118800E+02  0.7818608E-02  0.1180000E+00
       11   -1    0    0    0    0  0.00000000000E+00  0.00000000000E+00  0.39999999673E+01  0.40000000000E+01  0.51109989000E-03 0.  1.
     -623   -1    0    0    0    0  0.00000000000E+00  0.00000000000E+00  0.12525980253E-10  0.17130000000E+03  0.17130000000E+03 0.  1.
       11    1    1    2    0    0 -0.13557452124E-02 -0.92387671741E-03  0.15901301300E+01  0.15901310585E+01  0.51109989000E-03 0.  1.
     -623    1    1    2    0    0 -0.25677051618E-02 -0.82493893372E-03  0.33673745202E-03  0.17130000002E+03  0.17130000000E+03 0.  1.
      622    1    1    2    0    0  0.39234503742E-02  0.17488156511E-02  0.24095330999E+01  0.24098689200E+01  0.40000000000E-01 0.  1.
</event>
<event>
 5   0  0.6200596E+07  0.9118800E+02  0.7818608E-02  0.1180000E+00
       11   -1    0    0    0    0  0.00000000000E+00  0.00000000000E+00  0.39999999673E+01  0.40000000000E+01  0.51109989000E-03 0. -1.
     -623   -1    0    0    0    0  0.00000000000E+00  0.00000000000E+00  0.12525980253E-10  0.17130000000E+03  0.17130000000E+03 0. -1.
       11    1    1    2    0    0 -0.10351763869E-02 -0.13572521790E-01  0.92223097408E+00  0.92233156496E+00  0.51109989000E-03 0. -1.
     -623    1    1    2    0    0 -0.50708583231E-02  0.11257337091E-02  0.39181419190E-03  0.17130000008E+03  0.17130000000E+03 0. -1.
      622    1    1    2    0    0  0.61060347100E-02  0.12446788081E-01  0.30773771791E+01  0.30776683558E+01  0.40000000000E-01 0. -1.
</event>
<event>
 5   0  0.6200596E+07  0.9118800E+02  0.7818608E-02  0.1180000E+00
       11   -1    0    0    0    0  0.00000000000E+00  0.00000000000E+00  0.39999999673E+01  0.40000000000E+01  0.51109989000E-03 0. -1.
     -623   -1    0    0    0    0  0.00000000000E+00  0.00000000000E+00  0.12525980253E-10  0.17130000000E+03  0.17130000000E+03 0. -1.
       11    1    1    2    0    0  0.34032920084E-02  0.46312864635E-03  0.28593312539E+00  0.28595421015E+00  0.51109989000E-03 0. -1.
     -623    1    1    2    0    0 -0.29612831851E-03  0.17178025199E-03  0.23781147009E-03  0.17130000000E+03  0.17130000000E+03 0. -1.
      622    1    1    2    0    0 -0.31071636899E-02 -0.63490889834E-03  0.37138290305E+01  0.37140457893E+01  0.40000000000E-01 0. -1.
</event>
<event>
 5   0  0.6200596E+07  0.9118800E+02  0.7818608E-02  0.1180000E+00
       11   -1    0    0    0    0  0.00000000000E+00  0.00000000000E+00  0.39999999673E+01  0.40000000000E+01  0.51109989000E-03 0.  1.
     -623   -1    0    0    0    0  0.00000000000E+00  0.00000000000E+00  0.12525980253E-10  0.17130000000E+03  0.17130000000E+03 0. -1.
       11    1    1    2    0    0  0.52276375546E-02 -0.47073491590E-04  0.13515776399E+01  0.13515878471E+01  0.51109989000E-03 0.  1.
     -623    1    1    2    0    0  0.52817100841E-03  0.36802710145E-02  0.32104784541E-03  0.17130000004E+03  0.17130000000E+03 0. -1.
      622    1    1    2    0    0 -0.57558085630E-02 -0.36331975229E-02  0.26481012796E+01  0.26484121123E+01  0.40000000000E-01 0. -1.
</event>
<event>
 5   0  0.6200596E+07  0.9118800E+02  0.7818608E-02  0.1180000E+00
       11   -1    0    0    0    0  0.00000000000E+00  0.00000000000E+00  0.39999999673E+01  0.40000000000E+01  0.51109989000E-03 0. -1.
     -623   -1    0    0    0    0  0.00000000000E+00  0.00000000000E+00  0.12525980253E-10  0.17130000000E+03  0.17130000000E+03 0. -1.
       11    1    1    2    0    0 -0.17020728183E-02 -0.11096607724E-02  0.24570318290E-01  0.24659484224E-01  0.51109989000E-03 0. -1.
     -623    1    1    2    0    0  0.23572282254E-02 -0.71243696855E-03  0.29086854823E-03  0.17130000002E+03  0.17130000000E+03 0. -1.
      622    1    1    2    0    0 -0.65515540710E-03  0.18220977410E-02  0.39751387805E+01  0.39753404978E+01  0.40000000000E-01 0. -1.
</event>
<event>
 5   0  0.6200596E+07  0.9118800E+02  0.7818608E-02  0.1180000E+00
       11   -1    0    0    0    0  0.00000000000E+00  0.00000000000E+00  0.39999999673E+01  0.40000000000E+01  0.51109989000E-03 0.  1.
     -623   -1    0    0    0    0  0.00000000000E+00  0.00000000000E+00  0.12525980253E-10  0.17130000000E+03  0.17130000000E+03 0. -1.
       11    1    1    2    0    0  0.14177640106E-02  0.24269492772E-02  0.82628865665E-01  0.82678236563E-01  0.51109989000E-03 0.  1.
     -623    1    1    2    0    0 -0.21202472221E-03 -0.38339163741E-03  0.25428412496E-03  0.17130000000E+03  0.17130000000E+03 0. -1.
      622    1    1    2    0    0 -0.12057392884E-02 -0.20435576398E-02  0.39171168176E+01  0.39173217627E+01  0.40000000000E-01 0.  1.
</event>
<event>
 5   0  0.6200596E+07  0.9118800E+02  0.7818608E-02  0.1180000E+00
       11   -1    0    0    0    0  0.00000000000E+00  0.00000000000E+00  0.39999999673E+01  0.40000000000E+01  0.51109989000E-03 0.  1.
     -623   -1    0    0    0    0  0.00000000000E+00  0.00000000000E+00  0.12525980253E-10  0.17130000000E+03  0.17130000000E+03 0. -1.
       11    1    1    2    0    0 -0.41839310553E-03 -0.10748301390E-02  0.38801647226E-02  0.40800994485E-02  0.51109989000E-03 0.  1.
     -623    1    1    2    0    0  0.43240948240E-03 -0.64655784107E-03  0.40048436711E-03  0.17130000000E+03  0.17130000000E+03 0. -1.
      622    1    1    2    0    0 -0.14016376872E-04  0.17213879801E-02  0.39957193183E+01  0.39959198983E+01  0.40000000000E-01 0.  1.
</event>
<event>
 5   0  0.6200596E+07  0.9118800E+02  0.7818608E-02  0.1180000E+00
       11   -1    0    0    0    0  0.00000000000E+00  0.00000000000E+00  0.39999999673E+01  0.40000000000E+01  0.51109989000E-03 0.  1.
     -623   -1    0    0    0    0  0.00000000000E+00  0.00000000000E+00  0.12525980253E-10  0.17130000000E+03  0.17130000000E+03 0.  1.
       11    1    1    2    0    0  0.55212386137E-02 -0.55081687403E-02  0.72040285834E-01  0.72463011269E-01  0.51109989000E-03 0.  1.
     -623    1    1    2    0    0 -0.30352653384E-02  0.17538470656E-02  0.62900636931E-03  0.17130000004E+03  0.17130000000E+03 0.  1.
      622    1    1    2    0    0 -0.24859732753E-02  0.37543216747E-02  0.39273306752E+01  0.39275369517E+01  0.40000000000E-01 0.  1.
</event>
<event>
 5   0  0.6200596E+07  0.9118800E+02  0.7818608E-02  0.1180000E+00
       11   -1    0    0    0    0  0.00000000000E+00  0.00000000000E+00  0.39999999673E+01  0.40000000000E+01  0.51109989000E-03 0. -1.
     -623   -1    0    0    0    0  0.00000000000E+00  0.00000000000E+00  0.12525980253E-10  0.17130000000E+03  0.17130000000E+03 0. -1.
       11    1    1    2    0    0  0.18446778926E-02  0.21153553603E-02  0.69660629890E-02  0.75276038025E-02  0.51109989000E-03 0. -1.
     -623    1    1    2    0    0  0.35182850112E-03 -0.15644978862E-03  0.76297726388E-03  0.17130000000E+03  0.17130000000E+03 0. -1.
      622    1    1    2    0    0 -0.21965063938E-02 -0.19589055717E-02  0.39922709271E+01  0.39924723941E+01  0.40000000000E-01 0. -1.
</event>
<event>
 5   0  0.6200596E+07  0.9118800E+02  0.7818608E-02  0.1180000E+00
       11   -1    0    0    0    0  0.00000000000E+00  0.00000000000E+00  0.39999999673E+01  0.40000000000E+01  0.51109989000E-03 0. -1.
     -623   -1    0    0    0    0  0.00000000000E+00  0.00000000000E+00  0.12525980253E-10  0.17130000000E+03  0.17130000000E+03 0.  1.
       11    1    1    2    0    0 -0.47747523667E-02  0.87002413692E-02  0.74869179980E+00  0.74875774771E+00  0.51109989000E-03 0. -1.
     -623    1    1    2    0    0  0.96908685509E-03 -0.11553217264E-02  0.32297396397E-03  0.17130000001E+03  0.17130000000E+03 0.  1.
      622    1    1    2    0    0  0.38056655116E-02 -0.75449196427E-02  0.32509851936E+01  0.32512422453E+01  0.40000000000E-01 0. -1.
</event>
<event>
 5   0  0.6200596E+07  0.9118800E+02  0.7818608E-02  0.1180000E+00
       11   -1    0    0    0    0  0.00000000000E+00  0.00000000000E+00  0.39999999673E+01  0.40000000000E+01  0.51109989000E-03 0. -1.
     -623   -1    0    0    0    0  0.00000000000E+00  0.00000000000E+00  0.12525980253E-10  0.17130000000E+03  0.17130000000E+03 0. -1.
       11    1    1    2    0    0  0.13209384317E-02  0.21871235914E-02  0.58395435745E-01  0.58453541589E-01  0.51109989000E-03 0. -1.
     -623    1    1    2    0    0  0.20674138082E-03  0.10039078552E-02  0.26263556463E-03  0.17130000000E+03  0.17130000000E+03 0. -1.
      622    1    1    2    0    0 -0.15276798125E-02 -0.31910314466E-02  0.39413418961E+01  0.39415464551E+01  0.40000000000E-01 0. -1.
</event>
<event>
 5   0  0.6200596E+07  0.9118800E+02  0.7818608E-02  0.1180000E+00
       11   -1    0    0    0    0  0.00000000000E+00  0.00000000000E+00  0.39999999673E+01  0.40000000000E+01  0.51109989000E-03 0.  1.
     -623   -1    0    0    0    0  0.00000000000E+00  0.00000000000E+00  0.12525980253E-10  0.17130000000E+03  0.17130000000E+03 0.  1.
       11    1    1    2    0    0  0.31472645516E-01 -0.18986233494E-01  0.23224675708E+01  0.23227584642E+01  0.51109989000E-03 0.  1.
     -623    1    1    2    0    0  0.38877339181E-02  0.27443703059E-02  0.12195443497E-02  0.17130000007E+03  0.17130000000E+03 0.  1.
      622    1    1    2    0    0 -0.35360379434E-01  0.16241863189E-01  0.16763128522E+01  0.16772414653E+01  0.40000000000E-01 0.  1.
</event>
<event>
 5   0  0.6200596E+07  0.9118800E+02  0.7818608E-02  0.1180000E+00
       11   -1    0    0    0    0  0.00000000000E+00  0.00000000000E+00  0.39999999673E+01  0.40000000000E+01  0.51109989000E-03 0. -1.
     -623   -1    0    0    0    0  0.00000000000E+00  0.00000000000E+00  0.12525980253E-10  0.17130000000E+03  0.17130000000E+03 0.  1.
       11    1    1    2    0    0  0.26020572637E-02 -0.38381657704E-02  0.25024068262E+00  0.25028416386E+00  0.51109989000E-03 0. -1.
     -623    1    1    2    0    0 -0.14813185451E-01 -0.40310584195E-02  0.28563438377E-03  0.17130000069E+03  0.17130000000E+03 0.  1.
      622    1    1    2    0    0  0.12211128187E-01  0.78692241898E-02  0.37494736504E+01  0.37497151480E+01  0.40000000000E-01 0. -1.
</event>
<event>
 5   0  0.6200596E+07  0.9118800E+02  0.7818608E-02  0.1180000E+00
       11   -1    0    0    0    0  0.00000000000E+00  0.00000000000E+00  0.39999999673E+01  0.40000000000E+01  0.51109989000E-03 0.  1.
     -623   -1    0    0    0    0  0.00000000000E+00  0.00000000000E+00  0.12525980253E-10  0.17130000000E+03  0.17130000000E+03 0.  1.
       11    1    1    2    0    0 -0.12760034320E-02 -0.17155338734E-02  0.48933684894E-02  0.53644680793E-02  0.51109989000E-03 0.  1.
     -623    1    1    2    0    0 -0.29920837870E-03 -0.51524791207E-04  0.67204359076E-03  0.17130000000E+03  0.17130000000E+03 0.  1.
      622    1    1    2    0    0  0.15752118107E-02  0.17670586646E-02  0.39944345553E+01  0.39946355303E+01  0.40000000000E-01 0.  1.
</event>
<event>
 5   0  0.6200596E+07  0.9118800E+02  0.7818608E-02  0.1180000E+00
       11   -1    0    0    0    0  0.00000000000E+00  0.00000000000E+00  0.39999999673E+01  0.40000000000E+01  0.51109989000E-03 0.  1.
     -623   -1    0    0    0    0  0.00000000000E+00  0.00000000000E+00  0.12525980253E-10  0.17130000000E+03  0.17130000000E+03 0.  1.
       11    1    1    2    0    0 -0.18523280088E-02  0.39498601534E-02  0.76900058153E-01  0.77025402816E-01  0.51109989000E-03 0.  1.
     -623    1    1    2    0    0  0.24129449897E-02 -0.51270553979E-02  0.32955494808E-03  0.17130000009E+03  0.17130000000E+03 0.  1.
      622    1    1    2    0    0 -0.56061698091E-03  0.11771952445E-02  0.39227703543E+01  0.39229745031E+01  0.40000000000E-01 0.  1.
</event>
<event>
 5   0  0.6200596E+07  0.9118800E+02  0.7818608E-02  0.1180000E+00
       11   -1    0    0    0    0  0.00000000000E+00  0.00000000000E+00  0.39999999673E+01  0.40000000000E+01  0.51109989000E-03 0.  1.
     -623   -1    0    0    0    0  0.00000000000E+00  0.00000000000E+00  0.12525980253E-10  0.17130000000E+03  0.17130000000E+03 0.  1.
       11    1    1    2    0    0 -0.43082156616E-02 -0.12338798420E-02  0.59095943704E-01  0.59267824038E-01  0.51109989000E-03 0.  1.
     -623    1    1    2    0    0 -0.12463178314E-02 -0.10371269318E-01  0.39618373062E-03  0.17130000032E+03  0.17130000000E+03 0.  1.
      622    1    1    2    0    0  0.55545334930E-02  0.11605149160E-01  0.39405078399E+01  0.39407318570E+01  0.40000000000E-01 0.  1.
</event>
<event>
 5   0  0.6200596E+07  0.9118800E+02  0.7818608E-02  0.1180000E+00
       11   -1    0    0    0    0  0.00000000000E+00  0.00000000000E+00  0.39999999673E+01  0.40000000000E+01  0.51109989000E-03 0. -1.
     -623   -1    0    0    0    0  0.00000000000E+00  0.00000000000E+00  0.12525980253E-10  0.17130000000E+03  0.17130000000E+03 0.  1.
       11    1    1    2    0    0 -0.34899457418E-02  0.11892786688E-01  0.11357241287E+00  0.11424785461E+00  0.51109989000E-03 0. -1.
     -623    1    1    2    0    0 -0.22124801657E-02 -0.48375528210E-02  0.89196959835E-03  0.17130000008E+03  0.17130000000E+03 0.  1.
      622    1    1    2    0    0  0.57024259075E-02 -0.70552338672E-02  0.38855355849E+01  0.38857520605E+01  0.40000000000E-01 0. -1.
</event>
<event>
 5   0  0.6200596E+07  0.9118800E+02  0.7818608E-02  0.1180000E+00
       11   -1    0    0    0    0  0.00000000000E+00  0.00000000000E+00  0.39999999673E+01  0.40000000000E+01  0.51109989000E-03 0.  1.
     -623   -1    0    0    0    0  0.00000000000E+00  0.00000000000E+00  0.12525980253E-10  0.17130000000E+03  0.17130000000E+03 0. -1.
       11    1    1    2    0    0 -0.36739938751E-02  0.23699823599E-02  0.55408612663E-01  0.55583186530E-01  0.51109989000E-03 0.  1.
     -623    1    1    2    0    0  0.15484189955E-02  0.34659512393E-02  0.38229748307E-03  0.17130000004E+03  0.17130000000E+03 0. -1.
      622    1    1    2    0    0  0.21255748796E-02 -0.58359335991E-02  0.39442090572E+01  0.39444167710E+01  0.40000000000E-01 0.  1.
</event>
<event>
 5   0  0.6200596E+07  0.9118800E+02  0.7818608E-02  0.1180000E+00
       11   -1    0    0    0    0  0.00000000000E+00  0.00000000000E+00  0.39999999673E+01  0.40000000000E+01  0.51109989000E-03 0.  1.
     -623   -1    0    0    0    0  0.00000000000E+00  0.00000000000E+00  0.12525980253E-10  0.17130000000E+03  0.17130000000E+03 0.  1.
       11    1    1    2    0    0  0.30234153281E-02  0.13777377148E-01  0.14517902985E+00  0.14586352899E+00  0.51109989000E-03 0.  1.
     -623    1    1    2    0    0  0.18773993464E-02 -0.14704332016E-01  0.89591257539E-03  0.17130000064E+03  0.17130000000E+03 0.  1.
      622    1    1    2    0    0 -0.49008146745E-02  0.92695486719E-03  0.38539250249E+01  0.38541358273E+01  0.40000000000E-01 0.  1.
</event>
<event>
 5   0  0.6200596E+07  0.9118800E+02  0.7818608E-02  0.1180000E+00
       11   -1    0    0    0    0  0.00000000000E+00  0.00000000000E+00  0.39999999673E+01  0.40000000000E+01  0.51109989000E-03 0. -1.
     -623   -1    0    0    0    0  0.00000000000E+00  0.00000000000E+00  0.12525980253E-10  0.17130000000E+03  0.17130000000E+03 0. -1.
       11    1    1    2    0    0  0.24476158094E-02 -0.23512664190E-02  0.70203759674E+00  0.70204598691E+00  0.51109989000E-03 0. -1.
     -623    1    1    2    0    0 -0.89078431746E-02  0.65378875967E-02  0.26028307150E-03  0.17130000036E+03  0.17130000000E+03 0. -1.
      622    1    1    2    0    0  0.64602273652E-02 -0.41866211777E-02  0.32977020876E+01  0.32979536565E+01  0.40000000000E-01 0. -1.
</event>
<event>
 5   0  0.6200596E+07  0.9118800E+02  0.7818608E-02  0.1180000E+00
       11   -1    0    0    0    0  0.00000000000E+00  0.00000000000E+00  0.39999999673E+01  0.40000000000E+01  0.51109989000E-03 0.  1.
     -623   -1    0    0    0    0  0.00000000000E+00  0.00000000000E+00  0.12525980253E-10  0.17130000000E+03  0.17130000000E+03 0. -1.
       11    1    1    2    0    0  0.16109635689E-02  0.24517215517E-01  0.36775903294E+00  0.36857924059E+00  0.51109989000E-03 0.  1.
     -623    1    1    2    0    0 -0.99330459970E-02 -0.47129468491E-02  0.11043799201E-02  0.17130000036E+03  0.17130000000E+03 0. -1.
      622    1    1    2    0    0  0.83220824281E-02 -0.19804268668E-01  0.36311365545E+01  0.36314204030E+01  0.40000000000E-01 0.  1.
</event>
<event>
 5   0  0.6200596E+07  0.9118800E+02  0.7818608E-02  0.1180000E+00
       11   -1    0    0    0    0  0.00000000000E+00  0.00000000000E+00  0.39999999673E+01  0.40000000000E+01  0.51109989000E-03 0. -1.
     -623   -1    0    0    0    0  0.00000000000E+00  0.00000000000E+00  0.12525980253E-10  0.17130000000E+03  0.17130000000E+03 0.  1.
       11    1    1    2    0    0 -0.33762955869E-01 -0.24747002697E-02  0.14906088390E+01  0.14909933043E+01  0.51109989000E-03 0. -1.
     -623    1    1    2    0    0  0.36662698510E-01 -0.99733676418E-02  0.74007975589E-03  0.17130000422E+03  0.17130000000E+03 0.  1.
      622    1    1    2    0    0 -0.28997426408E-02  0.12448067911E-01  0.25086510486E+01  0.25090024804E+01  0.40000000000E-01 0.  1.
</event>
<event>
 5   0  0.6200596E+07  0.9118800E+02  0.7818608E-02  0.1180000E+00
       11   -1    0    0    0    0  0.00000000000E+00  0.00000000000E+00  0.39999999673E+01  0.40000000000E+01  0.51109989000E-03 0. -1.
     -623   -1    0    0    0    0  0.00000000000E+00  0.00000000000E+00  0.12525980253E-10  0.17130000000E+03  0.17130000000E+03 0.  1.
       11    1    1    2    0    0 -0.53803196573E-03  0.24259031362E-03  0.47080141432E-02  0.47723104140E-02  0.51109989000E-03 0. -1.
     -623    1    1    2    0    0  0.58119134160E-03 -0.95723491830E-03  0.26457556643E-03  0.17130000000E+03  0.17130000000E+03 0.  1.
      622    1    1    2    0    0 -0.43159375874E-04  0.71464460468E-03  0.39950273777E+01  0.39952276857E+01  0.40000000000E-01 0. -1.
</event>
<event>
 5   0  0.6200596E+07  0.9118800E+02  0.7818608E-02  0.1180000E+00
       11   -1    0    0    0    0  0.00000000000E+00  0.00000000000E+00  0.39999999673E+01  0.40000000000E+01  0.51109989000E-03 0.  1.
     -623   -1    0    0    0    0  0.00000000000E+00  0.00000000000E+00  0.12525980253E-10  0.17130000000E+03  0.17130000000E+03 0. -1.
       11    1    1    2    0    0  0.16093869352E-01  0.91032174049E-02  0.11726368983E+00  0.11871358546E+00  0.51109989000E-03 0.  1.
     -623    1    1    2    0    0 -0.35159059484E-03 -0.62303084666E-02  0.16890977335E-02  0.17130000012E+03  0.17130000000E+03 0. -1.
      622    1    1    2    0    0 -0.15742278757E-01 -0.28729089383E-02  0.38810471798E+01  0.38812862925E+01  0.40000000000E-01 0.  1.
</event>
<event>
 5   0  0.6200596E+07  0.9118800E+02  0.7818608E-02  0.1180000E+00
       11   -1    0    0    0    0  0.00000000000E+00  0.00000000000E+00  0.39999999673E+01  0.40000000000E+01  0.51109989000E-03 0.  1.
     -623   -1    0    0    0    0  0.00000000000E+00  0.00000000000E+00  0.12525980253E-10  0.17130000000E+03  0.17130000000E+03 0. -1.
       11    1    1    2    0    0  0.29732012797E-02  0.30222639469E-02  0.11545804271E-01  0.12310191873E-01  0.51109989000E-03 0.  1.
     -623    1    1    2    0    0 -0.73790557009E-02 -0.57766808619E-02  0.96862189191E-03  0.17130000026E+03  0.17130000000E+03 0. -1.
      622    1    1    2    0    0  0.44058544212E-02  0.27544169150E-02  0.39874855412E+01  0.39876895491E+01  0.40000000000E-01 0.  1.
</event>
<event>
 5   0  0.6200596E+07  0.9118800E+02  0.7818608E-02  0.1180000E+00
       11   -1    0    0    0    0  0.00000000000E+00  0.00000000000E+00  0.39999999673E+01  0.40000000000E+01  0.51109989000E-03 0.  1.
     -623   -1    0    0    0    0  0.00000000000E+00  0.00000000000E+00  0.12525980253E-10  0.17130000000E+03  0.17130000000E+03 0. -1.
       11    1    1    2    0    0 -0.10037898433E-01 -0.17790265940E-01  0.19835979905E+00  0.19940943826E+00  0.51109989000E-03 0.  1.
     -623    1    1    2    0    0 -0.16887614009E-02  0.30498152416E-02  0.13068256926E-02  0.17130000004E+03  0.17130000000E+03 0. -1.
      622    1    1    2    0    0  0.11726659834E-01  0.14740450698E-01  0.38003333426E+01  0.38005905213E+01  0.40000000000E-01 0.  1.
</event>
<event>
 5   0  0.6200596E+07  0.9118800E+02  0.7818608E-02  0.1180000E+00
       11   -1    0    0    0    0  0.00000000000E+00  0.00000000000E+00  0.39999999673E+01  0.40000000000E+01  0.51109989000E-03 0.  1.
     -623   -1    0    0    0    0  0.00000000000E+00  0.00000000000E+00  0.12525980253E-10  0.17130000000E+03  0.17130000000E+03 0. -1.
       11    1    1    2    0    0  0.10292956779E-02  0.32981217698E-03  0.58684554236E-02  0.59890078854E-02  0.51109989000E-03 0.  1.
     -623    1    1    2    0    0 -0.24624978178E-03  0.39645513398E-03  0.32096847950E-03  0.17130000000E+03  0.17130000000E+03 0. -1.
      622    1    1    2    0    0 -0.78304589611E-03 -0.72626731096E-03  0.39938105435E+01  0.39940109912E+01  0.40000000000E-01 0.  1.
</event>
<event>
 5   0  0.6200596E+07  0.9118800E+02  0.7818608E-02  0.1180000E+00
       11   -1    0    0    0    0  0.00000000000E+00  0.00000000000E+00  0.39999999673E+01  0.40000000000E+01  0.51109989000E-03 0. -1.
     -623   -1    0    0    0    0  0.00000000000E+00  0.00000000000E+00  0.12525980253E-10  0.17130000000E+03  0.17130000000E+03 0. -1.
       11    1    1    2    0    0  0.92344833207E-03 -0.83558145672E-03  0.21376307626E-01  0.21418653153E-01  0.51109989000E-03 0. -1.
     -623    1    1    2    0    0  0.31236190279E-03  0.46363406394E-03  0.24360507938E-03  0.17130000000E+03  0.17130000000E+03 0. -1.
      622    1    1    2    0    0 -0.12358102349E-02  0.37194739278E-03  0.39783800547E+01  0.39785813458E+01  0.40000000000E-01 0. -1.
</event>
<event>
 5   0  0.6200596E+07  0.9118800E+02  0.7818608E-02  0.1180000E+00
       11   -1    0    0    0    0  0.00000000000E+00  0.00000000000E+00  0.39999999673E+01  0.40000000000E+01  0.51109989000E-03 0. -1.
     -623   -1    0    0    0    0  0.00000000000E+00  0.00000000000E+00  0.12525980253E-10  0.17130000000E+03  0.17130000000E+03 0. -1.
       11    1    1    2    0    0  0.25035401490E-02 -0.20617655096E-02  0.91126656596E-01  0.91185784826E-01  0.51109989000E-03 0. -1.
     -623    1    1    2    0    0  0.39651410388E-03  0.34788001862E-04  0.26536872477E-03  0.17130000000E+03  0.17130000000E+03 0. -1.
      622    1    1    2    0    0 -0.29000542528E-02  0.20269775077E-02  0.39086079420E+01  0.39088142145E+01  0.40000000000E-01 0. -1.
</event>
<event>
 5   0  0.6200596E+07  0.9118800E+02  0.7818608E-02  0.1180000E+00
       11   -1    0    0    0    0  0.00000000000E+00  0.00000000000E+00  0.39999999673E+01  0.40000000000E+01  0.51109989000E-03 0.  1.
     -623   -1    0    0    0    0  0.00000000000E+00  0.00000000000E+00  0.12525980253E-10  0.17130000000E+03  0.17130000000E+03 0.  1.
       11    1    1    2    0    0  0.24537045664E-01 -0.73187218308E-02  0.10512730609E+01  0.10515849657E+01  0.51109989000E-03 0.  1.
     -623    1    1    2    0    0 -0.45101779497E-03 -0.39438014471E-02  0.70316951760E-03  0.17130000005E+03  0.17130000000E+03 0.  1.
      622    1    1    2    0    0 -0.24086027869E-01  0.11262523278E-01  0.29480237369E+01  0.29484149868E+01  0.40000000000E-01 0.  1.
</event>
<event>
 5   0  0.6200596E+07  0.9118800E+02  0.7818608E-02  0.1180000E+00
       11   -1    0    0    0    0  0.00000000000E+00  0.00000000000E+00  0.39999999673E+01  0.40000000000E+01  0.51109989000E-03 0.  1.
     -623   -1    0    0    0    0  0.00000000000E+00  0.00000000000E+00  0.12525980253E-10  0.17130000000E+03  0.17130000000E+03 0.  1.
       11    1    1    2    0    0  0.85183555485E-03  0.13254666426E-02  0.16306795828E-01  0.16390707682E-01  0.51109989000E-03 0.  1.
     -623    1    1    2    0    0  0.60529614108E-03 -0.92981371973E-04  0.28516569295E-03  0.17130000000E+03  0.17130000000E+03 0.  1.
      622    1    1    2    0    0 -0.14571316959E-02 -0.12324852706E-02  0.39834080058E+01  0.39836092910E+01  0.40000000000E-01 0.  1.
</event>
<event>
 5   0  0.6200596E+07  0.9118800E+02  0.7818608E-02  0.1180000E+00
       11   -1    0    0    0    0  0.00000000000E+00  0.00000000000E+00  0.39999999673E+01  0.40000000000E+01  0.51109989000E-03 0. -1.
     -623   -1    0    0    0    0  0.00000000000E+00  0.00000000000E+00  0.12525980253E-10  0.17130000000E+03  0.17130000000E+03 0.  1.
       11    1    1    2    0    0  0.63757356606E-03  0.19567764225E-02  0.95437890432E-01  0.95461445758E-01  0.51109989000E-03 0. -1.
     -623    1    1    2    0    0  0.54230915080E-03  0.22350447860E-03  0.22920602960E-03  0.17130000000E+03  0.17130000000E+03 0.  1.
      622    1    1    2    0    0 -0.11798827169E-02 -0.21802809011E-02  0.39043328709E+01  0.39045385531E+01  0.40000000000E-01 0. -1.
</event>
<event>
 5   0  0.6200596E+07  0.9118800E+02  0.7818608E-02  0.1180000E+00
       11   -1    0    0    0    0  0.00000000000E+00  0.00000000000E+00  0.39999999673E+01  0.40000000000E+01  0.51109989000E-03 0.  1.
     -623   -1    0    0    0    0  0.00000000000E+00  0.00000000000E+00  0.12525980253E-10  0.17130000000E+03  0.17130000000E+03 0.  1.
       11    1    1    2    0    0 -0.12953184139E-02 -0.19337621438E-01  0.24018534380E+00  0.24096655794E+00  0.51109989000E-03 0.  1.
     -623    1    1    2    0    0 -0.51169708410E-02 -0.21999792088E-02  0.10612760687E-02  0.17130000009E+03  0.17130000000E+03 0.  1.
      622    1    1    2    0    0  0.64122892549E-02  0.21537600647E-01  0.37587533475E+01  0.37590333482E+01  0.40000000000E-01 0.  1.
</event>
<event>
 5   0  0.6200596E+07  0.9118800E+02  0.7818608E-02  0.1180000E+00
       11   -1    0    0    0    0  0.00000000000E+00  0.00000000000E+00  0.39999999673E+01  0.40000000000E+01  0.51109989000E-03 0. -1.
     -623   -1    0    0    0    0  0.00000000000E+00  0.00000000000E+00  0.12525980253E-10  0.17130000000E+03  0.17130000000E+03 0.  1.
       11    1    1    2    0    0 -0.18897990577E-02 -0.14024247169E-02  0.11610588381E-01  0.11857702947E-01  0.51109989000E-03 0. -1.
     -623    1    1    2    0    0  0.34330691812E-02 -0.11709930118E-02  0.44884953597E-03  0.17130000004E+03  0.17130000000E+03 0.  1.
      622    1    1    2    0    0 -0.15432701235E-02  0.25734177287E-02  0.39879405294E+01  0.39881422581E+01  0.40000000000E-01 0. -1.
</event>
<event>
 5   0  0.6200596E+07  0.9118800E+02  0.7818608E-02  0.1180000E+00
       11   -1    0    0    0    0  0.00000000000E+00  0.00000000000E+00  0.39999999673E+01  0.40000000000E+01  0.51109989000E-03 0.  1.
     -623   -1    0    0    0    0  0.00000000000E+00  0.00000000000E+00  0.12525980253E-10  0.17130000000E+03  0.17130000000E+03 0. -1.
       11    1    1    2    0    0  0.28454396891E-02 -0.21700094038E-03  0.15639071543E+00  0.15641758441E+00  0.51109989000E-03 0.  1.
     -623    1    1    2    0    0  0.15159037778E-02  0.85719880303E-04  0.23746482567E-03  0.17130000001E+03  0.17130000000E+03 0. -1.
      622    1    1    2    0    0 -0.43613434669E-02  0.13128106008E-03  0.38433717871E+01  0.38435824087E+01  0.40000000000E-01 0.  1.
</event>
<event>
 5   0  0.6200596E+07  0.9118800E+02  0.7818608E-02  0.1180000E+00
       11   -1    0    0    0    0  0.00000000000E+00  0.00000000000E+00  0.39999999673E+01  0.40000000000E+01  0.51109989000E-03 0.  1.
     -623   -1    0    0    0    0  0.00000000000E+00  0.00000000000E+00  0.12525980253E-10  0.17130000000E+03  0.17130000000E+03 0.  1.
       11    1    1    2    0    0 -0.39245815739E-02 -0.15184007603E-02  0.40235459504E-01  0.40458142624E-01  0.51109989000E-03 0.  1.
     -623    1    1    2    0    0  0.57782305803E-02 -0.53809131201E-03  0.42576603233E-03  0.17130000010E+03  0.17130000000E+03 0.  1.
      622    1    1    2    0    0 -0.18536490063E-02  0.20564920723E-02  0.39593387418E+01  0.39595417585E+01  0.40000000000E-01 0.  1.
</event>
<event>
 5   0  0.6200596E+07  0.9118800E+02  0.7818608E-02  0.1180000E+00
       11   -1    0    0    0    0  0.00000000000E+00  0.00000000000E+00  0.39999999673E+01  0.40000000000E+01  0.51109989000E-03 0.  1.
     -623   -1    0    0    0    0  0.00000000000E+00  0.00000000000E+00  0.12525980253E-10  0.17130000000E+03  0.17130000000E+03 0.  1.
       11    1    1    2    0    0 -0.10008659725E-01  0.41129457670E-01  0.18343465198E+01  0.18348349303E+01  0.51109989000E-03 0.  1.
     -623    1    1    2    0    0  0.49659138147E-02 -0.33256491381E-01  0.88138905468E-03  0.17130000330E+03  0.17130000000E+03 0.  1.
      622    1    1    2    0    0  0.50427459107E-02 -0.78729662892E-02  0.21647720585E+01  0.21651617672E+01  0.40000000000E-01 0.  0.
</event>
<event>
 5   0  0.6200596E+07  0.9118800E+02  0.7818608E-02  0.1180000E+00
       11   -1    0    0    0    0  0.00000000000E+00  0.00000000000E+00  0.39999999673E+01  0.40000000000E+01  0.51109989000E-03 0. -1.
     -623   -1    0    0    0    0  0.00000000000E+00  0.00000000000E+00  0.12525980253E-10  0.17130000000E+03  0.17130000000E+03 0.  1.
       11    1    1    2    0    0  0.13708898489E-01  0.10886767642E-02  0.20056305870E+01  0.20056777986E+01  0.51109989000E-03 0. -1.
     -623    1    1    2    0    0 -0.10826835925E-01  0.13341667598E-01  0.50352182384E-03  0.17130000086E+03  0.17130000000E+03 0.  1.
      622    1    1    2    0    0 -0.28820625641E-02 -0.14430344363E-01  0.19938658585E+01  0.19943213389E+01  0.40000000000E-01 0. -1.
</event>
<event>
 5   0  0.6200596E+07  0.9118800E+02  0.7818608E-02  0.1180000E+00
       11   -1    0    0    0    0  0.00000000000E+00  0.00000000000E+00  0.39999999673E+01  0.40000000000E+01  0.51109989000E-03 0.  1.
     -623   -1    0    0    0    0  0.00000000000E+00  0.00000000000E+00  0.12525980253E-10  0.17130000000E+03  0.17130000000E+03 0.  1.
       11    1    1    2    0    0 -0.17876585994E-02  0.30852650937E-02  0.36611069735E-02  0.51360986859E-02  0.51109989000E-03 0.  1.
     -623    1    1    2    0    0  0.24190648836E-02 -0.19205321005E-02  0.16754769719E-02  0.17130000004E+03  0.17130000000E+03 0.  1.
      622    1    1    2    0    0 -0.63140628424E-03 -0.11647329932E-02  0.39946633834E+01  0.39948638653E+01  0.40000000000E-01 0.  1.
</event>
<event>
 5   0  0.6200596E+07  0.9118800E+02  0.7818608E-02  0.1180000E+00
       11   -1    0    0    0    0  0.00000000000E+00  0.00000000000E+00  0.39999999673E+01  0.40000000000E+01  0.51109989000E-03 0.  1.
     -623   -1    0    0    0    0  0.00000000000E+00  0.00000000000E+00  0.12525980253E-10  0.17130000000E+03  0.17130000000E+03 0. -1.
       11    1    1    2    0    0 -0.20539765260E-02  0.17741580521E-02  0.10518373974E-01  0.10874919313E-01  0.51109989000E-03 0.  1.
     -623    1    1    2    0    0  0.25610841331E-02 -0.14630417997E-02  0.55713363513E-03  0.17130000003E+03  0.17130000000E+03 0. -1.
      622    1    1    2    0    0 -0.50710760707E-03 -0.31111625248E-03  0.39889244598E+01  0.39891250544E+01  0.40000000000E-01 0.  1.
</event>
<event>
 5   0  0.6200596E+07  0.9118800E+02  0.7818608E-02  0.1180000E+00
       11   -1    0    0    0    0  0.00000000000E+00  0.00000000000E+00  0.39999999673E+01  0.40000000000E+01  0.51109989000E-03 0. -1.
     -623   -1    0    0    0    0  0.00000000000E+00  0.00000000000E+00  0.12525980253E-10  0.17130000000E+03  0.17130000000E+03 0.  1.
       11    1    1    2    0    0  0.23999600143E-02 -0.81400714372E-02  0.31773472274E+00  0.31784844789E+00  0.51109989000E-03 0. -1.
     -623    1    1    2    0    0 -0.18000872196E-02 -0.21513388004E-02  0.34541822323E-03  0.17130000002E+03  0.17130000000E+03 0.  1.
      622    1    1    2    0    0 -0.59987279477E-03  0.10291410238E-01  0.36819198264E+01  0.36821515288E+01  0.40000000000E-01 0. -1.
</event>
<event>
 5   0  0.6200596E+07  0.9118800E+02  0.7818608E-02  0.1180000E+00
       11   -1    0    0    0    0  0.00000000000E+00  0.00000000000E+00  0.39999999673E+01  0.40000000000E+01  0.51109989000E-03 0. -1.
     -623   -1    0    0    0    0  0.00000000000E+00  0.00000000000E+00  0.12525980253E-10  0.17130000000E+03  0.17130000000E+03 0.  1.
       11    1    1    2    0    0 -0.20841628522E-02  0.25026268120E-01  0.10635491183E+00  0.10928076832E+00  0.51109989000E-03 0. -1.
     -623    1    1    2    0    0 -0.24875217480E-03 -0.46788919950E-02  0.31854486882E-02  0.17130000009E+03  0.17130000000E+03 0.  1.
      622    1    1    2    0    0  0.23329150270E-02 -0.20347376125E-01  0.38904596068E+01  0.38907191380E+01  0.40000000000E-01 0. -1.
</event>
<event>
 5   0  0.6200596E+07  0.9118800E+02  0.7818608E-02  0.1180000E+00
       11   -1    0    0    0    0  0.00000000000E+00  0.00000000000E+00  0.39999999673E+01  0.40000000000E+01  0.51109989000E-03 0.  1.
     -623   -1    0    0    0    0  0.00000000000E+00  0.00000000000E+00  0.12525980253E-10  0.17130000000E+03  0.17130000000E+03 0.  1.
       11    1    1    2    0    0 -0.46491375087E-03 -0.15660842162E-02  0.42921803940E-02  0.46209088017E-02  0.51109989000E-03 0.  1.
     -623    1    1    2    0    0 -0.34116341148E-03 -0.75521744264E-04  0.52935185542E-03  0.17130000000E+03  0.17130000000E+03 0.  1.
      622    1    1    2    0    0  0.80607716235E-03  0.16416059604E-02  0.39951784351E+01  0.39953790900E+01  0.40000000000E-01 0.  1.
</event>
<event>
 5   0  0.6200596E+07  0.9118800E+02  0.7818608E-02  0.1180000E+00
       11   -1    0    0    0    0  0.00000000000E+00  0.00000000000E+00  0.39999999673E+01  0.40000000000E+01  0.51109989000E-03 0.  1.
     -623   -1    0    0    0    0  0.00000000000E+00  0.00000000000E+00  0.12525980253E-10  0.17130000000E+03  0.17130000000E+03 0.  1.
       11    1    1    2    0    0 -0.52643328020E-02  0.42637070576E-02  0.73740725677E-01  0.74053009673E-01  0.51109989000E-03 0.  1.
     -623    1    1    2    0    0  0.18239987159E-03 -0.13566112422E-02  0.52040109981E-03  0.17130000001E+03  0.17130000000E+03 0.  1.
      622    1    1    2    0    0  0.50819329304E-02 -0.29070958154E-02  0.39257388406E+01  0.39259469841E+01  0.40000000000E-01 0.  1.
</event>
<event>
 5   0  0.6200596E+07  0.9118800E+02  0.7818608E-02  0.1180000E+00
       11   -1    0    0    0    0  0.00000000000E+00  0.00000000000E+00  0.39999999673E+01  0.40000000000E+01  0.51109989000E-03 0. -1.
     -623   -1    0    0    0    0  0.00000000000E+00  0.00000000000E+00  0.12525980253E-10  0.17130000000E+03  0.17130000000E+03 0. -1.
       11    1    1    2    0    0 -0.99453692024E-02 -0.17291795636E-02  0.36855241964E-01  0.38216102775E-01  0.51109989000E-03 0. -1.
     -623    1    1    2    0    0  0.11286451891E-02 -0.70028383161E-03  0.15733309429E-02  0.17130000001E+03  0.17130000000E+03 0. -1.
      622    1    1    2    0    0  0.88167240134E-02  0.24294633952E-02  0.39615713945E+01  0.39617838849E+01  0.40000000000E-01 0. -1.
</event>
<event>
 5   0  0.6200596E+07  0.9118800E+02  0.7818608E-02  0.1180000E+00
       11   -1    0    0    0    0  0.00000000000E+00  0.00000000000E+00  0.39999999673E+01  0.40000000000E+01  0.51109989000E-03 0.  1.
     -623   -1    0    0    0    0  0.00000000000E+00  0.00000000000E+00  0.12525980253E-10  0.17130000000E+03  0.17130000000E+03 0.  1.
       11    1    1    2    0    0 -0.12416650347E-02  0.39259090767E-03  0.64217267445E-02  0.65723401198E-02  0.51109989000E-03 0.  1.
     -623    1    1    2    0    0  0.40672916364E-03  0.65580781289E-03  0.35114192909E-03  0.17130000000E+03  0.17130000000E+03 0.  1.
      622    1    1    2    0    0  0.83493587107E-03 -0.10483987206E-02  0.39932270987E+01  0.39934276578E+01  0.40000000000E-01 0.  1.
</event>
<event>
 5   0  0.6200596E+07  0.9118800E+02  0.7818608E-02  0.1180000E+00
       11   -1    0    0    0    0  0.00000000000E+00  0.00000000000E+00  0.39999999673E+01  0.40000000000E+01  0.51109989000E-03 0. -1.
     -623   -1    0    0    0    0  0.00000000000E+00  0.00000000000E+00  0.12525980253E-10  0.17130000000E+03  0.17130000000E+03 0.  1.
       11    1    1    2    0    0 -0.30420800164E-03  0.93687253971E-02  0.41074490550E+00  0.41085216828E+00  0.51109989000E-03 0. -1.
     -623    1    1    2    0    0  0.69987930912E-02 -0.16755696869E-01  0.34494012291E-03  0.17130000096E+03  0.17130000000E+03 0.  1.
      622    1    1    2    0    0 -0.66945850896E-02  0.73869714724E-02  0.35889101217E+01  0.35891468689E+01  0.40000000000E-01 0. -1.
</event>
<event>
 5   0  0.6200596E+07  0.9118800E+02  0.7818608E-02  0.1180000E+00
       11   -1    0    0    0    0  0.00000000000E+00  0.00000000000E+00  0.39999999673E+01  0.40000000000E+01  0.51109989000E-03 0.  1.
     -623   -1    0    0    0    0  0.00000000000E+00  0.00000000000E+00  0.12525980253E-10  0.17130000000E+03  0.17130000000E+03 0.  1.
       11    1    1    2    0    0 -0.78094120957E-03  0.51215338107E-03  0.29426566406E-02  0.31293161261E-02  0.51109989000E-03 0.  1.
     -623    1    1    2    0    0  0.16306055679E-02 -0.22444011329E-02  0.38727706274E-03  0.17130000002E+03  0.17130000000E+03 0.  1.
      622    1    1    2    0    0 -0.84966435832E-03  0.17322477519E-02  0.39966700337E+01  0.39968706610E+01  0.40000000000E-01 0.  1.
</event>
<event>
 5   0  0.6200596E+07  0.9118800E+02  0.7818608E-02  0.1180000E+00
       11   -1    0    0    0    0  0.00000000000E+00  0.00000000000E+00  0.39999999673E+01  0.40000000000E+01  0.51109989000E-03 0.  1.
     -623   -1    0    0    0    0  0.00000000000E+00  0.00000000000E+00  0.12525980253E-10  0.17130000000E+03  0.17130000000E+03 0. -1.
       11    1    1    2    0    0 -0.81653283187E-03  0.17280472224E-03  0.36915846448E-02  0.38191107699E-02  0.51109989000E-03 0.  1.
     -623    1    1    2    0    0  0.22729205577E-02 -0.74081205948E-03  0.32801240311E-03  0.17130000002E+03  0.17130000000E+03 0. -1.
      622    1    1    2    0    0 -0.14563877258E-02  0.56800733725E-03  0.39959803703E+01  0.39961808722E+01  0.40000000000E-01 0.  1.
</event>
<event>
 5   0  0.6200596E+07  0.9118800E+02  0.7818608E-02  0.1180000E+00
       11   -1    0    0    0    0  0.00000000000E+00  0.00000000000E+00  0.39999999673E+01  0.40000000000E+01  0.51109989000E-03 0.  1.
     -623   -1    0    0    0    0  0.00000000000E+00  0.00000000000E+00  0.12525980253E-10  0.17130000000E+03  0.17130000000E+03 0.  1.
       11    1    1    2    0    0 -0.18184441313E-01  0.14242196872E-01  0.79614076893E-01  0.82898591894E-01  0.51109989000E-03 0.  1.
     -623    1    1    2    0    0  0.95216998233E-02 -0.14156278322E-01  0.34991860536E-02  0.17130000089E+03  0.17130000000E+03 0.  1.
      622    1    1    2    0    0  0.86627414893E-02 -0.85918550524E-04  0.39168867044E+01  0.39171005228E+01  0.40000000000E-01 0.  1.
</event>
<event>
 5   0  0.6200596E+07  0.9118800E+02  0.7818608E-02  0.1180000E+00
       11   -1    0    0    0    0  0.00000000000E+00  0.00000000000E+00  0.39999999673E+01  0.40000000000E+01  0.51109989000E-03 0. -1.
     -623   -1    0    0    0    0  0.00000000000E+00  0.00000000000E+00  0.12525980253E-10  0.17130000000E+03  0.17130000000E+03 0.  1.
       11    1    1    2    0    0 -0.61376438643E-02  0.50016257238E-02  0.16563527827E+01  0.16563717846E+01  0.51109989000E-03 0. -1.
     -623    1    1    2    0    0  0.16827112948E-02 -0.30444617613E-02  0.36543301387E-03  0.17130000004E+03  0.17130000000E+03 0.  1.
      622    1    1    2    0    0  0.44549325695E-02 -0.19571639626E-02  0.23432817517E+01  0.23436281797E+01  0.40000000000E-01 0. -1.
</event>
<event>
 5   0  0.6200596E+07  0.9118800E+02  0.7818608E-02  0.1180000E+00
       11   -1    0    0    0    0  0.00000000000E+00  0.00000000000E+00  0.39999999673E+01  0.40000000000E+01  0.51109989000E-03 0.  1.
     -623   -1    0    0    0    0  0.00000000000E+00  0.00000000000E+00  0.12525980253E-10  0.17130000000E+03  0.17130000000E+03 0.  1.
       11    1    1    2    0    0  0.83568109531E-02 -0.68019241553E-02  0.78809248881E+00  0.78816631151E+00  0.51109989000E-03 0.  1.
     -623    1    1    2    0    0 -0.29327512122E-03 -0.71531057285E-03  0.34180123824E-03  0.17130000000E+03  0.17130000000E+03 0.  1.
      622    1    1    2    0    0 -0.80635358319E-02  0.75172347281E-02  0.32115656773E+01  0.32118336864E+01  0.40000000000E-01 0.  1.
</event>
<event>
 5   0  0.6200596E+07  0.9118800E+02  0.7818608E-02  0.1180000E+00
       11   -1    0    0    0    0  0.00000000000E+00  0.00000000000E+00  0.39999999673E+01  0.40000000000E+01  0.51109989000E-03 0.  1.
     -623   -1    0    0    0    0  0.00000000000E+00  0.00000000000E+00  0.12525980253E-10  0.17130000000E+03  0.17130000000E+03 0. -1.
       11    1    1    2    0    0  0.66005525167E-03 -0.61693811218E-03  0.77746048159E-02  0.78435953572E-02  0.51109989000E-03 0.  1.
     -623    1    1    2    0    0 -0.18213913207E-02  0.11049970164E-02  0.26956810391E-03  0.17130000001E+03  0.17130000000E+03 0. -1.
      622    1    1    2    0    0  0.11613360691E-02 -0.48805890420E-03  0.39919557944E+01  0.39921563912E+01  0.40000000000E-01 0.  1.
</event>
<event>
 5   0  0.6200596E+07  0.9118800E+02  0.7818608E-02  0.1180000E+00
       11   -1    0    0    0    0  0.00000000000E+00  0.00000000000E+00  0.39999999673E+01  0.40000000000E+01  0.51109989000E-03 0. -1.
     -623   -1    0    0    0    0  0.00000000000E+00  0.00000000000E+00  0.12525980253E-10  0.17130000000E+03  0.17130000000E+03 0. -1.
       11    1    1    2    0    0 -0.15370946644E-02  0.18382311734E-02  0.15691587598E-01  0.15881715809E-01  0.51109989000E-03 0. -1.
     -623    1    1    2    0    0  0.20572401497E-02 -0.18484851573E-03  0.39128782689E-03  0.17130000001E+03  0.17130000000E+03 0. -1.
      622    1    1    2    0    0 -0.52014548529E-03 -0.16533826577E-02  0.39839170919E+01  0.39841182713E+01  0.40000000000E-01 0. -1.
</event>
<event>
 5   0  0.6200596E+07  0.9118800E+02  0.7818608E-02  0.1180000E+00
       11   -1    0    0    0    0  0.00000000000E+00  0.00000000000E+00  0.39999999673E+01  0.40000000000E+01  0.51109989000E-03 0. -1.
     -623   -1    0    0    0    0  0.00000000000E+00  0.00000000000E+00  0.12525980253E-10  0.17130000000E+03  0.17130000000E+03 0. -1.
       11    1    1    2    0    0  0.39023958507E-02  0.33142310403E-02  0.27093934894E+00  0.27098820056E+00  0.51109989000E-03 0. -1.
     -623    1    1    2    0    0 -0.62282662132E-02  0.30711394957E-02  0.26969288893E-03  0.17130000014E+03  0.17130000000E+03 0. -1.
      622    1    1    2    0    0  0.23258703625E-02 -0.63853705360E-02  0.37287909255E+01  0.37290116585E+01  0.40000000000E-01 0. -1.
</event>
<event>
 5   0  0.6200596E+07  0.9118800E+02  0.7818608E-02  0.1180000E+00
       11   -1    0    0    0    0  0.00000000000E+00  0.00000000000E+00  0.39999999673E+01  0.40000000000E+01  0.51109989000E-03 0.  1.
     -623   -1    0    0    0    0  0.00000000000E+00  0.00000000000E+00  0.12525980253E-10  0.17130000000E+03  0.17130000000E+03 0.  1.
       11    1    1    2    0    0 -0.28308902967E-02 -0.17865610071E-02  0.31065815959E+00  0.31067661496E+00  0.51109989000E-03 0.  1.
     -623    1    1    2    0    0  0.12980126035E-01  0.12233246936E-01  0.26495225203E-03  0.17130000093E+03  0.17130000000E+03 0.  1.
      622    1    1    2    0    0 -0.10149235738E-01 -0.10446685929E-01  0.36890768555E+01  0.36893224562E+01  0.40000000000E-01 0.  1.
</event>
<event>
 5   0  0.6200596E+07  0.9118800E+02  0.7818608E-02  0.1180000E+00
       11   -1    0    0    0    0  0.00000000000E+00  0.00000000000E+00  0.39999999673E+01  0.40000000000E+01  0.51109989000E-03 0. -1.
     -623   -1    0    0    0    0  0.00000000000E+00  0.00000000000E+00  0.12525980253E-10  0.17130000000E+03  0.17130000000E+03 0.  1.
       11    1    1    2    0    0  0.14619606204E-01 -0.87866462497E-02  0.17875213713E-01  0.24712800841E-01  0.51109989000E-03 0. -1.
     -623    1    1    2    0    0  0.31973392435E-02 -0.77207362781E-02  0.71133594813E-02  0.17130000035E+03  0.17130000000E+03 0.  1.
      622    1    1    2    0    0 -0.17816945448E-01  0.16507382528E-01  0.39750113942E+01  0.39752868476E+01  0.40000000000E-01 0. -1.
</event>
<event>
 5   0  0.6200596E+07  0.9118800E+02  0.7818608E-02  0.1180000E+00
       11   -1    0    0    0    0  0.00000000000E+00  0.00000000000E+00  0.39999999673E+01  0.40000000000E+01  0.51109989000E-03 0.  1.
     -623   -1    0    0    0    0  0.00000000000E+00  0.00000000000E+00  0.12525980253E-10  0.17130000000E+03  0.17130000000E+03 0. -1.
       11    1    1    2    0    0 -0.11701197516E-02  0.20886547119E-02  0.14272724651E+00  0.14274823913E+00  0.51109989000E-03 0.  1.
     -623    1    1    2    0    0  0.49989102650E-04  0.18266879659E-03  0.22919878433E-03  0.17130000000E+03  0.17130000000E+03 0. -1.
      622    1    1    2    0    0  0.11201306489E-02 -0.22713235085E-02  0.38570435221E+01  0.38572517606E+01  0.40000000000E-01 0.  1.
</event>
<event>
 5   0  0.6200596E+07  0.9118800E+02  0.7818608E-02  0.1180000E+00
       11   -1    0    0    0    0  0.00000000000E+00  0.00000000000E+00  0.39999999673E+01  0.40000000000E+01  0.51109989000E-03 0.  1.
     -623   -1    0    0    0    0  0.00000000000E+00  0.00000000000E+00  0.12525980253E-10  0.17130000000E+03  0.17130000000E+03 0. -1.
       11    1    1    2    0    0  0.14303299702E-01 -0.13079199757E-01  0.88565213899E+00  0.88586433632E+00  0.51109989000E-03 0.  1.
     -623    1    1    2    0    0  0.24207025439E-01 -0.21704995744E-01  0.90460353278E-03  0.17130000309E+03  0.17130000000E+03 0. -1.
      622    1    1    2    0    0 -0.38510325141E-01  0.34784195501E-01  0.31134432248E+01  0.31141325758E+01  0.40000000000E-01 0.  0.
</event>
<event>
 5   0  0.6200596E+07  0.9118800E+02  0.7818608E-02  0.1180000E+00
       11   -1    0    0    0    0  0.00000000000E+00  0.00000000000E+00  0.39999999673E+01  0.40000000000E+01  0.51109989000E-03 0. -1.
     -623   -1    0    0    0    0  0.00000000000E+00  0.00000000000E+00  0.12525980253E-10  0.17130000000E+03  0.17130000000E+03 0. -1.
       11    1    1    2    0    0  0.10352152734E-01  0.55770238221E-02  0.35545666437E+00  0.35565147509E+00  0.51109989000E-03 0. -1.
     -623    1    1    2    0    0  0.32109754617E-02  0.64692088149E-02  0.45960654501E-03  0.17130000015E+03  0.17130000000E+03 0. -1.
      622    1    1    2    0    0 -0.13563128196E-01 -0.12046232637E-01  0.36440836964E+01  0.36443483720E+01  0.40000000000E-01 0. -1.
</event>
<event>
 5   0  0.6200596E+07  0.9118800E+02  0.7818608E-02  0.1180000E+00
       11   -1    0    0    0    0  0.00000000000E+00  0.00000000000E+00  0.39999999673E+01  0.40000000000E+01  0.51109989000E-03 0. -1.
     -623   -1    0    0    0    0  0.00000000000E+00  0.00000000000E+00  0.12525980253E-10  0.17130000000E+03  0.17130000000E+03 0.  1.
       11    1    1    2    0    0 -0.14026423200E-01  0.11877705002E-01  0.29162365922E+00  0.29220273829E+00  0.51109989000E-03 0. -1.
     -623    1    1    2    0    0  0.18025140897E-02  0.26703953978E-02  0.84354055449E-03  0.17130000003E+03  0.17130000000E+03 0.  1.
      622    1    1    2    0    0  0.12223909111E-01 -0.14548100400E-01  0.37075327676E+01  0.37077972293E+01  0.40000000000E-01 0. -1.
</event>
<event>
 5   0  0.6200596E+07  0.9118800E+02  0.7818608E-02  0.1180000E+00
       11   -1    0    0    0    0  0.00000000000E+00  0.00000000000E+00  0.39999999673E+01  0.40000000000E+01  0.51109989000E-03 0.  1.
     -623   -1    0    0    0    0  0.00000000000E+00  0.00000000000E+00  0.12525980253E-10  0.17130000000E+03  0.17130000000E+03 0. -1.
       11    1    1    2    0    0 -0.57591187904E-02  0.13431573494E-01  0.28068772965E+00  0.28106838566E+00  0.51109989000E-03 0.  1.
     -623    1    1    2    0    0  0.10224280305E-03 -0.17807455402E-02  0.61830935419E-03  0.17130000001E+03  0.17130000000E+03 0. -1.
      622    1    1    2    0    0  0.56568759874E-02 -0.11650827954E-01  0.37186939284E+01  0.37189316039E+01  0.40000000000E-01 0.  1.
</event>
<event>
 5   0  0.6200596E+07  0.9118800E+02  0.7818608E-02  0.1180000E+00
       11   -1    0    0    0    0  0.00000000000E+00  0.00000000000E+00  0.39999999673E+01  0.40000000000E+01  0.51109989000E-03 0. -1.
     -623   -1    0    0    0    0  0.00000000000E+00  0.00000000000E+00  0.12525980253E-10  0.17130000000E+03  0.17130000000E+03 0. -1.
       11    1    1    2    0    0 -0.55637891412E-02 -0.12047686086E-01  0.82410326115E-01  0.83473502152E-01  0.51109989000E-03 0. -1.
     -623    1    1    2    0    0  0.28941641360E-02 -0.91858677829E-04  0.12871652710E-02  0.17130000003E+03  0.17130000000E+03 0. -1.
      622    1    1    2    0    0  0.26696250052E-02  0.12139544763E-01  0.39163024760E+01  0.39165264685E+01  0.40000000000E-01 0. -1.
</event>
<event>
 5   0  0.6200596E+07  0.9118800E+02  0.7818608E-02  0.1180000E+00
       11   -1    0    0    0    0  0.00000000000E+00  0.00000000000E+00  0.39999999673E+01  0.40000000000E+01  0.51109989000E-03 0. -1.
     -623   -1    0    0    0    0  0.00000000000E+00  0.00000000000E+00  0.12525980253E-10  0.17130000000E+03  0.17130000000E+03 0. -1.
       11    1    1    2    0    0  0.17287863076E-01 -0.52485978951E-02  0.65433682722E-02  0.19222249616E-01  0.51109989000E-03 0. -1.
     -623    1    1    2    0    0 -0.11585261705E-01  0.58192020931E-02  0.12884920470E-01  0.17130000098E+03  0.17130000000E+03 0. -1.
      622    1    1    2    0    0 -0.57026013707E-02 -0.57060419800E-03  0.39805716786E+01  0.39807767752E+01  0.40000000000E-01 0. -1.
</event>
<event>
 5   0  0.6200596E+07  0.9118800E+02  0.7818608E-02  0.1180000E+00
       11   -1    0    0    0    0  0.00000000000E+00  0.00000000000E+00  0.39999999673E+01  0.40000000000E+01  0.51109989000E-03 0.  1.
     -623   -1    0    0    0    0  0.00000000000E+00  0.00000000000E+00  0.12525980253E-10  0.17130000000E+03  0.17130000000E+03 0. -1.
       11    1    1    2    0    0  0.68769662270E-02 -0.29272401771E-02  0.31100321400E-01  0.31989882989E-01  0.51109989000E-03 0.  1.
     -623    1    1    2    0    0 -0.73190666633E-02  0.46275562004E-02  0.10917577614E-02  0.17130000022E+03  0.17130000000E+03 0. -1.
      622    1    1    2    0    0  0.44210043630E-03 -0.17003160233E-02  0.39678078882E+01  0.39680098947E+01  0.40000000000E-01 0.  1.
</event>
<event>
 5   0  0.6200596E+07  0.9118800E+02  0.7818608E-02  0.1180000E+00
       11   -1    0    0    0    0  0.00000000000E+00  0.00000000000E+00  0.39999999673E+01  0.40000000000E+01  0.51109989000E-03 0.  1.
     -623   -1    0    0    0    0  0.00000000000E+00  0.00000000000E+00  0.12525980253E-10  0.17130000000E+03  0.17130000000E+03 0. -1.
       11    1    1    2    0    0  0.10289213840E-03 -0.76140430880E-02  0.59644978812E-01  0.60131264390E-01  0.51109989000E-03 0.  1.
     -623    1    1    2    0    0 -0.26386083074E-02 -0.12661709062E-03  0.69775289044E-03  0.17130000002E+03  0.17130000000E+03 0. -1.
      622    1    1    2    0    0  0.25357161690E-02  0.77406601786E-02  0.39396572357E+01  0.39398687138E+01  0.40000000000E-01 0.  1.
</event>
<event>
 5   0  0.6200596E+07  0.9118800E+02  0.7818608E-02  0.1180000E+00
       11   -1    0    0    0    0  0.00000000000E+00  0.00000000000E+00  0.39999999673E+01  0.40000000000E+01  0.51109989000E-03 0.  1.
     -623   -1    0    0    0    0  0.00000000000E+00  0.00000000000E+00  0.12525980253E-10  0.17130000000E+03  0.17130000000E+03 0. -1.
       11    1    1    2    0    0 -0.27308182205E-02 -0.52872992552E-03  0.32586473396E-01  0.32708965022E-01  0.51109989000E-03 0.  1.
     -623    1    1    2    0    0  0.33392102718E-02 -0.53490705044E-02  0.32863047433E-03  0.17130000012E+03  0.17130000000E+03 0. -1.
      622    1    1    2    0    0 -0.60839205124E-03  0.58778004299E-02  0.39670848635E+01  0.39672909186E+01  0.40000000000E-01 0.  1.
</event>
<event>
 5   0  0.6200596E+07  0.9118800E+02  0.7818608E-02  0.1180000E+00
       11   -1    0    0    0    0  0.00000000000E+00  0.00000000000E+00  0.39999999673E+01  0.40000000000E+01  0.51109989000E-03 0. -1.
     -623   -1    0    0    0    0  0.00000000000E+00  0.00000000000E+00  0.12525980253E-10  0.17130000000E+03  0.17130000000E+03 0. -1.
       11    1    1    2    0    0  0.64428852446E-02  0.17773398965E-02  0.93445721330E-01  0.93685824775E-01  0.51109989000E-03 0. -1.
     -623    1    1    2    0    0  0.13415381146E-02  0.20699039004E-02  0.45454254356E-03  0.17130000002E+03  0.17130000000E+03 0. -1.
      622    1    1    2    0    0 -0.77844233592E-02 -0.38472437969E-02  0.39060997035E+01  0.39063141569E+01  0.40000000000E-01 0. -1.
</event>
<event>
 5   0  0.6200596E+07  0.9118800E+02  0.7818608E-02  0.1180000E+00
       11   -1    0    0    0    0  0.00000000000E+00  0.00000000000E+00  0.39999999673E+01  0.40000000000E+01  0.51109989000E-03 0. -1.
     -623   -1    0    0    0    0  0.00000000000E+00  0.00000000000E+00  0.12525980253E-10  0.17130000000E+03  0.17130000000E+03 0.  1.
       11    1    1    2    0    0 -0.83117055833E-02  0.25784209203E-01  0.42985314839E-01  0.50812482791E-01  0.51109989000E-03 0. -1.
     -623    1    1    2    0    0  0.12120526113E-01 -0.21344324194E-01  0.80359937099E-02  0.17130000195E+03  0.17130000000E+03 0.  1.
      622    1    1    2    0    0 -0.38088205298E-02 -0.44398850095E-02  0.39489786588E+01  0.39491855701E+01  0.40000000000E-01 0. -1.
</event>
<event>
 5   0  0.6200596E+07  0.9118800E+02  0.7818608E-02  0.1180000E+00
       11   -1    0    0    0    0  0.00000000000E+00  0.00000000000E+00  0.39999999673E+01  0.40000000000E+01  0.51109989000E-03 0.  1.
     -623   -1    0    0    0    0  0.00000000000E+00  0.00000000000E+00  0.12525980253E-10  0.17130000000E+03  0.17130000000E+03 0.  1.
       11    1    1    2    0    0 -0.72446703425E-02  0.28220550902E-01  0.18062664039E+01  0.18065014442E+01  0.51109989000E-03 0.  1.
     -623    1    1    2    0    0  0.35584221787E-01 -0.29855870585E-01  0.78977170977E-03  0.17130000630E+03  0.17130000000E+03 0.  1.
      622    1    1    2    0    0 -0.28339551444E-01  0.16353196836E-02  0.21929437917E+01  0.21934922562E+01  0.40000000000E-01 0.  1.
</event>
<event>
 5   0  0.6200596E+07  0.9118800E+02  0.7818608E-02  0.1180000E+00
       11   -1    0    0    0    0  0.00000000000E+00  0.00000000000E+00  0.39999999673E+01  0.40000000000E+01  0.51109989000E-03 0. -1.
     -623   -1    0    0    0    0  0.00000000000E+00  0.00000000000E+00  0.12525980253E-10  0.17130000000E+03  0.17130000000E+03 0.  1.
       11    1    1    2    0    0 -0.91303945438E-03 -0.19165542500E-01  0.45135042983E-01  0.49046763276E-01  0.51109989000E-03 0. -1.
     -623    1    1    2    0    0 -0.55008945176E-03  0.27168124672E-01  0.41247566061E-02  0.17130000220E+03  0.17130000000E+03 0.  1.
      622    1    1    2    0    0  0.14631289061E-02 -0.80025821719E-02  0.39507401678E+01  0.39509510318E+01  0.40000000000E-01 0. -1.
</event>
<event>
 5   0  0.6200596E+07  0.9118800E+02  0.7818608E-02  0.1180000E+00
       11   -1    0    0    0    0  0.00000000000E+00  0.00000000000E+00  0.39999999673E+01  0.40000000000E+01  0.51109989000E-03 0. -1.
     -623   -1    0    0    0    0  0.00000000000E+00  0.00000000000E+00  0.12525980253E-10  0.17130000000E+03  0.17130000000E+03 0.  1.
       11    1    1    2    0    0 -0.10706443497E-01 -0.66514495213E-02  0.99484082750E+00  0.99492080237E+00  0.51109989000E-03 0. -1.
     -623    1    1    2    0    0  0.43232541662E-03 -0.61436510278E-03  0.37252146091E-03  0.17130000000E+03  0.17130000000E+03 0.  1.
      622    1    1    2    0    0  0.10274118080E-01  0.72658146241E-02  0.30047866184E+01  0.30050791956E+01  0.40000000000E-01 0. -1.
</event>
<event>
 5   0  0.6200596E+07  0.9118800E+02  0.7818608E-02  0.1180000E+00
       11   -1    0    0    0    0  0.00000000000E+00  0.00000000000E+00  0.39999999673E+01  0.40000000000E+01  0.51109989000E-03 0.  1.
     -623   -1    0    0    0    0  0.00000000000E+00  0.00000000000E+00  0.12525980253E-10  0.17130000000E+03  0.17130000000E+03 0. -1.
       11    1    1    2    0    0 -0.83583130237E-03  0.14425007962E-02  0.72066336926E+00  0.72066547887E+00  0.51109989000E-03 0.  1.
     -623    1    1    2    0    0  0.79000513302E-03  0.84347605198E-03  0.24683919654E-03  0.17130000000E+03  0.17130000000E+03 0. -1.
      622    1    1    2    0    0  0.45826169352E-04 -0.22859768482E-02  0.32790897589E+01  0.32793345170E+01  0.40000000000E-01 0.  1.
</event>
<event>
 5   0  0.6200596E+07  0.9118800E+02  0.7818608E-02  0.1180000E+00
       11   -1    0    0    0    0  0.00000000000E+00  0.00000000000E+00  0.39999999673E+01  0.40000000000E+01  0.51109989000E-03 0. -1.
     -623   -1    0    0    0    0  0.00000000000E+00  0.00000000000E+00  0.12525980253E-10  0.17130000000E+03  0.17130000000E+03 0. -1.
       11    1    1    2    0    0  0.37168092033E-01  0.17966484680E-01  0.10442959439E+01  0.10451117363E+01  0.51109989000E-03 0. -1.
     -623    1    1    2    0    0  0.28773815022E-02 -0.12687229340E-04  0.14124848570E-02  0.17130000003E+03  0.17130000000E+03 0. -1.
      622    1    1    2    0    0 -0.40045473535E-01 -0.17953797451E-01  0.29542915386E+01  0.29548882338E+01  0.40000000000E-01 0.  0.
</event>
<event>
 5   0  0.6200596E+07  0.9118800E+02  0.7818608E-02  0.1180000E+00
       11   -1    0    0    0    0  0.00000000000E+00  0.00000000000E+00  0.39999999673E+01  0.40000000000E+01  0.51109989000E-03 0.  1.
     -623   -1    0    0    0    0  0.00000000000E+00  0.00000000000E+00  0.12525980253E-10  0.17130000000E+03  0.17130000000E+03 0. -1.
       11    1    1    2    0    0 -0.23485875758E-02  0.26927843059E-02  0.32978541510E-01  0.33175478490E-01  0.51109989000E-03 0.  1.
     -623    1    1    2    0    0  0.61023009629E-02 -0.11528563668E-02  0.40077019231E-03  0.17130000011E+03  0.17130000000E+03 0. -1.
      622    1    1    2    0    0 -0.37537133871E-02 -0.15399279391E-02  0.39666206557E+01  0.39668244085E+01  0.40000000000E-01 0.  1.
</event>
<event>
 5   0  0.6200596E+07  0.9118800E+02  0.7818608E-02  0.1180000E+00
       11   -1    0    0    0    0  0.00000000000E+00  0.00000000000E+00  0.39999999673E+01  0.40000000000E+01  0.51109989000E-03 0. -1.
     -623   -1    0    0    0    0  0.00000000000E+00  0.00000000000E+00  0.12525980253E-10  0.17130000000E+03  0.17130000000E+03 0.  1.
       11    1    1    2    0    0 -0.38941946186E-03  0.35810484451E-02  0.91864899361E-03  0.37524249007E-02  0.51109989000E-03 0. -1.
     -623    1    1    2    0    0  0.85847032336E-02 -0.79060322721E-02  0.30451048736E-02  0.17130000042E+03  0.17130000000E+03 0.  1.
      622    1    1    2    0    0 -0.81952837718E-02  0.43249838270E-02  0.39960362135E+01  0.39962471505E+01  0.40000000000E-01 0. -1.
</event>
<event>
 5   0  0.6200596E+07  0.9118800E+02  0.7818608E-02  0.1180000E+00
       11   -1    0    0    0    0  0.00000000000E+00  0.00000000000E+00  0.39999999673E+01  0.40000000000E+01  0.51109989000E-03 0.  1.
     -623   -1    0    0    0    0  0.00000000000E+00  0.00000000000E+00  0.12525980253E-10  0.17130000000E+03  0.17130000000E+03 0. -1.
       11    1    1    2    0    0 -0.12720169360E-01 -0.46857351156E-02  0.49285939096E+00  0.49304604177E+00  0.51109989000E-03 0.  1.
     -623    1    1    2    0    0  0.25065697449E-03 -0.17604024091E-02  0.44284847923E-03  0.17130000001E+03  0.17130000000E+03 0. -1.
      622    1    1    2    0    0  0.12469512386E-01  0.64461375247E-02  0.35066977279E+01  0.35069539484E+01  0.40000000000E-01 0.  1.
</event>
<event>
 5   0  0.6200596E+07  0.9118800E+02  0.7818608E-02  0.1180000E+00
       11   -1    0    0    0    0  0.00000000000E+00  0.00000000000E+00  0.39999999673E+01  0.40000000000E+01  0.51109989000E-03 0. -1.
     -623   -1    0    0    0    0  0.00000000000E+00  0.00000000000E+00  0.12525980253E-10  0.17130000000E+03  0.17130000000E+03 0.  1.
       11    1    1    2    0    0  0.20163107882E-03 -0.33215114447E-03  0.19230553757E-01  0.19241268113E-01  0.51109989000E-03 0. -1.
     -623    1    1    2    0    0 -0.43249542465E-03  0.35444692705E-03  0.21166130378E-03  0.17130000000E+03  0.17130000000E+03 0.  1.
      622    1    1    2    0    0  0.23086434583E-03 -0.22295782581E-04  0.39805577523E+01  0.39807587308E+01  0.40000000000E-01 0. -1.
</event>
<event>
 5   0  0.6200596E+07  0.9118800E+02  0.7818608E-02  0.1180000E+00
       11   -1    0    0    0    0  0.00000000000E+00  0.00000000000E+00  0.39999999673E+01  0.40000000000E+01  0.51109989000E-03 0.  1.
     -623   -1    0    0    0    0  0.00000000000E+00  0.00000000000E+00  0.12525980253E-10  0.17130000000E+03  0.17130000000E+03 0. -1.
       11    1    1    2    0    0 -0.50014907285E-03 -0.11703191555E-01  0.11126423186E+00  0.11188031711E+00  0.51109989000E-03 0.  1.
     -623    1    1    2    0    0 -0.16623006003E-02  0.99826847588E-02  0.82309602707E-03  0.17130000030E+03  0.17130000000E+03 0. -1.
      622    1    1    2    0    0  0.21624496731E-02  0.17205067966E-02  0.38879126395E+01  0.38881193820E+01  0.40000000000E-01 0.  1.
</event>
<event>
 5   0  0.6200596E+07  0.9118800E+02  0.7818608E-02  0.1180000E+00
       11   -1    0    0    0    0  0.00000000000E+00  0.00000000000E+00  0.39999999673E+01  0.40000000000E+01  0.51109989000E-03 0.  1.
     -623   -1    0    0    0    0  0.00000000000E+00  0.00000000000E+00  0.12525980253E-10  0.17130000000E+03  0.17130000000E+03 0.  1.
       11    1    1    2    0    0 -0.97660347123E-02  0.22711186730E-01  0.11556773821E+01  0.11559418870E+01  0.51109989000E-03 0.  1.
     -623    1    1    2    0    0 -0.42183008764E-02  0.17301791663E-02  0.68525692551E-03  0.17130000006E+03  0.17130000000E+03 0.  1.
      622    1    1    2    0    0  0.13984335589E-01 -0.24441365897E-01  0.28436373283E+01  0.28440580509E+01  0.40000000000E-01 0.  1.
</event>
<event>
 5   0  0.6200596E+07  0.9118800E+02  0.7818608E-02  0.1180000E+00
       11   -1    0    0    0    0  0.00000000000E+00  0.00000000000E+00  0.39999999673E+01  0.40000000000E+01  0.51109989000E-03 0. -1.
     -623   -1    0    0    0    0  0.00000000000E+00  0.00000000000E+00  0.12525980253E-10  0.17130000000E+03  0.17130000000E+03 0.  1.
       11    1    1    2    0    0 -0.60664834279E-03 -0.11240137669E-02  0.32225760294E-02  0.35039471471E-02  0.51109989000E-03 0. -1.
     -623    1    1    2    0    0 -0.26906045852E-02 -0.34700968092E-03  0.48317199099E-03  0.17130000002E+03  0.17130000000E+03 0.  1.
      622    1    1    2    0    0  0.32972529280E-02  0.14710234478E-02  0.39962942193E+01  0.39964960307E+01  0.40000000000E-01 0. -1.
</event>
<event>
 5   0  0.6200596E+07  0.9118800E+02  0.7818608E-02  0.1180000E+00
       11   -1    0    0    0    0  0.00000000000E+00  0.00000000000E+00  0.39999999673E+01  0.40000000000E+01  0.51109989000E-03 0.  1.
     -623   -1    0    0    0    0  0.00000000000E+00  0.00000000000E+00  0.12525980253E-10  0.17130000000E+03  0.17130000000E+03 0.  1.
       11    1    1    2    0    0  0.21762388671E-02 -0.51188415662E-03  0.22180735943E-02  0.31904721780E-02  0.51109989000E-03 0.  1.
     -623    1    1    2    0    0 -0.41894641421E-02  0.15442329529E-02  0.11732332142E-02  0.17130000006E+03  0.17130000000E+03 0.  1.
      622    1    1    2    0    0  0.20132252750E-02 -0.10323487962E-02  0.39966086606E+01  0.39968094656E+01  0.40000000000E-01 0.  1.
</event>
<event>
 5   0  0.6200596E+07  0.9118800E+02  0.7818608E-02  0.1180000E+00
       11   -1    0    0    0    0  0.00000000000E+00  0.00000000000E+00  0.39999999673E+01  0.40000000000E+01  0.51109989000E-03 0. -1.
     -623   -1    0    0    0    0  0.00000000000E+00  0.00000000000E+00  0.12525980253E-10  0.17130000000E+03  0.17130000000E+03 0. -1.
       11    1    1    2    0    0 -0.16790512155E-01 -0.19268836348E-01  0.20809972236E+01  0.20811542267E+01  0.51109989000E-03 0. -1.
     -623    1    1    2    0    0 -0.15978548596E-01  0.69683066416E-02  0.89415074054E-03  0.17130000089E+03  0.17130000000E+03 0. -1.
      622    1    1    2    0    0  0.32769060751E-01  0.12300529706E-01  0.19181085930E+01  0.19188448840E+01  0.40000000000E-01 0. -1.
</event>
<event>
 5   0  0.6200596E+07  0.9118800E+02  0.7818608E-02  0.1180000E+00
       11   -1    0    0    0    0  0.00000000000E+00  0.00000000000E+00  0.39999999673E+01  0.40000000000E+01  0.51109989000E-03 0. -1.
     -623   -1    0    0    0    0  0.00000000000E+00  0.00000000000E+00  0.12525980253E-10  0.17130000000E+03  0.17130000000E+03 0.  1.
       11    1    1    2    0    0 -0.24209248156E-01  0.32627446263E-01  0.27058936470E+01  0.27061986860E+01  0.51109989000E-03 0. -1.
     -623    1    1    2    0    0 -0.10779125930E-01 -0.31885798411E-02  0.17325238360E-02  0.17130000038E+03  0.17130000000E+03 0.  1.
      622    1    1    2    0    0  0.34988374086E-01 -0.29438866422E-01  0.12923737965E+01  0.12938009364E+01  0.40000000000E-01 0.  0.
</event>
<event>
 5   0  0.6200596E+07  0.9118800E+02  0.7818608E-02  0.1180000E+00
       11   -1    0    0    0    0  0.00000000000E+00  0.00000000000E+00  0.39999999673E+01  0.40000000000E+01  0.51109989000E-03 0. -1.
     -623   -1    0    0    0    0  0.00000000000E+00  0.00000000000E+00  0.12525980253E-10  0.17130000000E+03  0.17130000000E+03 0.  1.
       11    1    1    2    0    0 -0.13082768061E-02  0.19597597521E-02  0.46762547645E-02  0.52612571546E-02  0.51109989000E-03 0. -1.
     -623    1    1    2    0    0  0.12693481370E-02  0.16433153120E-02  0.78687775010E-03  0.17130000001E+03  0.17130000000E+03 0.  1.
      622    1    1    2    0    0  0.38928669130E-04 -0.36030750641E-02  0.39945368348E+01  0.39947387285E+01  0.40000000000E-01 0. -1.
</event>
<event>
 5   0  0.6200596E+07  0.9118800E+02  0.7818608E-02  0.1180000E+00
       11   -1    0    0    0    0  0.00000000000E+00  0.00000000000E+00  0.39999999673E+01  0.40000000000E+01  0.51109989000E-03 0. -1.
     -623   -1    0    0    0    0  0.00000000000E+00  0.00000000000E+00  0.12525980253E-10  0.17130000000E+03  0.17130000000E+03 0.  1.
       11    1    1    2    0    0  0.10367425582E-01  0.76632090360E-02  0.24005224781E+00  0.24039873375E+00  0.51109989000E-03 0. -1.
     -623    1    1    2    0    0  0.45564637480E-02 -0.32545540158E-02  0.59154771697E-03  0.17130000009E+03  0.17130000000E+03 0.  1.
      622    1    1    2    0    0 -0.14923889330E-01 -0.44086550202E-02  0.37593561718E+01  0.37596011737E+01  0.40000000000E-01 0. -1.
</event>
<event>
 5   0  0.6200596E+07  0.9118800E+02  0.7818608E-02  0.1180000E+00
       11   -1    0    0    0    0  0.00000000000E+00  0.00000000000E+00  0.39999999673E+01  0.40000000000E+01  0.51109989000E-03 0. -1.
     -623   -1    0    0    0    0  0.00000000000E+00  0.00000000000E+00  0.12525980253E-10  0.17130000000E+03  0.17130000000E+03 0. -1.
       11    1    1    2    0    0 -0.32895650101E-03 -0.26587693250E-02  0.21912698943E+01  0.21912715916E+01  0.51109989000E-03 0. -1.
     -623    1    1    2    0    0  0.89980269959E-02 -0.72555555024E-02  0.49236871027E-03  0.17130000039E+03  0.17130000000E+03 0. -1.
      622    1    1    2    0    0 -0.86690704949E-02  0.99143248273E-02  0.18082377043E+01  0.18087280177E+01  0.40000000000E-01 0. -1.
</event>
<event>
 5   0  0.6200596E+07  0.9118800E+02  0.7818608E-02  0.1180000E+00
       11   -1    0    0    0    0  0.00000000000E+00  0.00000000000E+00  0.39999999673E+01  0.40000000000E+01  0.51109989000E-03 0.  1.
     -623   -1    0    0    0    0  0.00000000000E+00  0.00000000000E+00  0.12525980253E-10  0.17130000000E+03  0.17130000000E+03 0. -1.
       11    1    1    2    0    0 -0.12682194990E-01 -0.98838689040E-02  0.11775517123E+01  0.11776615920E+01  0.51109989000E-03 0.  1.
     -623    1    1    2    0    0 -0.96919831612E-03  0.26039069724E-04  0.44355394152E-03  0.17130000000E+03  0.17130000000E+03 0. -1.
      622    1    1    2    0    0  0.13651393306E-01  0.98578298343E-02  0.28220047011E+01  0.28223384046E+01  0.40000000000E-01 0.  1.
</event>
<event>
 5   0  0.6200596E+07  0.9118800E+02  0.7818608E-02  0.1180000E+00
       11   -1    0    0    0    0  0.00000000000E+00  0.00000000000E+00  0.39999999673E+01  0.40000000000E+01  0.51109989000E-03 0. -1.
     -623   -1    0    0    0    0  0.00000000000E+00  0.00000000000E+00  0.12525980253E-10  0.17130000000E+03  0.17130000000E+03 0.  1.
       11    1    1    2    0    0 -0.94464916212E-03  0.28073559980E-02  0.13855853205E+00  0.13859113116E+00  0.51109989000E-03 0. -1.
     -623    1    1    2    0    0  0.19816772117E-02 -0.52959474123E-03  0.24057384456E-03  0.17130000001E+03  0.17130000000E+03 0.  1.
      622    1    1    2    0    0 -0.10370280496E-02 -0.22777612568E-02  0.38612008615E+01  0.38614088564E+01  0.40000000000E-01 0. -1.
</event>
<event>
 5   0  0.6200596E+07  0.9118800E+02  0.7818608E-02  0.1180000E+00
       11   -1    0    0    0    0  0.00000000000E+00  0.00000000000E+00  0.39999999673E+01  0.40000000000E+01  0.51109989000E-03 0.  1.
     -623   -1    0    0    0    0  0.00000000000E+00  0.00000000000E+00  0.12525980253E-10  0.17130000000E+03  0.17130000000E+03 0. -1.
       11    1    1    2    0    0  0.21281779706E-02 -0.68017926724E-03  0.10518330746E-01  0.10765142239E-01  0.51109989000E-03 0.  1.
     -623    1    1    2    0    0 -0.16967628592E-02 -0.51189082447E-03  0.44753480296E-03  0.17130000001E+03  0.17130000000E+03 0. -1.
      622    1    1    2    0    0 -0.43141511141E-03  0.11920700917E-02  0.39890341018E+01  0.39892348480E+01  0.40000000000E-01 0.  1.
</event>
<event>
 5   0  0.6200596E+07  0.9118800E+02  0.7818608E-02  0.1180000E+00
       11   -1    0    0    0    0  0.00000000000E+00  0.00000000000E+00  0.39999999673E+01  0.40000000000E+01  0.51109989000E-03 0.  1.
     -623   -1    0    0    0    0  0.00000000000E+00  0.00000000000E+00  0.12525980253E-10  0.17130000000E+03  0.17130000000E+03 0. -1.
       11    1    1    2    0    0  0.12444365699E-02  0.15335609358E-02  0.10398147032E-01  0.10596372697E-01  0.51109989000E-03 0.  1.
     -623    1    1    2    0    0 -0.32249283595E-03 -0.50233704495E-02  0.40043672294E-03  0.17130000007E+03  0.17130000000E+03 0. -1.
      622    1    1    2    0    0 -0.92194373390E-03  0.34898095136E-02  0.39892013836E+01  0.39894035529E+01  0.40000000000E-01 0.  1.
</event>
<event>
 5   0  0.6200596E+07  0.9118800E+02  0.7818608E-02  0.1180000E+00
       11   -1    0    0    0    0  0.00000000000E+00  0.00000000000E+00  0.39999999673E+01  0.40000000000E+01  0.51109989000E-03 0. -1.
     -623   -1    0    0    0    0  0.00000000000E+00  0.00000000000E+00  0.12525980253E-10  0.17130000000E+03  0.17130000000E+03 0.  1.
       11    1    1    2    0    0  0.31037660838E-01 -0.26058545202E-01  0.84528821757E+00  0.84625930787E+00  0.51109989000E-03 0. -1.
     -623    1    1    2    0    0 -0.25622280976E-01 -0.49538242872E-02  0.13838749640E-02  0.17130000199E+03  0.17130000000E+03 0.  1.
      622    1    1    2    0    0 -0.54153798621E-02  0.31012369489E-01  0.31533278748E+01  0.31537386987E+01  0.40000000000E-01 0. -1.
</event>
<event>
 5   0  0.6200596E+07  0.9118800E+02  0.7818608E-02  0.1180000E+00
       11   -1    0    0    0    0  0.00000000000E+00  0.00000000000E+00  0.39999999673E+01  0.40000000000E+01  0.51109989000E-03 0.  1.
     -623   -1    0    0    0    0  0.00000000000E+00  0.00000000000E+00  0.12525980253E-10  0.17130000000E+03  0.17130000000E+03 0. -1.
       11    1    1    2    0    0  0.13717618216E-02 -0.53186411427E-02  0.45404702506E+00  0.45408053455E+00  0.51109989000E-03 0.  1.
     -623    1    1    2    0    0  0.46366091246E-02  0.37821989984E-02  0.26462383783E-03  0.17130000010E+03  0.17130000000E+03 0. -1.
      622    1    1    2    0    0 -0.60083709463E-02  0.15364421442E-02  0.35456883185E+01  0.35459193607E+01  0.40000000000E-01 0.  1.
</event>
<event>
 5   0  0.6200596E+07  0.9118800E+02  0.7818608E-02  0.1180000E+00
       11   -1    0    0    0    0  0.00000000000E+00  0.00000000000E+00  0.39999999673E+01  0.40000000000E+01  0.51109989000E-03 0.  1.
     -623   -1    0    0    0    0  0.00000000000E+00  0.00000000000E+00  0.12525980253E-10  0.17130000000E+03  0.17130000000E+03 0.  1.
       11    1    1    2    0    0  0.25166834674E-01  0.73592902574E-03  0.91889627302E+00  0.91924128114E+00  0.51109989000E-03 0.  1.
     -623    1    1    2    0    0 -0.43373195323E-02  0.36310538564E-02  0.67827552649E-03  0.17130000009E+03  0.17130000000E+03 0.  1.
      622    1    1    2    0    0 -0.20829515142E-01 -0.43669828821E-02  0.30804254188E+01  0.30807586241E+01  0.40000000000E-01 0.  1.
</event>
<event>
 5   0  0.6200596E+07  0.9118800E+02  0.7818608E-02  0.1180000E+00
       11   -1    0    0    0    0  0.00000000000E+00  0.00000000000E+00  0.39999999673E+01  0.40000000000E+01  0.51109989000E-03 0.  1.
     -623   -1    0    0    0    0  0.00000000000E+00  0.00000000000E+00  0.12525980253E-10  0.17130000000E+03  0.17130000000E+03 0. -1.
       11    1    1    2    0    0 -0.10173145111E-01  0.88572134506E-02  0.12064921966E+01  0.12065677042E+01  0.51109989000E-03 0.  1.
     -623    1    1    2    0    0  0.18630771460E-02  0.20354902356E-02  0.39550013083E-03  0.17130000002E+03  0.17130000000E+03 0. -1.
      622    1    1    2    0    0  0.83100679648E-02 -0.10892703686E-01  0.27931122706E+01  0.27934322731E+01  0.40000000000E-01 0. -1.
</event>
<event>
 5   0  0.6200596E+07  0.9118800E+02  0.7818608E-02  0.1180000E+00
       11   -1    0    0    0    0  0.00000000000E+00  0.00000000000E+00  0.39999999673E+01  0.40000000000E+01  0.51109989000E-03 0. -1.
     -623   -1    0    0    0    0  0.00000000000E+00  0.00000000000E+00  0.12525980253E-10  0.17130000000E+03  0.17130000000E+03 0. -1.
       11    1    1    2    0    0 -0.36117182276E-01  0.25661543323E-01  0.27352729072E+00  0.27709277445E+00  0.51109989000E-03 0. -1.
     -623    1    1    2    0    0  0.12038801924E-01  0.69780980903E-03  0.39520082898E-02  0.17130000047E+03  0.17130000000E+03 0. -1.
      622    1    1    2    0    0  0.24078380352E-01 -0.26359353132E-01  0.37225206683E+01  0.37229067555E+01  0.40000000000E-01 0. -1.
</event>
<event>
 5   0  0.6200596E+07  0.9118800E+02  0.7818608E-02  0.1180000E+00
       11   -1    0    0    0    0  0.00000000000E+00  0.00000000000E+00  0.39999999673E+01  0.40000000000E+01  0.51109989000E-03 0. -1.
     -623   -1    0    0    0    0  0.00000000000E+00  0.00000000000E+00  0.12525980253E-10  0.17130000000E+03  0.17130000000E+03 0.  1.
       11    1    1    2    0    0  0.91223115403E-02 -0.45300011678E-02  0.24377104960E-01  0.26424268132E-01  0.51109989000E-03 0. -1.
     -623    1    1    2    0    0 -0.33151108684E-02  0.61847329156E-02  0.22532124443E-02  0.17130000016E+03  0.17130000000E+03 0.  1.
      622    1    1    2    0    0 -0.58072006719E-02 -0.16547317478E-02  0.39733696500E+01  0.39735755733E+01  0.40000000000E-01 0. -1.
</event>
<event>
 5   0  0.6200596E+07  0.9118800E+02  0.7818608E-02  0.1180000E+00
       11   -1    0    0    0    0  0.00000000000E+00  0.00000000000E+00  0.39999999673E+01  0.40000000000E+01  0.51109989000E-03 0.  1.
     -623   -1    0    0    0    0  0.00000000000E+00  0.00000000000E+00  0.12525980253E-10  0.17130000000E+03  0.17130000000E+03 0.  1.
       11    1    1    2    0    0  0.58214437573E-02  0.15211866543E-03  0.91963146437E+00  0.91965004422E+00  0.51109989000E-03 0.  1.
     -623    1    1    2    0    0 -0.99103869390E-03 -0.18971626680E-03  0.28206002634E-03  0.17130000000E+03  0.17130000000E+03 0.  1.
      622    1    1    2    0    0 -0.48304050634E-02  0.37597601372E-04  0.30800864430E+01  0.30803499526E+01  0.40000000000E-01 0.  1.
</event>
<event>
 5   0  0.6200596E+07  0.9118800E+02  0.7818608E-02  0.1180000E+00
       11   -1    0    0    0    0  0.00000000000E+00  0.00000000000E+00  0.39999999673E+01  0.40000000000E+01  0.51109989000E-03 0. -1.
     -623   -1    0    0    0    0  0.00000000000E+00  0.00000000000E+00  0.12525980253E-10  0.17130000000E+03  0.17130000000E+03 0.  1.
       11    1    1    2    0    0  0.74386607018E-03 -0.14795673918E-03  0.52490742647E-01  0.52498709633E-01  0.51109989000E-03 0. -1.
     -623    1    1    2    0    0  0.40875229112E-04 -0.18128138512E-03  0.21069136026E-03  0.17130000000E+03  0.17130000000E+03 0.  1.
      622    1    1    2    0    0 -0.78474129930E-03  0.32923812431E-03  0.39472985334E+01  0.39475012901E+01  0.40000000000E-01 0. -1.
</event>
<event>
 5   0  0.6200596E+07  0.9118800E+02  0.7818608E-02  0.1180000E+00
       11   -1    0    0    0    0  0.00000000000E+00  0.00000000000E+00  0.39999999673E+01  0.40000000000E+01  0.51109989000E-03 0.  1.
     -623   -1    0    0    0    0  0.00000000000E+00  0.00000000000E+00  0.12525980253E-10  0.17130000000E+03  0.17130000000E+03 0. -1.
       11    1    1    2    0    0  0.24961755040E-01 -0.14002121602E-01  0.13168046517E+01  0.13171157506E+01  0.51109989000E-03 0.  1.
     -623    1    1    2    0    0 -0.62254676478E-02  0.10957666354E-01  0.67689380609E-03  0.17130000046E+03  0.17130000000E+03 0. -1.
      622    1    1    2    0    0 -0.18736287392E-01  0.30444552478E-02  0.26825184219E+01  0.26828837845E+01  0.40000000000E-01 0.  1.
</event>
<event>
 5   0  0.6200596E+07  0.9118800E+02  0.7818608E-02  0.1180000E+00
       11   -1    0    0    0    0  0.00000000000E+00  0.00000000000E+00  0.39999999673E+01  0.40000000000E+01  0.51109989000E-03 0. -1.
     -623   -1    0    0    0    0  0.00000000000E+00  0.00000000000E+00  0.12525980253E-10  0.17130000000E+03  0.17130000000E+03 0. -1.
       11    1    1    2    0    0 -0.11612229478E-01  0.37479012573E-02  0.61552566079E-01  0.62752452151E-01  0.51109989000E-03 0. -1.
     -623    1    1    2    0    0  0.15732506837E-01 -0.26151881098E-02  0.14061134941E-02  0.17130000075E+03  0.17130000000E+03 0. -1.
      622    1    1    2    0    0 -0.41202773585E-02 -0.11327131475E-02  0.39370412878E+01  0.39372467997E+01  0.40000000000E-01 0. -1.
</event>
<event>
 5   0  0.6200596E+07  0.9118800E+02  0.7818608E-02  0.1180000E+00
       11   -1    0    0    0    0  0.00000000000E+00  0.00000000000E+00  0.39999999673E+01  0.40000000000E+01  0.51109989000E-03 0.  1.
     -623   -1    0    0    0    0  0.00000000000E+00  0.00000000000E+00  0.12525980253E-10  0.17130000000E+03  0.17130000000E+03 0. -1.
       11    1    1    2    0    0 -0.28102324389E-02 -0.83483302669E-02  0.30829715497E+00  0.30842339245E+00  0.51109989000E-03 0.  1.
     -623    1    1    2    0    0 -0.18664981986E-02  0.20032857200E-02  0.35135881617E-03  0.17130000002E+03  0.17130000000E+03 0. -1.
      622    1    1    2    0    0  0.46767306375E-02  0.63450445468E-02  0.36913514536E+01  0.36915765853E+01  0.40000000000E-01 0.  1.
</event>
<event>
 5   0  0.6200596E+07  0.9118800E+02  0.7818608E-02  0.1180000E+00
       11   -1    0    0    0    0  0.00000000000E+00  0.00000000000E+00  0.39999999673E+01  0.40000000000E+01  0.51109989000E-03 0.  1.
     -623   -1    0    0    0    0  0.00000000000E+00  0.00000000000E+00  0.12525980253E-10  0.17130000000E+03  0.17130000000E+03 0.  1.
       11    1    1    2    0    0  0.27855065980E-03  0.20864020281E-04  0.87215784525E-02  0.87410055412E-02  0.51109989000E-03 0.  1.
     -623    1    1    2    0    0  0.84445570962E-04 -0.22358970915E-03  0.21985945348E-03  0.17130000000E+03  0.17130000000E+03 0.  1.
      622    1    1    2    0    0 -0.36299623076E-03  0.20272568887E-03  0.39910585295E+01  0.39912589942E+01  0.40000000000E-01 0.  1.
</event>
<event>
 5   0  0.6200596E+07  0.9118800E+02  0.7818608E-02  0.1180000E+00
       11   -1    0    0    0    0  0.00000000000E+00  0.00000000000E+00  0.39999999673E+01  0.40000000000E+01  0.51109989000E-03 0. -1.
     -623   -1    0    0    0    0  0.00000000000E+00  0.00000000000E+00  0.12525980253E-10  0.17130000000E+03  0.17130000000E+03 0.  1.
       11    1    1    2    0    0  0.41342724050E-02  0.39926895915E-02  0.72398259235E-01  0.72627838598E-01  0.51109989000E-03 0. -1.
     -623    1    1    2    0    0 -0.99733784975E-02 -0.27992914829E-01  0.51350742394E-03  0.17130000258E+03  0.17130000000E+03 0.  1.
      622    1    1    2    0    0  0.58391060926E-02  0.24000225237E-01  0.39270882007E+01  0.39273695831E+01  0.40000000000E-01 0. -1.
</event>
<event>
 5   0  0.6200596E+07  0.9118800E+02  0.7818608E-02  0.1180000E+00
       11   -1    0    0    0    0  0.00000000000E+00  0.00000000000E+00  0.39999999673E+01  0.40000000000E+01  0.51109989000E-03 0. -1.
     -623   -1    0    0    0    0  0.00000000000E+00  0.00000000000E+00  0.12525980253E-10  0.17130000000E+03  0.17130000000E+03 0. -1.
       11    1    1    2    0    0 -0.33135028083E-02 -0.24055316562E-02  0.15421398867E+00  0.15426918489E+00  0.51109989000E-03 0. -1.
     -623    1    1    2    0    0 -0.79878101748E-03  0.91565929445E-03  0.26568399021E-03  0.17130000000E+03  0.17130000000E+03 0. -1.
      622    1    1    2    0    0  0.41122838258E-02  0.14898723617E-02  0.38455202947E+01  0.38457308106E+01  0.40000000000E-01 0. -1.
</event>
<event>
 5   0  0.6200596E+07  0.9118800E+02  0.7818608E-02  0.1180000E+00
       11   -1    0    0    0    0  0.00000000000E+00  0.00000000000E+00  0.39999999673E+01  0.40000000000E+01  0.51109989000E-03 0. -1.
     -623   -1    0    0    0    0  0.00000000000E+00  0.00000000000E+00  0.12525980253E-10  0.17130000000E+03  0.17130000000E+03 0. -1.
       11    1    1    2    0    0 -0.24755978750E-02 -0.26355021828E-02  0.33271655453E-01  0.33471461498E-01  0.51109989000E-03 0. -1.
     -623    1    1    2    0    0 -0.39667021980E-03 -0.56709329282E-05  0.40338653577E-03  0.17130000000E+03  0.17130000000E+03 0. -1.
      622    1    1    2    0    0  0.28722680948E-02  0.26411731157E-02  0.39663249254E+01  0.39665285376E+01  0.40000000000E-01 0. -1.
</event>
<event>
 5   0  0.6200596E+07  0.9118800E+02  0.7818608E-02  0.1180000E+00
       11   -1    0    0    0    0  0.00000000000E+00  0.00000000000E+00  0.39999999673E+01  0.40000000000E+01  0.51109989000E-03 0. -1.
     -623   -1    0    0    0    0  0.00000000000E+00  0.00000000000E+00  0.12525980253E-10  0.17130000000E+03  0.17130000000E+03 0.  1.
       11    1    1    2    0    0 -0.12019070749E-01 -0.20648929473E-02  0.11468397050E+00  0.11533167889E+00  0.51109989000E-03 0. -1.
     -623    1    1    2    0    0 -0.20145578793E-02  0.79153108591E-02  0.88357186654E-03  0.17130000020E+03  0.17130000000E+03 0.  1.
      622    1    1    2    0    0  0.14033628628E-01 -0.58504179118E-02  0.38844324250E+01  0.38846681241E+01  0.40000000000E-01 0. -1.
</event>
<event>
 5   0  0.6200596E+07  0.9118800E+02  0.7818608E-02  0.1180000E+00
       11   -1    0    0    0    0  0.00000000000E+00  0.00000000000E+00  0.39999999673E+01  0.40000000000E+01  0.51109989000E-03 0.  1.
     -623   -1    0    0    0    0  0.00000000000E+00  0.00000000000E+00  0.12525980253E-10  0.17130000000E+03  0.17130000000E+03 0. -1.
       11    1    1    2    0    0  0.65403025779E-02  0.10231188586E-02  0.52104839736E-02  0.84399463659E-02  0.51109989000E-03 0.  1.
     -623    1    1    2    0    0 -0.79295642994E-02  0.31052939926E-03  0.34305404358E-02  0.17130000022E+03  0.17130000000E+03 0. -1.
      622    1    1    2    0    0  0.13892617214E-02 -0.13336482579E-02  0.39913589430E+01  0.39915598355E+01  0.40000000000E-01 0.  1.
</event>
<event>
 5   0  0.6200596E+07  0.9118800E+02  0.7818608E-02  0.1180000E+00
       11   -1    0    0    0    0  0.00000000000E+00  0.00000000000E+00  0.39999999673E+01  0.40000000000E+01  0.51109989000E-03 0. -1.
     -623   -1    0    0    0    0  0.00000000000E+00  0.00000000000E+00  0.12525980253E-10  0.17130000000E+03  0.17130000000E+03 0.  1.
       11    1    1    2    0    0 -0.14848540634E-02 -0.92584131741E-03  0.15956934212E-02  0.24226910404E-02  0.51109989000E-03 0. -1.
     -623    1    1    2    0    0  0.94115029782E-03  0.21698609440E-02  0.10273411573E-02  0.17130000002E+03  0.17130000000E+03 0.  1.
      622    1    1    2    0    0  0.54370376554E-03 -0.12440196266E-02  0.39973769328E+01  0.39975772896E+01  0.40000000000E-01 0. -1.
</event>
<event>
 5   0  0.6200596E+07  0.9118800E+02  0.7818608E-02  0.1180000E+00
       11   -1    0    0    0    0  0.00000000000E+00  0.00000000000E+00  0.39999999673E+01  0.40000000000E+01  0.51109989000E-03 0.  1.
     -623   -1    0    0    0    0  0.00000000000E+00  0.00000000000E+00  0.12525980253E-10  0.17130000000E+03  0.17130000000E+03 0. -1.
       11    1    1    2    0    0 -0.51092072494E-02  0.18066515844E-01  0.18138413435E+01  0.18139385832E+01  0.51109989000E-03 0.  1.
     -623    1    1    2    0    0  0.47020602872E-02 -0.86582913932E-03  0.53098097711E-03  0.17130000007E+03  0.17130000000E+03 0. -1.
      622    1    1    2    0    0  0.40714696213E-03 -0.17200686704E-01  0.21856276428E+01  0.21860613492E+01  0.40000000000E-01 0.  1.
</event>
<event>
 5   0  0.6200596E+07  0.9118800E+02  0.7818608E-02  0.1180000E+00
       11   -1    0    0    0    0  0.00000000000E+00  0.00000000000E+00  0.39999999673E+01  0.40000000000E+01  0.51109989000E-03 0.  1.
     -623   -1    0    0    0    0  0.00000000000E+00  0.00000000000E+00  0.12525980253E-10  0.17130000000E+03  0.17130000000E+03 0. -1.
       11    1    1    2    0    0  0.35670687003E-01  0.38659384426E-02  0.31554320052E+01  0.31556360285E+01  0.51109989000E-03 0.  1.
     -623    1    1    2    0    0 -0.97150145374E-02  0.74932488302E-02  0.16284427846E-02  0.17130000045E+03  0.17130000000E+03 0. -1.
      622    1    1    2    0    0 -0.25955672466E-01 -0.11359187273E-01  0.84293951936E+00  0.84436352442E+00  0.40000000000E-01 0.  1.
</event>
<event>
 5   0  0.6200596E+07  0.9118800E+02  0.7818608E-02  0.1180000E+00
       11   -1    0    0    0    0  0.00000000000E+00  0.00000000000E+00  0.39999999673E+01  0.40000000000E+01  0.51109989000E-03 0. -1.
     -623   -1    0    0    0    0  0.00000000000E+00  0.00000000000E+00  0.12525980253E-10  0.17130000000E+03  0.17130000000E+03 0.  1.
       11    1    1    2    0    0 -0.24323720664E-03  0.34490546546E-02  0.11726168475E+00  0.11731376337E+00  0.51109989000E-03 0. -1.
     -623    1    1    2    0    0  0.53692939213E-03 -0.16295887212E-03  0.25949724633E-03  0.17130000000E+03  0.17130000000E+03 0.  1.
      622    1    1    2    0    0 -0.29369218549E-03 -0.32860957825E-02  0.38824787854E+01  0.38826862355E+01  0.40000000000E-01 0. -1.
</event>
<event>
 5   0  0.6200596E+07  0.9118800E+02  0.7818608E-02  0.1180000E+00
       11   -1    0    0    0    0  0.00000000000E+00  0.00000000000E+00  0.39999999673E+01  0.40000000000E+01  0.51109989000E-03 0. -1.
     -623   -1    0    0    0    0  0.00000000000E+00  0.00000000000E+00  0.12525980253E-10  0.17130000000E+03  0.17130000000E+03 0.  1.
       11    1    1    2    0    0 -0.10239658848E-01 -0.14454844357E-01  0.31430717096E-01  0.36082465780E-01  0.51109989000E-03 0. -1.
     -623    1    1    2    0    0  0.44154178742E-02  0.19174622686E-01  0.48618299281E-02  0.17130000120E+03  0.17130000000E+03 0.  1.
      622    1    1    2    0    0  0.58242409739E-02 -0.47197783286E-02  0.39637074203E+01  0.39639163352E+01  0.40000000000E-01 0. -1.
</event>
<event>
 5   0  0.6200596E+07  0.9118800E+02  0.7818608E-02  0.1180000E+00
       11   -1    0    0    0    0  0.00000000000E+00  0.00000000000E+00  0.39999999673E+01  0.40000000000E+01  0.51109989000E-03 0. -1.
     -623   -1    0    0    0    0  0.00000000000E+00  0.00000000000E+00  0.12525980253E-10  0.17130000000E+03  0.17130000000E+03 0.  1.
       11    1    1    2    0    0  0.78867979643E-02  0.17695088050E-01  0.31169686626E+00  0.31229875982E+00  0.51109989000E-03 0. -1.
     -623    1    1    2    0    0 -0.12058726026E-01 -0.10266120238E-01  0.82938211286E-03  0.17130000073E+03  0.17130000000E+03 0.  1.
      622    1    1    2    0    0  0.41719280617E-02 -0.74289678116E-02  0.36874737190E+01  0.36877005061E+01  0.40000000000E-01 0. -1.
</event>
<event>
 5   0  0.6200596E+07  0.9118800E+02  0.7818608E-02  0.1180000E+00
       11   -1    0    0    0    0  0.00000000000E+00  0.00000000000E+00  0.39999999673E+01  0.40000000000E+01  0.51109989000E-03 0.  1.
     -623   -1    0    0    0    0  0.00000000000E+00  0.00000000000E+00  0.12525980253E-10  0.17130000000E+03  0.17130000000E+03 0. -1.
       11    1    1    2    0    0  0.36473826761E-02  0.15674606679E-02  0.48289677488E-01  0.48455283581E-01  0.51109989000E-03 0.  1.
     -623    1    1    2    0    0 -0.86513758048E-02  0.63414966479E-02  0.37945118487E-03  0.17130000034E+03  0.17130000000E+03 0. -1.
      622    1    1    2    0    0  0.50039931287E-02 -0.79089573158E-02  0.39513308387E+01  0.39515443802E+01  0.40000000000E-01 0.  1.
</event>
<event>
 5   0  0.6200596E+07  0.9118800E+02  0.7818608E-02  0.1180000E+00
       11   -1    0    0    0    0  0.00000000000E+00  0.00000000000E+00  0.39999999673E+01  0.40000000000E+01  0.51109989000E-03 0. -1.
     -623   -1    0    0    0    0  0.00000000000E+00  0.00000000000E+00  0.12525980253E-10  0.17130000000E+03  0.17130000000E+03 0. -1.
       11    1    1    2    0    0 -0.15946888037E-02  0.24830870368E-02  0.24078510087E+00  0.24080372666E+00  0.51109989000E-03 0. -1.
     -623    1    1    2    0    0  0.34438982410E-03  0.11101370515E-02  0.23334005186E-03  0.17130000000E+03  0.17130000000E+03 0. -1.
      622    1    1    2    0    0  0.12502989796E-02 -0.35932240883E-02  0.37589815264E+01  0.37591962692E+01  0.40000000000E-01 0. -1.
</event>
<event>
 5   0  0.6200596E+07  0.9118800E+02  0.7818608E-02  0.1180000E+00
       11   -1    0    0    0    0  0.00000000000E+00  0.00000000000E+00  0.39999999673E+01  0.40000000000E+01  0.51109989000E-03 0. -1.
     -623   -1    0    0    0    0  0.00000000000E+00  0.00000000000E+00  0.12525980253E-10  0.17130000000E+03  0.17130000000E+03 0. -1.
       11    1    1    2    0    0 -0.22850590029E-02  0.14222146155E-02  0.27878045388E-01  0.28012333450E-01  0.51109989000E-03 0. -1.
     -623    1    1    2    0    0  0.29037873498E-02  0.52159107295E-03  0.33622060676E-03  0.17130000003E+03  0.17130000000E+03 0. -1.
      622    1    1    2    0    0 -0.61872834691E-03 -0.19438056884E-02  0.39717857014E+01  0.39719876408E+01  0.40000000000E-01 0. -1.
</event>
<event>
 5   0  0.6200596E+07  0.9118800E+02  0.7818608E-02  0.1180000E+00
       11   -1    0    0    0    0  0.00000000000E+00  0.00000000000E+00  0.39999999673E+01  0.40000000000E+01  0.51109989000E-03 0. -1.
     -623   -1    0    0    0    0  0.00000000000E+00  0.00000000000E+00  0.12525980253E-10  0.17130000000E+03  0.17130000000E+03 0.  1.
       11    1    1    2    0    0 -0.19660233883E-02 -0.60921428058E-02  0.26491433037E+00  0.26499215669E+00  0.51109989000E-03 0. -1.
     -623    1    1    2    0    0  0.97032684014E-03  0.12601821377E-01  0.29826189436E-03  0.17130000047E+03  0.17130000000E+03 0.  1.
      622    1    1    2    0    0  0.99569654821E-03 -0.65096785716E-02  0.37347873751E+01  0.37350073768E+01  0.40000000000E-01 0. -1.
</event>
<event>
 5   0  0.6200596E+07  0.9118800E+02  0.7818608E-02  0.1180000E+00
       11   -1    0    0    0    0  0.00000000000E+00  0.00000000000E+00  0.39999999673E+01  0.40000000000E+01  0.51109989000E-03 0. -1.
     -623   -1    0    0    0    0  0.00000000000E+00  0.00000000000E+00  0.12525980253E-10  0.17130000000E+03  0.17130000000E+03 0. -1.
       11    1    1    2    0    0 -0.16417072142E-02 -0.43370077159E-02  0.17301854295E+00  0.17308143247E+00  0.51109989000E-03 0. -1.
     -623    1    1    2    0    0  0.11439637997E-01 -0.26472472355E-02  0.29122775045E-03  0.17130000040E+03  0.17130000000E+03 0. -1.
      622    1    1    2    0    0 -0.97979307832E-02  0.69842549514E-02  0.38266901967E+01  0.38269181649E+01  0.40000000000E-01 0. -1.
</event>
<event>
 5   0  0.6200596E+07  0.9118800E+02  0.7818608E-02  0.1180000E+00
       11   -1    0    0    0    0  0.00000000000E+00  0.00000000000E+00  0.39999999673E+01  0.40000000000E+01  0.51109989000E-03 0. -1.
     -623   -1    0    0    0    0  0.00000000000E+00  0.00000000000E+00  0.12525980253E-10  0.17130000000E+03  0.17130000000E+03 0. -1.
       11    1    1    2    0    0 -0.16700935483E-01 -0.53942307021E-02  0.37108587357E+00  0.37150101717E+00  0.51109989000E-03 0. -1.
     -623    1    1    2    0    0  0.40078413198E-02  0.14951466860E-01  0.67108538474E-03  0.17130000070E+03  0.17130000000E+03 0. -1.
      622    1    1    2    0    0  0.12693094163E-01 -0.95572361577E-02  0.36282430084E+01  0.36284982821E+01  0.40000000000E-01 0. -1.
</event>
<event>
 5   0  0.6200596E+07  0.9118800E+02  0.7818608E-02  0.1180000E+00
       11   -1    0    0    0    0  0.00000000000E+00  0.00000000000E+00  0.39999999673E+01  0.40000000000E+01  0.51109989000E-03 0.  1.
     -623   -1    0    0    0    0  0.00000000000E+00  0.00000000000E+00  0.12525980253E-10  0.17130000000E+03  0.17130000000E+03 0.  1.
       11    1    1    2    0    0  0.17432678121E-01  0.99187711880E-02  0.36217163631E+01  0.36217719360E+01  0.51109989000E-03 0.  1.
     -623    1    1    2    0    0  0.12992049266E-02 -0.16717922432E-01  0.27057567857E-02  0.17130000084E+03  0.17130000000E+03 0.  1.
      622    1    1    2    0    0 -0.18731883047E-01  0.67991512444E-02  0.37557784749E+00  0.37822722195E+00  0.40000000000E-01 0. -1.
</event>
<event>
 5   0  0.6200596E+07  0.9118800E+02  0.7818608E-02  0.1180000E+00
       11   -1    0    0    0    0  0.00000000000E+00  0.00000000000E+00  0.39999999673E+01  0.40000000000E+01  0.51109989000E-03 0.  1.
     -623   -1    0    0    0    0  0.00000000000E+00  0.00000000000E+00  0.12525980253E-10  0.17130000000E+03  0.17130000000E+03 0.  1.
       11    1    1    2    0    0 -0.23613937136E-02  0.87195656661E-02  0.19679383938E-01  0.21659787133E-01  0.51109989000E-03 0.  1.
     -623    1    1    2    0    0 -0.51515518617E-02 -0.20931194517E-02  0.21941820528E-02  0.17130000010E+03  0.17130000000E+03 0.  1.
      622    1    1    2    0    0  0.75129455753E-02 -0.66264462144E-02  0.39781264014E+01  0.39783401086E+01  0.40000000000E-01 0.  1.
</event>
<event>
 5   0  0.6200596E+07  0.9118800E+02  0.7818608E-02  0.1180000E+00
       11   -1    0    0    0    0  0.00000000000E+00  0.00000000000E+00  0.39999999673E+01  0.40000000000E+01  0.51109989000E-03 0. -1.
     -623   -1    0    0    0    0  0.00000000000E+00  0.00000000000E+00  0.12525980253E-10  0.17130000000E+03  0.17130000000E+03 0. -1.
       11    1    1    2    0    0 -0.14922703204E-01 -0.20897300731E-02  0.95457438268E-01  0.96640766682E-01  0.51109989000E-03 0. -1.
     -623    1    1    2    0    0 -0.29756096031E-03  0.26115214760E-02  0.14179893957E-02  0.17130000003E+03  0.17130000000E+03 0. -1.
      622    1    1    2    0    0  0.15220264165E-01 -0.52179140291E-03  0.39031245397E+01  0.39033592073E+01  0.40000000000E-01 0. -1.
</event>
<event>
 5   0  0.6200596E+07  0.9118800E+02  0.7818608E-02  0.1180000E+00
       11   -1    0    0    0    0  0.00000000000E+00  0.00000000000E+00  0.39999999673E+01  0.40000000000E+01  0.51109989000E-03 0. -1.
     -623   -1    0    0    0    0  0.00000000000E+00  0.00000000000E+00  0.12525980253E-10  0.17130000000E+03  0.17130000000E+03 0.  1.
       11    1    1    2    0    0 -0.55771853659E-01  0.35639269477E-01  0.17222039354E+01  0.17234753591E+01  0.51109989000E-03 0. -1.
     -623    1    1    2    0    0  0.27424988865E-01 -0.12632135288E-01  0.19183106376E-02  0.17130000267E+03  0.17130000000E+03 0.  1.
      622    1    1    2    0    0  0.28346864794E-01 -0.23007134190E-01  0.22758777213E+01  0.22765219690E+01  0.40000000000E-01 0.  0.
</event>
<event>
 5   0  0.6200596E+07  0.9118800E+02  0.7818608E-02  0.1180000E+00
       11   -1    0    0    0    0  0.00000000000E+00  0.00000000000E+00  0.39999999673E+01  0.40000000000E+01  0.51109989000E-03 0. -1.
     -623   -1    0    0    0    0  0.00000000000E+00  0.00000000000E+00  0.12525980253E-10  0.17130000000E+03  0.17130000000E+03 0. -1.
       11    1    1    2    0    0  0.34817067145E-03 -0.11216301298E-02  0.17141336188E-01  0.17189121738E-01  0.51109989000E-03 0. -1.
     -623    1    1    2    0    0 -0.26542590090E-02  0.16985523282E-02  0.24935975255E-03  0.17130000003E+03  0.17130000000E+03 0. -1.
      622    1    1    2    0    0  0.23060883375E-02 -0.57692219849E-03  0.39826092714E+01  0.39828108491E+01  0.40000000000E-01 0. -1.
</event>
<event>
 5   0  0.6200596E+07  0.9118800E+02  0.7818608E-02  0.1180000E+00
       11   -1    0    0    0    0  0.00000000000E+00  0.00000000000E+00  0.39999999673E+01  0.40000000000E+01  0.51109989000E-03 0.  1.
     -623   -1    0    0    0    0  0.00000000000E+00  0.00000000000E+00  0.12525980253E-10  0.17130000000E+03  0.17130000000E+03 0.  1.
       11    1    1    2    0    0  0.59592727988E-02  0.25270894298E-02  0.53879550151E+00  0.53883462471E+00  0.51109989000E-03 0.  1.
     -623    1    1    2    0    0  0.75025451690E-02 -0.10833121047E-01  0.30688950020E-03  0.17130000051E+03  0.17130000000E+03 0.  1.
      622    1    1    2    0    0 -0.13461817968E-01  0.83060316168E-02  0.34608975763E+01  0.34611648682E+01  0.40000000000E-01 0.  1.
</event>
<event>
 5   0  0.6200596E+07  0.9118800E+02  0.7818608E-02  0.1180000E+00
       11   -1    0    0    0    0  0.00000000000E+00  0.00000000000E+00  0.39999999673E+01  0.40000000000E+01  0.51109989000E-03 0. -1.
     -623   -1    0    0    0    0  0.00000000000E+00  0.00000000000E+00  0.12525980253E-10  0.17130000000E+03  0.17130000000E+03 0.  1.
       11    1    1    2    0    0  0.51572373673E-02  0.19520974805E-03  0.20834336092E+00  0.20840789923E+00  0.51109989000E-03 0. -1.
     -623    1    1    2    0    0 -0.66613688003E-04 -0.14729773094E-03  0.27892286190E-03  0.17130000000E+03  0.17130000000E+03 0.  1.
      622    1    1    2    0    0 -0.50906236793E-02 -0.47912017117E-04  0.37913776836E+01  0.37915921005E+01  0.40000000000E-01 0. -1.
</event>
<event>
 5   0  0.6200596E+07  0.9118800E+02  0.7818608E-02  0.1180000E+00
       11   -1    0    0    0    0  0.00000000000E+00  0.00000000000E+00  0.39999999673E+01  0.40000000000E+01  0.51109989000E-03 0.  1.
     -623   -1    0    0    0    0  0.00000000000E+00  0.00000000000E+00  0.12525980253E-10  0.17130000000E+03  0.17130000000E+03 0.  1.
       11    1    1    2    0    0 -0.18207557618E-02  0.78444995908E-03  0.13867910187E-01  0.14018226259E-01  0.51109989000E-03 0.  1.
     -623    1    1    2    0    0  0.11035582831E-02 -0.11603719947E-02  0.35108196004E-03  0.17130000001E+03  0.17130000000E+03 0.  1.
      622    1    1    2    0    0  0.71719747873E-03  0.37592203566E-03  0.39857809752E+01  0.39859817659E+01  0.40000000000E-01 0.  1.
</event>
<event>
 5   0  0.6200596E+07  0.9118800E+02  0.7818608E-02  0.1180000E+00
       11   -1    0    0    0    0  0.00000000000E+00  0.00000000000E+00  0.39999999673E+01  0.40000000000E+01  0.51109989000E-03 0.  1.
     -623   -1    0    0    0    0  0.00000000000E+00  0.00000000000E+00  0.12525980253E-10  0.17130000000E+03  0.17130000000E+03 0.  1.
       11    1    1    2    0    0  0.23055188405E-03  0.24128804536E-02  0.23247970752E+00  0.23249290478E+00  0.51109989000E-03 0.  1.
     -623    1    1    2    0    0  0.16717142736E-03  0.14052751470E-03  0.22639922131E-03  0.17130000000E+03  0.17130000000E+03 0.  1.
      622    1    1    2    0    0 -0.39772331141E-03 -0.25534079683E-02  0.37672938606E+01  0.37675070949E+01  0.40000000000E-01 0.  1.
</event>
<event>
 5   0  0.6200596E+07  0.9118800E+02  0.7818608E-02  0.1180000E+00
       11   -1    0    0    0    0  0.00000000000E+00  0.00000000000E+00  0.39999999673E+01  0.40000000000E+01  0.51109989000E-03 0. -1.
     -623   -1    0    0    0    0  0.00000000000E+00  0.00000000000E+00  0.12525980253E-10  0.17130000000E+03  0.17130000000E+03 0.  1.
       11    1    1    2    0    0  0.26181560754E-02 -0.12806104329E-02  0.88798826869E-02  0.93599275005E-02  0.51109989000E-03 0. -1.
     -623    1    1    2    0    0 -0.24019989695E-03 -0.42813995277E-04  0.68141581655E-03  0.17130000000E+03  0.17130000000E+03 0.  1.
      622    1    1    2    0    0 -0.23779561784E-02  0.13234244282E-02  0.39904386689E+01  0.39906400710E+01  0.40000000000E-01 0. -1.
</event>
<event>
 5   0  0.6200596E+07  0.9118800E+02  0.7818608E-02  0.1180000E+00
       11   -1    0    0    0    0  0.00000000000E+00  0.00000000000E+00  0.39999999673E+01  0.40000000000E+01  0.51109989000E-03 0.  1.
     -623   -1    0    0    0    0  0.00000000000E+00  0.00000000000E+00  0.12525980253E-10  0.17130000000E+03  0.17130000000E+03 0.  1.
       11    1    1    2    0    0 -0.30047929530E-02  0.28574055187E-02  0.11916645458E-01  0.12627795050E-01  0.51109989000E-03 0.  1.
     -623    1    1    2    0    0  0.10307713302E-02 -0.22452592037E-02  0.91231128907E-03  0.17130000002E+03  0.17130000000E+03 0.  1.
      622    1    1    2    0    0  0.19740216228E-02 -0.61214631501E-03  0.39871710106E+01  0.39873721847E+01  0.40000000000E-01 0.  1.
</event>
<event>
 5   0  0.6200596E+07  0.9118800E+02  0.7818608E-02  0.1180000E+00
       11   -1    0    0    0    0  0.00000000000E+00  0.00000000000E+00  0.39999999673E+01  0.40000000000E+01  0.51109989000E-03 0. -1.
     -623   -1    0    0    0    0  0.00000000000E+00  0.00000000000E+00  0.12525980253E-10  0.17130000000E+03  0.17130000000E+03 0. -1.
       11    1    1    2    0    0 -0.62467058692E-02  0.12480646857E-02  0.59219229464E+00  0.59222677587E+00  0.51109989000E-03 0. -1.
     -623    1    1    2    0    0 -0.18806508266E-02 -0.25639991723E-02  0.27919025356E-03  0.17130000003E+03  0.17130000000E+03 0. -1.
      622    1    1    2    0    0  0.81273566958E-02  0.13159344866E-02  0.34075284825E+01  0.34077731944E+01  0.40000000000E-01 0. -1.
</event>
<event>
 5   0  0.6200596E+07  0.9118800E+02  0.7818608E-02  0.1180000E+00
       11   -1    0    0    0    0  0.00000000000E+00  0.00000000000E+00  0.39999999673E+01  0.40000000000E+01  0.51109989000E-03 0.  1.
     -623   -1    0    0    0    0  0.00000000000E+00  0.00000000000E+00  0.12525980253E-10  0.17130000000E+03  0.17130000000E+03 0.  1.
       11    1    1    2    0    0  0.32350751103E-03 -0.62251995340E-03  0.78780182033E-01  0.78784963607E-01  0.51109989000E-03 0.  1.
     -623    1    1    2    0    0 -0.44657861010E-02 -0.33256272054E-02  0.21303902119E-03  0.17130000009E+03  0.17130000000E+03 0.  1.
      622    1    1    2    0    0  0.41422785899E-02  0.39481471588E-02  0.39210067463E+01  0.39212149458E+01  0.40000000000E-01 0.  1.
</event>
<event>
 5   0  0.6200596E+07  0.9118800E+02  0.7818608E-02  0.1180000E+00
       11   -1    0    0    0    0  0.00000000000E+00  0.00000000000E+00  0.39999999673E+01  0.40000000000E+01  0.51109989000E-03 0. -1.
     -623   -1    0    0    0    0  0.00000000000E+00  0.00000000000E+00  0.12525980253E-10  0.17130000000E+03  0.17130000000E+03 0. -1.
       11    1    1    2    0    0  0.57426332191E-02  0.38343745201E-02  0.29519957152E-01  0.30321104133E-01  0.51109989000E-03 0. -1.
     -623    1    1    2    0    0  0.25247817165E-02 -0.10880727214E-01  0.10178779078E-02  0.17130000037E+03  0.17130000000E+03 0. -1.
      622    1    1    2    0    0 -0.82674149356E-02  0.70463526942E-02  0.39694621323E+01  0.39696785287E+01  0.40000000000E-01 0. -1.
</event>
<event>
 5   0  0.6200596E+07  0.9118800E+02  0.7818608E-02  0.1180000E+00
       11   -1    0    0    0    0  0.00000000000E+00  0.00000000000E+00  0.39999999673E+01  0.40000000000E+01  0.51109989000E-03 0. -1.
     -623   -1    0    0    0    0  0.00000000000E+00  0.00000000000E+00  0.12525980253E-10  0.17130000000E+03  0.17130000000E+03 0. -1.
       11    1    1    2    0    0  0.50913505333E-03  0.24452448727E-03  0.84879064738E-02  0.85220178320E-02  0.51109989000E-03 0. -1.
     -623    1    1    2    0    0  0.70971041478E-03 -0.10039452764E-02  0.23477368564E-03  0.17130000000E+03  0.17130000000E+03 0. -1.
      622    1    1    2    0    0 -0.12188454681E-02  0.75942078911E-03  0.39912772872E+01  0.39914779776E+01  0.40000000000E-01 0. -1.
</event>
<event>
 5   0  0.6200596E+07  0.9118800E+02  0.7818608E-02  0.1180000E+00
       11   -1    0    0    0    0  0.00000000000E+00  0.00000000000E+00  0.39999999673E+01  0.40000000000E+01  0.51109989000E-03 0.  1.
     -623   -1    0    0    0    0  0.00000000000E+00  0.00000000000E+00  0.12525980253E-10  0.17130000000E+03  0.17130000000E+03 0. -1.
       11    1    1    2    0    0 -0.82886707226E-02  0.17618107578E-01  0.26250602901E-01  0.32687232237E-01  0.51109989000E-03 0.  1.
     -623    1    1    2    0    0  0.52454890752E-02 -0.20406898512E-02  0.66702227951E-02  0.17130000022E+03  0.17130000000E+03 0. -1.
      622    1    1    2    0    0  0.30431816474E-02 -0.15577417727E-01  0.39670791417E+01  0.39673125454E+01  0.40000000000E-01 0.  1.
</event>
<event>
 5   0  0.6200596E+07  0.9118800E+02  0.7818608E-02  0.1180000E+00
       11   -1    0    0    0    0  0.00000000000E+00  0.00000000000E+00  0.39999999673E+01  0.40000000000E+01  0.51109989000E-03 0. -1.
     -623   -1    0    0    0    0  0.00000000000E+00  0.00000000000E+00  0.12525980253E-10  0.17130000000E+03  0.17130000000E+03 0. -1.
       11    1    1    2    0    0  0.18160983025E-03  0.87337858218E-03  0.32473712787E+00  0.32473875532E+00  0.51109989000E-03 0. -1.
     -623    1    1    2    0    0 -0.15963831014E-02 -0.22588559204E-02  0.21982881729E-03  0.17130000002E+03  0.17130000000E+03 0. -1.
      622    1    1    2    0    0  0.14147732711E-02  0.13854773383E-02  0.36750430107E+01  0.36752612222E+01  0.40000000000E-01 0. -1.
</event>
<event>
 5   0  0.6200596E+07  0.9118800E+02  0.7818608E-02  0.1180000E+00
       11   -1    0    0    0    0  0.00000000000E+00  0.00000000000E+00  0.39999999673E+01  0.40000000000E+01  0.51109989000E-03 0. -1.
     -623   -1    0    0    0    0  0.00000000000E+00  0.00000000000E+00  0.12525980253E-10  0.17130000000E+03  0.17130000000E+03 0. -1.
       11    1    1    2    0    0 -0.13393908913E-02 -0.82031943355E-02  0.11446047934E-01  0.14154843730E-01  0.51109989000E-03 0. -1.
     -623    1    1    2    0    0 -0.20194427116E-01  0.17764930451E-01  0.29812581333E-02  0.17130000214E+03  0.17130000000E+03 0. -1.
      622    1    1    2    0    0  0.21533818008E-01 -0.95617361160E-02  0.39855726613E+01  0.39858430188E+01  0.40000000000E-01 0. -1.
</event>
<event>
 5   0  0.6200596E+07  0.9118800E+02  0.7818608E-02  0.1180000E+00
       11   -1    0    0    0    0  0.00000000000E+00  0.00000000000E+00  0.39999999673E+01  0.40000000000E+01  0.51109989000E-03 0.  1.
     -623   -1    0    0    0    0  0.00000000000E+00  0.00000000000E+00  0.12525980253E-10  0.17130000000E+03  0.17130000000E+03 0. -1.
       11    1    1    2    0    0  0.37153040477E-02  0.31013206623E-02  0.26279959069E-02  0.55307556530E-02  0.51109989000E-03 0.  1.
     -623    1    1    2    0    0 -0.46536670271E-02 -0.22475192605E-02  0.31033165965E-02  0.17130000011E+03  0.17130000000E+03 0. -1.
      622    1    1    2    0    0  0.93836297938E-03 -0.85380140185E-03  0.39942686549E+01  0.39944691383E+01  0.40000000000E-01 0.  1.
</event>
<event>
 5   0  0.6200596E+07  0.9118800E+02  0.7818608E-02  0.1180000E+00
       11   -1    0    0    0    0  0.00000000000E+00  0.00000000000E+00  0.39999999673E+01  0.40000000000E+01  0.51109989000E-03 0. -1.
     -623   -1    0    0    0    0  0.00000000000E+00  0.00000000000E+00  0.12525980253E-10  0.17130000000E+03  0.17130000000E+03 0.  1.
       11    1    1    2    0    0  0.51581453077E-03  0.68499509463E-02  0.96243702598E+00  0.96246167617E+00  0.51109989000E-03 0. -1.
     -623    1    1    2    0    0  0.19277354324E-02  0.70175625727E-03  0.29838370222E-03  0.17130000001E+03  0.17130000000E+03 0.  1.
      622    1    1    2    0    0 -0.24435499632E-02 -0.75517072035E-02  0.30372645577E+01  0.30375383113E+01  0.40000000000E-01 0. -1.
</event>
<event>
 5   0  0.6200596E+07  0.9118800E+02  0.7818608E-02  0.1180000E+00
       11   -1    0    0    0    0  0.00000000000E+00  0.00000000000E+00  0.39999999673E+01  0.40000000000E+01  0.51109989000E-03 0.  1.
     -623   -1    0    0    0    0  0.00000000000E+00  0.00000000000E+00  0.12525980253E-10  0.17130000000E+03  0.17130000000E+03 0. -1.
       11    1    1    2    0    0 -0.87676802779E-02 -0.23588350437E-02  0.11201990735E+00  0.11238842104E+00  0.51109989000E-03 0.  1.
     -623    1    1    2    0    0  0.55815191650E-02 -0.76914943554E-02  0.58883058208E-03  0.17130000026E+03  0.17130000000E+03 0. -1.
      622    1    1    2    0    0  0.31861611128E-02  0.10050329399E-01  0.38873912294E+01  0.38876113143E+01  0.40000000000E-01 0.  1.
</event>
<event>
 5   0  0.6200596E+07  0.9118800E+02  0.7818608E-02  0.1180000E+00
       11   -1    0    0    0    0  0.00000000000E+00  0.00000000000E+00  0.39999999673E+01  0.40000000000E+01  0.51109989000E-03 0. -1.
     -623   -1    0    0    0    0  0.00000000000E+00  0.00000000000E+00  0.12525980253E-10  0.17130000000E+03  0.17130000000E+03 0.  1.
       11    1    1    2    0    0 -0.92675371071E-03  0.38109025701E-02  0.19297918603E-01  0.19699054155E-01  0.51109989000E-03 0. -1.
     -623    1    1    2    0    0  0.37475483573E-03  0.15814922846E-02  0.60579778897E-03  0.17130000001E+03  0.17130000000E+03 0.  1.
      622    1    1    2    0    0  0.55199887498E-03 -0.53923948546E-02  0.39800962510E+01  0.39803009371E+01  0.40000000000E-01 0. -1.
</event>
<event>
 5   0  0.6200596E+07  0.9118800E+02  0.7818608E-02  0.1180000E+00
       11   -1    0    0    0    0  0.00000000000E+00  0.00000000000E+00  0.39999999673E+01  0.40000000000E+01  0.51109989000E-03 0. -1.
     -623   -1    0    0    0    0  0.00000000000E+00  0.00000000000E+00  0.12525980253E-10  0.17130000000E+03  0.17130000000E+03 0. -1.
       11    1    1    2    0    0 -0.53601928790E-02 -0.31235270307E-03  0.67152572614E-01  0.67368824116E-01  0.51109989000E-03 0. -1.
     -623    1    1    2    0    0  0.61846791691E-03  0.11832885722E-02  0.42261122870E-03  0.17130000001E+03  0.17130000000E+03 0. -1.
      622    1    1    2    0    0  0.47417249620E-02 -0.87093586912E-03  0.39324247835E+01  0.39326311702E+01  0.40000000000E-01 0. -1.
</event>
<event>
 5   0  0.6200596E+07  0.9118800E+02  0.7818608E-02  0.1180000E+00
       11   -1    0    0    0    0  0.00000000000E+00  0.00000000000E+00  0.39999999673E+01  0.40000000000E+01  0.51109989000E-03 0. -1.
     -623   -1    0    0    0    0  0.00000000000E+00  0.00000000000E+00  0.12525980253E-10  0.17130000000E+03  0.17130000000E+03 0.  1.
       11    1    1    2    0    0  0.25555035399E-01 -0.18046574920E-01  0.30965102341E+00  0.31122782045E+00  0.51109989000E-03 0. -1.
     -623    1    1    2    0    0 -0.78352528703E-02  0.20432750417E-02  0.18711266063E-02  0.17130000020E+03  0.17130000000E+03 0.  1.
      622    1    1    2    0    0 -0.17719782529E-01  0.16003299878E-01  0.36884778173E+01  0.36887719780E+01  0.40000000000E-01 0. -1.
</event>
<event>
 5   0  0.6200596E+07  0.9118800E+02  0.7818608E-02  0.1180000E+00
       11   -1    0    0    0    0  0.00000000000E+00  0.00000000000E+00  0.39999999673E+01  0.40000000000E+01  0.51109989000E-03 0.  1.
     -623   -1    0    0    0    0  0.00000000000E+00  0.00000000000E+00  0.12525980253E-10  0.17130000000E+03  0.17130000000E+03 0. -1.
       11    1    1    2    0    0  0.52881226597E-02 -0.29169509573E-03  0.13180877858E+00  0.13191612737E+00  0.51109989000E-03 0.  1.
     -623    1    1    2    0    0 -0.81747806329E-03 -0.41224561899E-03  0.31679289090E-03  0.17130000000E+03  0.17130000000E+03 0. -1.
      622    1    1    2    0    0 -0.44706445964E-02  0.70394071472E-03  0.38678743959E+01  0.38680838699E+01  0.40000000000E-01 0.  1.
</event>
<event>
 5   0  0.6200596E+07  0.9118800E+02  0.7818608E-02  0.1180000E+00
       11   -1    0    0    0    0  0.00000000000E+00  0.00000000000E+00  0.39999999673E+01  0.40000000000E+01  0.51109989000E-03 0. -1.
     -623   -1    0    0    0    0  0.00000000000E+00  0.00000000000E+00  0.12525980253E-10  0.17130000000E+03  0.17130000000E+03 0. -1.
       11    1    1    2    0    0 -0.30288852394E-03  0.19293626250E-04  0.68132113974E-02  0.68390924521E-02  0.51109989000E-03 0. -1.
     -623    1    1    2    0    0  0.78758144978E-04  0.58680715851E-03  0.22624944471E-03  0.17130000000E+03  0.17130000000E+03 0. -1.
      622    1    1    2    0    0  0.22413037896E-03 -0.60610078476E-03  0.39929605065E+01  0.39931609064E+01  0.40000000000E-01 0. -1.
</event>
<event>
 5   0  0.6200596E+07  0.9118800E+02  0.7818608E-02  0.1180000E+00
       11   -1    0    0    0    0  0.00000000000E+00  0.00000000000E+00  0.39999999673E+01  0.40000000000E+01  0.51109989000E-03 0. -1.
     -623   -1    0    0    0    0  0.00000000000E+00  0.00000000000E+00  0.12525980253E-10  0.17130000000E+03  0.17130000000E+03 0.  1.
       11    1    1    2    0    0 -0.22708836945E-01  0.20373507332E-01  0.10782883975E+01  0.10787200288E+01  0.51109989000E-03 0. -1.
     -623    1    1    2    0    0 -0.16074411902E-02 -0.39490709100E-02  0.85291111515E-03  0.17130000006E+03  0.17130000000E+03 0.  1.
      622    1    1    2    0    0  0.24316278135E-01 -0.16424436422E-01  0.29208586587E+01  0.29212799160E+01  0.40000000000E-01 0. -1.
</event>
<event>
 5   0  0.6200596E+07  0.9118800E+02  0.7818608E-02  0.1180000E+00
       11   -1    0    0    0    0  0.00000000000E+00  0.00000000000E+00  0.39999999673E+01  0.40000000000E+01  0.51109989000E-03 0.  1.
     -623   -1    0    0    0    0  0.00000000000E+00  0.00000000000E+00  0.12525980253E-10  0.17130000000E+03  0.17130000000E+03 0. -1.
       11    1    1    2    0    0  0.10951743925E-02 -0.26558885379E-02  0.37678012336E-02  0.47655743012E-02  0.51109989000E-03 0.  1.
     -623    1    1    2    0    0  0.48669929418E-03  0.42617031721E-03  0.11989248334E-02  0.17130000001E+03  0.17130000000E+03 0. -1.
      622    1    1    2    0    0 -0.15818736867E-02  0.22297182207E-02  0.39950332413E+01  0.39952344203E+01  0.40000000000E-01 0.  1.
</event>
<event>
 5   0  0.6200596E+07  0.9118800E+02  0.7818608E-02  0.1180000E+00
       11   -1    0    0    0    0  0.00000000000E+00  0.00000000000E+00  0.39999999673E+01  0.40000000000E+01  0.51109989000E-03 0. -1.
     -623   -1    0    0    0    0  0.00000000000E+00  0.00000000000E+00  0.12525980253E-10  0.17130000000E+03  0.17130000000E+03 0. -1.
       11    1    1    2    0    0  0.36859821587E-01  0.20151992199E-01  0.16918770925E+01  0.16923986252E+01  0.51109989000E-03 0. -1.
     -623    1    1    2    0    0 -0.40657375776E-02  0.72816055922E-03  0.11958228795E-02  0.17130000005E+03  0.17130000000E+03 0. -1.
      622    1    1    2    0    0 -0.32794084010E-01 -0.20880152758E-01  0.23069270520E+01  0.23076013208E+01  0.40000000000E-01 0.  0.
</event>
<event>
 5   0  0.6200596E+07  0.9118800E+02  0.7818608E-02  0.1180000E+00
       11   -1    0    0    0    0  0.00000000000E+00  0.00000000000E+00  0.39999999673E+01  0.40000000000E+01  0.51109989000E-03 0. -1.
     -623   -1    0    0    0    0  0.00000000000E+00  0.00000000000E+00  0.12525980253E-10  0.17130000000E+03  0.17130000000E+03 0. -1.
       11    1    1    2    0    0 -0.23715444311E-01  0.33293582881E-01  0.25947699073E+01  0.25950919094E+01  0.51109989000E-03 0. -1.
     -623    1    1    2    0    0 -0.10680253382E-01 -0.44233805396E-02  0.16100711395E-02  0.17130000040E+03  0.17130000000E+03 0. -1.
      622    1    1    2    0    0  0.34395697693E-01 -0.28870202341E-01  0.14036199889E+01  0.14049076930E+01  0.40000000000E-01 0. -1.
</event>
<event>
 5   0  0.6200596E+07  0.9118800E+02  0.7818608E-02  0.1180000E+00
       11   -1    0    0    0    0  0.00000000000E+00  0.00000000000E+00  0.39999999673E+01  0.40000000000E+01  0.51109989000E-03 0.  1.
     -623   -1    0    0    0    0  0.00000000000E+00  0.00000000000E+00  0.12525980253E-10  0.17130000000E+03  0.17130000000E+03 0. -1.
       11    1    1    2    0    0  0.14926697269E-02  0.23607817505E-02  0.15238739294E+01  0.15238765748E+01  0.51109989000E-03 0.  1.
     -623    1    1    2    0    0 -0.17280467803E-02 -0.11252539970E-02  0.32605173331E-03  0.17130000001E+03  0.17130000000E+03 0. -1.
      622    1    1    2    0    0  0.23537705340E-03 -0.12355277535E-02  0.24757999862E+01  0.24761234124E+01  0.40000000000E-01 0.  1.
</event>
<event>
 5   0  0.6200596E+07  0.9118800E+02  0.7818608E-02  0.1180000E+00
       11   -1    0    0    0    0  0.00000000000E+00  0.00000000000E+00  0.39999999673E+01  0.40000000000E+01  0.51109989000E-03 0. -1.
     -623   -1    0    0    0    0  0.00000000000E+00  0.00000000000E+00  0.12525980253E-10  0.17130000000E+03  0.17130000000E+03 0. -1.
       11    1    1    2    0    0  0.36574590463E-01  0.26199132771E-01  0.19293274231E+00  0.19810956439E+00  0.51109989000E-03 0. -1.
     -623    1    1    2    0    0 -0.12538179650E-01 -0.74182899303E-02  0.55103030869E-02  0.17130000071E+03  0.17130000000E+03 0. -1.
      622    1    1    2    0    0 -0.24036410813E-01 -0.18780842840E-01  0.38015569220E+01  0.38018897275E+01  0.40000000000E-01 0. -1.
</event>
<event>
 5   0  0.6200596E+07  0.9118800E+02  0.7818608E-02  0.1180000E+00
       11   -1    0    0    0    0  0.00000000000E+00  0.00000000000E+00  0.39999999673E+01  0.40000000000E+01  0.51109989000E-03 0. -1.
     -623   -1    0    0    0    0  0.00000000000E+00  0.00000000000E+00  0.12525980253E-10  0.17130000000E+03  0.17130000000E+03 0. -1.
       11    1    1    2    0    0  0.86931773475E-03  0.38550971381E-02  0.10361721200E+00  0.10369380566E+00  0.51109989000E-03 0. -1.
     -623    1    1    2    0    0  0.75366428420E-03  0.59429663979E-03  0.28477069912E-03  0.17130000000E+03  0.17130000000E+03 0. -1.
      622    1    1    2    0    0 -0.16229820190E-02 -0.44493937779E-02  0.38960979847E+01  0.38963061914E+01  0.40000000000E-01 0. -1.
</event>
<event>
 5   0  0.6200596E+07  0.9118800E+02  0.7818608E-02  0.1180000E+00
       11   -1    0    0    0    0  0.00000000000E+00  0.00000000000E+00  0.39999999673E+01  0.40000000000E+01  0.51109989000E-03 0.  1.
     -623   -1    0    0    0    0  0.00000000000E+00  0.00000000000E+00  0.12525980253E-10  0.17130000000E+03  0.17130000000E+03 0. -1.
       11    1    1    2    0    0  0.56521464259E-02 -0.15215199167E-02  0.39951551909E+00  0.39955872284E+00  0.51109989000E-03 0.  1.
     -623    1    1    2    0    0  0.64510478787E-03 -0.11521878443E-02  0.27187843659E-03  0.17130000001E+03  0.17130000000E+03 0. -1.
      622    1    1    2    0    0 -0.62972512138E-02  0.26737077611E-02  0.36002125698E+01  0.36004412719E+01  0.40000000000E-01 0.  1.
</event>
<event>
 5   0  0.6200596E+07  0.9118800E+02  0.7818608E-02  0.1180000E+00
       11   -1    0    0    0    0  0.00000000000E+00  0.00000000000E+00  0.39999999673E+01  0.40000000000E+01  0.51109989000E-03 0. -1.
     -623   -1    0    0    0    0  0.00000000000E+00  0.00000000000E+00  0.12525980253E-10  0.17130000000E+03  0.17130000000E+03 0.  1.
       11    1    1    2    0    0  0.28588296807E-01 -0.51955637594E-02  0.15776302005E+01  0.15778978406E+01  0.51109989000E-03 0. -1.
     -623    1    1    2    0    0 -0.78002842313E-03 -0.47064153135E-03  0.76421579734E-03  0.17130000000E+03  0.17130000000E+03 0.  1.
      622    1    1    2    0    0 -0.27808268384E-01  0.56662052908E-02  0.24216055511E+01  0.24221021553E+01  0.40000000000E-01 0. -1.
</event>
<event>
 5   0  0.6200596E+07  0.9118800E+02  0.7818608E-02  0.1180000E+00
       11   -1    0    0    0    0  0.00000000000E+00  0.00000000000E+00  0.39999999673E+01  0.40000000000E+01  0.51109989000E-03 0. -1.
     -623   -1    0    0    0    0  0.00000000000E+00  0.00000000000E+00  0.12525980253E-10  0.17130000000E+03  0.17130000000E+03 0. -1.
       11    1    1    2    0    0 -0.37756892434E-02 -0.15858383467E-01  0.22127768793E+01  0.22128369852E+01  0.51109989000E-03 0. -1.
     -623    1    1    2    0    0  0.91382902873E-03  0.12745005437E-02  0.56958705758E-03  0.17130000001E+03  0.17130000000E+03 0. -1.
      622    1    1    2    0    0  0.28618602147E-02  0.14583882923E-01  0.17866535010E+01  0.17871630067E+01  0.40000000000E-01 0.  0.
</event>
<event>
 5   0  0.6200596E+07  0.9118800E+02  0.7818608E-02  0.1180000E+00
       11   -1    0    0    0    0  0.00000000000E+00  0.00000000000E+00  0.39999999673E+01  0.40000000000E+01  0.51109989000E-03 0.  1.
     -623   -1    0    0    0    0  0.00000000000E+00  0.00000000000E+00  0.12525980253E-10  0.17130000000E+03  0.17130000000E+03 0. -1.
       11    1    1    2    0    0  0.15910228805E-02 -0.31225876475E-02  0.85182880964E-01  0.85256473873E-01  0.51109989000E-03 0.  1.
     -623    1    1    2    0    0 -0.36558699819E-02  0.17579678310E-03  0.27961432482E-03  0.17130000004E+03  0.17130000000E+03 0. -1.
      622    1    1    2    0    0  0.20648471015E-02  0.29467908644E-02  0.39145374721E+01  0.39147434868E+01  0.40000000000E-01 0.  1.
</event>
<event>
 5   0  0.6200596E+07  0.9118800E+02  0.7818608E-02  0.1180000E+00
       11   -1    0    0    0    0  0.00000000000E+00  0.00000000000E+00  0.39999999673E+01  0.40000000000E+01  0.51109989000E-03 0.  1.
     -623   -1    0    0    0    0  0.00000000000E+00  0.00000000000E+00  0.12525980253E-10  0.17130000000E+03  0.17130000000E+03 0.  1.
       11    1    1    2    0    0  0.11104044450E-01 -0.71481740334E-02  0.55085659766E+00  0.55101510741E+00  0.51109989000E-03 0.  1.
     -623    1    1    2    0    0 -0.12264657765E-01  0.91740030258E-02  0.39191272239E-03  0.17130000069E+03  0.17130000000E+03 0.  1.
      622    1    1    2    0    0  0.11606133142E-02 -0.20258289924E-02  0.34487514570E+01  0.34489842074E+01  0.40000000000E-01 0.  1.
</event>
<event>
 5   0  0.6200596E+07  0.9118800E+02  0.7818608E-02  0.1180000E+00
       11   -1    0    0    0    0  0.00000000000E+00  0.00000000000E+00  0.39999999673E+01  0.40000000000E+01  0.51109989000E-03 0.  1.
     -623   -1    0    0    0    0  0.00000000000E+00  0.00000000000E+00  0.12525980253E-10  0.17130000000E+03  0.17130000000E+03 0.  1.
       11    1    1    2    0    0  0.28488297050E-01 -0.17436572741E-01  0.20301573295E+01  0.20304321365E+01  0.51109989000E-03 0.  1.
     -623    1    1    2    0    0 -0.27698871527E-03 -0.39915599176E-03  0.96387967113E-03  0.17130000000E+03  0.17130000000E+03 0.  1.
      622    1    1    2    0    0 -0.28211308334E-01  0.17835728733E-01  0.19688787582E+01  0.19695678601E+01  0.40000000000E-01 0.  1.
</event>
<event>
 5   0  0.6200596E+07  0.9118800E+02  0.7818608E-02  0.1180000E+00
       11   -1    0    0    0    0  0.00000000000E+00  0.00000000000E+00  0.39999999673E+01  0.40000000000E+01  0.51109989000E-03 0. -1.
     -623   -1    0    0    0    0  0.00000000000E+00  0.00000000000E+00  0.12525980253E-10  0.17130000000E+03  0.17130000000E+03 0.  1.
       11    1    1    2    0    0 -0.21115368779E-01  0.27939243633E-01  0.16508170904E+01  0.16511885984E+01  0.51109989000E-03 0. -1.
     -623    1    1    2    0    0  0.31384841809E-01 -0.14838883470E-01  0.77461060686E-03  0.17130000352E+03  0.17130000000E+03 0.  1.
      622    1    1    2    0    0 -0.10269473030E-01 -0.13100360163E-01  0.23484082663E+01  0.23488078821E+01  0.40000000000E-01 0. -1.
</event>
<event>
 5   0  0.6200596E+07  0.9118800E+02  0.7818608E-02  0.1180000E+00
       11   -1    0    0    0    0  0.00000000000E+00  0.00000000000E+00  0.39999999673E+01  0.40000000000E+01  0.51109989000E-03 0.  1.
     -623   -1    0    0    0    0  0.00000000000E+00  0.00000000000E+00  0.12525980253E-10  0.17130000000E+03  0.17130000000E+03 0.  1.
       11    1    1    2    0    0 -0.22764871301E-02 -0.37324893662E-02  0.38935810307E-01  0.39183828500E-01  0.51109989000E-03 0.  1.
     -623    1    1    2    0    0  0.10569046723E-01  0.75269930899E-02  0.46096033532E-03  0.17130000049E+03  0.17130000000E+03 0.  1.
      622    1    1    2    0    0 -0.82925595928E-02 -0.37945037237E-02  0.39606031967E+01  0.39608156795E+01  0.40000000000E-01 0.  1.
</event>
<event>
 5   0  0.6200596E+07  0.9118800E+02  0.7818608E-02  0.1180000E+00
       11   -1    0    0    0    0  0.00000000000E+00  0.00000000000E+00  0.39999999673E+01  0.40000000000E+01  0.51109989000E-03 0. -1.
     -623   -1    0    0    0    0  0.00000000000E+00  0.00000000000E+00  0.12525980253E-10  0.17130000000E+03  0.17130000000E+03 0. -1.
       11    1    1    2    0    0 -0.21917509012E-02 -0.11974816858E-02  0.42698659744E-02  0.49729981034E-02  0.51109989000E-03 0. -1.
     -623    1    1    2    0    0  0.35322806958E-02  0.23751689250E-02  0.90380725093E-03  0.17130000006E+03  0.17130000000E+03 0. -1.
      622    1    1    2    0    0 -0.13405297946E-02 -0.11776872391E-02  0.39948262941E+01  0.39950269466E+01  0.40000000000E-01 0. -1.
</event>
<event>
 5   0  0.6200596E+07  0.9118800E+02  0.7818608E-02  0.1180000E+00
       11   -1    0    0    0    0  0.00000000000E+00  0.00000000000E+00  0.39999999673E+01  0.40000000000E+01  0.51109989000E-03 0.  1.
     -623   -1    0    0    0    0  0.00000000000E+00  0.00000000000E+00  0.12525980253E-10  0.17130000000E+03  0.17130000000E+03 0. -1.
       11    1    1    2    0    0  0.87492500053E-02  0.25400945524E-02  0.70984675354E+00  0.70990539947E+00  0.51109989000E-03 0.  1.
     -623    1    1    2    0    0 -0.18705180201E-02 -0.10416522722E-02  0.30932264364E-03  0.17130000001E+03  0.17130000000E+03 0. -1.
      622    1    1    2    0    0 -0.68787319852E-02 -0.14984422801E-02  0.32898438912E+01  0.32900945869E+01  0.40000000000E-01 0.  0.
</event>
<event>
 5   0  0.6200596E+07  0.9118800E+02  0.7818608E-02  0.1180000E+00
       11   -1    0    0    0    0  0.00000000000E+00  0.00000000000E+00  0.39999999673E+01  0.40000000000E+01  0.51109989000E-03 0. -1.
     -623   -1    0    0    0    0  0.00000000000E+00  0.00000000000E+00  0.12525980253E-10  0.17130000000E+03  0.17130000000E+03 0.  1.
       11    1    1    2    0    0 -0.18622040947E-03 -0.10831540445E-02  0.47933701329E-01  0.47949023390E-01  0.51109989000E-03 0. -1.
     -623    1    1    2    0    0  0.43883193922E-04 -0.20038599066E-03  0.21793241276E-03  0.17130000000E+03  0.17130000000E+03 0.  1.
      622    1    1    2    0    0  0.14233721555E-03  0.12835400352E-02  0.39518483336E+01  0.39520509763E+01  0.40000000000E-01 0. -1.
</event>
<event>
 5   0  0.6200596E+07  0.9118800E+02  0.7818608E-02  0.1180000E+00
       11   -1    0    0    0    0  0.00000000000E+00  0.00000000000E+00  0.39999999673E+01  0.40000000000E+01  0.51109989000E-03 0.  1.
     -623   -1    0    0    0    0  0.00000000000E+00  0.00000000000E+00  0.12525980253E-10  0.17130000000E+03  0.17130000000E+03 0. -1.
       11    1    1    2    0    0  0.27153073699E-03 -0.27913724167E-02  0.14195179951E-01  0.14478599534E-01  0.51109989000E-03 0.  1.
     -623    1    1    2    0    0  0.13078267730E-02  0.20717818580E-02  0.48451467494E-03  0.17130000002E+03  0.17130000000E+03 0. -1.
      622    1    1    2    0    0 -0.15793575100E-02  0.71959055865E-03  0.39853202727E+01  0.39855213823E+01  0.40000000000E-01 0.  1.
</event>
<event>
 5   0  0.6200596E+07  0.9118800E+02  0.7818608E-02  0.1180000E+00
       11   -1    0    0    0    0  0.00000000000E+00  0.00000000000E+00  0.39999999673E+01  0.40000000000E+01  0.51109989000E-03 0. -1.
     -623   -1    0    0    0    0  0.00000000000E+00  0.00000000000E+00  0.12525980253E-10  0.17130000000E+03  0.17130000000E+03 0.  1.
       11    1    1    2    0    0  0.78538018149E-01 -0.32722180252E-01  0.56374532413E+00  0.57012982125E+00  0.51109989000E-03 0. -1.
     -623    1    1    2    0    0 -0.10076418219E-02 -0.36093391477E-01  0.81887958624E-02  0.17130000400E+03  0.17130000000E+03 0.  1.
      622    1    1    2    0    0 -0.77530376327E-01  0.68815571729E-01  0.34280658474E+01  0.34298661776E+01  0.40000000000E-01 0. -1.
</event>
<event>
 5   0  0.6200596E+07  0.9118800E+02  0.7818608E-02  0.1180000E+00
       11   -1    0    0    0    0  0.00000000000E+00  0.00000000000E+00  0.39999999673E+01  0.40000000000E+01  0.51109989000E-03 0. -1.
     -623   -1    0    0    0    0  0.00000000000E+00  0.00000000000E+00  0.12525980253E-10  0.17130000000E+03  0.17130000000E+03 0. -1.
       11    1    1    2    0    0 -0.70117469020E-02  0.74548685857E-03  0.62430372252E+00  0.62434375109E+00  0.51109989000E-03 0. -1.
     -623    1    1    2    0    0 -0.79976525283E-03 -0.48388876637E-03  0.28604697549E-03  0.17130000000E+03  0.17130000000E+03 0. -1.
      622    1    1    2    0    0  0.78115121549E-02 -0.26159809220E-03  0.33754101979E+01  0.33756562461E+01  0.40000000000E-01 0. -1.
</event>
<event>
 5   0  0.6200596E+07  0.9118800E+02  0.7818608E-02  0.1180000E+00
       11   -1    0    0    0    0  0.00000000000E+00  0.00000000000E+00  0.39999999673E+01  0.40000000000E+01  0.51109989000E-03 0. -1.
     -623   -1    0    0    0    0  0.00000000000E+00  0.00000000000E+00  0.12525980253E-10  0.17130000000E+03  0.17130000000E+03 0.  1.
       11    1    1    2    0    0  0.13560416935E-01  0.25262382446E-01  0.15847634833E+01  0.15850229122E+01  0.51109989000E-03 0. -1.
     -623    1    1    2    0    0 -0.10431580018E-01 -0.59845017963E-02  0.67009170149E-03  0.17130000042E+03  0.17130000000E+03 0.  1.
      622    1    1    2    0    0 -0.31288369170E-02 -0.19277880650E-01  0.24145663924E+01  0.24149766644E+01  0.40000000000E-01 0. -1.
</event>
<event>
 5   0  0.6200596E+07  0.9118800E+02  0.7818608E-02  0.1180000E+00
       11   -1    0    0    0    0  0.00000000000E+00  0.00000000000E+00  0.39999999673E+01  0.40000000000E+01  0.51109989000E-03 0.  1.
     -623   -1    0    0    0    0  0.00000000000E+00  0.00000000000E+00  0.12525980253E-10  0.17130000000E+03  0.17130000000E+03 0. -1.
       11    1    1    2    0    0  0.28799074185E-02 -0.47851693674E-02  0.24544991067E+00  0.24551397431E+00  0.51109989000E-03 0.  1.
     -623    1    1    2    0    0  0.77595856916E-03  0.40306128382E-05  0.28194192949E-03  0.17130000000E+03  0.17130000000E+03 0. -1.
      622    1    1    2    0    0 -0.36558659877E-02  0.47811387546E-02  0.37542681148E+01  0.37544860237E+01  0.40000000000E-01 0.  1.
</event>
<event>
 5   0  0.6200596E+07  0.9118800E+02  0.7818608E-02  0.1180000E+00
       11   -1    0    0    0    0  0.00000000000E+00  0.00000000000E+00  0.39999999673E+01  0.40000000000E+01  0.51109989000E-03 0. -1.
     -623   -1    0    0    0    0  0.00000000000E+00  0.00000000000E+00  0.12525980253E-10  0.17130000000E+03  0.17130000000E+03 0. -1.
       11    1    1    2    0    0  0.17229750407E-01 -0.18472429414E-01  0.70919708558E+00  0.70964699841E+00  0.51109989000E-03 0. -1.
     -623    1    1    2    0    0 -0.22173924582E-01  0.47057310284E-01  0.82881759588E-03  0.17130000790E+03  0.17130000000E+03 0. -1.
      622    1    1    2    0    0  0.49441741748E-02 -0.28584880870E-01  0.32899740642E+01  0.32903451009E+01  0.40000000000E-01 0. -1.
</event>
<event>
 5   0  0.6200596E+07  0.9118800E+02  0.7818608E-02  0.1180000E+00
       11   -1    0    0    0    0  0.00000000000E+00  0.00000000000E+00  0.39999999673E+01  0.40000000000E+01  0.51109989000E-03 0. -1.
     -623   -1    0    0    0    0  0.00000000000E+00  0.00000000000E+00  0.12525980253E-10  0.17130000000E+03  0.17130000000E+03 0.  1.
       11    1    1    2    0    0 -0.55776366992E-02 -0.91276863385E-03  0.68676955557E-02  0.89089640787E-02  0.51109989000E-03 0. -1.
     -623    1    1    2    0    0  0.75521796601E-02  0.36938933991E-02  0.22433658694E-02  0.17130000022E+03  0.17130000000E+03 0.  1.
      622    1    1    2    0    0 -0.19745429609E-02 -0.27811247652E-02  0.39908889059E+01  0.39910908149E+01  0.40000000000E-01 0. -1.
</event>
<event>
 5   0  0.6200596E+07  0.9118800E+02  0.7818608E-02  0.1180000E+00
       11   -1    0    0    0    0  0.00000000000E+00  0.00000000000E+00  0.39999999673E+01  0.40000000000E+01  0.51109989000E-03 0.  1.
     -623   -1    0    0    0    0  0.00000000000E+00  0.00000000000E+00  0.12525980253E-10  0.17130000000E+03  0.17130000000E+03 0.  1.
       11    1    1    2    0    0  0.16305050934E-03  0.57924282181E-02  0.36308715201E-01  0.36771766760E-01  0.51109989000E-03 0.  1.
     -623    1    1    2    0    0  0.20145474092E-03 -0.64144535104E-03  0.66824661477E-03  0.17130000000E+03  0.17130000000E+03 0.  1.
      622    1    1    2    0    0 -0.36450525027E-03 -0.51509828671E-02  0.39630230055E+01  0.39632282306E+01  0.40000000000E-01 0.  1.
</event>
<event>
 5   0  0.6200596E+07  0.9118800E+02  0.7818608E-02  0.1180000E+00
       11   -1    0    0    0    0  0.00000000000E+00  0.00000000000E+00  0.39999999673E+01  0.40000000000E+01  0.51109989000E-03 0. -1.
     -623   -1    0    0    0    0  0.00000000000E+00  0.00000000000E+00  0.12525980253E-10  0.17130000000E+03  0.17130000000E+03 0. -1.
       11    1    1    2    0    0 -0.64663728373E-02 -0.21570734318E-02  0.19486657966E+01  0.19486777863E+01  0.51109989000E-03 0. -1.
     -623    1    1    2    0    0  0.76253958211E-03 -0.35411334997E-02  0.41787267909E-03  0.17130000004E+03  0.17130000000E+03 0. -1.
      622    1    1    2    0    0  0.57038332552E-02  0.56982069315E-02  0.20509162981E+01  0.20513221749E+01  0.40000000000E-01 0. -1.
</event>
<event>
 5   0  0.6200596E+07  0.9118800E+02  0.7818608E-02  0.1180000E+00
       11   -1    0    0    0    0  0.00000000000E+00  0.00000000000E+00  0.39999999673E+01  0.40000000000E+01  0.51109989000E-03 0. -1.
     -623   -1    0    0    0    0  0.00000000000E+00  0.00000000000E+00  0.12525980253E-10  0.17130000000E+03  0.17130000000E+03 0.  1.
       11    1    1    2    0    0  0.76355725106E-02  0.47861614144E-02  0.16531930925E-01  0.18835479046E-01  0.51109989000E-03 0. -1.
     -623    1    1    2    0    0 -0.63797854527E-02  0.43383333228E-02  0.25153138949E-02  0.17130000019E+03  0.17130000000E+03 0.  1.
      622    1    1    2    0    0 -0.12557870579E-02 -0.91244947373E-02  0.39809527225E+01  0.39811643287E+01  0.40000000000E-01 0. -1.
</event>
<event>
 5   0  0.6200596E+07  0.9118800E+02  0.7818608E-02  0.1180000E+00
       11   -1    0    0    0    0  0.00000000000E+00  0.00000000000E+00  0.39999999673E+01  0.40000000000E+01  0.51109989000E-03 0. -1.
     -623   -1    0    0    0    0  0.00000000000E+00  0.00000000000E+00  0.12525980253E-10  0.17130000000E+03  0.17130000000E+03 0. -1.
       11    1    1    2    0    0 -0.11555193668E-02  0.14022033316E-01  0.24560142299E+01  0.24560545823E+01  0.51109989000E-03 0. -1.
     -623    1    1    2    0    0  0.45978300153E-03 -0.92350868007E-03  0.61430310444E-03  0.17130000000E+03  0.17130000000E+03 0. -1.
      622    1    1    2    0    0  0.69573636525E-03 -0.13098524636E-01  0.15433714343E+01  0.15439454135E+01  0.40000000000E-01 0.  0.
</event>
<event>
 5   0  0.6200596E+07  0.9118800E+02  0.7818608E-02  0.1180000E+00
       11   -1    0    0    0    0  0.00000000000E+00  0.00000000000E+00  0.39999999673E+01  0.40000000000E+01  0.51109989000E-03 0.  1.
     -623   -1    0    0    0    0  0.00000000000E+00  0.00000000000E+00  0.12525980253E-10  0.17130000000E+03  0.17130000000E+03 0.  1.
       11    1    1    2    0    0 -0.15667551614E-01 -0.36231214377E-01  0.13225419011E+01  0.13231309514E+01  0.51109989000E-03 0.  1.
     -623    1    1    2    0    0  0.49005866449E-01  0.12159232154E-01  0.12112282726E-02  0.17130000745E+03  0.17130000000E+03 0.  1.
      622    1    1    2    0    0 -0.33338314835E-01  0.24071982224E-01  0.26762468380E+01  0.26768616029E+01  0.40000000000E-01 0.  1.
</event>
<event>
 5   0  0.6200596E+07  0.9118800E+02  0.7818608E-02  0.1180000E+00
       11   -1    0    0    0    0  0.00000000000E+00  0.00000000000E+00  0.39999999673E+01  0.40000000000E+01  0.51109989000E-03 0.  1.
     -623   -1    0    0    0    0  0.00000000000E+00  0.00000000000E+00  0.12525980253E-10  0.17130000000E+03  0.17130000000E+03 0.  1.
       11    1    1    2    0    0 -0.69118231153E-04 -0.10492992391E-03  0.34556465557E-02  0.34954972779E-02  0.51109989000E-03 0.  1.
     -623    1    1    2    0    0 -0.85092449868E-03  0.67974243408E-03  0.24014890072E-03  0.17130000000E+03  0.17130000000E+03 0.  1.
      622    1    1    2    0    0  0.92004272984E-03 -0.57481251017E-03  0.39963041719E+01  0.39965044991E+01  0.40000000000E-01 0.  1.
</event>
<event>
 5   0  0.6200596E+07  0.9118800E+02  0.7818608E-02  0.1180000E+00
       11   -1    0    0    0    0  0.00000000000E+00  0.00000000000E+00  0.39999999673E+01  0.40000000000E+01  0.51109989000E-03 0.  1.
     -623   -1    0    0    0    0  0.00000000000E+00  0.00000000000E+00  0.12525980253E-10  0.17130000000E+03  0.17130000000E+03 0.  1.
       11    1    1    2    0    0  0.17958798855E-02  0.11083448575E-01  0.55134210581E+00  0.55145665911E+00  0.51109989000E-03 0.  1.
     -623    1    1    2    0    0  0.27105146378E-02 -0.10305242431E-02  0.36413375327E-03  0.17130000002E+03  0.17130000000E+03 0.  1.
      622    1    1    2    0    0 -0.45063945233E-02 -0.10052924332E-01  0.34482937278E+01  0.34485433160E+01  0.40000000000E-01 0.  1.
</event>
<event>
 5   0  0.6200596E+07  0.9118800E+02  0.7818608E-02  0.1180000E+00
       11   -1    0    0    0    0  0.00000000000E+00  0.00000000000E+00  0.39999999673E+01  0.40000000000E+01  0.51109989000E-03 0. -1.
     -623   -1    0    0    0    0  0.00000000000E+00  0.00000000000E+00  0.12525980253E-10  0.17130000000E+03  0.17130000000E+03 0. -1.
       11    1    1    2    0    0 -0.58134719283E-04 -0.88058146967E-03  0.71618552429E-02  0.72340994539E-02  0.51109989000E-03 0. -1.
     -623    1    1    2    0    0  0.88724495187E-03  0.94771289691E-03  0.27267074743E-03  0.17130000001E+03  0.17130000000E+03 0. -1.
      622    1    1    2    0    0 -0.82911023259E-03 -0.67131427236E-04  0.39925654414E+01  0.39927658954E+01  0.40000000000E-01 0. -1.
</event>
<event>
 5   0  0.6200596E+07  0.9118800E+02  0.7818608E-02  0.1180000E+00
       11   -1    0    0    0    0  0.00000000000E+00  0.00000000000E+00  0.39999999673E+01  0.40000000000E+01  0.51109989000E-03 0. -1.
     -623   -1    0    0    0    0  0.00000000000E+00  0.00000000000E+00  0.12525980253E-10  0.17130000000E+03  0.17130000000E+03 0. -1.
       11    1    1    2    0    0  0.55748726186E-02 -0.62369697754E-02  0.10397284179E+00  0.10431007645E+00  0.51109989000E-03 0. -1.
     -623    1    1    2    0    0 -0.18776136428E-02 -0.19200431604E-02  0.55287935705E-03  0.17130000002E+03  0.17130000000E+03 0. -1.
      622    1    1    2    0    0 -0.36972589758E-02  0.81570129358E-02  0.38954742462E+01  0.38956899016E+01  0.40000000000E-01 0. -1.
</event>
<event>
 5   0  0.6200596E+07  0.9118800E+02  0.7818608E-02  0.1180000E+00
       11   -1    0    0    0    0  0.00000000000E+00  0.00000000000E+00  0.39999999673E+01  0.40000000000E+01  0.51109989000E-03 0. -1.
     -623   -1    0    0    0    0  0.00000000000E+00  0.00000000000E+00  0.12525980253E-10  0.17130000000E+03  0.17130000000E+03 0. -1.
       11    1    1    2    0    0 -0.12762835328E-01  0.56261983082E-03  0.40037348134E+00  0.40057757337E+00  0.51109989000E-03 0. -1.
     -623    1    1    2    0    0 -0.19015519928E-02 -0.36176315438E-02  0.45754408446E-03  0.17130000005E+03  0.17130000000E+03 0. -1.
      622    1    1    2    0    0  0.14664387321E-01  0.30550117130E-02  0.35991689419E+01  0.35994223773E+01  0.40000000000E-01 0. -1.
</event>
<event>
 5   0  0.6200596E+07  0.9118800E+02  0.7818608E-02  0.1180000E+00
       11   -1    0    0    0    0  0.00000000000E+00  0.00000000000E+00  0.39999999673E+01  0.40000000000E+01  0.51109989000E-03 0. -1.
     -623   -1    0    0    0    0  0.00000000000E+00  0.00000000000E+00  0.12525980253E-10  0.17130000000E+03  0.17130000000E+03 0. -1.
       11    1    1    2    0    0  0.78693149840E-02  0.19446423994E-01  0.15621828650E+00  0.15762139380E+00  0.51109989000E-03 0. -1.
     -623    1    1    2    0    0  0.45030965407E-02 -0.15479245742E-02  0.16729695994E-02  0.17130000007E+03  0.17130000000E+03 0. -1.
      622    1    1    2    0    0 -0.12372411525E-01 -0.17898499420E-01  0.38421087113E+01  0.38423785318E+01  0.40000000000E-01 0. -1.
</event>
<event>
 5   0  0.6200596E+07  0.9118800E+02  0.7818608E-02  0.1180000E+00
       11   -1    0    0    0    0  0.00000000000E+00  0.00000000000E+00  0.39999999673E+01  0.40000000000E+01  0.51109989000E-03 0. -1.
     -623   -1    0    0    0    0  0.00000000000E+00  0.00000000000E+00  0.12525980253E-10  0.17130000000E+03  0.17130000000E+03 0. -1.
       11    1    1    2    0    0 -0.15753160236E-02  0.50518178179E-02  0.14163993023E+00  0.14173966820E+00  0.51109989000E-03 0. -1.
     -623    1    1    2    0    0  0.12912324567E-02 -0.23976343552E-03  0.31007499126E-03  0.17130000001E+03  0.17130000000E+03 0. -1.
      622    1    1    2    0    0  0.28408356690E-03 -0.48120543824E-02  0.38580499621E+01  0.38582603265E+01  0.40000000000E-01 0. -1.
</event>
<event>
 5   0  0.6200596E+07  0.9118800E+02  0.7818608E-02  0.1180000E+00
       11   -1    0    0    0    0  0.00000000000E+00  0.00000000000E+00  0.39999999673E+01  0.40000000000E+01  0.51109989000E-03 0.  1.
     -623   -1    0    0    0    0  0.00000000000E+00  0.00000000000E+00  0.12525980253E-10  0.17130000000E+03  0.17130000000E+03 0.  1.
       11    1    1    2    0    0  0.30592117113E-02 -0.20103349593E-01  0.85089767508E+00  0.85114077456E+00  0.51109989000E-03 0.  1.
     -623    1    1    2    0    0  0.21371144201E-02  0.34678474947E-02  0.54542136047E-03  0.17130000005E+03  0.17130000000E+03 0.  1.
      622    1    1    2    0    0 -0.51963261314E-02  0.16635502098E-01  0.31485568709E+01  0.31488591761E+01  0.40000000000E-01 0.  1.
</event>
<event>
 5   0  0.6200596E+07  0.9118800E+02  0.7818608E-02  0.1180000E+00
       11   -1    0    0    0    0  0.00000000000E+00  0.00000000000E+00  0.39999999673E+01  0.40000000000E+01  0.51109989000E-03 0. -1.
     -623   -1    0    0    0    0  0.00000000000E+00  0.00000000000E+00  0.12525980253E-10  0.17130000000E+03  0.17130000000E+03 0.  1.
       11    1    1    2    0    0  0.84171344413E-03 -0.11017539261E-02  0.58899933833E-02  0.60725271633E-02  0.51109989000E-03 0. -1.
     -623    1    1    2    0    0 -0.18915256266E-02  0.30771145059E-03  0.38303831564E-03  0.17130000001E+03  0.17130000000E+03 0.  1.
      622    1    1    2    0    0  0.10498121824E-02  0.79404247551E-03  0.39937269357E+01  0.39939274617E+01  0.40000000000E-01 0. -1.
</event>
<event>
 5   0  0.6200596E+07  0.9118800E+02  0.7818608E-02  0.1180000E+00
       11   -1    0    0    0    0  0.00000000000E+00  0.00000000000E+00  0.39999999673E+01  0.40000000000E+01  0.51109989000E-03 0.  1.
     -623   -1    0    0    0    0  0.00000000000E+00  0.00000000000E+00  0.12525980253E-10  0.17130000000E+03  0.17130000000E+03 0.  1.
       11    1    1    2    0    0  0.33167185503E-01  0.11201741956E-01  0.22518312105E+01  0.22521033730E+01  0.51109989000E-03 0.  1.
     -623    1    1    2    0    0 -0.26594671629E-01  0.22425749992E-02  0.79604441743E-03  0.17130000208E+03  0.17130000000E+03 0.  1.
      622    1    1    2    0    0 -0.65725138742E-02 -0.13444316956E-01  0.17473727125E+01  0.17478945460E+01  0.40000000000E-01 0.  1.
</event>
<event>
 5   0  0.6200596E+07  0.9118800E+02  0.7818608E-02  0.1180000E+00
       11   -1    0    0    0    0  0.00000000000E+00  0.00000000000E+00  0.39999999673E+01  0.40000000000E+01  0.51109989000E-03 0. -1.
     -623   -1    0    0    0    0  0.00000000000E+00  0.00000000000E+00  0.12525980253E-10  0.17130000000E+03  0.17130000000E+03 0.  1.
       11    1    1    2    0    0 -0.56942054240E-04  0.59766816702E-03  0.39751138651E-02  0.40525549348E-02  0.51109989000E-03 0. -1.
     -623    1    1    2    0    0 -0.57797615922E-03 -0.17087648886E-02  0.27783092679E-03  0.17130000001E+03  0.17130000000E+03 0.  1.
      622    1    1    2    0    0  0.63491821346E-03  0.11110967215E-02  0.39957470226E+01  0.39959474353E+01  0.40000000000E-01 0. -1.
</event>
<event>
 5   0  0.6200596E+07  0.9118800E+02  0.7818608E-02  0.1180000E+00
       11   -1    0    0    0    0  0.00000000000E+00  0.00000000000E+00  0.39999999673E+01  0.40000000000E+01  0.51109989000E-03 0.  1.
     -623   -1    0    0    0    0  0.00000000000E+00  0.00000000000E+00  0.12525980253E-10  0.17130000000E+03  0.17130000000E+03 0.  1.
       11    1    1    2    0    0 -0.44916710723E-01 -0.72619730462E-01  0.66085620968E+00  0.66635000356E+00  0.51109989000E-03 0.  1.
     -623    1    1    2    0    0  0.35125054187E-01  0.38218434450E-01  0.59336154663E-02  0.17130000797E+03  0.17130000000E+03 0.  1.
      622    1    1    2    0    0  0.97916565359E-02  0.34401296012E-01  0.33332101422E+01  0.33336420291E+01  0.40000000000E-01 0.  1.
</event>
<event>
 5   0  0.6200596E+07  0.9118800E+02  0.7818608E-02  0.1180000E+00
       11   -1    0    0    0    0  0.00000000000E+00  0.00000000000E+00  0.39999999673E+01  0.40000000000E+01  0.51109989000E-03 0.  1.
     -623   -1    0    0    0    0  0.00000000000E+00  0.00000000000E+00  0.12525980253E-10  0.17130000000E+03  0.17130000000E+03 0. -1.
       11    1    1    2    0    0 -0.13522038717E-03 -0.45349013081E-03  0.10379098552E-01  0.10402444229E-01  0.51109989000E-03 0.  1.
     -623    1    1    2    0    0 -0.38097188948E-03 -0.56898793053E-03  0.22400549535E-03  0.17130000000E+03  0.17130000000E+03 0. -1.
      622    1    1    2    0    0  0.51619227666E-03  0.10224780613E-02  0.39893968633E+01  0.39895975543E+01  0.40000000000E-01 0.  1.
</event>
<event>
 5   0  0.6200596E+07  0.9118800E+02  0.7818608E-02  0.1180000E+00
       11   -1    0    0    0    0  0.00000000000E+00  0.00000000000E+00  0.39999999673E+01  0.40000000000E+01  0.51109989000E-03 0. -1.
     -623   -1    0    0    0    0  0.00000000000E+00  0.00000000000E+00  0.12525980253E-10  0.17130000000E+03  0.17130000000E+03 0.  1.
       11    1    1    2    0    0  0.79906422673E-03  0.80598952454E-03  0.14253621346E-01  0.14307867271E-01  0.51109989000E-03 0. -1.
     -623    1    1    2    0    0 -0.49699438319E-04  0.14237499297E-02  0.25563659428E-03  0.17130000001E+03  0.17130000000E+03 0.  1.
      622    1    1    2    0    0 -0.74936478841E-03 -0.22297394542E-02  0.39854907094E+01  0.39856921266E+01  0.40000000000E-01 0. -1.
</event>
<event>
 5   0  0.6200596E+07  0.9118800E+02  0.7818608E-02  0.1180000E+00
       11   -1    0    0    0    0  0.00000000000E+00  0.00000000000E+00  0.39999999673E+01  0.40000000000E+01  0.51109989000E-03 0.  1.
     -623   -1    0    0    0    0  0.00000000000E+00  0.00000000000E+00  0.12525980253E-10  0.17130000000E+03  0.17130000000E+03 0.  1.
       11    1    1    2    0    0 -0.81031406133E-02  0.12292366191E-02  0.13588081417E+00  0.13612872141E+00  0.51109989000E-03 0.  1.
     -623    1    1    2    0    0  0.30352273006E-02  0.95685910012E-02  0.47363339657E-03  0.17130000029E+03  0.17130000000E+03 0.  1.
      622    1    1    2    0    0  0.50679133127E-02 -0.10797827620E-01  0.38636455198E+01  0.38638709838E+01  0.40000000000E-01 0.  1.
</event>
<event>
 5   0  0.6200596E+07  0.9118800E+02  0.7818608E-02  0.1180000E+00
       11   -1    0    0    0    0  0.00000000000E+00  0.00000000000E+00  0.39999999673E+01  0.40000000000E+01  0.51109989000E-03 0.  1.
     -623   -1    0    0    0    0  0.00000000000E+00  0.00000000000E+00  0.12525980253E-10  0.17130000000E+03  0.17130000000E+03 0. -1.
       11    1    1    2    0    0  0.51596304832E-02  0.61157625560E-02  0.27136209395E+00  0.27148051789E+00  0.51109989000E-03 0.  1.
     -623    1    1    2    0    0 -0.71020064697E-04  0.22588283143E-03  0.34182638096E-03  0.17130000000E+03  0.17130000000E+03 0. -1.
      622    1    1    2    0    0 -0.50886104185E-02 -0.63416453874E-02  0.37282960470E+01  0.37285194816E+01  0.40000000000E-01 0.  1.
</event>
<event>
 5   0  0.6200596E+07  0.9118800E+02  0.7818608E-02  0.1180000E+00
       11   -1    0    0    0    0  0.00000000000E+00  0.00000000000E+00  0.39999999673E+01  0.40000000000E+01  0.51109989000E-03 0.  1.
     -623   -1    0    0    0    0  0.00000000000E+00  0.00000000000E+00  0.12525980253E-10  0.17130000000E+03  0.17130000000E+03 0.  1.
       11    1    1    2    0    0 -0.14810936180E-03 -0.11895944235E-03  0.66618896421E-02  0.66841665809E-02  0.51109989000E-03 0.  1.
     -623    1    1    2    0    0  0.66580401403E-03  0.27149229860E-02  0.22348443644E-03  0.17130000002E+03  0.17130000000E+03 0.  1.
      622    1    1    2    0    0 -0.51769465223E-03 -0.25959635436E-02  0.39931145933E+01  0.39933158105E+01  0.40000000000E-01 0.  1.
</event>
<event>
 5   0  0.6200596E+07  0.9118800E+02  0.7818608E-02  0.1180000E+00
       11   -1    0    0    0    0  0.00000000000E+00  0.00000000000E+00  0.39999999673E+01  0.40000000000E+01  0.51109989000E-03 0. -1.
     -623   -1    0    0    0    0  0.00000000000E+00  0.00000000000E+00  0.12525980253E-10  0.17130000000E+03  0.17130000000E+03 0.  1.
       11    1    1    2    0    0  0.12654088232E-02  0.15360267028E-03  0.63579367279E-02  0.65045702780E-02  0.51109989000E-03 0. -1.
     -623    1    1    2    0    0 -0.52080392924E-03 -0.10312970083E-02  0.34710181680E-03  0.17130000000E+03  0.17130000000E+03 0.  1.
      622    1    1    2    0    0 -0.74460489398E-03  0.87769433801E-03  0.39932949288E+01  0.39934954255E+01  0.40000000000E-01 0. -1.
</event>
<event>
 5   0  0.6200596E+07  0.9118800E+02  0.7818608E-02  0.1180000E+00
       11   -1    0    0    0    0  0.00000000000E+00  0.00000000000E+00  0.39999999673E+01  0.40000000000E+01  0.51109989000E-03 0.  1.
     -623   -1    0    0    0    0  0.00000000000E+00  0.00000000000E+00  0.12525980253E-10  0.17130000000E+03  0.17130000000E+03 0.  1.
       11    1    1    2    0    0 -0.91177768770E-02  0.12558727060E-01  0.72030373065E+00  0.72047108276E+00  0.51109989000E-03 0.  1.
     -623    1    1    2    0    0 -0.30996975543E-03 -0.41166981185E-03  0.44731710892E-03  0.17130000000E+03  0.17130000000E+03 0.  1.
      622    1    1    2    0    0  0.94277466324E-02 -0.12147057248E-01  0.32792489196E+01  0.32795289159E+01  0.40000000000E-01 0.  1.
</event>
<event>
 5   0  0.6200596E+07  0.9118800E+02  0.7818608E-02  0.1180000E+00
       11   -1    0    0    0    0  0.00000000000E+00  0.00000000000E+00  0.39999999673E+01  0.40000000000E+01  0.51109989000E-03 0. -1.
     -623   -1    0    0    0    0  0.00000000000E+00  0.00000000000E+00  0.12525980253E-10  0.17130000000E+03  0.17130000000E+03 0.  1.
       11    1    1    2    0    0 -0.68117669835E-02 -0.87424493913E-02  0.13677264991E+01  0.13677714970E+01  0.51109989000E-03 0. -1.
     -623    1    1    2    0    0  0.18742780709E-02 -0.56008030649E-02  0.39272520531E-03  0.17130000010E+03  0.17130000000E+03 0.  1.
      622    1    1    2    0    0  0.49374889126E-02  0.14343252456E-01  0.26318807431E+01  0.26322284007E+01  0.40000000000E-01 0. -1.
</event>
<event>
 5   0  0.6200596E+07  0.9118800E+02  0.7818608E-02  0.1180000E+00
       11   -1    0    0    0    0  0.00000000000E+00  0.00000000000E+00  0.39999999673E+01  0.40000000000E+01  0.51109989000E-03 0. -1.
     -623   -1    0    0    0    0  0.00000000000E+00  0.00000000000E+00  0.12525980253E-10  0.17130000000E+03  0.17130000000E+03 0.  1.
       11    1    1    2    0    0 -0.33778741914E-02 -0.92562216279E-03  0.13099297013E-02  0.37741154314E-02  0.51109989000E-03 0. -1.
     -623    1    1    2    0    0  0.40965228575E-02  0.46854355629E-02  0.26663142111E-02  0.17130000013E+03  0.17130000000E+03 0.  1.
      622    1    1    2    0    0 -0.71864866608E-03 -0.37598134001E-02  0.39960237234E+01  0.39962257508E+01  0.40000000000E-01 0. -1.
</event>
<event>
 5   0  0.6200596E+07  0.9118800E+02  0.7818608E-02  0.1180000E+00
       11   -1    0    0    0    0  0.00000000000E+00  0.00000000000E+00  0.39999999673E+01  0.40000000000E+01  0.51109989000E-03 0.  1.
     -623   -1    0    0    0    0  0.00000000000E+00  0.00000000000E+00  0.12525980253E-10  0.17130000000E+03  0.17130000000E+03 0. -1.
       11    1    1    2    0    0  0.26287426443E-02  0.89106116289E-03  0.32402914518E-01  0.32525595584E-01  0.51109989000E-03 0.  1.
     -623    1    1    2    0    0 -0.92338374494E-03  0.24129149303E-03  0.32482425893E-03  0.17130000000E+03  0.17130000000E+03 0. -1.
      622    1    1    2    0    0 -0.17053588993E-02 -0.11323526559E-02  0.39672722286E+01  0.39674744014E+01  0.40000000000E-01 0.  1.
</event>
<event>
 5   0  0.6200596E+07  0.9118800E+02  0.7818608E-02  0.1180000E+00
       11   -1    0    0    0    0  0.00000000000E+00  0.00000000000E+00  0.39999999673E+01  0.40000000000E+01  0.51109989000E-03 0.  1.
     -623   -1    0    0    0    0  0.00000000000E+00  0.00000000000E+00  0.12525980253E-10  0.17130000000E+03  0.17130000000E+03 0.  1.
       11    1    1    2    0    0  0.20264071318E-02 -0.43356335659E-02  0.13800750625E+00  0.13809140830E+00  0.51109989000E-03 0.  1.
     -623    1    1    2    0    0  0.83991408509E-03  0.22123620468E-02  0.29269049565E-03  0.17130000002E+03  0.17130000000E+03 0.  1.
      622    1    1    2    0    0 -0.28663212169E-02  0.21232715191E-02  0.38616997706E+01  0.38619085751E+01  0.40000000000E-01 0.  1.
</event>
<event>
 5   0  0.6200596E+07  0.9118800E+02  0.7818608E-02  0.1180000E+00
       11   -1    0    0    0    0  0.00000000000E+00  0.00000000000E+00  0.39999999673E+01  0.40000000000E+01  0.51109989000E-03 0.  1.
     -623   -1    0    0    0    0  0.00000000000E+00  0.00000000000E+00  0.12525980253E-10  0.17130000000E+03  0.17130000000E+03 0.  1.
       11    1    1    2    0    0  0.56798410740E-03  0.71612398603E-02  0.25874639449E+00  0.25884660293E+00  0.51109989000E-03 0.  1.
     -623    1    1    2    0    0 -0.71260772643E-03  0.52865273843E-03  0.32192879892E-03  0.17130000000E+03  0.17130000000E+03 0.  1.
      622    1    1    2    0    0  0.14462361904E-03 -0.76898925988E-02  0.37409316441E+01  0.37411533945E+01  0.40000000000E-01 0.  1.
</event>
<event>
 5   0  0.6200596E+07  0.9118800E+02  0.7818608E-02  0.1180000E+00
       11   -1    0    0    0    0  0.00000000000E+00  0.00000000000E+00  0.39999999673E+01  0.40000000000E+01  0.51109989000E-03 0. -1.
     -623   -1    0    0    0    0  0.00000000000E+00  0.00000000000E+00  0.12525980253E-10  0.17130000000E+03  0.17130000000E+03 0. -1.
       11    1    1    2    0    0 -0.54146464101E-02 -0.51427370540E-02  0.70632388635E+00  0.70636354648E+00  0.51109989000E-03 0. -1.
     -623    1    1    2    0    0 -0.31234432040E-02  0.42572508698E-04  0.29757436855E-03  0.17130000003E+03  0.17130000000E+03 0. -1.
      622    1    1    2    0    0  0.85380896141E-02  0.51001645454E-02  0.32933785066E+01  0.32936364248E+01  0.40000000000E-01 0. -1.
</event>
<event>
 5   0  0.6200596E+07  0.9118800E+02  0.7818608E-02  0.1180000E+00
       11   -1    0    0    0    0  0.00000000000E+00  0.00000000000E+00  0.39999999673E+01  0.40000000000E+01  0.51109989000E-03 0. -1.
     -623   -1    0    0    0    0  0.00000000000E+00  0.00000000000E+00  0.12525980253E-10  0.17130000000E+03  0.17130000000E+03 0. -1.
       11    1    1    2    0    0 -0.94746228862E-03 -0.14582916637E-02  0.21075428225E-01  0.21153231337E-01  0.51109989000E-03 0. -1.
     -623    1    1    2    0    0  0.37387606486E-02 -0.14154592824E-03  0.28018072542E-03  0.17130000004E+03  0.17130000000E+03 0. -1.
      622    1    1    2    0    0 -0.27912983600E-02  0.15998375919E-02  0.39786443584E+01  0.39788467276E+01  0.40000000000E-01 0. -1.
</event>
<event>
 5   0  0.6200596E+07  0.9118800E+02  0.7818608E-02  0.1180000E+00
       11   -1    0    0    0    0  0.00000000000E+00  0.00000000000E+00  0.39999999673E+01  0.40000000000E+01  0.51109989000E-03 0. -1.
     -623   -1    0    0    0    0  0.00000000000E+00  0.00000000000E+00  0.12525980253E-10  0.17130000000E+03  0.17130000000E+03 0. -1.
       11    1    1    2    0    0  0.39206176923E-02 -0.78039666012E-02  0.67216884594E-01  0.67783802893E-01  0.51109989000E-03 0. -1.
     -623    1    1    2    0    0  0.12961986215E-02  0.16902223699E-02  0.77856729491E-03  0.17130000002E+03  0.17130000000E+03 0. -1.
      622    1    1    2    0    0 -0.52168163138E-02  0.61137442313E-02  0.39320045155E+01  0.39322161821E+01  0.40000000000E-01 0. -1.
</event>
<event>
 5   0  0.6200596E+07  0.9118800E+02  0.7818608E-02  0.1180000E+00
       11   -1    0    0    0    0  0.00000000000E+00  0.00000000000E+00  0.39999999673E+01  0.40000000000E+01  0.51109989000E-03 0.  1.
     -623   -1    0    0    0    0  0.00000000000E+00  0.00000000000E+00  0.12525980253E-10  0.17130000000E+03  0.17130000000E+03 0. -1.
       11    1    1    2    0    0  0.21245103149E-02  0.11255753789E-02  0.73128777467E-01  0.73170074349E-01  0.51109989000E-03 0.  1.
     -623    1    1    2    0    0  0.72286170383E-05 -0.98074028540E-03  0.24558050859E-03  0.17130000000E+03  0.17130000000E+03 0. -1.
      622    1    1    2    0    0 -0.21317389319E-02 -0.14483509346E-03  0.39266256094E+01  0.39268299227E+01  0.40000000000E-01 0.  1.
</event>
<event>
 5   0  0.6200596E+07  0.9118800E+02  0.7818608E-02  0.1180000E+00
       11   -1    0    0    0    0  0.00000000000E+00  0.00000000000E+00  0.39999999673E+01  0.40000000000E+01  0.51109989000E-03 0.  1.
     -623   -1    0    0    0    0  0.00000000000E+00  0.00000000000E+00  0.12525980253E-10  0.17130000000E+03  0.17130000000E+03 0.  1.
       11    1    1    2    0    0 -0.29602440449E-03 -0.16461402361E-02  0.59122798550E-01  0.59148659639E-01  0.51109989000E-03 0.  1.
     -623    1    1    2    0    0  0.60030893798E-02 -0.40823690579E-02  0.23728591489E-03  0.17130000015E+03  0.17130000000E+03 0.  1.
      622    1    1    2    0    0 -0.57070649754E-02  0.57285092940E-02  0.39406398829E+01  0.39408511864E+01  0.40000000000E-01 0.  1.
</event>
<event>
 5   0  0.6200596E+07  0.9118800E+02  0.7818608E-02  0.1180000E+00
       11   -1    0    0    0    0  0.00000000000E+00  0.00000000000E+00  0.39999999673E+01  0.40000000000E+01  0.51109989000E-03 0.  1.
     -623   -1    0    0    0    0  0.00000000000E+00  0.00000000000E+00  0.12525980253E-10  0.17130000000E+03  0.17130000000E+03 0.  1.
       11    1    1    2    0    0  0.94775722841E-03 -0.66121864815E-03  0.24336315579E-01  0.24369097873E-01  0.51109989000E-03 0.  1.
     -623    1    1    2    0    0 -0.20105761501E-02 -0.21745156580E-02  0.23515989131E-03  0.17130000003E+03  0.17130000000E+03 0.  1.
      622    1    1    2    0    0  0.10628189217E-02  0.28357343061E-02  0.39754284919E+01  0.39756308764E+01  0.40000000000E-01 0.  1.
</event>
<event>
 5   0  0.6200596E+07  0.9118800E+02  0.7818608E-02  0.1180000E+00
       11   -1    0    0    0    0  0.00000000000E+00  0.00000000000E+00  0.39999999673E+01  0.40000000000E+01  0.51109989000E-03 0.  1.
     -623   -1    0    0    0    0  0.00000000000E+00  0.00000000000E+00  0.12525980253E-10  0.17130000000E+03  0.17130000000E+03 0. -1.
       11    1    1    2    0    0 -0.10433798818E-02 -0.76840180169E-02  0.44239393826E-01  0.44916789329E-01  0.51109989000E-03 0.  1.
     -623    1    1    2    0    0 -0.10736619749E-02 -0.16161445026E-02  0.89115430108E-03  0.17130000001E+03  0.17130000000E+03 0. -1.
      622    1    1    2    0    0  0.21170418568E-02  0.93001625195E-02  0.39548694192E+01  0.39550831974E+01  0.40000000000E-01 0.  1.
</event>
<event>
 5   0  0.6200596E+07  0.9118800E+02  0.7818608E-02  0.1180000E+00
       11   -1    0    0    0    0  0.00000000000E+00  0.00000000000E+00  0.39999999673E+01  0.40000000000E+01  0.51109989000E-03 0.  1.
     -623   -1    0    0    0    0  0.00000000000E+00  0.00000000000E+00  0.12525980253E-10  0.17130000000E+03  0.17130000000E+03 0.  1.
       11    1    1    2    0    0 -0.45669404513E-02 -0.18187193517E-01  0.87123762708E+00  0.87143955328E+00  0.51109989000E-03 0.  1.
     -623    1    1    2    0    0  0.68829555265E-02 -0.53318307724E-02  0.54710304628E-03  0.17130000022E+03  0.17130000000E+03 0.  1.
      622    1    1    2    0    0 -0.23160150752E-02  0.23519024290E-01  0.31282152372E+01  0.31285602246E+01  0.40000000000E-01 0. -1.
</event>
<event>
 5   0  0.6200596E+07  0.9118800E+02  0.7818608E-02  0.1180000E+00
       11   -1    0    0    0    0  0.00000000000E+00  0.00000000000E+00  0.39999999673E+01  0.40000000000E+01  0.51109989000E-03 0. -1.
     -623   -1    0    0    0    0  0.00000000000E+00  0.00000000000E+00  0.12525980253E-10  0.17130000000E+03  0.17130000000E+03 0. -1.
       11    1    1    2    0    0  0.10308315376E-02  0.86431424547E-02  0.91631511481E+00  0.91635659946E+00  0.51109989000E-03 0. -1.
     -623    1    1    2    0    0  0.11065371598E-01 -0.92658312148E-02  0.32529449509E-03  0.17130000061E+03  0.17130000000E+03 0. -1.
      622    1    1    2    0    0 -0.12096203136E-01  0.62268876008E-03  0.30833595581E+01  0.30836427922E+01  0.40000000000E-01 0. -1.
</event>
<event>
 5   0  0.6200596E+07  0.9118800E+02  0.7818608E-02  0.1180000E+00
       11   -1    0    0    0    0  0.00000000000E+00  0.00000000000E+00  0.39999999673E+01  0.40000000000E+01  0.51109989000E-03 0.  1.
     -623   -1    0    0    0    0  0.00000000000E+00  0.00000000000E+00  0.12525980253E-10  0.17130000000E+03  0.17130000000E+03 0. -1.
       11    1    1    2    0    0 -0.99763944470E-03 -0.49254922409E-02  0.56086718053E+00  0.56088992786E+00  0.51109989000E-03 0.  1.
     -623    1    1    2    0    0  0.11817643194E-02  0.15656037895E-03  0.25865685565E-03  0.17130000000E+03  0.17130000000E+03 0. -1.
      622    1    1    2    0    0 -0.18412487469E-03  0.47689318620E-02  0.34388741300E+01  0.34391100678E+01  0.40000000000E-01 0.  1.
</event>
<event>
 5   0  0.6200596E+07  0.9118800E+02  0.7818608E-02  0.1180000E+00
       11   -1    0    0    0    0  0.00000000000E+00  0.00000000000E+00  0.39999999673E+01  0.40000000000E+01  0.51109989000E-03 0. -1.
     -623   -1    0    0    0    0  0.00000000000E+00  0.00000000000E+00  0.12525980253E-10  0.17130000000E+03  0.17130000000E+03 0. -1.
       11    1    1    2    0    0 -0.17084286514E-01 -0.11316521949E-01  0.17472460971E+01  0.17473663387E+01  0.51109989000E-03 0. -1.
     -623    1    1    2    0    0 -0.12662154402E-01 -0.11630753489E-03  0.70130943215E-03  0.17130000047E+03  0.17130000000E+03 0. -1.
      622    1    1    2    0    0  0.29746440915E-01  0.11432829484E-01  0.22520525608E+01  0.22526331919E+01  0.40000000000E-01 0.  0.
</event>
<event>
 5   0  0.6200596E+07  0.9118800E+02  0.7818608E-02  0.1180000E+00
       11   -1    0    0    0    0  0.00000000000E+00  0.00000000000E+00  0.39999999673E+01  0.40000000000E+01  0.51109989000E-03 0. -1.
     -623   -1    0    0    0    0  0.00000000000E+00  0.00000000000E+00  0.12525980253E-10  0.17130000000E+03  0.17130000000E+03 0.  1.
       11    1    1    2    0    0 -0.20572593676E-02 -0.10317591661E-02  0.46886031241E-02  0.52479579598E-02  0.51109989000E-03 0. -1.
     -623    1    1    2    0    0  0.18500749632E-02 -0.92756226994E-03  0.76009004207E-03  0.17130000001E+03  0.17130000000E+03 0.  1.
      622    1    1    2    0    0  0.20718440443E-03  0.19593214360E-02  0.39945512742E+01  0.39947520279E+01  0.40000000000E-01 0. -1.
</event>
<event>
 5   0  0.6200596E+07  0.9118800E+02  0.7818608E-02  0.1180000E+00
       11   -1    0    0    0    0  0.00000000000E+00  0.00000000000E+00  0.39999999673E+01  0.40000000000E+01  0.51109989000E-03 0. -1.
     -623   -1    0    0    0    0  0.00000000000E+00  0.00000000000E+00  0.12525980253E-10  0.17130000000E+03  0.17130000000E+03 0.  1.
       11    1    1    2    0    0 -0.49919849769E-03 -0.44839615522E-02  0.12688925786E+00  0.12697046937E+00  0.51109989000E-03 0. -1.
     -623    1    1    2    0    0  0.39813950708E-02  0.10027640284E-01  0.29361425104E-03  0.17130000034E+03  0.17130000000E+03 0.  1.
      622    1    1    2    0    0 -0.34821965732E-02 -0.55436787318E-02  0.38728170952E+01  0.38730291906E+01  0.40000000000E-01 0. -1.
</event>
<event>
 5   0  0.6200596E+07  0.9118800E+02  0.7818608E-02  0.1180000E+00
       11   -1    0    0    0    0  0.00000000000E+00  0.00000000000E+00  0.39999999673E+01  0.40000000000E+01  0.51109989000E-03 0.  1.
     -623   -1    0    0    0    0  0.00000000000E+00  0.00000000000E+00  0.12525980253E-10  0.17130000000E+03  0.17130000000E+03 0. -1.
       11    1    1    2    0    0  0.93713990590E-02 -0.11439157380E-01  0.97416058778E-01  0.98533381000E-01  0.51109989000E-03 0.  1.
     -623    1    1    2    0    0 -0.59469840972E-02 -0.51355638888E-02  0.13592440819E-02  0.17130000019E+03  0.17130000000E+03 0. -1.
      622    1    1    2    0    0 -0.34244149618E-02  0.16574721269E-01  0.39012246645E+01  0.39014664334E+01  0.40000000000E-01 0.  1.
</event>
<event>
 5   0  0.6200596E+07  0.9118800E+02  0.7818608E-02  0.1180000E+00
       11   -1    0    0    0    0  0.00000000000E+00  0.00000000000E+00  0.39999999673E+01  0.40000000000E+01  0.51109989000E-03 0. -1.
     -623   -1    0    0    0    0  0.00000000000E+00  0.00000000000E+00  0.12525980253E-10  0.17130000000E+03  0.17130000000E+03 0.  1.
       11    1    1    2    0    0  0.11819713730E-01 -0.21794122598E-01  0.19766693319E+01  0.19768248780E+01  0.51109989000E-03 0. -1.
     -623    1    1    2    0    0 -0.17218520318E-02  0.28471516083E-03  0.69055100911E-03  0.17130000001E+03  0.17130000000E+03 0.  1.
      622    1    1    2    0    0 -0.10097861699E-01  0.21509407438E-01  0.20226400844E+01  0.20231751117E+01  0.40000000000E-01 0. -1.
</event>
<event>
 5   0  0.6200596E+07  0.9118800E+02  0.7818608E-02  0.1180000E+00
       11   -1    0    0    0    0  0.00000000000E+00  0.00000000000E+00  0.39999999673E+01  0.40000000000E+01  0.51109989000E-03 0.  1.
     -623   -1    0    0    0    0  0.00000000000E+00  0.00000000000E+00  0.12525980253E-10  0.17130000000E+03  0.17130000000E+03 0.  1.
       11    1    1    2    0    0 -0.10672967263E-01 -0.57808531396E-02  0.18767303545E+00  0.18806583940E+00  0.51109989000E-03 0.  1.
     -623    1    1    2    0    0  0.46943270734E-02 -0.55569547884E-02  0.62435058328E-03  0.17130000016E+03  0.17130000000E+03 0.  1.
      622    1    1    2    0    0  0.59786401894E-02  0.11337807928E-01  0.38117025813E+01  0.38119340050E+01  0.40000000000E-01 0.  1.
</event>
<event>
 5   0  0.6200596E+07  0.9118800E+02  0.7818608E-02  0.1180000E+00
       11   -1    0    0    0    0  0.00000000000E+00  0.00000000000E+00  0.39999999673E+01  0.40000000000E+01  0.51109989000E-03 0.  1.
     -623   -1    0    0    0    0  0.00000000000E+00  0.00000000000E+00  0.12525980253E-10  0.17130000000E+03  0.17130000000E+03 0.  1.
       11    1    1    2    0    0  0.18492948390E-01 -0.10665389175E-01  0.20604966514E+00  0.20715324132E+00  0.51109989000E-03 0.  1.
     -623    1    1    2    0    0 -0.20317521603E-01  0.49915645232E-02  0.13204385136E-02  0.17130000128E+03  0.17130000000E+03 0.  1.
      622    1    1    2    0    0  0.18245732125E-02  0.56738246519E-02  0.37926298637E+01  0.37928454760E+01  0.40000000000E-01 0.  1.
</event>
<event>
 5   0  0.6200596E+07  0.9118800E+02  0.7818608E-02  0.1180000E+00
       11   -1    0    0    0    0  0.00000000000E+00  0.00000000000E+00  0.39999999673E+01  0.40000000000E+01  0.51109989000E-03 0.  1.
     -623   -1    0    0    0    0  0.00000000000E+00  0.00000000000E+00  0.12525980253E-10  0.17130000000E+03  0.17130000000E+03 0.  1.
       11    1    1    2    0    0  0.20064634467E-01 -0.56947539126E-02  0.16291268159E+00  0.16424318196E+00  0.51109989000E-03 0.  1.
     -623    1    1    2    0    0 -0.88478677996E-02 -0.13918604598E-02  0.15622265168E-02  0.17130000024E+03  0.17130000000E+03 0.  1.
      622    1    1    2    0    0 -0.11216766668E-01  0.70866143723E-02  0.38355250593E+01  0.38357565768E+01  0.40000000000E-01 0.  1.
</event>
<event>
 5   0  0.6200596E+07  0.9118800E+02  0.7818608E-02  0.1180000E+00
       11   -1    0    0    0    0  0.00000000000E+00  0.00000000000E+00  0.39999999673E+01  0.40000000000E+01  0.51109989000E-03 0. -1.
     -623   -1    0    0    0    0  0.00000000000E+00  0.00000000000E+00  0.12525980253E-10  0.17130000000E+03  0.17130000000E+03 0.  1.
       11    1    1    2    0    0  0.53405882179E-02  0.92262514747E-03  0.47234940817E+00  0.47238077622E+00  0.51109989000E-03 0. -1.
     -623    1    1    2    0    0 -0.20095451947E-02 -0.81609035470E-03  0.25971289410E-03  0.17130000001E+03  0.17130000000E+03 0.  1.
      622    1    1    2    0    0 -0.33310430232E-02 -0.10653479277E-03  0.35273908463E+01  0.35276192098E+01  0.40000000000E-01 0. -1.
</event>
<event>
 5   0  0.6200596E+07  0.9118800E+02  0.7818608E-02  0.1180000E+00
       11   -1    0    0    0    0  0.00000000000E+00  0.00000000000E+00  0.39999999673E+01  0.40000000000E+01  0.51109989000E-03 0. -1.
     -623   -1    0    0    0    0  0.00000000000E+00  0.00000000000E+00  0.12525980253E-10  0.17130000000E+03  0.17130000000E+03 0.  1.
       11    1    1    2    0    0  0.66189260627E-02 -0.11244468451E-02  0.13967417557E+01  0.13967579848E+01  0.51109989000E-03 0. -1.
     -623    1    1    2    0    0 -0.98563864803E-02  0.11474105878E-02  0.32582482745E-03  0.17130000029E+03  0.17130000000E+03 0.  1.
      622    1    1    2    0    0  0.32374604176E-02 -0.22963742729E-04  0.26029323868E+01  0.26032417275E+01  0.40000000000E-01 0. -1.
</event>
<event>
 5   0  0.6200596E+07  0.9118800E+02  0.7818608E-02  0.1180000E+00
       11   -1    0    0    0    0  0.00000000000E+00  0.00000000000E+00  0.39999999673E+01  0.40000000000E+01  0.51109989000E-03 0.  1.
     -623   -1    0    0    0    0  0.00000000000E+00  0.00000000000E+00  0.12525980253E-10  0.17130000000E+03  0.17130000000E+03 0. -1.
       11    1    1    2    0    0 -0.11688086842E-03  0.77029364025E-02  0.44638873070E-01  0.45301645676E-01  0.51109989000E-03 0.  1.
     -623    1    1    2    0    0 -0.26899930731E-02 -0.93730873597E-02  0.86666476920E-03  0.17130000028E+03  0.17130000000E+03 0. -1.
      622    1    1    2    0    0  0.28068739415E-02  0.16701509573E-02  0.39544944295E+01  0.39546980746E+01  0.40000000000E-01 0.  1.
</event>
<event>
 5   0  0.6200596E+07  0.9118800E+02  0.7818608E-02  0.1180000E+00
       11   -1    0    0    0    0  0.00000000000E+00  0.00000000000E+00  0.39999999673E+01  0.40000000000E+01  0.51109989000E-03 0. -1.
     -623   -1    0    0    0    0  0.00000000000E+00  0.00000000000E+00  0.12525980253E-10  0.17130000000E+03  0.17130000000E+03 0. -1.
       11    1    1    2    0    0 -0.57076599029E-02  0.29621095601E-02  0.65098223041E-01  0.65417056940E-01  0.51109989000E-03 0. -1.
     -623    1    1    2    0    0  0.19230586329E-02 -0.40812307256E-02  0.52417139325E-03  0.17130000006E+03  0.17130000000E+03 0. -1.
      622    1    1    2    0    0  0.37846012701E-02  0.11191211655E-02  0.39343775729E+01  0.39345828828E+01  0.40000000000E-01 0. -1.
</event>
<event>
 5   0  0.6200596E+07  0.9118800E+02  0.7818608E-02  0.1180000E+00
       11   -1    0    0    0    0  0.00000000000E+00  0.00000000000E+00  0.39999999673E+01  0.40000000000E+01  0.51109989000E-03 0. -1.
     -623   -1    0    0    0    0  0.00000000000E+00  0.00000000000E+00  0.12525980253E-10  0.17130000000E+03  0.17130000000E+03 0. -1.
       11    1    1    2    0    0  0.59645940797E-01  0.16664985569E-01  0.32069709079E+00  0.32662248126E+00  0.51109989000E-03 0. -1.
     -623    1    1    2    0    0 -0.45834262682E-01 -0.35364989323E-01  0.62266124298E-02  0.17130000990E+03  0.17130000000E+03 0. -1.
      622    1    1    2    0    0 -0.13811678115E-01  0.18700003754E-01  0.36730762641E+01  0.36733676231E+01  0.40000000000E-01 0. -1.
</event>
<event>
 5   0  0.6200596E+07  0.9118800E+02  0.7818608E-02  0.1180000E+00
       11   -1    0    0    0    0  0.00000000000E+00  0.00000000000E+00  0.39999999673E+01  0.40000000000E+01  0.51109989000E-03 0.  1.
     -623   -1    0    0    0    0  0.00000000000E+00  0.00000000000E+00  0.12525980253E-10  0.17130000000E+03  0.17130000000E+03 0.  1.
       11    1    1    2    0    0  0.84353142389E-03  0.11626961409E-02  0.43232715925E+00  0.43232984775E+00  0.51109989000E-03 0.  1.
     -623    1    1    2    0    0  0.61825537855E-02  0.64603381043E-02  0.24219600387E-03  0.17130000023E+03  0.17130000000E+03 0.  1.
      622    1    1    2    0    0 -0.70260852094E-02 -0.76230342452E-02  0.35674306121E+01  0.35676699187E+01  0.40000000000E-01 0.  1.
</event>
<event>
 5   0  0.6200596E+07  0.9118800E+02  0.7818608E-02  0.1180000E+00
       11   -1    0    0    0    0  0.00000000000E+00  0.00000000000E+00  0.39999999673E+01  0.40000000000E+01  0.51109989000E-03 0. -1.
     -623   -1    0    0    0    0  0.00000000000E+00  0.00000000000E+00  0.12525980253E-10  0.17130000000E+03  0.17130000000E+03 0. -1.
       11    1    1    2    0    0 -0.53880481679E-01 -0.61631317334E-01  0.79420975103E+00  0.79841775747E+00  0.51109989000E-03 0. -1.
     -623    1    1    2    0    0 -0.27699098274E-02  0.25187844727E-02  0.55051557583E-02  0.17130000013E+03  0.17130000000E+03 0. -1.
      622    1    1    2    0    0  0.56650391507E-01  0.59112532861E-01  0.32002850606E+01  0.32015821132E+01  0.40000000000E-01 0. -1.
</event>
<event>
 5   0  0.6200596E+07  0.9118800E+02  0.7818608E-02  0.1180000E+00
       11   -1    0    0    0    0  0.00000000000E+00  0.00000000000E+00  0.39999999673E+01  0.40000000000E+01  0.51109989000E-03 0.  1.
     -623   -1    0    0    0    0  0.00000000000E+00  0.00000000000E+00  0.12525980253E-10  0.17130000000E+03  0.17130000000E+03 0.  1.
       11    1    1    2    0    0 -0.64584180165E-03  0.29454166986E-02  0.67077117100E-01  0.67146805219E-01  0.51109989000E-03 0.  1.
     -623    1    1    2    0    0  0.70591584723E-03  0.15525586028E-02  0.27565685681E-03  0.17130000001E+03  0.17130000000E+03 0.  1.
      622    1    1    2    0    0 -0.60074045577E-04 -0.44979753015E-02  0.39326471934E+01  0.39328531861E+01  0.40000000000E-01 0.  1.
</event>
<event>
 5   0  0.6200596E+07  0.9118800E+02  0.7818608E-02  0.1180000E+00
       11   -1    0    0    0    0  0.00000000000E+00  0.00000000000E+00  0.39999999673E+01  0.40000000000E+01  0.51109989000E-03 0.  1.
     -623   -1    0    0    0    0  0.00000000000E+00  0.00000000000E+00  0.12525980253E-10  0.17130000000E+03  0.17130000000E+03 0. -1.
       11    1    1    2    0    0 -0.29644431424E-01 -0.12415939308E-01  0.25664855018E+00  0.25865360503E+00  0.51109989000E-03 0.  1.
     -623    1    1    2    0    0  0.12196270013E-02 -0.58101579297E-02  0.23713591682E-02  0.17130000012E+03  0.17130000000E+03 0. -1.
      622    1    1    2    0    0  0.28424804423E-01  0.18226097238E-01  0.37409800580E+01  0.37413462757E+01  0.40000000000E-01 0.  1.
</event>
<event>
 5   0  0.6200596E+07  0.9118800E+02  0.7818608E-02  0.1180000E+00
       11   -1    0    0    0    0  0.00000000000E+00  0.00000000000E+00  0.39999999673E+01  0.40000000000E+01  0.51109989000E-03 0. -1.
     -623   -1    0    0    0    0  0.00000000000E+00  0.00000000000E+00  0.12525980253E-10  0.17130000000E+03  0.17130000000E+03 0. -1.
       11    1    1    2    0    0 -0.56027111091E-02 -0.21657669533E-01  0.21112878331E+01  0.21114064082E+01  0.51109989000E-03 0. -1.
     -623    1    1    2    0    0  0.17113774541E-02 -0.79821537685E-03  0.67974537798E-03  0.17130000001E+03  0.17130000000E+03 0. -1.
      622    1    1    2    0    0  0.38913336551E-02  0.22455884910E-01  0.18880323888E+01  0.18885935800E+01  0.40000000000E-01 0. -1.
</event>
<event>
 5   0  0.6200596E+07  0.9118800E+02  0.7818608E-02  0.1180000E+00
       11   -1    0    0    0    0  0.00000000000E+00  0.00000000000E+00  0.39999999673E+01  0.40000000000E+01  0.51109989000E-03 0. -1.
     -623   -1    0    0    0    0  0.00000000000E+00  0.00000000000E+00  0.12525980253E-10  0.17130000000E+03  0.17130000000E+03 0. -1.
       11    1    1    2    0    0  0.57656913424E-02  0.92890724317E-02  0.91208644864E-01  0.91862985918E-01  0.51109989000E-03 0. -1.
     -623    1    1    2    0    0  0.10358494447E-01  0.82625521003E-02  0.93220955364E-03  0.17130000051E+03  0.17130000000E+03 0. -1.
      622    1    1    2    0    0 -0.16124185790E-01 -0.17551624532E-01  0.39078591129E+01  0.39081364991E+01  0.40000000000E-01 0. -1.
</event>
<event>
 5   0  0.6200596E+07  0.9118800E+02  0.7818608E-02  0.1180000E+00
       11   -1    0    0    0    0  0.00000000000E+00  0.00000000000E+00  0.39999999673E+01  0.40000000000E+01  0.51109989000E-03 0.  1.
     -623   -1    0    0    0    0  0.00000000000E+00  0.00000000000E+00  0.12525980253E-10  0.17130000000E+03  0.17130000000E+03 0. -1.
       11    1    1    2    0    0 -0.11937764533E-01  0.57739725089E-02  0.45313635502E+00  0.45333063700E+00  0.51109989000E-03 0.  1.
     -623    1    1    2    0    0 -0.13258738913E-02  0.12791985049E-02  0.45164746314E-03  0.17130000001E+03  0.17130000000E+03 0. -1.
      622    1    1    2    0    0  0.13263638425E-01 -0.70531710138E-02  0.35464119649E+01  0.35466693525E+01  0.40000000000E-01 0.  0.
</event>
<event>
 5   0  0.6200596E+07  0.9118800E+02  0.7818608E-02  0.1180000E+00
       11   -1    0    0    0    0  0.00000000000E+00  0.00000000000E+00  0.39999999673E+01  0.40000000000E+01  0.51109989000E-03 0. -1.
     -623   -1    0    0    0    0  0.00000000000E+00  0.00000000000E+00  0.12525980253E-10  0.17130000000E+03  0.17130000000E+03 0. -1.
       11    1    1    2    0    0 -0.10951719614E-02  0.52558511365E-03  0.54867174134E-01  0.54882999738E-01  0.51109989000E-03 0. -1.
     -623    1    1    2    0    0  0.65047063693E-03 -0.31039650305E-03  0.21861309139E-03  0.17130000000E+03  0.17130000000E+03 0. -1.
      622    1    1    2    0    0  0.44470132446E-03 -0.21518861061E-03  0.39449141801E+01  0.39451169986E+01  0.40000000000E-01 0. -1.
</event>
<event>
 5   0  0.6200596E+07  0.9118800E+02  0.7818608E-02  0.1180000E+00
       11   -1    0    0    0    0  0.00000000000E+00  0.00000000000E+00  0.39999999673E+01  0.40000000000E+01  0.51109989000E-03 0. -1.
     -623   -1    0    0    0    0  0.00000000000E+00  0.00000000000E+00  0.12525980253E-10  0.17130000000E+03  0.17130000000E+03 0. -1.
       11    1    1    2    0    0 -0.17572654647E-02 -0.73337884904E-02  0.32502060299E-01  0.33369410843E-01  0.51109989000E-03 0. -1.
     -623    1    1    2    0    0 -0.52935346934E-02  0.57013092472E-02  0.10757883606E-02  0.17130000018E+03  0.17130000000E+03 0. -1.
      622    1    1    2    0    0  0.70508001581E-02  0.16324792432E-02  0.39664221187E+01  0.39666304091E+01  0.40000000000E-01 0. -1.
</event>
<event>
 5   0  0.6200596E+07  0.9118800E+02  0.7818608E-02  0.1180000E+00
       11   -1    0    0    0    0  0.00000000000E+00  0.00000000000E+00  0.39999999673E+01  0.40000000000E+01  0.51109989000E-03 0. -1.
     -623   -1    0    0    0    0  0.00000000000E+00  0.00000000000E+00  0.12525980253E-10  0.17130000000E+03  0.17130000000E+03 0.  1.
       11    1    1    2    0    0  0.25790664771E-03  0.44968462707E-02  0.49334306283E-01  0.49542134999E-01  0.51109989000E-03 0. -1.
     -623    1    1    2    0    0 -0.12740778336E-02 -0.33293095407E-02  0.41065026364E-03  0.17130000004E+03  0.17130000000E+03 0.  1.
      622    1    1    2    0    0  0.10161711859E-02 -0.11675367300E-02  0.39502550108E+01  0.39504578274E+01  0.40000000000E-01 0. -1.
</event>
<event>
 5   0  0.6200596E+07  0.9118800E+02  0.7818608E-02  0.1180000E+00
       11   -1    0    0    0    0  0.00000000000E+00  0.00000000000E+00  0.39999999673E+01  0.40000000000E+01  0.51109989000E-03 0. -1.
     -623   -1    0    0    0    0  0.00000000000E+00  0.00000000000E+00  0.12525980253E-10  0.17130000000E+03  0.17130000000E+03 0. -1.
       11    1    1    2    0    0 -0.31307548891E-01  0.22874576679E-02  0.83455801658E-01  0.89165728458E-01  0.51109989000E-03 0. -1.
     -623    1    1    2    0    0  0.19421750273E-01 -0.24332623123E-02  0.59337459219E-02  0.17130000122E+03  0.17130000000E+03 0. -1.
      622    1    1    2    0    0  0.11885798618E-01  0.14580464432E-03  0.39106104198E+01  0.39108330505E+01  0.40000000000E-01 0. -1.
</event>
<event>
 5   0  0.6200596E+07  0.9118800E+02  0.7818608E-02  0.1180000E+00
       11   -1    0    0    0    0  0.00000000000E+00  0.00000000000E+00  0.39999999673E+01  0.40000000000E+01  0.51109989000E-03 0.  1.
     -623   -1    0    0    0    0  0.00000000000E+00  0.00000000000E+00  0.12525980253E-10  0.17130000000E+03  0.17130000000E+03 0.  1.
       11    1    1    2    0    0  0.56810363245E-03  0.30838491472E-03  0.50344701653E-02  0.51014659950E-02  0.51109989000E-03 0.  1.
     -623    1    1    2    0    0  0.54132799999E-03 -0.17170085004E-02  0.26763569365E-03  0.17130000001E+03  0.17130000000E+03 0.  1.
      622    1    1    2    0    0 -0.11094316324E-02  0.14086235857E-02  0.39946978615E+01  0.39948985243E+01  0.40000000000E-01 0.  1.
</event>
<event>
 5   0  0.6200596E+07  0.9118800E+02  0.7818608E-02  0.1180000E+00
       11   -1    0    0    0    0  0.00000000000E+00  0.00000000000E+00  0.39999999673E+01  0.40000000000E+01  0.51109989000E-03 0. -1.
     -623   -1    0    0    0    0  0.00000000000E+00  0.00000000000E+00  0.12525980253E-10  0.17130000000E+03  0.17130000000E+03 0. -1.
       11    1    1    2    0    0  0.60485196211E-04  0.55017752312E-03  0.36513224443E-01  0.36520995789E-01  0.51109989000E-03 0. -1.
     -623    1    1    2    0    0  0.14160814973E-02 -0.13015144924E-02  0.20994392242E-03  0.17130000001E+03  0.17130000000E+03 0. -1.
      622    1    1    2    0    0 -0.14765666935E-02  0.75133696927E-03  0.39632767990E+01  0.39634789933E+01  0.40000000000E-01 0. -1.
</event>
<event>
 5   0  0.6200596E+07  0.9118800E+02  0.7818608E-02  0.1180000E+00
       11   -1    0    0    0    0  0.00000000000E+00  0.00000000000E+00  0.39999999673E+01  0.40000000000E+01  0.51109989000E-03 0.  1.
     -623   -1    0    0    0    0  0.00000000000E+00  0.00000000000E+00  0.12525980253E-10  0.17130000000E+03  0.17130000000E+03 0.  1.
       11    1    1    2    0    0 -0.39605451961E-02 -0.38536034657E-02  0.40919056781E-01  0.41293663024E-01  0.51109989000E-03 0.  1.
     -623    1    1    2    0    0  0.41089689263E-03  0.47169886609E-02  0.57841706577E-03  0.17130000007E+03  0.17130000000E+03 0.  1.
      622    1    1    2    0    0  0.35496483035E-02 -0.86338519519E-03  0.39585024935E+01  0.39587062706E+01  0.40000000000E-01 0.  1.
</event>
<event>
 5   0  0.6200596E+07  0.9118800E+02  0.7818608E-02  0.1180000E+00
       11   -1    0    0    0    0  0.00000000000E+00  0.00000000000E+00  0.39999999673E+01  0.40000000000E+01  0.51109989000E-03 0. -1.
     -623   -1    0    0    0    0  0.00000000000E+00  0.00000000000E+00  0.12525980253E-10  0.17130000000E+03  0.17130000000E+03 0. -1.
       11    1    1    2    0    0  0.34539559541E-02  0.22469991456E-02  0.15378681535E+00  0.15384285688E+00  0.51109989000E-03 0. -1.
     -623    1    1    2    0    0  0.51993424903E-02 -0.79337386816E-03  0.27410488924E-03  0.17130000008E+03  0.17130000000E+03 0. -1.
      622    1    1    2    0    0 -0.86532984445E-02 -0.14536252774E-02  0.38459390471E+01  0.38461570622E+01  0.40000000000E-01 0. -1.
</event>
<event>
 5   0  0.6200596E+07  0.9118800E+02  0.7818608E-02  0.1180000E+00
       11   -1    0    0    0    0  0.00000000000E+00  0.00000000000E+00  0.39999999673E+01  0.40000000000E+01  0.51109989000E-03 0.  1.
     -623   -1    0    0    0    0  0.00000000000E+00  0.00000000000E+00  0.12525980253E-10  0.17130000000E+03  0.17130000000E+03 0.  1.
       11    1    1    2    0    0 -0.17699796444E-01  0.10414163458E-02  0.59175986817E+00  0.59202564990E+00  0.51109989000E-03 0.  1.
     -623    1    1    2    0    0 -0.15098579493E-02 -0.10206819608E-01  0.56728169100E-03  0.17130000031E+03  0.17130000000E+03 0.  1.
      622    1    1    2    0    0  0.19209654394E-01  0.91654032619E-02  0.34076728175E+01  0.34079740384E+01  0.40000000000E-01 0.  1.
</event>
<event>
 5   0  0.6200596E+07  0.9118800E+02  0.7818608E-02  0.1180000E+00
       11   -1    0    0    0    0  0.00000000000E+00  0.00000000000E+00  0.39999999673E+01  0.40000000000E+01  0.51109989000E-03 0. -1.
     -623   -1    0    0    0    0  0.00000000000E+00  0.00000000000E+00  0.12525980253E-10  0.17130000000E+03  0.17130000000E+03 0. -1.
       11    1    1    2    0    0  0.77393938166E-02  0.13470929897E-01  0.34923076391E-01  0.38226256098E-01  0.51109989000E-03 0. -1.
     -623    1    1    2    0    0  0.29540452049E-02 -0.10002607119E-02  0.35392076970E-02  0.17130000006E+03  0.17130000000E+03 0. -1.
      622    1    1    2    0    0 -0.10693439021E-01 -0.12470669185E-01  0.39615376833E+01  0.39617736789E+01  0.40000000000E-01 0. -1.
</event>
<event>
 5   0  0.6200596E+07  0.9118800E+02  0.7818608E-02  0.1180000E+00
       11   -1    0    0    0    0  0.00000000000E+00  0.00000000000E+00  0.39999999673E+01  0.40000000000E+01  0.51109989000E-03 0.  1.
     -623   -1    0    0    0    0  0.00000000000E+00  0.00000000000E+00  0.12525980253E-10  0.17130000000E+03  0.17130000000E+03 0. -1.
       11    1    1    2    0    0 -0.49942487944E-02  0.24085366443E-02  0.13392937155E+00  0.13404507210E+00  0.51109989000E-03 0.  1.
     -623    1    1    2    0    0  0.48193534788E-02 -0.66742266977E-02  0.32516368862E-03  0.17130000020E+03  0.17130000000E+03 0. -1.
      622    1    1    2    0    0  0.17489531558E-03  0.42656900534E-02  0.38657454321E+01  0.38659547298E+01  0.40000000000E-01 0.  1.
</event>
<event>
 5   0  0.6200596E+07  0.9118800E+02  0.7818608E-02  0.1180000E+00
       11   -1    0    0    0    0  0.00000000000E+00  0.00000000000E+00  0.39999999673E+01  0.40000000000E+01  0.51109989000E-03 0. -1.
     -623   -1    0    0    0    0  0.00000000000E+00  0.00000000000E+00  0.12525980253E-10  0.17130000000E+03  0.17130000000E+03 0.  1.
       11    1    1    2    0    0 -0.29424275993E-01  0.10934514934E-01  0.15767083408E+00  0.16076599385E+00  0.51109989000E-03 0. -1.
     -623    1    1    2    0    0  0.23079189162E-01 -0.17791623200E-01  0.33173861006E-02  0.17130000251E+03  0.17130000000E+03 0.  1.
      622    1    1    2    0    0  0.63450868306E-02  0.68571082657E-02  0.38390117472E+01  0.38392314954E+01  0.40000000000E-01 0. -1.
</event>
<event>
 5   0  0.6200596E+07  0.9118800E+02  0.7818608E-02  0.1180000E+00
       11   -1    0    0    0    0  0.00000000000E+00  0.00000000000E+00  0.39999999673E+01  0.40000000000E+01  0.51109989000E-03 0. -1.
     -623   -1    0    0    0    0  0.00000000000E+00  0.00000000000E+00  0.12525980253E-10  0.17130000000E+03  0.17130000000E+03 0.  1.
       11    1    1    2    0    0 -0.12761030909E-01  0.14265527131E-01  0.74077193640E+00  0.74101934668E+00  0.51109989000E-03 0. -1.
     -623    1    1    2    0    0  0.53003753200E-02  0.48880833953E-03  0.53488762069E-03  0.17130000008E+03  0.17130000000E+03 0.  1.
      622    1    1    2    0    0  0.74606555886E-02 -0.14754335471E-01  0.32586931433E+01  0.32589805698E+01  0.40000000000E-01 0. -1.
</event>
<event>
 5   0  0.6200596E+07  0.9118800E+02  0.7818608E-02  0.1180000E+00
       11   -1    0    0    0    0  0.00000000000E+00  0.00000000000E+00  0.39999999673E+01  0.40000000000E+01  0.51109989000E-03 0. -1.
     -623   -1    0    0    0    0  0.00000000000E+00  0.00000000000E+00  0.12525980253E-10  0.17130000000E+03  0.17130000000E+03 0. -1.
       11    1    1    2    0    0  0.35973813091E-02 -0.18071823491E-02  0.88228609904E+00  0.88229543172E+00  0.51109989000E-03 0. -1.
     -623    1    1    2    0    0 -0.64794375858E-05 -0.10758235132E-02  0.26931446431E-03  0.17130000000E+03  0.17130000000E+03 0. -1.
      622    1    1    2    0    0 -0.35909018715E-02  0.28830058623E-02  0.31174445539E+01  0.31177045647E+01  0.40000000000E-01 0. -1.
</event>
<event>
 5   0  0.6200596E+07  0.9118800E+02  0.7818608E-02  0.1180000E+00
       11   -1    0    0    0    0  0.00000000000E+00  0.00000000000E+00  0.39999999673E+01  0.40000000000E+01  0.51109989000E-03 0.  1.
     -623   -1    0    0    0    0  0.00000000000E+00  0.00000000000E+00  0.12525980253E-10  0.17130000000E+03  0.17130000000E+03 0.  1.
       11    1    1    2    0    0  0.14742866511E-01  0.14660363842E-01  0.61378210035E+00  0.61413435526E+00  0.51109989000E-03 0.  1.
     -623    1    1    2    0    0 -0.22424570265E-01 -0.28238931865E-01  0.62824789985E-03  0.17130000380E+03  0.17130000000E+03 0.  1.
      622    1    1    2    0    0  0.76817037547E-02  0.13578568023E-01  0.33855896191E+01  0.33858618482E+01  0.40000000000E-01 0.  1.
</event>
<event>
 5   0  0.6200596E+07  0.9118800E+02  0.7818608E-02  0.1180000E+00
       11   -1    0    0    0    0  0.00000000000E+00  0.00000000000E+00  0.39999999673E+01  0.40000000000E+01  0.51109989000E-03 0. -1.
     -623   -1    0    0    0    0  0.00000000000E+00  0.00000000000E+00  0.12525980253E-10  0.17130000000E+03  0.17130000000E+03 0. -1.
       11    1    1    2    0    0  0.27623105351E-01 -0.80069663853E-02  0.13340185658E+01  0.13343286487E+01  0.51109989000E-03 0. -1.
     -623    1    1    2    0    0  0.99171022091E-03  0.44983043246E-03  0.77450383122E-03  0.17130000001E+03  0.17130000000E+03 0. -1.
      622    1    1    2    0    0 -0.28614815572E-01  0.75571359529E-02  0.26652068977E+01  0.26656713461E+01  0.40000000000E-01 0. -1.
</event>
<event>
 5   0  0.6200596E+07  0.9118800E+02  0.7818608E-02  0.1180000E+00
       11   -1    0    0    0    0  0.00000000000E+00  0.00000000000E+00  0.39999999673E+01  0.40000000000E+01  0.51109989000E-03 0.  1.
     -623   -1    0    0    0    0  0.00000000000E+00  0.00000000000E+00  0.12525980253E-10  0.17130000000E+03  0.17130000000E+03 0. -1.
       11    1    1    2    0    0 -0.39676276462E-02 -0.18138498781E-02  0.49172203532E+00  0.49174165307E+00  0.51109989000E-03 0.  1.
     -623    1    1    2    0    0  0.16067605157E-02  0.30177412426E-02  0.24866119063E-03  0.17130000003E+03  0.17130000000E+03 0. -1.
      622    1    1    2    0    0  0.23608671306E-02 -0.12038913645E-02  0.35080292708E+01  0.35082583126E+01  0.40000000000E-01 0.  1.
</event>
<event>
 5   0  0.6200596E+07  0.9118800E+02  0.7818608E-02  0.1180000E+00
       11   -1    0    0    0    0  0.00000000000E+00  0.00000000000E+00  0.39999999673E+01  0.40000000000E+01  0.51109989000E-03 0.  1.
     -623   -1    0    0    0    0  0.00000000000E+00  0.00000000000E+00  0.12525980253E-10  0.17130000000E+03  0.17130000000E+03 0. -1.
       11    1    1    2    0    0 -0.22718353550E-04 -0.32252134858E-03  0.53642420494E-02  0.53982265708E-02  0.51109989000E-03 0.  1.
     -623    1    1    2    0    0 -0.23674025239E-02  0.91585963675E-03  0.23500530095E-03  0.17130000002E+03  0.17130000000E+03 0. -1.
      622    1    1    2    0    0  0.23901208774E-02 -0.59333828817E-03  0.39944007200E+01  0.39946017545E+01  0.40000000000E-01 0.  1.
</event>
<event>
 5   0  0.6200596E+07  0.9118800E+02  0.7818608E-02  0.1180000E+00
       11   -1    0    0    0    0  0.00000000000E+00  0.00000000000E+00  0.39999999673E+01  0.40000000000E+01  0.51109989000E-03 0.  1.
     -623   -1    0    0    0    0  0.00000000000E+00  0.00000000000E+00  0.12525980253E-10  0.17130000000E+03  0.17130000000E+03 0. -1.
       11    1    1    2    0    0  0.69855626352E-02 -0.50479491802E-02  0.35473950377E+00  0.35484455277E+00  0.51109989000E-03 0.  1.
     -623    1    1    2    0    0  0.40287861107E-02  0.24642826681E-02  0.34211523868E-03  0.17130000007E+03  0.17130000000E+03 0. -1.
      622    1    1    2    0    0 -0.11014348746E-01  0.25836665121E-02  0.36449183484E+01  0.36451553818E+01  0.40000000000E-01 0.  1.
</event>
<event>
 5   0  0.6200596E+07  0.9118800E+02  0.7818608E-02  0.1180000E+00
       11   -1    0    0    0    0  0.00000000000E+00  0.00000000000E+00  0.39999999673E+01  0.40000000000E+01  0.51109989000E-03 0.  1.
     -623   -1    0    0    0    0  0.00000000000E+00  0.00000000000E+00  0.12525980253E-10  0.17130000000E+03  0.17130000000E+03 0. -1.
       11    1    1    2    0    0  0.43501310339E-02 -0.82257654990E-02  0.30490869909E-01  0.31883243697E-01  0.51109989000E-03 0.  1.
     -623    1    1    2    0    0  0.45059958655E-02  0.52767991114E-02  0.16050803100E-02  0.17130000015E+03  0.17130000000E+03 0. -1.
      622    1    1    2    0    0 -0.88561268994E-02  0.29489663876E-02  0.39679040171E+01  0.39681166082E+01  0.40000000000E-01 0.  1.
</event>
<event>
 5   0  0.6200596E+07  0.9118800E+02  0.7818608E-02  0.1180000E+00
       11   -1    0    0    0    0  0.00000000000E+00  0.00000000000E+00  0.39999999673E+01  0.40000000000E+01  0.51109989000E-03 0.  1.
     -623   -1    0    0    0    0  0.00000000000E+00  0.00000000000E+00  0.12525980253E-10  0.17130000000E+03  0.17130000000E+03 0.  1.
       11    1    1    2    0    0  0.37376102500E-02 -0.10903691538E-02  0.43222496277E-01  0.43400507378E-01  0.51109989000E-03 0.  1.
     -623    1    1    2    0    0 -0.18922854714E-02  0.57700443732E-02  0.38348345549E-03  0.17130000011E+03  0.17130000000E+03 0.  1.
      622    1    1    2    0    0 -0.18453247786E-02 -0.46796752194E-02  0.39563939876E+01  0.39565993846E+01  0.40000000000E-01 0.  1.
</event>
<event>
 5   0  0.6200596E+07  0.9118800E+02  0.7818608E-02  0.1180000E+00
       11   -1    0    0    0    0  0.00000000000E+00  0.00000000000E+00  0.39999999673E+01  0.40000000000E+01  0.51109989000E-03 0. -1.
     -623   -1    0    0    0    0  0.00000000000E+00  0.00000000000E+00  0.12525980253E-10  0.17130000000E+03  0.17130000000E+03 0. -1.
       11    1    1    2    0    0 -0.93216040316E-02 -0.18363487994E-02  0.38650358279E-02  0.10269576600E-01  0.51109989000E-03 0. -1.
     -623    1    1    2    0    0  0.45887549520E-02 -0.34579343089E-02  0.66115721476E-02  0.17130000022E+03  0.17130000000E+03 0. -1.
      622    1    1    2    0    0  0.47328490796E-02  0.52942831082E-02  0.39895233594E+01  0.39897301994E+01  0.40000000000E-01 0. -1.
</event>
<event>
 5   0  0.6200596E+07  0.9118800E+02  0.7818608E-02  0.1180000E+00
       11   -1    0    0    0    0  0.00000000000E+00  0.00000000000E+00  0.39999999673E+01  0.40000000000E+01  0.51109989000E-03 0. -1.
     -623   -1    0    0    0    0  0.00000000000E+00  0.00000000000E+00  0.12525980253E-10  0.17130000000E+03  0.17130000000E+03 0. -1.
       11    1    1    2    0    0  0.41847647998E-01 -0.80409931718E-02  0.21839284330E+01  0.21843441910E+01  0.51109989000E-03 0. -1.
     -623    1    1    2    0    0 -0.78109889598E-03  0.66800606009E-02  0.13216328337E-02  0.17130000014E+03  0.17130000000E+03 0. -1.
      622    1    1    2    0    0 -0.41066549102E-01  0.13609325709E-02  0.18147499016E+01  0.18156556719E+01  0.40000000000E-01 0. -1.
</event>
<event>
 5   0  0.6200596E+07  0.9118800E+02  0.7818608E-02  0.1180000E+00
       11   -1    0    0    0    0  0.00000000000E+00  0.00000000000E+00  0.39999999673E+01  0.40000000000E+01  0.51109989000E-03 0. -1.
     -623   -1    0    0    0    0  0.00000000000E+00  0.00000000000E+00  0.12525980253E-10  0.17130000000E+03  0.17130000000E+03 0. -1.
       11    1    1    2    0    0 -0.90699611135E-02 -0.54565175574E-02  0.14736489525E+00  0.14774542752E+00  0.51109989000E-03 0. -1.
     -623    1    1    2    0    0  0.38772583681E-02 -0.17107073921E-02  0.59839705164E-03  0.17130000005E+03  0.17130000000E+03 0. -1.
      622    1    1    2    0    0  0.51927027454E-02  0.71672249495E-02  0.38520366751E+01  0.38522545190E+01  0.40000000000E-01 0. -1.
</event>
<event>
 5   0  0.6200596E+07  0.9118800E+02  0.7818608E-02  0.1180000E+00
       11   -1    0    0    0    0  0.00000000000E+00  0.00000000000E+00  0.39999999673E+01  0.40000000000E+01  0.51109989000E-03 0. -1.
     -623   -1    0    0    0    0  0.00000000000E+00  0.00000000000E+00  0.12525980253E-10  0.17130000000E+03  0.17130000000E+03 0. -1.
       11    1    1    2    0    0 -0.11965715706E-02  0.34629665685E-02  0.22996412958E-01  0.23292061975E-01  0.51109989000E-03 0. -1.
     -623    1    1    2    0    0 -0.27874878015E-03 -0.48299789833E-03  0.49818478537E-03  0.17130000000E+03  0.17130000000E+03 0. -1.
      622    1    1    2    0    0  0.14753203507E-02 -0.29799686702E-02  0.39765053696E+01  0.39767079364E+01  0.40000000000E-01 0. -1.
</event>
<event>
 5   0  0.6200596E+07  0.9118800E+02  0.7818608E-02  0.1180000E+00
       11   -1    0    0    0    0  0.00000000000E+00  0.00000000000E+00  0.39999999673E+01  0.40000000000E+01  0.51109989000E-03 0. -1.
     -623   -1    0    0    0    0  0.00000000000E+00  0.00000000000E+00  0.12525980253E-10  0.17130000000E+03  0.17130000000E+03 0. -1.
       11    1    1    2    0    0  0.11921122767E-02  0.47087805355E-02  0.99328359680E-01  0.99448368533E-01  0.51109989000E-03 0. -1.
     -623    1    1    2    0    0  0.28758355567E-03  0.22910005276E-03  0.32848789636E-03  0.17130000000E+03  0.17130000000E+03 0. -1.
      622    1    1    2    0    0 -0.14796958324E-02 -0.49378805882E-02  0.39003431198E+01  0.39005516308E+01  0.40000000000E-01 0. -1.
</event>
<event>
 5   0  0.6200596E+07  0.9118800E+02  0.7818608E-02  0.1180000E+00
       11   -1    0    0    0    0  0.00000000000E+00  0.00000000000E+00  0.39999999673E+01  0.40000000000E+01  0.51109989000E-03 0. -1.
     -623   -1    0    0    0    0  0.00000000000E+00  0.00000000000E+00  0.12525980253E-10  0.17130000000E+03  0.17130000000E+03 0.  1.
       11    1    1    2    0    0 -0.80785143345E-02  0.27340593184E-02  0.98014860515E+00  0.98018584303E+00  0.51109989000E-03 0. -1.
     -623    1    1    2    0    0  0.51578242171E-02 -0.63604146927E-03  0.30435433091E-03  0.17130000008E+03  0.17130000000E+03 0.  1.
      622    1    1    2    0    0  0.29206901174E-02 -0.20980178491E-02  0.30195470079E+01  0.30198140779E+01  0.40000000000E-01 0. -1.
</event>
<event>
 5   0  0.6200596E+07  0.9118800E+02  0.7818608E-02  0.1180000E+00
       11   -1    0    0    0    0  0.00000000000E+00  0.00000000000E+00  0.39999999673E+01  0.40000000000E+01  0.51109989000E-03 0.  1.
     -623   -1    0    0    0    0  0.00000000000E+00  0.00000000000E+00  0.12525980253E-10  0.17130000000E+03  0.17130000000E+03 0. -1.
       11    1    1    2    0    0 -0.24918339078E-02 -0.56060589877E-02  0.86621681470E+00  0.86623869022E+00  0.51109989000E-03 0.  1.
     -623    1    1    2    0    0 -0.10211298961E-02 -0.54559116115E-03  0.28514931088E-03  0.17130000000E+03  0.17130000000E+03 0. -1.
      622    1    1    2    0    0  0.35129638039E-02  0.61516501489E-02  0.31334980033E+01  0.31337613056E+01  0.40000000000E-01 0.  1.
</event>
<event>
 5   0  0.6200596E+07  0.9118800E+02  0.7818608E-02  0.1180000E+00
       11   -1    0    0    0    0  0.00000000000E+00  0.00000000000E+00  0.39999999673E+01  0.40000000000E+01  0.51109989000E-03 0. -1.
     -623   -1    0    0    0    0  0.00000000000E+00  0.00000000000E+00  0.12525980253E-10  0.17130000000E+03  0.17130000000E+03 0.  1.
       11    1    1    2    0    0  0.30281378905E-02  0.72812352682E-02  0.15331124709E-01  0.17247916184E-01  0.51109989000E-03 0. -1.
     -623    1    1    2    0    0  0.46603060273E-02 -0.13452675891E-01  0.21304380494E-02  0.17130000060E+03  0.17130000000E+03 0.  1.
      622    1    1    2    0    0 -0.76884439178E-02  0.61714406230E-02  0.39825384046E+01  0.39827514789E+01  0.40000000000E-01 0. -1.
</event>
<event>
 5   0  0.6200596E+07  0.9118800E+02  0.7818608E-02  0.1180000E+00
       11   -1    0    0    0    0  0.00000000000E+00  0.00000000000E+00  0.39999999673E+01  0.40000000000E+01  0.51109989000E-03 0.  1.
     -623   -1    0    0    0    0  0.00000000000E+00  0.00000000000E+00  0.12525980253E-10  0.17130000000E+03  0.17130000000E+03 0.  1.
       11    1    1    2    0    0  0.15038031791E-02 -0.63249768412E-03  0.44696493671E-02  0.47854428408E-02  0.51109989000E-03 0.  1.
     -623    1    1    2    0    0 -0.17023119221E-02 -0.93900879455E-03  0.51633124262E-03  0.17130000001E+03  0.17130000000E+03 0.  1.
      622    1    1    2    0    0  0.19850874297E-03  0.15715064787E-02  0.39950139868E+01  0.39952145453E+01  0.40000000000E-01 0.  1.
</event>
<event>
 5   0  0.6200596E+07  0.9118800E+02  0.7818608E-02  0.1180000E+00
       11   -1    0    0    0    0  0.00000000000E+00  0.00000000000E+00  0.39999999673E+01  0.40000000000E+01  0.51109989000E-03 0. -1.
     -623   -1    0    0    0    0  0.00000000000E+00  0.00000000000E+00  0.12525980253E-10  0.17130000000E+03  0.17130000000E+03 0.  1.
       11    1    1    2    0    0 -0.18624982527E-01 -0.11529899741E-01  0.13771183643E+01  0.13772926628E+01  0.51109989000E-03 0. -1.
     -623    1    1    2    0    0 -0.13529296280E-02  0.11416706938E-01  0.55579982285E-03  0.17130000039E+03  0.17130000000E+03 0.  1.
      622    1    1    2    0    0  0.19977912155E-01  0.11319280293E-03  0.26223258033E+01  0.26227069505E+01  0.40000000000E-01 0. -1.
</event>
<event>
 5   0  0.6200596E+07  0.9118800E+02  0.7818608E-02  0.1180000E+00
       11   -1    0    0    0    0  0.00000000000E+00  0.00000000000E+00  0.39999999673E+01  0.40000000000E+01  0.51109989000E-03 0.  1.
     -623   -1    0    0    0    0  0.00000000000E+00  0.00000000000E+00  0.12525980253E-10  0.17130000000E+03  0.17130000000E+03 0. -1.
       11    1    1    2    0    0 -0.81382960356E-03  0.35152361091E-02  0.64986576902E-01  0.65088674922E-01  0.51109989000E-03 0.  1.
     -623    1    1    2    0    0 -0.27393242941E-03 -0.45683146929E-03  0.30671899198E-03  0.17130000000E+03  0.17130000000E+03 0. -1.
      622    1    1    2    0    0  0.10877620330E-02 -0.30584046398E-02  0.39347066715E+01  0.39349113240E+01  0.40000000000E-01 0.  1.
</event>
<event>
 5   0  0.6200596E+07  0.9118800E+02  0.7818608E-02  0.1180000E+00
       11   -1    0    0    0    0  0.00000000000E+00  0.00000000000E+00  0.39999999673E+01  0.40000000000E+01  0.51109989000E-03 0. -1.
     -623   -1    0    0    0    0  0.00000000000E+00  0.00000000000E+00  0.12525980253E-10  0.17130000000E+03  0.17130000000E+03 0.  1.
       11    1    1    2    0    0 -0.25462995069E-02  0.22543194074E-02  0.16581928532E+00  0.16585494325E+00  0.51109989000E-03 0. -1.
     -623    1    1    2    0    0  0.72568152968E-03  0.92211865263E-03  0.24603476779E-03  0.17130000000E+03  0.17130000000E+03 0.  1.
      622    1    1    2    0    0  0.18206179772E-02 -0.31764380600E-02  0.38339346473E+01  0.38341450526E+01  0.40000000000E-01 0. -1.
</event>
<event>
 5   0  0.6200596E+07  0.9118800E+02  0.7818608E-02  0.1180000E+00
       11   -1    0    0    0    0  0.00000000000E+00  0.00000000000E+00  0.39999999673E+01  0.40000000000E+01  0.51109989000E-03 0.  1.
     -623   -1    0    0    0    0  0.00000000000E+00  0.00000000000E+00  0.12525980253E-10  0.17130000000E+03  0.17130000000E+03 0.  1.
       11    1    1    2    0    0 -0.53475564785E-03 -0.27987766622E-02  0.40862756982E-01  0.40965171110E-01  0.51109989000E-03 0.  1.
     -623    1    1    2    0    0  0.47794311008E-02 -0.27641592351E-02  0.31072945175E-03  0.17130000009E+03  0.17130000000E+03 0.  1.
      622    1    1    2    0    0 -0.42446754530E-02  0.55629358973E-02  0.39588264809E+01  0.39590347396E+01  0.40000000000E-01 0.  1.
</event>
<event>
 5   0  0.6200596E+07  0.9118800E+02  0.7818608E-02  0.1180000E+00
       11   -1    0    0    0    0  0.00000000000E+00  0.00000000000E+00  0.39999999673E+01  0.40000000000E+01  0.51109989000E-03 0.  1.
     -623   -1    0    0    0    0  0.00000000000E+00  0.00000000000E+00  0.12525980253E-10  0.17130000000E+03  0.17130000000E+03 0.  1.
       11    1    1    2    0    0  0.67852816650E-02 -0.46114166989E-02  0.18602228797E+00  0.18620380784E+00  0.51109989000E-03 0.  1.
     -623    1    1    2    0    0 -0.51819789048E-02  0.37456004838E-02  0.39181284646E-03  0.17130000012E+03  0.17130000000E+03 0.  1.
      622    1    1    2    0    0 -0.16033027602E-02  0.86581621501E-03  0.38135858665E+01  0.38137960724E+01  0.40000000000E-01 0.  0.
</event>
<event>
 5   0  0.6200596E+07  0.9118800E+02  0.7818608E-02  0.1180000E+00
       11   -1    0    0    0    0  0.00000000000E+00  0.00000000000E+00  0.39999999673E+01  0.40000000000E+01  0.51109989000E-03 0.  1.
     -623   -1    0    0    0    0  0.00000000000E+00  0.00000000000E+00  0.12525980253E-10  0.17130000000E+03  0.17130000000E+03 0. -1.
       11    1    1    2    0    0 -0.13378830409E-01 -0.19726206452E-02  0.25556011029E+00  0.25591818132E+00  0.51109989000E-03 0.  1.
     -623    1    1    2    0    0  0.53101767923E-02 -0.81949187478E-02  0.59449553719E-03  0.17130000028E+03  0.17130000000E+03 0. -1.
      622    1    1    2    0    0  0.80686536163E-02  0.10167539393E-01  0.37438453615E+01  0.37440815393E+01  0.40000000000E-01 0.  1.
</event>
<event>
 5   0  0.6200596E+07  0.9118800E+02  0.7818608E-02  0.1180000E+00
       11   -1    0    0    0    0  0.00000000000E+00  0.00000000000E+00  0.39999999673E+01  0.40000000000E+01  0.51109989000E-03 0.  1.
     -623   -1    0    0    0    0  0.00000000000E+00  0.00000000000E+00  0.12525980253E-10  0.17130000000E+03  0.17130000000E+03 0. -1.
       11    1    1    2    0    0  0.11307094604E-02  0.34034213997E-03  0.24967562519E-01  0.25000694704E-01  0.51109989000E-03 0.  1.
     -623    1    1    2    0    0  0.26767925289E-03 -0.19799904591E-03  0.23461155600E-03  0.17130000000E+03  0.17130000000E+03 0. -1.
      622    1    1    2    0    0 -0.13983887133E-02 -0.14234309406E-03  0.39747977933E+01  0.39749993048E+01  0.40000000000E-01 0.  1.
</event>
<event>
 5   0  0.6200596E+07  0.9118800E+02  0.7818608E-02  0.1180000E+00
       11   -1    0    0    0    0  0.00000000000E+00  0.00000000000E+00  0.39999999673E+01  0.40000000000E+01  0.51109989000E-03 0.  1.
     -623   -1    0    0    0    0  0.00000000000E+00  0.00000000000E+00  0.12525980253E-10  0.17130000000E+03  0.17130000000E+03 0. -1.
       11    1    1    2    0    0 -0.23212840725E-01 -0.22860289565E-01  0.12562371162E+00  0.12978061086E+00  0.51109989000E-03 0.  1.
     -623    1    1    2    0    0  0.12618393658E-01  0.72995010737E-02  0.44100415421E-02  0.17130000068E+03  0.17130000000E+03 0. -1.
      622    1    1    2    0    0  0.10594447067E-01  0.15560788491E-01  0.38699662142E+01  0.38702187121E+01  0.40000000000E-01 0.  1.
</event>
<event>
 5   0  0.6200596E+07  0.9118800E+02  0.7818608E-02  0.1180000E+00
       11   -1    0    0    0    0  0.00000000000E+00  0.00000000000E+00  0.39999999673E+01  0.40000000000E+01  0.51109989000E-03 0.  1.
     -623   -1    0    0    0    0  0.00000000000E+00  0.00000000000E+00  0.12525980253E-10  0.17130000000E+03  0.17130000000E+03 0.  1.
       11    1    1    2    0    0 -0.40835762020E-02 -0.12786106322E-01  0.30069893208E+01  0.30070193209E+01  0.51109989000E-03 0.  1.
     -623    1    1    2    0    0  0.26287089887E-02  0.25466665879E-02  0.88989589261E-03  0.17130000004E+03  0.17130000000E+03 0.  1.
      622    1    1    2    0    0  0.14548672133E-02  0.10239439734E-01  0.99212075071E+00  0.99298063765E+00  0.40000000000E-01 0.  1.
</event>
<event>
 5   0  0.6200596E+07  0.9118800E+02  0.7818608E-02  0.1180000E+00
       11   -1    0    0    0    0  0.00000000000E+00  0.00000000000E+00  0.39999999673E+01  0.40000000000E+01  0.51109989000E-03 0.  1.
     -623   -1    0    0    0    0  0.00000000000E+00  0.00000000000E+00  0.12525980253E-10  0.17130000000E+03  0.17130000000E+03 0.  1.
       11    1    1    2    0    0  0.60904448101E-02 -0.78177779634E-02  0.11673895579E+00  0.11715995984E+00  0.51109989000E-03 0.  1.
     -623    1    1    2    0    0  0.24563641587E-02  0.57935273687E-03  0.64318580609E-03  0.17130000002E+03  0.17130000000E+03 0.  1.
      622    1    1    2    0    0 -0.85468089688E-02  0.72384252265E-02  0.38826178258E+01  0.38828400204E+01  0.40000000000E-01 0.  1.
</event>
<event>
 5   0  0.6200596E+07  0.9118800E+02  0.7818608E-02  0.1180000E+00
       11   -1    0    0    0    0  0.00000000000E+00  0.00000000000E+00  0.39999999673E+01  0.40000000000E+01  0.51109989000E-03 0. -1.
     -623   -1    0    0    0    0  0.00000000000E+00  0.00000000000E+00  0.12525980253E-10  0.17130000000E+03  0.17130000000E+03 0. -1.
       11    1    1    2    0    0 -0.66470569649E-01 -0.58840880933E-01  0.30343728624E+01  0.30356711803E+01  0.51109989000E-03 0. -1.
     -623    1    1    2    0    0  0.40443729214E-01  0.52813963457E-01  0.25116360597E-02  0.17130001293E+03  0.17130000000E+03 0. -1.
      622    1    1    2    0    0  0.26026840435E-01  0.60269174769E-02  0.96311546892E+00  0.96431588530E+00  0.40000000000E-01 0. -1.
</event>
<event>
 5   0  0.6200596E+07  0.9118800E+02  0.7818608E-02  0.1180000E+00
       11   -1    0    0    0    0  0.00000000000E+00  0.00000000000E+00  0.39999999673E+01  0.40000000000E+01  0.51109989000E-03 0.  1.
     -623   -1    0    0    0    0  0.00000000000E+00  0.00000000000E+00  0.12525980253E-10  0.17130000000E+03  0.17130000000E+03 0. -1.
       11    1    1    2    0    0  0.92384243780E-02 -0.45977937729E-03  0.11472402230E+00  0.11509744739E+00  0.51109989000E-03 0.  1.
     -623    1    1    2    0    0 -0.25759219173E-02  0.51909317295E-02  0.58801665598E-03  0.17130000010E+03  0.17130000000E+03 0. -1.
      622    1    1    2    0    0 -0.66625024607E-02 -0.47311523522E-02  0.38846879284E+01  0.38849024536E+01  0.40000000000E-01 0.  1.
</event>
<event>
 5   0  0.6200596E+07  0.9118800E+02  0.7818608E-02  0.1180000E+00
       11   -1    0    0    0    0  0.00000000000E+00  0.00000000000E+00  0.39999999673E+01  0.40000000000E+01  0.51109989000E-03 0.  1.
     -623   -1    0    0    0    0  0.00000000000E+00  0.00000000000E+00  0.12525980253E-10  0.17130000000E+03  0.17130000000E+03 0. -1.
       11    1    1    2    0    0  0.73835063670E-02 -0.33394131491E-02  0.30154892573E+00  0.30165822329E+00  0.51109989000E-03 0.  1.
     -623    1    1    2    0    0 -0.10270187355E-03  0.51930410094E-02  0.33329519824E-03  0.17130000008E+03  0.17130000000E+03 0. -1.
      622    1    1    2    0    0 -0.72808044934E-02 -0.18536278603E-02  0.36981177464E+01  0.36983416976E+01  0.40000000000E-01 0.  1.
</event>
<event>
 5   0  0.6200596E+07  0.9118800E+02  0.7818608E-02  0.1180000E+00
       11   -1    0    0    0    0  0.00000000000E+00  0.00000000000E+00  0.39999999673E+01  0.40000000000E+01  0.51109989000E-03 0. -1.
     -623   -1    0    0    0    0  0.00000000000E+00  0.00000000000E+00  0.12525980253E-10  0.17130000000E+03  0.17130000000E+03 0. -1.
       11    1    1    2    0    0  0.62458954590E-02  0.88465148405E-02  0.61010470757E+00  0.61020102217E+00  0.51109989000E-03 0. -1.
     -623    1    1    2    0    0 -0.36744657001E-01  0.60401462024E-02  0.50624731305E-03  0.17130000405E+03  0.17130000000E+03 0. -1.
      622    1    1    2    0    0  0.30498761542E-01 -0.14886661043E-01  0.33893890125E+01  0.33897949296E+01  0.40000000000E-01 0. -1.
</event>
<event>
 5   0  0.6200596E+07  0.9118800E+02  0.7818608E-02  0.1180000E+00
       11   -1    0    0    0    0  0.00000000000E+00  0.00000000000E+00  0.39999999673E+01  0.40000000000E+01  0.51109989000E-03 0.  1.
     -623   -1    0    0    0    0  0.00000000000E+00  0.00000000000E+00  0.12525980253E-10  0.17130000000E+03  0.17130000000E+03 0.  1.
       11    1    1    2    0    0  0.31317419006E-02 -0.25255217895E-01  0.11966331712E+00  0.12234052691E+00  0.51109989000E-03 0.  1.
     -623    1    1    2    0    0  0.56686701176E-02  0.37670269532E-03  0.29734133588E-02  0.17130000012E+03  0.17130000000E+03 0.  1.
      622    1    1    2    0    0 -0.88004120181E-02  0.24878515200E-01  0.38773632369E+01  0.38776593531E+01  0.40000000000E-01 0.  1.
</event>
<event>
 5   0  0.6200596E+07  0.9118800E+02  0.7818608E-02  0.1180000E+00
       11   -1    0    0    0    0  0.00000000000E+00  0.00000000000E+00  0.39999999673E+01  0.40000000000E+01  0.51109989000E-03 0.  1.
     -623   -1    0    0    0    0  0.00000000000E+00  0.00000000000E+00  0.12525980253E-10  0.17130000000E+03  0.17130000000E+03 0.  1.
       11    1    1    2    0    0 -0.24957256108E-03  0.90976421593E-03  0.20519384103E-03  0.10923749589E-02  0.51109989000E-03 0.  1.
     -623    1    1    2    0    0  0.29109208815E-02 -0.26739106150E-02  0.10885319643E-02  0.17130000005E+03  0.17130000000E+03 0.  1.
      622    1    1    2    0    0 -0.26613483204E-02  0.17641463991E-02  0.39987062416E+01  0.39989075760E+01  0.40000000000E-01 0.  1.
</event>
<event>
 5   0  0.6200596E+07  0.9118800E+02  0.7818608E-02  0.1180000E+00
       11   -1    0    0    0    0  0.00000000000E+00  0.00000000000E+00  0.39999999673E+01  0.40000000000E+01  0.51109989000E-03 0. -1.
     -623   -1    0    0    0    0  0.00000000000E+00  0.00000000000E+00  0.12525980253E-10  0.17130000000E+03  0.17130000000E+03 0. -1.
       11    1    1    2    0    0 -0.67595476386E-03  0.24776603300E-02  0.26534390484E-01  0.26663285912E-01  0.51109989000E-03 0. -1.
     -623    1    1    2    0    0 -0.65628928741E-03 -0.22783282296E-03  0.33107208257E-03  0.17130000000E+03  0.17130000000E+03 0. -1.
      622    1    1    2    0    0  0.13322440513E-02 -0.22498275071E-02  0.39731345048E+01  0.39733367124E+01  0.40000000000E-01 0. -1.
</event>
<event>
 5   0  0.6200596E+07  0.9118800E+02  0.7818608E-02  0.1180000E+00
       11   -1    0    0    0    0  0.00000000000E+00  0.00000000000E+00  0.39999999673E+01  0.40000000000E+01  0.51109989000E-03 0.  1.
     -623   -1    0    0    0    0  0.00000000000E+00  0.00000000000E+00  0.12525980253E-10  0.17130000000E+03  0.17130000000E+03 0.  1.
       11    1    1    2    0    0  0.48381243112E-04 -0.49568572977E-02  0.68709148929E-01  0.68889630154E-01  0.51109989000E-03 0.  1.
     -623    1    1    2    0    0  0.21031131323E-03 -0.19736664351E-03  0.38734701215E-03  0.17130000000E+03  0.17130000000E+03 0.  1.
      622    1    1    2    0    0 -0.25869255634E-03  0.51542239412E-02  0.39309034714E+01  0.39311103692E+01  0.40000000000E-01 0.  1.
</event>
<event>
 5   0  0.6200596E+07  0.9118800E+02  0.7818608E-02  0.1180000E+00
       11   -1    0    0    0    0  0.00000000000E+00  0.00000000000E+00  0.39999999673E+01  0.40000000000E+01  0.51109989000E-03 0. -1.
     -623   -1    0    0    0    0  0.00000000000E+00  0.00000000000E+00  0.12525980253E-10  0.17130000000E+03  0.17130000000E+03 0.  1.
       11    1    1    2    0    0 -0.29590795609E-02 -0.48589301715E-02  0.41454768555E-01  0.41846438440E-01  0.51109989000E-03 0. -1.
     -623    1    1    2    0    0  0.11787724335E-02  0.19693706884E-03  0.59690808951E-03  0.17130000001E+03  0.17130000000E+03 0.  1.
      622    1    1    2    0    0  0.17803071274E-02  0.46619931027E-02  0.39579482907E+01  0.39581535564E+01  0.40000000000E-01 0. -1.
</event>
<event>
 5   0  0.6200596E+07  0.9118800E+02  0.7818608E-02  0.1180000E+00
       11   -1    0    0    0    0  0.00000000000E+00  0.00000000000E+00  0.39999999673E+01  0.40000000000E+01  0.51109989000E-03 0. -1.
     -623   -1    0    0    0    0  0.00000000000E+00  0.00000000000E+00  0.12525980253E-10  0.17130000000E+03  0.17130000000E+03 0.  1.
       11    1    1    2    0    0  0.15391405813E-01  0.44502249864E-01  0.36679489517E+00  0.36980549206E+00  0.51109989000E-03 0. -1.
     -623    1    1    2    0    0  0.49038165029E-02 -0.36110012575E-01  0.33012902389E-02  0.17130000391E+03  0.17130000000E+03 0.  1.
      622    1    1    2    0    0 -0.20295222316E-01 -0.83922372888E-02  0.36299037819E+01  0.36301905999E+01  0.40000000000E-01 0. -1.
</event>
<event>
 5   0  0.6200596E+07  0.9118800E+02  0.7818608E-02  0.1180000E+00
       11   -1    0    0    0    0  0.00000000000E+00  0.00000000000E+00  0.39999999673E+01  0.40000000000E+01  0.51109989000E-03 0. -1.
     -623   -1    0    0    0    0  0.00000000000E+00  0.00000000000E+00  0.12525980253E-10  0.17130000000E+03  0.17130000000E+03 0.  1.
       11    1    1    2    0    0 -0.99396762166E-03  0.41668131861E-02  0.19228411337E+00  0.19233250318E+00  0.51109989000E-03 0. -1.
     -623    1    1    2    0    0  0.20981655507E-03  0.66243581829E-03  0.26161033082E-03  0.17130000000E+03  0.17130000000E+03 0.  1.
      622    1    1    2    0    0  0.78415106659E-03 -0.48292490044E-02  0.38074542437E+01  0.38076674952E+01  0.40000000000E-01 0. -1.
</event>
<event>
 5   0  0.6200596E+07  0.9118800E+02  0.7818608E-02  0.1180000E+00
       11   -1    0    0    0    0  0.00000000000E+00  0.00000000000E+00  0.39999999673E+01  0.40000000000E+01  0.51109989000E-03 0. -1.
     -623   -1    0    0    0    0  0.00000000000E+00  0.00000000000E+00  0.12525980253E-10  0.17130000000E+03  0.17130000000E+03 0.  1.
       11    1    1    2    0    0  0.67652615645E-02  0.15465130378E-01  0.13281004034E+00  0.13387944972E+00  0.51109989000E-03 0. -1.
     -623    1    1    2    0    0  0.75634762986E-02 -0.55238649198E-02  0.13159056687E-02  0.17130000026E+03  0.17130000000E+03 0.  1.
      622    1    1    2    0    0 -0.14328737863E-01 -0.99412654581E-02  0.38658740214E+01  0.38661202892E+01  0.40000000000E-01 0. -1.
</event>
<event>
 5   0  0.6200596E+07  0.9118800E+02  0.7818608E-02  0.1180000E+00
       11   -1    0    0    0    0  0.00000000000E+00  0.00000000000E+00  0.39999999673E+01  0.40000000000E+01  0.51109989000E-03 0.  1.
     -623   -1    0    0    0    0  0.00000000000E+00  0.00000000000E+00  0.12525980253E-10  0.17130000000E+03  0.17130000000E+03 0. -1.
       11    1    1    2    0    0 -0.14696748114E-01 -0.13962487255E-01  0.52429544877E-01  0.56214445220E-01  0.51109989000E-03 0.  1.
     -623    1    1    2    0    0  0.11487849226E-01  0.15558595073E-01  0.39904905592E-02  0.17130000114E+03  0.17130000000E+03 0. -1.
      622    1    1    2    0    0  0.32088988887E-02 -0.15961078180E-02  0.39435799319E+01  0.39437844165E+01  0.40000000000E-01 0.  1.
</event>
<event>
 5   0  0.6200596E+07  0.9118800E+02  0.7818608E-02  0.1180000E+00
       11   -1    0    0    0    0  0.00000000000E+00  0.00000000000E+00  0.39999999673E+01  0.40000000000E+01  0.51109989000E-03 0. -1.
     -623   -1    0    0    0    0  0.00000000000E+00  0.00000000000E+00  0.12525980253E-10  0.17130000000E+03  0.17130000000E+03 0. -1.
       11    1    1    2    0    0 -0.78036731804E-03  0.14689890892E-02  0.36254806600E-02  0.40214715628E-02  0.51109989000E-03 0. -1.
     -623    1    1    2    0    0  0.11415152535E-02  0.20911780710E-02  0.59778450919E-03  0.17130000002E+03  0.17130000000E+03 0. -1.
      622    1    1    2    0    0 -0.36114793550E-03 -0.35601671602E-02  0.39957767022E+01  0.39959785108E+01  0.40000000000E-01 0. -1.
</event>
<event>
 5   0  0.6200596E+07  0.9118800E+02  0.7818608E-02  0.1180000E+00
       11   -1    0    0    0    0  0.00000000000E+00  0.00000000000E+00  0.39999999673E+01  0.40000000000E+01  0.51109989000E-03 0. -1.
     -623   -1    0    0    0    0  0.00000000000E+00  0.00000000000E+00  0.12525980253E-10  0.17130000000E+03  0.17130000000E+03 0.  1.
       11    1    1    2    0    0  0.17072546782E-02 -0.27623822624E-02  0.45474905892E+00  0.45476094081E+00  0.51109989000E-03 0. -1.
     -623    1    1    2    0    0  0.23937973733E-02  0.42162349847E-02  0.24025023152E-03  0.17130000007E+03  0.17130000000E+03 0.  1.
      622    1    1    2    0    0 -0.41010520515E-02 -0.14538527223E-02  0.35450106582E+01  0.35452389904E+01  0.40000000000E-01 0. -1.
</event>
<event>
 5   0  0.6200596E+07  0.9118800E+02  0.7818608E-02  0.1180000E+00
       11   -1    0    0    0    0  0.00000000000E+00  0.00000000000E+00  0.39999999673E+01  0.40000000000E+01  0.51109989000E-03 0. -1.
     -623   -1    0    0    0    0  0.00000000000E+00  0.00000000000E+00  0.12525980253E-10  0.17130000000E+03  0.17130000000E+03 0.  1.
       11    1    1    2    0    0 -0.16460217920E-01  0.31263674458E-02  0.31834374953E+00  0.31878475031E+00  0.51109989000E-03 0. -1.
     -623    1    1    2    0    0  0.90405551100E-02 -0.29982547307E-02  0.66604022999E-03  0.17130000027E+03  0.17130000000E+03 0.  1.
      622    1    1    2    0    0  0.74196628100E-02 -0.12811271512E-03  0.36809901776E+01  0.36812149836E+01  0.40000000000E-01 0.  0.
</event>
<event>
 5   0  0.6200596E+07  0.9118800E+02  0.7818608E-02  0.1180000E+00
       11   -1    0    0    0    0  0.00000000000E+00  0.00000000000E+00  0.39999999673E+01  0.40000000000E+01  0.51109989000E-03 0.  1.
     -623   -1    0    0    0    0  0.00000000000E+00  0.00000000000E+00  0.12525980253E-10  0.17130000000E+03  0.17130000000E+03 0.  1.
       11    1    1    2    0    0 -0.15334057843E-02 -0.25319408560E-02  0.97043372800E-02  0.10158614179E-01  0.51109989000E-03 0.  1.
     -623    1    1    2    0    0  0.24227132192E-02  0.25624947154E-03  0.65552524315E-03  0.17130000002E+03  0.17130000000E+03 0.  1.
      622    1    1    2    0    0 -0.88930743488E-03  0.22756913845E-02  0.39896401048E+01  0.39898413672E+01  0.40000000000E-01 0.  1.
</event>
<event>
 5   0  0.6200596E+07  0.9118800E+02  0.7818608E-02  0.1180000E+00
       11   -1    0    0    0    0  0.00000000000E+00  0.00000000000E+00  0.39999999673E+01  0.40000000000E+01  0.51109989000E-03 0.  1.
     -623   -1    0    0    0    0  0.00000000000E+00  0.00000000000E+00  0.12525980253E-10  0.17130000000E+03  0.17130000000E+03 0.  1.
       11    1    1    2    0    0 -0.94002763826E-04  0.93257452254E-03  0.17819382798E-01  0.17851334880E-01  0.51109989000E-03 0.  1.
     -623    1    1    2    0    0  0.21762843749E-03  0.14681981059E-04  0.23293596506E-03  0.17130000000E+03  0.17130000000E+03 0.  1.
      622    1    1    2    0    0 -0.12362567367E-03 -0.94725650360E-03  0.39819476486E+01  0.39821486648E+01  0.40000000000E-01 0.  1.
</event>
<event>
 5   0  0.6200596E+07  0.9118800E+02  0.7818608E-02  0.1180000E+00
       11   -1    0    0    0    0  0.00000000000E+00  0.00000000000E+00  0.39999999673E+01  0.40000000000E+01  0.51109989000E-03 0.  1.
     -623   -1    0    0    0    0  0.00000000000E+00  0.00000000000E+00  0.12525980253E-10  0.17130000000E+03  0.17130000000E+03 0.  1.
       11    1    1    2    0    0  0.75554380831E-02  0.55764220760E-02  0.57175077434E+00  0.57182811255E+00  0.51109989000E-03 0.  1.
     -623    1    1    2    0    0 -0.88637036662E-03 -0.50417396680E-02  0.31727988529E-03  0.17130000008E+03  0.17130000000E+03 0.  1.
      622    1    1    2    0    0 -0.66690677164E-02 -0.53468240794E-03  0.34279319131E+01  0.34281718107E+01  0.40000000000E-01 0.  1.
</event>
<event>
 5   0  0.6200596E+07  0.9118800E+02  0.7818608E-02  0.1180000E+00
       11   -1    0    0    0    0  0.00000000000E+00  0.00000000000E+00  0.39999999673E+01  0.40000000000E+01  0.51109989000E-03 0.  1.
     -623   -1    0    0    0    0  0.00000000000E+00  0.00000000000E+00  0.12525980253E-10  0.17130000000E+03  0.17130000000E+03 0.  1.
       11    1    1    2    0    0 -0.53611968909E-03 -0.10877299664E-02  0.39903864530E-02  0.42017836467E-02  0.51109989000E-03 0.  1.
     -623    1    1    2    0    0  0.22620618109E-03 -0.75934794362E-04  0.41176201090E-03  0.17130000000E+03  0.17130000000E+03 0.  1.
      622    1    1    2    0    0  0.30991350800E-03  0.11636647608E-02  0.39955978189E+01  0.39957982157E+01  0.40000000000E-01 0.  1.
</event>
<event>
 5   0  0.6200596E+07  0.9118800E+02  0.7818608E-02  0.1180000E+00
       11   -1    0    0    0    0  0.00000000000E+00  0.00000000000E+00  0.39999999673E+01  0.40000000000E+01  0.51109989000E-03 0.  1.
     -623   -1    0    0    0    0  0.00000000000E+00  0.00000000000E+00  0.12525980253E-10  0.17130000000E+03  0.17130000000E+03 0.  1.
       11    1    1    2    0    0  0.29098143869E-02  0.11587701279E-02  0.59525841952E-01  0.59610375351E-01  0.51109989000E-03 0.  1.
     -623    1    1    2    0    0 -0.25707540911E-02  0.36365573656E-03  0.28786022525E-03  0.17130000002E+03  0.17130000000E+03 0.  1.
      622    1    1    2    0    0 -0.33906029579E-03 -0.15224258644E-02  0.39401862652E+01  0.39403896047E+01  0.40000000000E-01 0.  1.
</event>
<event>
 5   0  0.6200596E+07  0.9118800E+02  0.7818608E-02  0.1180000E+00
       11   -1    0    0    0    0  0.00000000000E+00  0.00000000000E+00  0.39999999673E+01  0.40000000000E+01  0.51109989000E-03 0. -1.
     -623   -1    0    0    0    0  0.00000000000E+00  0.00000000000E+00  0.12525980253E-10  0.17130000000E+03  0.17130000000E+03 0.  1.
       11    1    1    2    0    0  0.41718546666E-03 -0.33727847637E-02  0.69632736089E-02  0.77651865309E-02  0.51109989000E-03 0. -1.
     -623    1    1    2    0    0  0.25799510225E-02  0.14200443078E-02  0.10039052780E-02  0.17130000003E+03  0.17130000000E+03 0.  1.
      622    1    1    2    0    0 -0.29971364892E-02  0.19527404559E-02  0.39920327885E+01  0.39922347852E+01  0.40000000000E-01 0. -1.
</event>
<event>
 5   0  0.6200596E+07  0.9118800E+02  0.7818608E-02  0.1180000E+00
       11   -1    0    0    0    0  0.00000000000E+00  0.00000000000E+00  0.39999999673E+01  0.40000000000E+01  0.51109989000E-03 0. -1.
     -623   -1    0    0    0    0  0.00000000000E+00  0.00000000000E+00  0.12525980253E-10  0.17130000000E+03  0.17130000000E+03 0. -1.
       11    1    1    2    0    0  0.72727955659E-02  0.14491385373E-02  0.29703372663E+00  0.29712672302E+00  0.51109989000E-03 0. -1.
     -623    1    1    2    0    0 -0.79960140972E-03 -0.11650737264E-02  0.31469391871E-03  0.17130000001E+03  0.17130000000E+03 0. -1.
      622    1    1    2    0    0 -0.64731941562E-02 -0.28406481094E-03  0.37026515468E+01  0.37028732709E+01  0.40000000000E-01 0. -1.
</event>
<event>
 5   0  0.6200596E+07  0.9118800E+02  0.7818608E-02  0.1180000E+00
       11   -1    0    0    0    0  0.00000000000E+00  0.00000000000E+00  0.39999999673E+01  0.40000000000E+01  0.51109989000E-03 0. -1.
     -623   -1    0    0    0    0  0.00000000000E+00  0.00000000000E+00  0.12525980253E-10  0.17130000000E+03  0.17130000000E+03 0. -1.
       11    1    1    2    0    0  0.18834012576E-02  0.11581934166E-02  0.19383102018E+00  0.19384430406E+00  0.51109989000E-03 0. -1.
     -623    1    1    2    0    0  0.29874640474E-03 -0.17284995513E-03  0.22419649532E-03  0.17130000000E+03  0.17130000000E+03 0. -1.
      622    1    1    2    0    0 -0.21821476623E-02 -0.98534346145E-03  0.38059447507E+01  0.38061556954E+01  0.40000000000E-01 0. -1.
</event>
<event>
 5   0  0.6200596E+07  0.9118800E+02  0.7818608E-02  0.1180000E+00
       11   -1    0    0    0    0  0.00000000000E+00  0.00000000000E+00  0.39999999673E+01  0.40000000000E+01  0.51109989000E-03 0. -1.
     -623   -1    0    0    0    0  0.00000000000E+00  0.00000000000E+00  0.12525980253E-10  0.17130000000E+03  0.17130000000E+03 0. -1.
       11    1    1    2    0    0  0.12164033929E-02  0.27413022274E-03  0.35849542710E-02  0.38298697856E-02  0.51109989000E-03 0. -1.
     -623    1    1    2    0    0 -0.24441947996E-02 -0.11526939362E-02  0.44538666766E-03  0.17130000002E+03  0.17130000000E+03 0. -1.
      622    1    1    2    0    0  0.12277914067E-02  0.87856371342E-03  0.39959696264E+01  0.39961701083E+01  0.40000000000E-01 0. -1.
</event>
<event>
 5   0  0.6200596E+07  0.9118800E+02  0.7818608E-02  0.1180000E+00
       11   -1    0    0    0    0  0.00000000000E+00  0.00000000000E+00  0.39999999673E+01  0.40000000000E+01  0.51109989000E-03 0. -1.
     -623   -1    0    0    0    0  0.00000000000E+00  0.00000000000E+00  0.12525980253E-10  0.17130000000E+03  0.17130000000E+03 0. -1.
       11    1    1    2    0    0  0.11901634222E-01  0.40570825486E-02  0.35916993643E+00  0.35939033553E+00  0.51109989000E-03 0. -1.
     -623    1    1    2    0    0 -0.10103257029E-02  0.39499001947E-03  0.45913526808E-03  0.17130000000E+03  0.17130000000E+03 0. -1.
      622    1    1    2    0    0 -0.10891308519E-01 -0.44520725681E-02  0.36403708957E+01  0.36406096604E+01  0.40000000000E-01 0. -1.
</event>
<event>
 5   0  0.6200596E+07  0.9118800E+02  0.7818608E-02  0.1180000E+00
       11   -1    0    0    0    0  0.00000000000E+00  0.00000000000E+00  0.39999999673E+01  0.40000000000E+01  0.51109989000E-03 0. -1.
     -623   -1    0    0    0    0  0.00000000000E+00  0.00000000000E+00  0.12525980253E-10  0.17130000000E+03  0.17130000000E+03 0. -1.
       11    1    1    2    0    0  0.55534088695E-02  0.89895994851E-02  0.50510312319E-01  0.51606260479E-01  0.51109989000E-03 0. -1.
     -623    1    1    2    0    0 -0.32015472787E-02 -0.12411382609E-02  0.13068779577E-02  0.17130000004E+03  0.17130000000E+03 0. -1.
      622    1    1    2    0    0 -0.23518615909E-02 -0.77484612242E-02  0.39481827771E+01  0.39483937001E+01  0.40000000000E-01 0. -1.
</event>
<event>
 5   0  0.6200596E+07  0.9118800E+02  0.7818608E-02  0.1180000E+00
       11   -1    0    0    0    0  0.00000000000E+00  0.00000000000E+00  0.39999999673E+01  0.40000000000E+01  0.51109989000E-03 0. -1.
     -623   -1    0    0    0    0  0.00000000000E+00  0.00000000000E+00  0.12525980253E-10  0.17130000000E+03  0.17130000000E+03 0.  1.
       11    1    1    2    0    0 -0.37404231507E-02  0.10710152266E-01  0.38298249671E+00  0.38315082165E+00  0.51109989000E-03 0. -1.
     -623    1    1    2    0    0  0.18409907279E-02 -0.50083146352E-03  0.40440584737E-03  0.17130000001E+03  0.17130000000E+03 0.  1.
      622    1    1    2    0    0  0.18994324228E-02 -0.10209320803E-01  0.36166130648E+01  0.36168491672E+01  0.40000000000E-01 0. -1.
</event>
<event>
 5   0  0.6200596E+07  0.9118800E+02  0.7818608E-02  0.1180000E+00
       11   -1    0    0    0    0  0.00000000000E+00  0.00000000000E+00  0.39999999673E+01  0.40000000000E+01  0.51109989000E-03 0. -1.
     -623   -1    0    0    0    0  0.00000000000E+00  0.00000000000E+00  0.12525980253E-10  0.17130000000E+03  0.17130000000E+03 0.  1.
       11    1    1    2    0    0 -0.76401038705E-02  0.32442202624E-02  0.29158759355E+00  0.29170615709E+00  0.51109989000E-03 0. -1.
     -623    1    1    2    0    0  0.23358234944E-02 -0.36075942988E-02  0.33813566554E-03  0.17130000005E+03  0.17130000000E+03 0.  1.
      622    1    1    2    0    0  0.53042803761E-02  0.36337403640E-03  0.37080742381E+01  0.37082937887E+01  0.40000000000E-01 0.  0.
</event>
<event>
 5   0  0.6200596E+07  0.9118800E+02  0.7818608E-02  0.1180000E+00
       11   -1    0    0    0    0  0.00000000000E+00  0.00000000000E+00  0.39999999673E+01  0.40000000000E+01  0.51109989000E-03 0.  1.
     -623   -1    0    0    0    0  0.00000000000E+00  0.00000000000E+00  0.12525980253E-10  0.17130000000E+03  0.17130000000E+03 0.  1.
       11    1    1    2    0    0  0.47402500755E-02 -0.41240818644E-02  0.18746600055E+00  0.18757196113E+00  0.51109989000E-03 0.  1.
     -623    1    1    2    0    0 -0.12921708938E-02  0.34587377265E-02  0.31743125811E-03  0.17130000004E+03  0.17130000000E+03 0.  1.
      622    1    1    2    0    0 -0.34480791817E-02  0.66534413792E-03  0.38122165356E+01  0.38124279988E+01  0.40000000000E-01 0.  1.
</event>
<event>
 5   0  0.6200596E+07  0.9118800E+02  0.7818608E-02  0.1180000E+00
       11   -1    0    0    0    0  0.00000000000E+00  0.00000000000E+00  0.39999999673E+01  0.40000000000E+01  0.51109989000E-03 0. -1.
     -623   -1    0    0    0    0  0.00000000000E+00  0.00000000000E+00  0.12525980253E-10  0.17130000000E+03  0.17130000000E+03 0.  1.
       11    1    1    2    0    0 -0.30313596096E-02  0.17586265645E-02  0.17522206327E-01  0.17876544539E-01  0.51109989000E-03 0. -1.
     -623    1    1    2    0    0 -0.58566824427E-03 -0.18766234468E-02  0.55686520054E-03  0.17130000001E+03  0.17130000000E+03 0.  1.
      622    1    1    2    0    0  0.36170278538E-02  0.11799688228E-03  0.39819208958E+01  0.39821234433E+01  0.40000000000E-01 0. -1.
</event>
<event>
 5   0  0.6200596E+07  0.9118800E+02  0.7818608E-02  0.1180000E+00
       11   -1    0    0    0    0  0.00000000000E+00  0.00000000000E+00  0.39999999673E+01  0.40000000000E+01  0.51109989000E-03 0. -1.
     -623   -1    0    0    0    0  0.00000000000E+00  0.00000000000E+00  0.12525980253E-10  0.17130000000E+03  0.17130000000E+03 0.  1.
       11    1    1    2    0    0  0.12224001045E-01 -0.11271199519E-02  0.79651535718E-01  0.80593578922E-01  0.51109989000E-03 0. -1.
     -623    1    1    2    0    0 -0.11710775769E-01 -0.19957956939E-02  0.11478220232E-02  0.17130000042E+03  0.17130000000E+03 0.  1.
      622    1    1    2    0    0 -0.51322527544E-03  0.31229156457E-02  0.39192006096E+01  0.39194060053E+01  0.40000000000E-01 0. -1.
</event>
<event>
 5   0  0.6200596E+07  0.9118800E+02  0.7818608E-02  0.1180000E+00
       11   -1    0    0    0    0  0.00000000000E+00  0.00000000000E+00  0.39999999673E+01  0.40000000000E+01  0.51109989000E-03 0. -1.
     -623   -1    0    0    0    0  0.00000000000E+00  0.00000000000E+00  0.12525980253E-10  0.17130000000E+03  0.17130000000E+03 0.  1.
       11    1    1    2    0    0  0.39740448525E-03  0.53838431034E-03  0.13686122918E-01  0.13712000961E-01  0.51109989000E-03 0. -1.
     -623    1    1    2    0    0 -0.13594837298E-02  0.14355563518E-02  0.22715483320E-03  0.17130000001E+03  0.17130000000E+03 0.  1.
      622    1    1    2    0    0  0.96207924451E-03 -0.19739406622E-02  0.39860866896E+01  0.39862879875E+01  0.40000000000E-01 0. -1.
</event>
<event>
 5   0  0.6200596E+07  0.9118800E+02  0.7818608E-02  0.1180000E+00
       11   -1    0    0    0    0  0.00000000000E+00  0.00000000000E+00  0.39999999673E+01  0.40000000000E+01  0.51109989000E-03 0. -1.
     -623   -1    0    0    0    0  0.00000000000E+00  0.00000000000E+00  0.12525980253E-10  0.17130000000E+03  0.17130000000E+03 0. -1.
       11    1    1    2    0    0 -0.12738628089E-02  0.81267261271E-03  0.15478395288E+00  0.15479217182E+00  0.51109989000E-03 0. -1.
     -623    1    1    2    0    0  0.11490578104E-02 -0.57787781859E-02  0.21955364447E-03  0.17130000010E+03  0.17130000000E+03 0. -1.
      622    1    1    2    0    0  0.12480499850E-03  0.49661055732E-02  0.38449964608E+01  0.38452077267E+01  0.40000000000E-01 0. -1.
</event>
<event>
 5   0  0.6200596E+07  0.9118800E+02  0.7818608E-02  0.1180000E+00
       11   -1    0    0    0    0  0.00000000000E+00  0.00000000000E+00  0.39999999673E+01  0.40000000000E+01  0.51109989000E-03 0.  1.
     -623   -1    0    0    0    0  0.00000000000E+00  0.00000000000E+00  0.12525980253E-10  0.17130000000E+03  0.17130000000E+03 0.  1.
       11    1    1    2    0    0 -0.67188191567E-02 -0.41507733753E-03  0.23154927735E+01  0.23155026150E+01  0.51109989000E-03 0.  1.
     -623    1    1    2    0    0  0.39567356633E-02 -0.76501651420E-02  0.50659090013E-03  0.17130000022E+03  0.17130000000E+03 0.  1.
      622    1    1    2    0    0  0.27620834933E-02  0.80652424795E-02  0.16840006030E+01  0.16844971677E+01  0.40000000000E-01 0. -1.
</event>
<event>
 5   0  0.6200596E+07  0.9118800E+02  0.7818608E-02  0.1180000E+00
       11   -1    0    0    0    0  0.00000000000E+00  0.00000000000E+00  0.39999999673E+01  0.40000000000E+01  0.51109989000E-03 0. -1.
     -623   -1    0    0    0    0  0.00000000000E+00  0.00000000000E+00  0.12525980253E-10  0.17130000000E+03  0.17130000000E+03 0. -1.
       11    1    1    2    0    0  0.11951591000E-02 -0.26818225906E-01  0.28101805794E+01  0.28103088435E+01  0.51109989000E-03 0. -1.
     -623    1    1    2    0    0 -0.10176192296E-01  0.16793666064E-01  0.87817246221E-03  0.17130000113E+03  0.17130000000E+03 0. -1.
      622    1    1    2    0    0  0.89810331963E-02  0.10024559842E-01  0.11889412155E+01  0.11896900288E+01  0.40000000000E-01 0.  0.
</event>
<event>
 5   0  0.6200596E+07  0.9118800E+02  0.7818608E-02  0.1180000E+00
       11   -1    0    0    0    0  0.00000000000E+00  0.00000000000E+00  0.39999999673E+01  0.40000000000E+01  0.51109989000E-03 0. -1.
     -623   -1    0    0    0    0  0.00000000000E+00  0.00000000000E+00  0.12525980253E-10  0.17130000000E+03  0.17130000000E+03 0. -1.
       11    1    1    2    0    0  0.41823548627E-02 -0.72921307459E-02  0.15510873914E+00  0.15533721203E+00  0.51109989000E-03 0. -1.
     -623    1    1    2    0    0 -0.12261116777E-01 -0.43445006052E-03  0.45321938697E-03  0.17130000044E+03  0.17130000000E+03 0. -1.
      622    1    1    2    0    0  0.80787619142E-02  0.77265808065E-02  0.38444380088E+01  0.38446623480E+01  0.40000000000E-01 0. -1.
</event>
<event>
 5   0  0.6200596E+07  0.9118800E+02  0.7818608E-02  0.1180000E+00
       11   -1    0    0    0    0  0.00000000000E+00  0.00000000000E+00  0.39999999673E+01  0.40000000000E+01  0.51109989000E-03 0. -1.
     -623   -1    0    0    0    0  0.00000000000E+00  0.00000000000E+00  0.12525980253E-10  0.17130000000E+03  0.17130000000E+03 0. -1.
       11    1    1    2    0    0  0.90366205434E-02 -0.74910125910E-02  0.22071271362E+00  0.22102519982E+00  0.51109989000E-03 0. -1.
     -623    1    1    2    0    0  0.88951983535E-03 -0.27278520648E-02  0.55103661112E-03  0.17130000002E+03  0.17130000000E+03 0. -1.
      622    1    1    2    0    0 -0.99261403788E-02  0.10218864656E-01  0.37787362171E+01  0.37789747753E+01  0.40000000000E-01 0. -1.
</event>
<event>
 5   0  0.6200596E+07  0.9118800E+02  0.7818608E-02  0.1180000E+00
       11   -1    0    0    0    0  0.00000000000E+00  0.00000000000E+00  0.39999999673E+01  0.40000000000E+01  0.51109989000E-03 0.  1.
     -623   -1    0    0    0    0  0.00000000000E+00  0.00000000000E+00  0.12525980253E-10  0.17130000000E+03  0.17130000000E+03 0.  1.
       11    1    1    2    0    0  0.17675557138E-02 -0.10433548231E-01  0.25960280881E-01  0.28038911986E-01  0.51109989000E-03 0.  1.
     -623    1    1    2    0    0 -0.12350979097E-01 -0.93198668841E-02  0.23439529307E-02  0.17130000071E+03  0.17130000000E+03 0.  1.
      622    1    1    2    0    0  0.10583423383E-01  0.19753415115E-01  0.39716957335E+01  0.39719603732E+01  0.40000000000E-01 0.  1.
</event>
<event>
 5   0  0.6200596E+07  0.9118800E+02  0.7818608E-02  0.1180000E+00
       11   -1    0    0    0    0  0.00000000000E+00  0.00000000000E+00  0.39999999673E+01  0.40000000000E+01  0.51109989000E-03 0.  1.
     -623   -1    0    0    0    0  0.00000000000E+00  0.00000000000E+00  0.12525980253E-10  0.17130000000E+03  0.17130000000E+03 0. -1.
       11    1    1    2    0    0  0.25921249879E-03  0.22212339692E-02  0.19013489316E-01  0.19151372517E-01  0.51109989000E-03 0.  1.
     -623    1    1    2    0    0  0.49026202925E-03  0.88449808801E-04  0.33955949719E-03  0.17130000000E+03  0.17130000000E+03 0. -1.
      622    1    1    2    0    0 -0.74947452804E-03 -0.23096837780E-02  0.39806469185E+01  0.39808486264E+01  0.40000000000E-01 0.  1.
</event>
<event>
 5   0  0.6200596E+07  0.9118800E+02  0.7818608E-02  0.1180000E+00
       11   -1    0    0    0    0  0.00000000000E+00  0.00000000000E+00  0.39999999673E+01  0.40000000000E+01  0.51109989000E-03 0.  1.
     -623   -1    0    0    0    0  0.00000000000E+00  0.00000000000E+00  0.12525980253E-10  0.17130000000E+03  0.17130000000E+03 0. -1.
       11    1    1    2    0    0 -0.10357666533E-01  0.94204420065E-02  0.58275281237E-01  0.59935762354E-01  0.51109989000E-03 0.  1.
     -623    1    1    2    0    0  0.35562147703E-02 -0.23066631147E-03  0.18801318744E-02  0.17130000005E+03  0.17130000000E+03 0. -1.
      622    1    1    2    0    0  0.68014517631E-02 -0.91897756950E-02  0.39398445542E+01  0.39400641903E+01  0.40000000000E-01 0.  1.
</event>
<event>
 5   0  0.6200596E+07  0.9118800E+02  0.7818608E-02  0.1180000E+00
       11   -1    0    0    0    0  0.00000000000E+00  0.00000000000E+00  0.39999999673E+01  0.40000000000E+01  0.51109989000E-03 0. -1.
     -623   -1    0    0    0    0  0.00000000000E+00  0.00000000000E+00  0.12525980253E-10  0.17130000000E+03  0.17130000000E+03 0. -1.
       11    1    1    2    0    0  0.75896905057E-02 -0.22960752696E-02  0.15904800130E+00  0.15924636041E+00  0.51109989000E-03 0. -1.
     -623    1    1    2    0    0  0.24883503391E-02 -0.35926529217E-02  0.42441847732E-03  0.17130000006E+03  0.17130000000E+03 0. -1.
      622    1    1    2    0    0 -0.10078040845E-01  0.58887281913E-02  0.38405275476E+01  0.38407535833E+01  0.40000000000E-01 0. -1.
</event>
<event>
 5   0  0.6200596E+07  0.9118800E+02  0.7818608E-02  0.1180000E+00
       11   -1    0    0    0    0  0.00000000000E+00  0.00000000000E+00  0.39999999673E+01  0.40000000000E+01  0.51109989000E-03 0. -1.
     -623   -1    0    0    0    0  0.00000000000E+00  0.00000000000E+00  0.12525980253E-10  0.17130000000E+03  0.17130000000E+03 0. -1.
       11    1    1    2    0    0  0.10355982604E-01 -0.10295462293E-01  0.18150277451E+01  0.18150865599E+01  0.51109989000E-03 0. -1.
     -623    1    1    2    0    0  0.67592602232E-03  0.13286365278E-03  0.47645647519E-03  0.17130000000E+03  0.17130000000E+03 0. -1.
      622    1    1    2    0    0 -0.11031908627E-01  0.10162598640E-01  0.21844957657E+01  0.21849134381E+01  0.40000000000E-01 0. -1.
</event>
<event>
 5   0  0.6200596E+07  0.9118800E+02  0.7818608E-02  0.1180000E+00
       11   -1    0    0    0    0  0.00000000000E+00  0.00000000000E+00  0.39999999673E+01  0.40000000000E+01  0.51109989000E-03 0.  1.
     -623   -1    0    0    0    0  0.00000000000E+00  0.00000000000E+00  0.12525980253E-10  0.17130000000E+03  0.17130000000E+03 0.  1.
       11    1    1    2    0    0  0.51149961749E-01  0.19870912219E-01  0.27100111815E+00  0.27650142675E+00  0.51109989000E-03 0.  1.
     -623    1    1    2    0    0 -0.43812277803E-01 -0.45234154296E-01  0.58204284293E-02  0.17130001167E+03  0.17130000000E+03 0.  1.
      622    1    1    2    0    0 -0.73376839457E-02  0.25363242077E-01  0.37231784208E+01  0.37234868992E+01  0.40000000000E-01 0.  1.
</event>
<event>
 5   0  0.6200596E+07  0.9118800E+02  0.7818608E-02  0.1180000E+00
       11   -1    0    0    0    0  0.00000000000E+00  0.00000000000E+00  0.39999999673E+01  0.40000000000E+01  0.51109989000E-03 0. -1.
     -623   -1    0    0    0    0  0.00000000000E+00  0.00000000000E+00  0.12525980253E-10  0.17130000000E+03  0.17130000000E+03 0.  1.
       11    1    1    2    0    0  0.37589848124E-03  0.17398789808E-02  0.31036328782E-01  0.31091532692E-01  0.51109989000E-03 0. -1.
     -623    1    1    2    0    0 -0.15438154660E-02 -0.11222812955E-02  0.25697387224E-03  0.17130000001E+03  0.17130000000E+03 0.  1.
      622    1    1    2    0    0  0.11679169848E-02 -0.61759768530E-03  0.39687066647E+01  0.39689084565E+01  0.40000000000E-01 0. -1.
</event>
<event>
 5   0  0.6200596E+07  0.9118800E+02  0.7818608E-02  0.1180000E+00
       11   -1    0    0    0    0  0.00000000000E+00  0.00000000000E+00  0.39999999673E+01  0.40000000000E+01  0.51109989000E-03 0. -1.
     -623   -1    0    0    0    0  0.00000000000E+00  0.00000000000E+00  0.12525980253E-10  0.17130000000E+03  0.17130000000E+03 0. -1.
       11    1    1    2    0    0 -0.28921168531E-01 -0.50188485423E-02  0.15990804692E+01  0.15993499402E+01  0.51109989000E-03 0. -1.
     -623    1    1    2    0    0  0.12802524432E-03 -0.18292945610E-03  0.78104443232E-03  0.17130000000E+03  0.17130000000E+03 0. -1.
      622    1    1    2    0    0  0.28793143287E-01  0.52017779984E-02  0.24001384537E+01  0.24006500579E+01  0.40000000000E-01 0. -1.
</event>
<event>
 5   0  0.6200596E+07  0.9118800E+02  0.7818608E-02  0.1180000E+00
       11   -1    0    0    0    0  0.00000000000E+00  0.00000000000E+00  0.39999999673E+01  0.40000000000E+01  0.51109989000E-03 0.  1.
     -623   -1    0    0    0    0  0.00000000000E+00  0.00000000000E+00  0.12525980253E-10  0.17130000000E+03  0.17130000000E+03 0. -1.
       11    1    1    2    0    0  0.19518785541E-02  0.37431458051E-02  0.24674475056E-01  0.25038209042E-01  0.51109989000E-03 0.  1.
     -623    1    1    2    0    0  0.22749662250E-02 -0.11885362241E-02  0.56805480346E-03  0.17130000002E+03  0.17130000000E+03 0. -1.
      622    1    1    2    0    0 -0.42268447791E-02 -0.25546095810E-02  0.39747574375E+01  0.39749617708E+01  0.40000000000E-01 0.  1.
</event>
<event>
 5   0  0.6200596E+07  0.9118800E+02  0.7818608E-02  0.1180000E+00
       11   -1    0    0    0    0  0.00000000000E+00  0.00000000000E+00  0.39999999673E+01  0.40000000000E+01  0.51109989000E-03 0.  1.
     -623   -1    0    0    0    0  0.00000000000E+00  0.00000000000E+00  0.12525980253E-10  0.17130000000E+03  0.17130000000E+03 0.  1.
       11    1    1    2    0    0  0.26151002667E-01 -0.19535957503E-01  0.25505768666E+01  0.25507857892E+01  0.51109989000E-03 0.  1.
     -623    1    1    2    0    0  0.23362702624E-01  0.18790859785E-01  0.16102537813E-02  0.17130000263E+03  0.17130000000E+03 0.  1.
      622    1    1    2    0    0 -0.49513705291E-01  0.74509771746E-03  0.14478128470E+01  0.14492115795E+01  0.40000000000E-01 0.  0.
</event>
<event>
 5   0  0.6200596E+07  0.9118800E+02  0.7818608E-02  0.1180000E+00
       11   -1    0    0    0    0  0.00000000000E+00  0.00000000000E+00  0.39999999673E+01  0.40000000000E+01  0.51109989000E-03 0. -1.
     -623   -1    0    0    0    0  0.00000000000E+00  0.00000000000E+00  0.12525980253E-10  0.17130000000E+03  0.17130000000E+03 0.  1.
       11    1    1    2    0    0 -0.29889300978E-03  0.11716773190E-03  0.12102919736E+00  0.12103070230E+00  0.51109989000E-03 0. -1.
     -623    1    1    2    0    0  0.69624329880E-04 -0.32085114042E-02  0.20898699582E-03  0.17130000003E+03  0.17130000000E+03 0.  1.
      622    1    1    2    0    0  0.22926867990E-03  0.30913436723E-02  0.38787617830E+01  0.38789692675E+01  0.40000000000E-01 0. -1.
</event>
<event>
 5   0  0.6200596E+07  0.9118800E+02  0.7818608E-02  0.1180000E+00
       11   -1    0    0    0    0  0.00000000000E+00  0.00000000000E+00  0.39999999673E+01  0.40000000000E+01  0.51109989000E-03 0. -1.
     -623   -1    0    0    0    0  0.00000000000E+00  0.00000000000E+00  0.12525980253E-10  0.17130000000E+03  0.17130000000E+03 0. -1.
       11    1    1    2    0    0  0.17337978565E-01 -0.13855402356E-01  0.38154475939E+00  0.38219006046E+00  0.51109989000E-03 0. -1.
     -623    1    1    2    0    0 -0.12366436475E-02  0.11556136887E-02  0.92453878954E-03  0.17130000001E+03  0.17130000000E+03 0. -1.
      622    1    1    2    0    0 -0.16101334918E-01  0.12699788667E-01  0.36175306692E+01  0.36178099287E+01  0.40000000000E-01 0.  0.
</event>
<event>
 5   0  0.6200596E+07  0.9118800E+02  0.7818608E-02  0.1180000E+00
       11   -1    0    0    0    0  0.00000000000E+00  0.00000000000E+00  0.39999999673E+01  0.40000000000E+01  0.51109989000E-03 0.  1.
     -623   -1    0    0    0    0  0.00000000000E+00  0.00000000000E+00  0.12525980253E-10  0.17130000000E+03  0.17130000000E+03 0. -1.
       11    1    1    2    0    0  0.24965934339E-02  0.23848287651E-03  0.84969188191E-01  0.85007729147E-01  0.51109989000E-03 0.  1.
     -623    1    1    2    0    0 -0.46117743495E-02  0.12074173487E-03  0.24350652752E-03  0.17130000006E+03  0.17130000000E+03 0. -1.
      622    1    1    2    0    0  0.21151809156E-02 -0.35922461138E-03  0.39147872726E+01  0.39149922086E+01  0.40000000000E-01 0.  1.
</event>
<event>
 5   0  0.6200596E+07  0.9118800E+02  0.7818608E-02  0.1180000E+00
       11   -1    0    0    0    0  0.00000000000E+00  0.00000000000E+00  0.39999999673E+01  0.40000000000E+01  0.51109989000E-03 0. -1.
     -623   -1    0    0    0    0  0.00000000000E+00  0.00000000000E+00  0.12525980253E-10  0.17130000000E+03  0.17130000000E+03 0.  1.
       11    1    1    2    0    0 -0.31226763707E-01 -0.16143890997E-01  0.21776837922E+01  0.21779675608E+01  0.51109989000E-03 0. -1.
     -623    1    1    2    0    0  0.33504422680E-03  0.15480378049E-02  0.10433142548E-02  0.17130000001E+03  0.17130000000E+03 0.  1.
      622    1    1    2    0    0  0.30891719480E-01  0.14595853192E-01  0.18212728609E+01  0.18220324287E+01  0.40000000000E-01 0.  1.
</event>
<event>
 5   0  0.6200596E+07  0.9118800E+02  0.7818608E-02  0.1180000E+00
       11   -1    0    0    0    0  0.00000000000E+00  0.00000000000E+00  0.39999999673E+01  0.40000000000E+01  0.51109989000E-03 0.  1.
     -623   -1    0    0    0    0  0.00000000000E+00  0.00000000000E+00  0.12525980253E-10  0.17130000000E+03  0.17130000000E+03 0. -1.
       11    1    1    2    0    0  0.14029236328E-01  0.97578558092E-02  0.22103439501E+01  0.22104100693E+01  0.51109989000E-03 0.  1.
     -623    1    1    2    0    0 -0.18718342611E-01  0.27013207249E-01  0.90038017155E-03  0.17130000315E+03  0.17130000000E+03 0. -1.
      622    1    1    2    0    0  0.46891062826E-02 -0.36771063058E-01  0.17887556370E+01  0.17895867757E+01  0.40000000000E-01 0.  0.
</event>
<event>
 5   0  0.6200596E+07  0.9118800E+02  0.7818608E-02  0.1180000E+00
       11   -1    0    0    0    0  0.00000000000E+00  0.00000000000E+00  0.39999999673E+01  0.40000000000E+01  0.51109989000E-03 0. -1.
     -623   -1    0    0    0    0  0.00000000000E+00  0.00000000000E+00  0.12525980253E-10  0.17130000000E+03  0.17130000000E+03 0. -1.
       11    1    1    2    0    0 -0.20807459293E-01 -0.18675148569E-01  0.10187865945E+01  0.10191702988E+01  0.51109989000E-03 0. -1.
     -623    1    1    2    0    0  0.11283324414E-01  0.22169304283E-02  0.71311017311E-03  0.17130000039E+03  0.17130000000E+03 0. -1.
      622    1    1    2    0    0  0.95241348787E-02  0.16458218141E-01  0.29805002627E+01  0.29808293138E+01  0.40000000000E-01 0.  1.
</event>
<event>
 5   0  0.6200596E+07  0.9118800E+02  0.7818608E-02  0.1180000E+00
       11   -1    0    0    0    0  0.00000000000E+00  0.00000000000E+00  0.39999999673E+01  0.40000000000E+01  0.51109989000E-03 0. -1.
     -623   -1    0    0    0    0  0.00000000000E+00  0.00000000000E+00  0.12525980253E-10  0.17130000000E+03  0.17130000000E+03 0. -1.
       11    1    1    2    0    0  0.22042468578E-02  0.56866017249E-03  0.13394860400E+00  0.13396892108E+00  0.51109989000E-03 0. -1.
     -623    1    1    2    0    0  0.74514352535E-03 -0.33915672183E-03  0.22835456439E-03  0.17130000000E+03  0.17130000000E+03 0. -1.
      622    1    1    2    0    0 -0.29493903832E-02 -0.22950345066E-03  0.38658230088E+01  0.38660310768E+01  0.40000000000E-01 0. -1.
</event>
<event>
 5   0  0.6200596E+07  0.9118800E+02  0.7818608E-02  0.1180000E+00
       11   -1    0    0    0    0  0.00000000000E+00  0.00000000000E+00  0.39999999673E+01  0.40000000000E+01  0.51109989000E-03 0. -1.
     -623   -1    0    0    0    0  0.00000000000E+00  0.00000000000E+00  0.12525980253E-10  0.17130000000E+03  0.17130000000E+03 0. -1.
       11    1    1    2    0    0 -0.77514239900E-03 -0.88329492737E-03  0.28089085137E-02  0.30874332024E-02  0.51109989000E-03 0. -1.
     -623    1    1    2    0    0  0.12543118906E-02 -0.21979510156E-02  0.47988737760E-03  0.17130000002E+03  0.17130000000E+03 0. -1.
      622    1    1    2    0    0 -0.47916949158E-03  0.30812459429E-02  0.39967111715E+01  0.39969125474E+01  0.40000000000E-01 0. -1.
</event>
<event>
 5   0  0.6200596E+07  0.9118800E+02  0.7818608E-02  0.1180000E+00
       11   -1    0    0    0    0  0.00000000000E+00  0.00000000000E+00  0.39999999673E+01  0.40000000000E+01  0.51109989000E-03 0. -1.
     -623   -1    0    0    0    0  0.00000000000E+00  0.00000000000E+00  0.12525980253E-10  0.17130000000E+03  0.17130000000E+03 0. -1.
       11    1    1    2    0    0  0.23773217531E-02  0.26296759083E-03  0.45494326215E-01  0.45560023584E-01  0.51109989000E-03 0. -1.
     -623    1    1    2    0    0  0.19460267881E-02  0.10878691909E-02  0.27058306581E-03  0.17130000001E+03  0.17130000000E+03 0. -1.
      622    1    1    2    0    0 -0.43233485412E-02 -0.13508367818E-02  0.39542350581E+01  0.39544399617E+01  0.40000000000E-01 0. -1.
</event>
<event>
 5   0  0.6200596E+07  0.9118800E+02  0.7818608E-02  0.1180000E+00
       11   -1    0    0    0    0  0.00000000000E+00  0.00000000000E+00  0.39999999673E+01  0.40000000000E+01  0.51109989000E-03 0. -1.
     -623   -1    0    0    0    0  0.00000000000E+00  0.00000000000E+00  0.12525980253E-10  0.17130000000E+03  0.17130000000E+03 0.  1.
       11    1    1    2    0    0 -0.62476935020E-02 -0.75386513889E-02  0.58258924132E+00  0.58267173457E+00  0.51109989000E-03 0. -1.
     -623    1    1    2    0    0 -0.68190363586E-03 -0.67828185425E-02  0.35374373256E-03  0.17130000014E+03  0.17130000000E+03 0.  1.
      622    1    1    2    0    0  0.69295971378E-02  0.14321469931E-01  0.34170569823E+01  0.34173281294E+01  0.40000000000E-01 0. -1.
</event>
<event>
 5   0  0.6200596E+07  0.9118800E+02  0.7818608E-02  0.1180000E+00
       11   -1    0    0    0    0  0.00000000000E+00  0.00000000000E+00  0.39999999673E+01  0.40000000000E+01  0.51109989000E-03 0.  1.
     -623   -1    0    0    0    0  0.00000000000E+00  0.00000000000E+00  0.12525980253E-10  0.17130000000E+03  0.17130000000E+03 0. -1.
       11    1    1    2    0    0  0.41970822668E-02  0.73352195281E-02  0.54832288387E+00  0.54838824490E+00  0.51109989000E-03 0.  1.
     -623    1    1    2    0    0  0.78508773873E-03 -0.87917325943E-03  0.30675048827E-03  0.17130000000E+03  0.17130000000E+03 0. -1.
      622    1    1    2    0    0 -0.49821700055E-02 -0.64560462687E-02  0.34513703330E+01  0.34516117508E+01  0.40000000000E-01 0.  1.
</event>
<event>
 5   0  0.6200596E+07  0.9118800E+02  0.7818608E-02  0.1180000E+00
       11   -1    0    0    0    0  0.00000000000E+00  0.00000000000E+00  0.39999999673E+01  0.40000000000E+01  0.51109989000E-03 0.  1.
     -623   -1    0    0    0    0  0.00000000000E+00  0.00000000000E+00  0.12525980253E-10  0.17130000000E+03  0.17130000000E+03 0. -1.
       11    1    1    2    0    0  0.46113976278E-02 -0.34896943427E-03  0.36047575411E-01  0.36346604821E-01  0.51109989000E-03 0.  1.
     -623    1    1    2    0    0 -0.17194160987E-02 -0.18197785320E-02  0.50250337888E-03  0.17130000002E+03  0.17130000000E+03 0. -1.
      622    1    1    2    0    0 -0.28919815291E-02  0.21687479663E-02  0.39634498886E+01  0.39636533761E+01  0.40000000000E-01 0.  1.
</event>
<event>
 5   0  0.6200596E+07  0.9118800E+02  0.7818608E-02  0.1180000E+00
       11   -1    0    0    0    0  0.00000000000E+00  0.00000000000E+00  0.39999999673E+01  0.40000000000E+01  0.51109989000E-03 0.  1.
     -623   -1    0    0    0    0  0.00000000000E+00  0.00000000000E+00  0.12525980253E-10  0.17130000000E+03  0.17130000000E+03 0.  1.
       11    1    1    2    0    0  0.14894453656E-01 -0.58534199691E-02  0.72467820455E+00  0.72485506734E+00  0.51109989000E-03 0.  1.
     -623    1    1    2    0    0 -0.11466690731E-01 -0.74435058949E-02  0.45043785154E-03  0.17130000055E+03  0.17130000000E+03 0.  1.
      622    1    1    2    0    0 -0.34277629252E-02  0.13296925864E-01  0.32748713250E+01  0.32751443866E+01  0.40000000000E-01 0.  1.
</event>
<event>
 5   0  0.6200596E+07  0.9118800E+02  0.7818608E-02  0.1180000E+00
       11   -1    0    0    0    0  0.00000000000E+00  0.00000000000E+00  0.39999999673E+01  0.40000000000E+01  0.51109989000E-03 0.  1.
     -623   -1    0    0    0    0  0.00000000000E+00  0.00000000000E+00  0.12525980253E-10  0.17130000000E+03  0.17130000000E+03 0. -1.
       11    1    1    2    0    0 -0.60606617271E-02  0.87877160067E-02  0.10366790616E+01  0.10367341479E+01  0.51109989000E-03 0.  1.
     -623    1    1    2    0    0  0.61298075018E-03 -0.40036699875E-03  0.34191938569E-03  0.17130000000E+03  0.17130000000E+03 0. -1.
      622    1    1    2    0    0  0.54476809769E-02 -0.83873490080E-02  0.29629789864E+01  0.29632658502E+01  0.40000000000E-01 0.  1.
</event>
<event>
 5   0  0.6200596E+07  0.9118800E+02  0.7818608E-02  0.1180000E+00
       11   -1    0    0    0    0  0.00000000000E+00  0.00000000000E+00  0.39999999673E+01  0.40000000000E+01  0.51109989000E-03 0.  1.
     -623   -1    0    0    0    0  0.00000000000E+00  0.00000000000E+00  0.12525980253E-10  0.17130000000E+03  0.17130000000E+03 0.  1.
       11    1    1    2    0    0  0.97352638305E-03  0.37767961074E-02  0.35704371471E-01  0.35920402353E-01  0.51109989000E-03 0.  1.
     -623    1    1    2    0    0 -0.52833602823E-02 -0.69772153984E-02  0.42167477170E-03  0.17130000022E+03  0.17130000000E+03 0.  1.
      622    1    1    2    0    0  0.43098338993E-02  0.32004192909E-02  0.39638739211E+01  0.39640793736E+01  0.40000000000E-01 0.  1.
</event>
<event>
 5   0  0.6200596E+07  0.9118800E+02  0.7818608E-02  0.1180000E+00
       11   -1    0    0    0    0  0.00000000000E+00  0.00000000000E+00  0.39999999673E+01  0.40000000000E+01  0.51109989000E-03 0. -1.
     -623   -1    0    0    0    0  0.00000000000E+00  0.00000000000E+00  0.12525980253E-10  0.17130000000E+03  0.17130000000E+03 0.  1.
       11    1    1    2    0    0 -0.11087217895E-02  0.18725132256E-02  0.99334753439E-02  0.10181882105E-01  0.51109989000E-03 0. -1.
     -623    1    1    2    0    0  0.18470154177E-02  0.73553782478E-03  0.44982244716E-03  0.17130000001E+03  0.17130000000E+03 0.  1.
      622    1    1    2    0    0 -0.73829362822E-03 -0.26080510504E-02  0.39896166696E+01  0.39898181058E+01  0.40000000000E-01 0. -1.
</event>
<event>
 5   0  0.6200596E+07  0.9118800E+02  0.7818608E-02  0.1180000E+00
       11   -1    0    0    0    0  0.00000000000E+00  0.00000000000E+00  0.39999999673E+01  0.40000000000E+01  0.51109989000E-03 0.  1.
     -623   -1    0    0    0    0  0.00000000000E+00  0.00000000000E+00  0.12525980253E-10  0.17130000000E+03  0.17130000000E+03 0.  1.
       11    1    1    2    0    0  0.36110337384E-01  0.28306172175E-01  0.42088979339E+00  0.42338360295E+00  0.51109989000E-03 0.  1.
     -623    1    1    2    0    0  0.22052875982E-02  0.69688140321E-02  0.30968736482E-02  0.17130000018E+03  0.17130000000E+03 0.  1.
      622    1    1    2    0    0 -0.38315624983E-01 -0.35274986207E-01  0.35760133003E+01  0.35766162131E+01  0.40000000000E-01 0.  1.
</event>
<event>
 5   0  0.6200596E+07  0.9118800E+02  0.7818608E-02  0.1180000E+00
       11   -1    0    0    0    0  0.00000000000E+00  0.00000000000E+00  0.39999999673E+01  0.40000000000E+01  0.51109989000E-03 0.  1.
     -623   -1    0    0    0    0  0.00000000000E+00  0.00000000000E+00  0.12525980253E-10  0.17130000000E+03  0.17130000000E+03 0.  1.
       11    1    1    2    0    0  0.83278730720E-01  0.17071000143E-01  0.14086732291E+01  0.14112360872E+01  0.51109989000E-03 0.  1.
     -623    1    1    2    0    0 -0.14193380065E-01 -0.59868610664E-02  0.38184491384E-02  0.17130000074E+03  0.17130000000E+03 0.  1.
      622    1    1    2    0    0 -0.69085350654E-01 -0.11084139076E-01  0.25875082891E+01  0.25887631776E+01  0.40000000000E-01 0.  1.
</event>
<event>
 5   0  0.6200596E+07  0.9118800E+02  0.7818608E-02  0.1180000E+00
       11   -1    0    0    0    0  0.00000000000E+00  0.00000000000E+00  0.39999999673E+01  0.40000000000E+01  0.51109989000E-03 0. -1.
     -623   -1    0    0    0    0  0.00000000000E+00  0.00000000000E+00  0.12525980253E-10  0.17130000000E+03  0.17130000000E+03 0.  1.
       11    1    1    2    0    0 -0.10526973086E-03 -0.71218144151E-02  0.12379199875E+01  0.12379405834E+01  0.51109989000E-03 0. -1.
     -623    1    1    2    0    0  0.79606785254E-02  0.25549785157E-02  0.32536934933E-03  0.17130000020E+03  0.17130000000E+03 0.  1.
      622    1    1    2    0    0 -0.78554087946E-02  0.45668358994E-02  0.27617546105E+01  0.27620592123E+01  0.40000000000E-01 0. -1.
</event>
<event>
 5   0  0.6200596E+07  0.9118800E+02  0.7818608E-02  0.1180000E+00
       11   -1    0    0    0    0  0.00000000000E+00  0.00000000000E+00  0.39999999673E+01  0.40000000000E+01  0.51109989000E-03 0.  1.
     -623   -1    0    0    0    0  0.00000000000E+00  0.00000000000E+00  0.12525980253E-10  0.17130000000E+03  0.17130000000E+03 0. -1.
       11    1    1    2    0    0  0.82343731116E-03  0.24310229565E-02  0.51914630872E+00  0.51915290522E+00  0.51109989000E-03 0.  1.
     -623    1    1    2    0    0 -0.24298707011E-02 -0.29387836335E-02  0.23685092196E-03  0.17130000004E+03  0.17130000000E+03 0. -1.
      622    1    1    2    0    0  0.16064333900E-02  0.50776067698E-03  0.34806168077E+01  0.34808470522E+01  0.40000000000E-01 0.  1.
</event>
<event>
 5   0  0.6200596E+07  0.9118800E+02  0.7818608E-02  0.1180000E+00
       11   -1    0    0    0    0  0.00000000000E+00  0.00000000000E+00  0.39999999673E+01  0.40000000000E+01  0.51109989000E-03 0.  1.
     -623   -1    0    0    0    0  0.00000000000E+00  0.00000000000E+00  0.12525980253E-10  0.17130000000E+03  0.17130000000E+03 0. -1.
       11    1    1    2    0    0 -0.36504390958E-02 -0.17838619478E-02  0.14233723940E+01  0.14233782847E+01  0.51109989000E-03 0.  1.
     -623    1    1    2    0    0 -0.53605326559E-02  0.68703659077E-03  0.33243836320E-03  0.17130000009E+03  0.17130000000E+03 0. -1.
      622    1    1    2    0    0  0.90109717517E-02  0.10968253571E-02  0.25762951349E+01  0.25766216298E+01  0.40000000000E-01 0.  1.
</event>
<event>
 5   0  0.6200596E+07  0.9118800E+02  0.7818608E-02  0.1180000E+00
       11   -1    0    0    0    0  0.00000000000E+00  0.00000000000E+00  0.39999999673E+01  0.40000000000E+01  0.51109989000E-03 0. -1.
     -623   -1    0    0    0    0  0.00000000000E+00  0.00000000000E+00  0.12525980253E-10  0.17130000000E+03  0.17130000000E+03 0. -1.
       11    1    1    2    0    0 -0.28415907315E-03 -0.49367190378E-02  0.16238773279E-01  0.16982665305E-01  0.51109989000E-03 0. -1.
     -623    1    1    2    0    0  0.23050070249E-02  0.66656327728E-02  0.94575295287E-03  0.17130000015E+03  0.17130000000E+03 0. -1.
      622    1    1    2    0    0 -0.20208479517E-02 -0.17289137351E-02  0.39828154411E+01  0.39830171869E+01  0.40000000000E-01 0. -1.
</event>
<event>
 5   0  0.6200596E+07  0.9118800E+02  0.7818608E-02  0.1180000E+00
       11   -1    0    0    0    0  0.00000000000E+00  0.00000000000E+00  0.39999999673E+01  0.40000000000E+01  0.51109989000E-03 0. -1.
     -623   -1    0    0    0    0  0.00000000000E+00  0.00000000000E+00  0.12525980253E-10  0.17130000000E+03  0.17130000000E+03 0. -1.
       11    1    1    2    0    0  0.92000010368E-02  0.34032929134E-02  0.54452060181E+00  0.54460918964E+00  0.51109989000E-03 0. -1.
     -623    1    1    2    0    0 -0.49219337142E-03 -0.84958865151E-03  0.33200496702E-03  0.17130000000E+03  0.17130000000E+03 0. -1.
      622    1    1    2    0    0 -0.87078076654E-02 -0.25537042619E-02  0.34551473606E+01  0.34553908072E+01  0.40000000000E-01 0. -1.
</event>
<event>
 5   0  0.6200596E+07  0.9118800E+02  0.7818608E-02  0.1180000E+00
       11   -1    0    0    0    0  0.00000000000E+00  0.00000000000E+00  0.39999999673E+01  0.40000000000E+01  0.51109989000E-03 0.  1.
     -623   -1    0    0    0    0  0.00000000000E+00  0.00000000000E+00  0.12525980253E-10  0.17130000000E+03  0.17130000000E+03 0. -1.
       11    1    1    2    0    0  0.18409134206E-01  0.29325811952E-01  0.11511617892E+00  0.12021187686E+00  0.51109989000E-03 0.  1.
     -623    1    1    2    0    0 -0.28828027399E-01 -0.13923333866E-01  0.53495084994E-02  0.17130000308E+03  0.17130000000E+03 0. -1.
      622    1    1    2    0    0  0.10418893193E-01 -0.15402478086E-01  0.38795342799E+01  0.38797850480E+01  0.40000000000E-01 0.  1.
</event>
<event>
 5   0  0.6200596E+07  0.9118800E+02  0.7818608E-02  0.1180000E+00
       11   -1    0    0    0    0  0.00000000000E+00  0.00000000000E+00  0.39999999673E+01  0.40000000000E+01  0.51109989000E-03 0. -1.
     -623   -1    0    0    0    0  0.00000000000E+00  0.00000000000E+00  0.12525980253E-10  0.17130000000E+03  0.17130000000E+03 0.  1.
       11    1    1    2    0    0 -0.13329517756E-01 -0.10487246906E-02  0.61745070783E-01  0.63178246695E-01  0.51109989000E-03 0. -1.
     -623    1    1    2    0    0  0.19082474576E-02  0.80069971378E-02  0.16592818437E-02  0.17130000021E+03  0.17130000000E+03 0.  1.
      622    1    1    2    0    0  0.11421270298E-01 -0.69582724471E-02  0.39365956147E+01  0.39368215475E+01  0.40000000000E-01 0. -1.
</event>
<event>
 5   0  0.6200596E+07  0.9118800E+02  0.7818608E-02  0.1180000E+00
       11   -1    0    0    0    0  0.00000000000E+00  0.00000000000E+00  0.39999999673E+01  0.40000000000E+01  0.51109989000E-03 0. -1.
     -623   -1    0    0    0    0  0.00000000000E+00  0.00000000000E+00  0.12525980253E-10  0.17130000000E+03  0.17130000000E+03 0. -1.
       11    1    1    2    0    0  0.41840561222E-02  0.98530395366E-03  0.17079319921E-01  0.17619351260E-01  0.51109989000E-03 0. -1.
     -623    1    1    2    0    0 -0.64127221759E-02 -0.25019221085E-02  0.74194099879E-03  0.17130000014E+03  0.17130000000E+03 0. -1.
      622    1    1    2    0    0  0.22286660537E-02  0.15166181549E-02  0.39821787064E+01  0.39823805088E+01  0.40000000000E-01 0. -1.
</event>
<event>
 5   0  0.6200596E+07  0.9118800E+02  0.7818608E-02  0.1180000E+00
       11   -1    0    0    0    0  0.00000000000E+00  0.00000000000E+00  0.39999999673E+01  0.40000000000E+01  0.51109989000E-03 0. -1.
     -623   -1    0    0    0    0  0.00000000000E+00  0.00000000000E+00  0.12525980253E-10  0.17130000000E+03  0.17130000000E+03 0. -1.
       11    1    1    2    0    0  0.16130500802E-02 -0.50575211278E-02  0.12588059429E+01  0.12588172399E+01  0.51109989000E-03 0. -1.
     -623    1    1    2    0    0  0.20316396788E-02 -0.57428802950E-03  0.31134726023E-03  0.17130000001E+03  0.17130000000E+03 0. -1.
      622    1    1    2    0    0 -0.36446897590E-02  0.56318091574E-02  0.27408826772E+01  0.27411827468E+01  0.40000000000E-01 0. -1.
</event>
<event>
 5   0  0.6200596E+07  0.9118800E+02  0.7818608E-02  0.1180000E+00
       11   -1    0    0    0    0  0.00000000000E+00  0.00000000000E+00  0.39999999673E+01  0.40000000000E+01  0.51109989000E-03 0.  1.
     -623   -1    0    0    0    0  0.00000000000E+00  0.00000000000E+00  0.12525980253E-10  0.17130000000E+03  0.17130000000E+03 0.  1.
       11    1    1    2    0    0  0.55596792450E-04 -0.40986247787E-02  0.13824863215E+01  0.13824924926E+01  0.51109989000E-03 0.  1.
     -623    1    1    2    0    0 -0.68263468048E-03 -0.17080332329E-02  0.31831737433E-03  0.17130000001E+03  0.17130000000E+03 0.  1.
      622    1    1    2    0    0  0.62703788803E-03  0.58066580116E-02  0.26171953285E+01  0.26175074972E+01  0.40000000000E-01 0.  1.
</event>
<event>
 5   0  0.6200596E+07  0.9118800E+02  0.7818608E-02  0.1180000E+00
       11   -1    0    0    0    0  0.00000000000E+00  0.00000000000E+00  0.39999999673E+01  0.40000000000E+01  0.51109989000E-03 0. -1.
     -623   -1    0    0    0    0  0.00000000000E+00  0.00000000000E+00  0.12525980253E-10  0.17130000000E+03  0.17130000000E+03 0.  1.
       11    1    1    2    0    0  0.38858177233E-02  0.66071850425E-02  0.37491880374E+00  0.37499750012E+00  0.51109989000E-03 0. -1.
     -623    1    1    2    0    0  0.82538501698E-03 -0.79580747739E-03  0.30708420108E-03  0.17130000000E+03  0.17130000000E+03 0.  1.
      622    1    1    2    0    0 -0.47112027402E-02 -0.58113775651E-02  0.36247740794E+01  0.36250024958E+01  0.40000000000E-01 0. -1.
</event>
<event>
 5   0  0.6200596E+07  0.9118800E+02  0.7818608E-02  0.1180000E+00
       11   -1    0    0    0    0  0.00000000000E+00  0.00000000000E+00  0.39999999673E+01  0.40000000000E+01  0.51109989000E-03 0.  1.
     -623   -1    0    0    0    0  0.00000000000E+00  0.00000000000E+00  0.12525980253E-10  0.17130000000E+03  0.17130000000E+03 0. -1.
       11    1    1    2    0    0  0.48920699502E-03  0.16035303871E-03  0.14593071412E-01  0.14611091350E-01  0.51109989000E-03 0.  1.
     -623    1    1    2    0    0  0.16639077629E-03 -0.14782664877E-02  0.21900403046E-03  0.17130000001E+03  0.17130000000E+03 0. -1.
      622    1    1    2    0    0 -0.65559777131E-03  0.13179134490E-02  0.39851878919E+01  0.39853889021E+01  0.40000000000E-01 0.  1.
</event>
<event>
 5   0  0.6200596E+07  0.9118800E+02  0.7818608E-02  0.1180000E+00
       11   -1    0    0    0    0  0.00000000000E+00  0.00000000000E+00  0.39999999673E+01  0.40000000000E+01  0.51109989000E-03 0. -1.
     -623   -1    0    0    0    0  0.00000000000E+00  0.00000000000E+00  0.12525980253E-10  0.17130000000E+03  0.17130000000E+03 0.  1.
       11    1    1    2    0    0  0.67534733408E-02 -0.14241748124E-02  0.12981521512E+00  0.12999957297E+00  0.51109989000E-03 0. -1.
     -623    1    1    2    0    0  0.40214842477E-03  0.13555551754E-02  0.39767168633E-03  0.17130000001E+03  0.17130000000E+03 0.  1.
      622    1    1    2    0    0 -0.71556217655E-02  0.68619636961E-04  0.38697870806E+01  0.38700004207E+01  0.40000000000E-01 0. -1.
</event>
<event>
 5   0  0.6200596E+07  0.9118800E+02  0.7818608E-02  0.1180000E+00
       11   -1    0    0    0    0  0.00000000000E+00  0.00000000000E+00  0.39999999673E+01  0.40000000000E+01  0.51109989000E-03 0.  1.
     -623   -1    0    0    0    0  0.00000000000E+00  0.00000000000E+00  0.12525980253E-10  0.17130000000E+03  0.17130000000E+03 0.  1.
       11    1    1    2    0    0 -0.11438637476E-03 -0.54657364396E-02  0.41213759294E+00  0.41217416718E+00  0.51109989000E-03 0.  1.
     -623    1    1    2    0    0 -0.10965761039E-01 -0.10031025218E-02  0.28282132907E-03  0.17130000035E+03  0.17130000000E+03 0.  1.
      622    1    1    2    0    0  0.11080147414E-01  0.64688389614E-02  0.35875795531E+01  0.35878254787E+01  0.40000000000E-01 0.  1.
</event>
<event>
 5   0  0.6200596E+07  0.9118800E+02  0.7818608E-02  0.1180000E+00
       11   -1    0    0    0    0  0.00000000000E+00  0.00000000000E+00  0.39999999673E+01  0.40000000000E+01  0.51109989000E-03 0.  1.
     -623   -1    0    0    0    0  0.00000000000E+00  0.00000000000E+00  0.12525980253E-10  0.17130000000E+03  0.17130000000E+03 0.  1.
       11    1    1    2    0    0  0.29460886160E-03  0.24833281780E-02  0.21616395555E-01  0.21766568207E-01  0.51109989000E-03 0.  1.
     -623    1    1    2    0    0  0.28636636665E-02 -0.10640421803E-02  0.35277389188E-03  0.17130000003E+03  0.17130000000E+03 0.  1.
      622    1    1    2    0    0 -0.31582725281E-02 -0.14192859977E-02  0.39780307979E+01  0.39782334042E+01  0.40000000000E-01 0.  1.
</event>
<event>
 5   0  0.6200596E+07  0.9118800E+02  0.7818608E-02  0.1180000E+00
       11   -1    0    0    0    0  0.00000000000E+00  0.00000000000E+00  0.39999999673E+01  0.40000000000E+01  0.51109989000E-03 0. -1.
     -623   -1    0    0    0    0  0.00000000000E+00  0.00000000000E+00  0.12525980253E-10  0.17130000000E+03  0.17130000000E+03 0. -1.
       11    1    1    2    0    0 -0.24920802644E-02  0.15078157179E-02  0.48311625495E-01  0.48402049049E-01  0.51109989000E-03 0. -1.
     -623    1    1    2    0    0  0.67850771477E-02  0.92126349798E-03  0.29606165368E-03  0.17130000014E+03  0.17130000000E+03 0. -1.
      622    1    1    2    0    0 -0.42929968833E-02 -0.24290792159E-02  0.39513922802E+01  0.39515978138E+01  0.40000000000E-01 0. -1.
</event>
<event>
 5   0  0.6200596E+07  0.9118800E+02  0.7818608E-02  0.1180000E+00
       11   -1    0    0    0    0  0.00000000000E+00  0.00000000000E+00  0.39999999673E+01  0.40000000000E+01  0.51109989000E-03 0.  1.
     -623   -1    0    0    0    0  0.00000000000E+00  0.00000000000E+00  0.12525980253E-10  0.17130000000E+03  0.17130000000E+03 0. -1.
       11    1    1    2    0    0  0.70767963832E-02  0.39491469838E-02  0.54076563242E+00  0.54082659628E+00  0.51109989000E-03 0.  1.
     -623    1    1    2    0    0 -0.27739288573E-02 -0.37094371748E-04  0.29711940205E-03  0.17130000002E+03  0.17130000000E+03 0. -1.
      622    1    1    2    0    0 -0.43028675259E-02 -0.39120526121E-02  0.34589372155E+01  0.34591733810E+01  0.40000000000E-01 0.  1.
</event>
<event>
 5   0  0.6200596E+07  0.9118800E+02  0.7818608E-02  0.1180000E+00
       11   -1    0    0    0    0  0.00000000000E+00  0.00000000000E+00  0.39999999673E+01  0.40000000000E+01  0.51109989000E-03 0.  1.
     -623   -1    0    0    0    0  0.00000000000E+00  0.00000000000E+00  0.12525980253E-10  0.17130000000E+03  0.17130000000E+03 0.  1.
       11    1    1    2    0    0 -0.26784923435E-03  0.25937593481E-02  0.20058335607E-01  0.20233570563E-01  0.51109989000E-03 0.  1.
     -623    1    1    2    0    0  0.16860801650E-02 -0.15656817543E-02  0.37662559260E-03  0.17130000002E+03  0.17130000000E+03 0.  1.
      622    1    1    2    0    0 -0.14182309307E-02 -0.10280775938E-02  0.39795650062E+01  0.39797664136E+01  0.40000000000E-01 0.  1.
</event>
<event>
 5   0  0.6200596E+07  0.9118800E+02  0.7818608E-02  0.1180000E+00
       11   -1    0    0    0    0  0.00000000000E+00  0.00000000000E+00  0.39999999673E+01  0.40000000000E+01  0.51109989000E-03 0.  1.
     -623   -1    0    0    0    0  0.00000000000E+00  0.00000000000E+00  0.12525980253E-10  0.17130000000E+03  0.17130000000E+03 0.  1.
       11    1    1    2    0    0 -0.85567849423E-02  0.36184143715E-01  0.17324516393E+01  0.17328506729E+01  0.51109989000E-03 0.  1.
     -623    1    1    2    0    0 -0.36321989076E-02 -0.34911926472E-02  0.10205163391E-02  0.17130000008E+03  0.17130000000E+03 0.  1.
      622    1    1    2    0    0  0.12188983850E-01 -0.32692951067E-01  0.22665278117E+01  0.22671492500E+01  0.40000000000E-01 0.  1.
</event>
<event>
 5   0  0.6200596E+07  0.9118800E+02  0.7818608E-02  0.1180000E+00
       11   -1    0    0    0    0  0.00000000000E+00  0.00000000000E+00  0.39999999673E+01  0.40000000000E+01  0.51109989000E-03 0. -1.
     -623   -1    0    0    0    0  0.00000000000E+00  0.00000000000E+00  0.12525980253E-10  0.17130000000E+03  0.17130000000E+03 0. -1.
       11    1    1    2    0    0  0.17091499111E-02 -0.46296947100E-02  0.12303829509E+01  0.12303929545E+01  0.51109989000E-03 0. -1.
     -623    1    1    2    0    0 -0.66351006462E-03 -0.40897772762E-02  0.31281051030E-03  0.17130000005E+03  0.17130000000E+03 0. -1.
      622    1    1    2    0    0 -0.10456398465E-02  0.87194719862E-02  0.27693042059E+01  0.27696069951E+01  0.40000000000E-01 0. -1.
</event>
<event>
 5   0  0.6200596E+07  0.9118800E+02  0.7818608E-02  0.1180000E+00
       11   -1    0    0    0    0  0.00000000000E+00  0.00000000000E+00  0.39999999673E+01  0.40000000000E+01  0.51109989000E-03 0. -1.
     -623   -1    0    0    0    0  0.00000000000E+00  0.00000000000E+00  0.12525980253E-10  0.17130000000E+03  0.17130000000E+03 0.  1.
       11    1    1    2    0    0  0.24800410642E-01  0.50221598604E-02  0.23936720047E+00  0.24070147556E+00  0.51109989000E-03 0. -1.
     -623    1    1    2    0    0  0.19996407299E-01  0.77664228995E-02  0.18370927185E-02  0.17130000135E+03  0.17130000000E+03 0.  1.
      622    1    1    2    0    0 -0.44796817941E-01 -0.12788582760E-01  0.37587956742E+01  0.37592971714E+01  0.40000000000E-01 0. -1.
</event>
<event>
 5   0  0.6200596E+07  0.9118800E+02  0.7818608E-02  0.1180000E+00
       11   -1    0    0    0    0  0.00000000000E+00  0.00000000000E+00  0.39999999673E+01  0.40000000000E+01  0.51109989000E-03 0. -1.
     -623   -1    0    0    0    0  0.00000000000E+00  0.00000000000E+00  0.12525980253E-10  0.17130000000E+03  0.17130000000E+03 0. -1.
       11    1    1    2    0    0  0.19441637546E-02  0.10506636390E-02  0.10630826301E-01  0.10870112988E-01  0.51109989000E-03 0.  1.
     -623    1    1    2    0    0  0.41560186965E-03  0.12878206147E-03  0.44067755728E-03  0.17130000000E+03  0.17130000000E+03 0. -1.
      622    1    1    2    0    0 -0.23597656242E-02 -0.11794457005E-02  0.39889284635E+01  0.39891298859E+01  0.40000000000E-01 0. -1.
</event>
<event>
 5   0  0.6200596E+07  0.9118800E+02  0.7818608E-02  0.1180000E+00
       11   -1    0    0    0    0  0.00000000000E+00  0.00000000000E+00  0.39999999673E+01  0.40000000000E+01  0.51109989000E-03 0.  1.
     -623   -1    0    0    0    0  0.00000000000E+00  0.00000000000E+00  0.12525980253E-10  0.17130000000E+03  0.17130000000E+03 0.  1.
       11    1    1    2    0    0  0.83342653442E-02 -0.89490161277E-02  0.94779108570E-01  0.95566131606E-01  0.51109989000E-03 0.  1.
     -623    1    1    2    0    0 -0.69932597249E-02 -0.39269042461E-03  0.10034435182E-02  0.17130000015E+03  0.17130000000E+03 0.  1.
      622    1    1    2    0    0 -0.13410056193E-02  0.93417065523E-02  0.39042174153E+01  0.39044337223E+01  0.40000000000E-01 0.  1.
</event>
<event>
 5   0  0.6200596E+07  0.9118800E+02  0.7818608E-02  0.1180000E+00
       11   -1    0    0    0    0  0.00000000000E+00  0.00000000000E+00  0.39999999673E+01  0.40000000000E+01  0.51109989000E-03 0.  1.
     -623   -1    0    0    0    0  0.00000000000E+00  0.00000000000E+00  0.12525980253E-10  0.17130000000E+03  0.17130000000E+03 0.  1.
       11    1    1    2    0    0 -0.56364214564E-02  0.72142458377E-03  0.12564686620E+00  0.12577633287E+00  0.51109989000E-03 0.  1.
     -623    1    1    2    0    0  0.11703198167E-03 -0.86489949417E-03  0.33986952388E-03  0.17130000000E+03  0.17130000000E+03 0.  1.
      622    1    1    2    0    0  0.55193894748E-02  0.14347491040E-03  0.38740132316E+01  0.38742236646E+01  0.40000000000E-01 0.  1.
</event>
<event>
 5   0  0.6200596E+07  0.9118800E+02  0.7818608E-02  0.1180000E+00
       11   -1    0    0    0    0  0.00000000000E+00  0.00000000000E+00  0.39999999673E+01  0.40000000000E+01  0.51109989000E-03 0.  1.
     -623   -1    0    0    0    0  0.00000000000E+00  0.00000000000E+00  0.12525980253E-10  0.17130000000E+03  0.17130000000E+03 0.  1.
       11    1    1    2    0    0 -0.39568158450E-02  0.24444507621E-01  0.15346793984E+01  0.15348792485E+01  0.51109989000E-03 0.  1.
     -623    1    1    2    0    0 -0.71719211711E-02 -0.52395313391E-02  0.62454333039E-03  0.17130000023E+03  0.17130000000E+03 0.  1.
      622    1    1    2    0    0  0.11128737016E-01 -0.19204976282E-01  0.24646960257E+01  0.24651205201E+01  0.40000000000E-01 0.  1.
</event>
<event>
 5   0  0.6200596E+07  0.9118800E+02  0.7818608E-02  0.1180000E+00
       11   -1    0    0    0    0  0.00000000000E+00  0.00000000000E+00  0.39999999673E+01  0.40000000000E+01  0.51109989000E-03 0.  1.
     -623   -1    0    0    0    0  0.00000000000E+00  0.00000000000E+00  0.12525980253E-10  0.17130000000E+03  0.17130000000E+03 0. -1.
       11    1    1    2    0    0  0.19195692943E-02  0.13349791867E-01  0.70066566301E+00  0.70079564370E+00  0.51109989000E-03 0.  1.
     -623    1    1    2    0    0 -0.75316283744E-03 -0.38857679423E-03  0.39811003971E-03  0.17130000000E+03  0.17130000000E+03 0. -1.
      622    1    1    2    0    0 -0.11664064568E-02 -0.12961215073E-01  0.32989361943E+01  0.32992043537E+01  0.40000000000E-01 0.  1.
</event>
<event>
 5   0  0.6200596E+07  0.9118800E+02  0.7818608E-02  0.1180000E+00
       11   -1    0    0    0    0  0.00000000000E+00  0.00000000000E+00  0.39999999673E+01  0.40000000000E+01  0.51109989000E-03 0.  1.
     -623   -1    0    0    0    0  0.00000000000E+00  0.00000000000E+00  0.12525980253E-10  0.17130000000E+03  0.17130000000E+03 0. -1.
       11    1    1    2    0    0 -0.13655566867E-01 -0.60877673396E-02  0.34025214750E-01  0.37168694862E-01  0.51109989000E-03 0.  1.
     -623    1    1    2    0    0  0.16409142752E-01  0.10083059622E-01  0.33494147931E-02  0.17130000112E+03  0.17130000000E+03 0. -1.
      622    1    1    2    0    0 -0.27535758845E-02 -0.39952922826E-02  0.39626253378E+01  0.39628301897E+01  0.40000000000E-01 0.  1.
</event>
<event>
 5   0  0.6200596E+07  0.9118800E+02  0.7818608E-02  0.1180000E+00
       11   -1    0    0    0    0  0.00000000000E+00  0.00000000000E+00  0.39999999673E+01  0.40000000000E+01  0.51109989000E-03 0. -1.
     -623   -1    0    0    0    0  0.00000000000E+00  0.00000000000E+00  0.12525980253E-10  0.17130000000E+03  0.17130000000E+03 0.  1.
       11    1    1    2    0    0  0.96636620640E-03 -0.91699158206E-04  0.18108272567E-02  0.21172127345E-02  0.51109989000E-03 0. -1.
     -623    1    1    2    0    0 -0.91760997937E-03 -0.17381997674E-02  0.50689489582E-03  0.17130000001E+03  0.17130000000E+03 0.  1.
      622    1    1    2    0    0 -0.48756227028E-04  0.18298989256E-02  0.39976822452E+01  0.39978827752E+01  0.40000000000E-01 0. -1.
</event>
<event>
 5   0  0.6200596E+07  0.9118800E+02  0.7818608E-02  0.1180000E+00
       11   -1    0    0    0    0  0.00000000000E+00  0.00000000000E+00  0.39999999673E+01  0.40000000000E+01  0.51109989000E-03 0. -1.
     -623   -1    0    0    0    0  0.00000000000E+00  0.00000000000E+00  0.12525980253E-10  0.17130000000E+03  0.17130000000E+03 0.  1.
       11    1    1    2    0    0 -0.79760815945E-02  0.40944591595E-02  0.17942575476E+00  0.17965034140E+00  0.51109989000E-03 0. -1.
     -623    1    1    2    0    0 -0.52050210212E-03  0.12722325905E-01  0.48090264281E-03  0.17130000047E+03  0.17130000000E+03 0.  1.
      622    1    1    2    0    0  0.84965836966E-02 -0.16816785065E-01  0.38200933100E+01  0.38203491847E+01  0.40000000000E-01 0. -1.
</event>
<event>
 5   0  0.6200596E+07  0.9118800E+02  0.7818608E-02  0.1180000E+00
       11   -1    0    0    0    0  0.00000000000E+00  0.00000000000E+00  0.39999999673E+01  0.40000000000E+01  0.51109989000E-03 0. -1.
     -623   -1    0    0    0    0  0.00000000000E+00  0.00000000000E+00  0.12525980253E-10  0.17130000000E+03  0.17130000000E+03 0. -1.
       11    1    1    2    0    0  0.59788133660E-02  0.14483558030E-03  0.54425531482E-01  0.54755519227E-01  0.51109989000E-03 0. -1.
     -623    1    1    2    0    0 -0.80041903110E-03 -0.86799063403E-03  0.53620594692E-03  0.17130000000E+03  0.17130000000E+03 0. -1.
      622    1    1    2    0    0 -0.51783943349E-02  0.72315505373E-03  0.39450382299E+01  0.39452444759E+01  0.40000000000E-01 0. -1.
</event>
<event>
 5   0  0.6200596E+07  0.9118800E+02  0.7818608E-02  0.1180000E+00
       11   -1    0    0    0    0  0.00000000000E+00  0.00000000000E+00  0.39999999673E+01  0.40000000000E+01  0.51109989000E-03 0. -1.
     -623   -1    0    0    0    0  0.00000000000E+00  0.00000000000E+00  0.12525980253E-10  0.17130000000E+03  0.17130000000E+03 0.  1.
       11    1    1    2    0    0  0.26527917101E-02 -0.21789594876E-01  0.97206704059E-01  0.99655548178E-01  0.51109989000E-03 0. -1.
     -623    1    1    2    0    0 -0.22071289937E-02  0.28032642601E-01  0.26612778648E-02  0.17130000233E+03  0.17130000000E+03 0.  1.
      622    1    1    2    0    0 -0.44566271644E-03 -0.62430477250E-02  0.39001319854E+01  0.39003421232E+01  0.40000000000E-01 0. -1.
</event>
<event>
 5   0  0.6200596E+07  0.9118800E+02  0.7818608E-02  0.1180000E+00
       11   -1    0    0    0    0  0.00000000000E+00  0.00000000000E+00  0.39999999673E+01  0.40000000000E+01  0.51109989000E-03 0.  1.
     -623   -1    0    0    0    0  0.00000000000E+00  0.00000000000E+00  0.12525980253E-10  0.17130000000E+03  0.17130000000E+03 0. -1.
       11    1    1    2    0    0  0.39470704204E-01  0.19066928966E-01  0.25211511520E+00  0.25589798124E+00  0.51109989000E-03 0.  1.
     -623    1    1    2    0    0 -0.64990706260E-03 -0.34128348585E-02  0.42305990395E-02  0.17130000009E+03  0.17130000000E+03 0. -1.
      622    1    1    2    0    0 -0.38820797142E-01 -0.15654094107E-01  0.37436542531E+01  0.37441019313E+01  0.40000000000E-01 0.  1.
</event>
<event>
 5   0  0.6200596E+07  0.9118800E+02  0.7818608E-02  0.1180000E+00
       11   -1    0    0    0    0  0.00000000000E+00  0.00000000000E+00  0.39999999673E+01  0.40000000000E+01  0.51109989000E-03 0.  1.
     -623   -1    0    0    0    0  0.00000000000E+00  0.00000000000E+00  0.12525980253E-10  0.17130000000E+03  0.17130000000E+03 0.  1.
       11    1    1    2    0    0 -0.13194036942E-01  0.82632577953E-02  0.30777863210E+00  0.30817253551E+00  0.51109989000E-03 0.  1.
     -623    1    1    2    0    0  0.10856345647E-02  0.17665427567E-02  0.64406860139E-03  0.17130000001E+03  0.17130000000E+03 0.  1.
      622    1    1    2    0    0  0.12108402377E-01 -0.10029800552E-01  0.36915772667E+01  0.36918274507E+01  0.40000000000E-01 0.  1.
</event>
<event>
 5   0  0.6200596E+07  0.9118800E+02  0.7818608E-02  0.1180000E+00
       11   -1    0    0    0    0  0.00000000000E+00  0.00000000000E+00  0.39999999673E+01  0.40000000000E+01  0.51109989000E-03 0. -1.
     -623   -1    0    0    0    0  0.00000000000E+00  0.00000000000E+00  0.12525980253E-10  0.17130000000E+03  0.17130000000E+03 0.  1.
       11    1    1    2    0    0  0.36084857971E-02 -0.83744848761E-02  0.42905381780E-01  0.43866686382E-01  0.51109989000E-03 0. -1.
     -623    1    1    2    0    0 -0.97628556956E-02  0.23716293601E-02  0.11731351903E-02  0.17130000030E+03  0.17130000000E+03 0.  1.
      622    1    1    2    0    0  0.61543698985E-02  0.60028555160E-02  0.39559214504E+01  0.39561330150E+01  0.40000000000E-01 0. -1.
</event>
<event>
 5   0  0.6200596E+07  0.9118800E+02  0.7818608E-02  0.1180000E+00
       11   -1    0    0    0    0  0.00000000000E+00  0.00000000000E+00  0.39999999673E+01  0.40000000000E+01  0.51109989000E-03 0. -1.
     -623   -1    0    0    0    0  0.00000000000E+00  0.00000000000E+00  0.12525980253E-10  0.17130000000E+03  0.17130000000E+03 0.  1.
       11    1    1    2    0    0 -0.15875394614E-02  0.17599455660E-02  0.23404177346E-01  0.23529437495E-01  0.51109989000E-03 0. -1.
     -623    1    1    2    0    0  0.27744256579E-02  0.99664468538E-03  0.32757436876E-03  0.17130000003E+03  0.17130000000E+03 0.  1.
      622    1    1    2    0    0 -0.11868861964E-02 -0.27565902514E-02  0.39762682156E+01  0.39764705368E+01  0.40000000000E-01 0. -1.
</event>
<event>
 5   0  0.6200596E+07  0.9118800E+02  0.7818608E-02  0.1180000E+00
       11   -1    0    0    0    0  0.00000000000E+00  0.00000000000E+00  0.39999999673E+01  0.40000000000E+01  0.51109989000E-03 0.  1.
     -623   -1    0    0    0    0  0.00000000000E+00  0.00000000000E+00  0.12525980253E-10  0.17130000000E+03  0.17130000000E+03 0. -1.
       11    1    1    2    0    0  0.60256618881E-02  0.43681404287E-02  0.68339295132E+00  0.68343366641E+00  0.51109989000E-03 0.  1.
     -623    1    1    2    0    0 -0.95322853973E-02 -0.26438203714E-02  0.28449263421E-03  0.17130000029E+03  0.17130000000E+03 0. -1.
      622    1    1    2    0    0  0.35066235092E-02 -0.17243200573E-02  0.33163225234E+01  0.33165660477E+01  0.40000000000E-01 0.  1.
</event>
<event>
 5   0  0.6200596E+07  0.9118800E+02  0.7818608E-02  0.1180000E+00
       11   -1    0    0    0    0  0.00000000000E+00  0.00000000000E+00  0.39999999673E+01  0.40000000000E+01  0.51109989000E-03 0.  1.
     -623   -1    0    0    0    0  0.00000000000E+00  0.00000000000E+00  0.12525980253E-10  0.17130000000E+03  0.17130000000E+03 0.  1.
       11    1    1    2    0    0  0.13705208526E-01 -0.14480087644E-02  0.79963351596E+00  0.79975243078E+00  0.51109989000E-03 0.  1.
     -623    1    1    2    0    0 -0.32086791144E-01  0.24736172627E-01  0.51120269038E-03  0.17130000479E+03  0.17130000000E+03 0.  1.
      622    1    1    2    0    0  0.18381582618E-01 -0.23288163863E-01  0.31998552487E+01  0.32002427773E+01  0.40000000000E-01 0.  1.
</event>
<event>
 5   0  0.6200596E+07  0.9118800E+02  0.7818608E-02  0.1180000E+00
       11   -1    0    0    0    0  0.00000000000E+00  0.00000000000E+00  0.39999999673E+01  0.40000000000E+01  0.51109989000E-03 0.  1.
     -623   -1    0    0    0    0  0.00000000000E+00  0.00000000000E+00  0.12525980253E-10  0.17130000000E+03  0.17130000000E+03 0. -1.
       11    1    1    2    0    0  0.14352217601E-03  0.59102128762E-02  0.28261958688E+01  0.28262020984E+01  0.51109989000E-03 0.  1.
     -623    1    1    2    0    0 -0.19571470593E-02 -0.15946958527E-02  0.69730301009E-03  0.17130000002E+03  0.17130000000E+03 0. -1.
      622    1    1    2    0    0  0.18136248833E-02 -0.43155170235E-02  0.11731067956E+01  0.11737978816E+01  0.40000000000E-01 0.  1.
</event>
<event>
 5   0  0.6200596E+07  0.9118800E+02  0.7818608E-02  0.1180000E+00
       11   -1    0    0    0    0  0.00000000000E+00  0.00000000000E+00  0.39999999673E+01  0.40000000000E+01  0.51109989000E-03 0. -1.
     -623   -1    0    0    0    0  0.00000000000E+00  0.00000000000E+00  0.12525980253E-10  0.17130000000E+03  0.17130000000E+03 0.  1.
       11    1    1    2    0    0  0.58706225454E-03  0.57101801685E-03  0.64021076802E-03  0.11583583703E-02  0.51109989000E-03 0. -1.
     -623    1    1    2    0    0 -0.12092169177E-02 -0.17936878835E-02  0.71842839737E-03  0.17130000002E+03  0.17130000000E+03 0.  1.
      622    1    1    2    0    0  0.62215466320E-03  0.12226698666E-02  0.39986413282E+01  0.39988416265E+01  0.40000000000E-01 0. -1.
</event>
<event>
 5   0  0.6200596E+07  0.9118800E+02  0.7818608E-02  0.1180000E+00
       11   -1    0    0    0    0  0.00000000000E+00  0.00000000000E+00  0.39999999673E+01  0.40000000000E+01  0.51109989000E-03 0. -1.
     -623   -1    0    0    0    0  0.00000000000E+00  0.00000000000E+00  0.12525980253E-10  0.17130000000E+03  0.17130000000E+03 0. -1.
       11    1    1    2    0    0 -0.14852659615E-02 -0.46537195733E-02  0.10468311390E+01  0.10468426615E+01  0.51109989000E-03 0. -1.
     -623    1    1    2    0    0  0.54111459256E-03 -0.63508959088E-03  0.28728830002E-03  0.17130000000E+03  0.17130000000E+03 0. -1.
      622    1    1    2    0    0  0.94415136890E-03  0.52888091642E-02  0.29528815401E+01  0.29531573363E+01  0.40000000000E-01 0. -1.
</event>
<event>
 5   0  0.6200596E+07  0.9118800E+02  0.7818608E-02  0.1180000E+00
       11   -1    0    0    0    0  0.00000000000E+00  0.00000000000E+00  0.39999999673E+01  0.40000000000E+01  0.51109989000E-03 0.  1.
     -623   -1    0    0    0    0  0.00000000000E+00  0.00000000000E+00  0.12525980253E-10  0.17130000000E+03  0.17130000000E+03 0. -1.
       11    1    1    2    0    0  0.26041946839E-01 -0.11154205228E+00  0.28029686868E+01  0.28053080994E+01  0.51109989000E-03 0.  1.
     -623    1    1    2    0    0  0.22301552486E-01  0.13575091283E-01  0.80195415995E-02  0.17130000218E+03  0.17130000000E+03 0. -1.
      622    1    1    2    0    0 -0.48343499325E-01  0.97966961000E-01  0.11890117390E+01  0.11946897232E+01  0.40000000000E-01 0.  1.
</event>
<event>
 5   0  0.6200596E+07  0.9118800E+02  0.7818608E-02  0.1180000E+00
       11   -1    0    0    0    0  0.00000000000E+00  0.00000000000E+00  0.39999999673E+01  0.40000000000E+01  0.51109989000E-03 0. -1.
     -623   -1    0    0    0    0  0.00000000000E+00  0.00000000000E+00  0.12525980253E-10  0.17130000000E+03  0.17130000000E+03 0. -1.
       11    1    1    2    0    0  0.23577170735E-01  0.63362200420E-02  0.32441597254E+00  0.32533369811E+00  0.51109989000E-03 0. -1.
     -623    1    1    2    0    0 -0.40879403632E-01 -0.19993252807E-02  0.11835960904E-02  0.17130000489E+03  0.17130000000E+03 0. -1.
      622    1    1    2    0    0  0.17302232897E-01 -0.43368947613E-02  0.36744003987E+01  0.36746614084E+01  0.40000000000E-01 0. -1.
</event>
<event>
 5   0  0.6200596E+07  0.9118800E+02  0.7818608E-02  0.1180000E+00
       11   -1    0    0    0    0  0.00000000000E+00  0.00000000000E+00  0.39999999673E+01  0.40000000000E+01  0.51109989000E-03 0.  1.
     -623   -1    0    0    0    0  0.00000000000E+00  0.00000000000E+00  0.12525980253E-10  0.17130000000E+03  0.17130000000E+03 0.  1.
       11    1    1    2    0    0  0.20075242837E-01  0.47322088519E-01  0.10277875577E+01  0.10290723592E+01  0.51109989000E-03 0.  1.
     -623    1    1    2    0    0  0.13914060974E-01 -0.39030138065E-01  0.17651056404E-02  0.17130000502E+03  0.17130000000E+03 0.  1.
      622    1    1    2    0    0 -0.33989303810E-01 -0.82919504537E-02  0.29704473040E+01  0.29709226202E+01  0.40000000000E-01 0.  1.
</event>
<event>
 5   0  0.6200596E+07  0.9118800E+02  0.7818608E-02  0.1180000E+00
       11   -1    0    0    0    0  0.00000000000E+00  0.00000000000E+00  0.39999999673E+01  0.40000000000E+01  0.51109989000E-03 0. -1.
     -623   -1    0    0    0    0  0.00000000000E+00  0.00000000000E+00  0.12525980253E-10  0.17130000000E+03  0.17130000000E+03 0. -1.
       11    1    1    2    0    0 -0.23483284674E-02 -0.39588649979E-02  0.53982038375E-01  0.54180337268E-01  0.51109989000E-03 0. -1.
     -623    1    1    2    0    0 -0.92018875228E-03  0.90095981906E-03  0.40356175894E-03  0.17130000001E+03  0.17130000000E+03 0. -1.
      622    1    1    2    0    0  0.32685172196E-02  0.30579051789E-02  0.39456143672E+01  0.39458196574E+01  0.40000000000E-01 0. -1.
</event>
<event>
 5   0  0.6200596E+07  0.9118800E+02  0.7818608E-02  0.1180000E+00
       11   -1    0    0    0    0  0.00000000000E+00  0.00000000000E+00  0.39999999673E+01  0.40000000000E+01  0.51109989000E-03 0. -1.
     -623   -1    0    0    0    0  0.00000000000E+00  0.00000000000E+00  0.12525980253E-10  0.17130000000E+03  0.17130000000E+03 0.  1.
       11    1    1    2    0    0 -0.29183511386E-01  0.20581479030E-01  0.89221742130E+00  0.89293194741E+00  0.51109989000E-03 0. -1.
     -623    1    1    2    0    0  0.36351994164E-03  0.31101169930E-02  0.11960277091E-02  0.17130000003E+03  0.17130000000E+03 0.  1.
      622    1    1    2    0    0  0.28819991444E-01 -0.23691596023E-01  0.31065865184E+01  0.31070680198E+01  0.40000000000E-01 0. -1.
</event>
<event>
 5   0  0.6200596E+07  0.9118800E+02  0.7818608E-02  0.1180000E+00
       11   -1    0    0    0    0  0.00000000000E+00  0.00000000000E+00  0.39999999673E+01  0.40000000000E+01  0.51109989000E-03 0. -1.
     -623   -1    0    0    0    0  0.00000000000E+00  0.00000000000E+00  0.12525980253E-10  0.17130000000E+03  0.17130000000E+03 0. -1.
       11    1    1    2    0    0  0.14761719056E-03  0.25390159945E-02  0.93209183114E-01  0.93245275646E-01  0.51109989000E-03 0. -1.
     -623    1    1    2    0    0 -0.31557305615E-03 -0.15776466046E-03  0.24156869452E-03  0.17130000000E+03  0.17130000000E+03 0. -1.
      622    1    1    2    0    0  0.16795586559E-03 -0.23812513340E-02  0.39065492156E+01  0.39067547238E+01  0.40000000000E-01 0. -1.
</event>
<event>
 5   0  0.6200596E+07  0.9118800E+02  0.7818608E-02  0.1180000E+00
       11   -1    0    0    0    0  0.00000000000E+00  0.00000000000E+00  0.39999999673E+01  0.40000000000E+01  0.51109989000E-03 0. -1.
     -623   -1    0    0    0    0  0.00000000000E+00  0.00000000000E+00  0.12525980253E-10  0.17130000000E+03  0.17130000000E+03 0.  1.
       11    1    1    2    0    0  0.31486123408E-02 -0.55615298239E-02  0.76881082794E-02  0.10010624614E-01  0.51109989000E-03 0. -1.
     -623    1    1    2    0    0  0.24336624572E-02  0.19032714492E-03  0.25305472633E-02  0.17130000004E+03  0.17130000000E+03 0.  1.
      622    1    1    2    0    0 -0.55822747980E-02  0.53712026789E-02  0.39897813118E+01  0.39899893393E+01  0.40000000000E-01 0. -1.
</event>
<event>
 5   0  0.6200596E+07  0.9118800E+02  0.7818608E-02  0.1180000E+00
       11   -1    0    0    0    0  0.00000000000E+00  0.00000000000E+00  0.39999999673E+01  0.40000000000E+01  0.51109989000E-03 0. -1.
     -623   -1    0    0    0    0  0.00000000000E+00  0.00000000000E+00  0.12525980253E-10  0.17130000000E+03  0.17130000000E+03 0.  1.
       11    1    1    2    0    0  0.30917069252E-03  0.86096415643E-02  0.13737641923E+00  0.13764724224E+00  0.51109989000E-03 0. -1.
     -623    1    1    2    0    0 -0.24812623630E-02 -0.16781905589E-02  0.48478123582E-03  0.17130000003E+03  0.17130000000E+03 0.  1.
      622    1    1    2    0    0  0.21720916705E-02 -0.69314510054E-02  0.38621387669E+01  0.38623527309E+01  0.40000000000E-01 0. -1.
</event>
<event>
 5   0  0.6200596E+07  0.9118800E+02  0.7818608E-02  0.1180000E+00
       11   -1    0    0    0    0  0.00000000000E+00  0.00000000000E+00  0.39999999673E+01  0.40000000000E+01  0.51109989000E-03 0.  1.
     -623   -1    0    0    0    0  0.00000000000E+00  0.00000000000E+00  0.12525980253E-10  0.17130000000E+03  0.17130000000E+03 0. -1.
       11    1    1    2    0    0  0.18172467230E-02 -0.68502923761E-02  0.14436107901E+00  0.14453584762E+00  0.51109989000E-03 0.  1.
     -623    1    1    2    0    0  0.19028672240E-02  0.18267384837E-02  0.38732781709E-03  0.17130000002E+03  0.17130000000E+03 0. -1.
      622    1    1    2    0    0 -0.37201139471E-02  0.50235538924E-02  0.38552515605E+01  0.38554641316E+01  0.40000000000E-01 0.  1.
</event>
<event>
 5   0  0.6200596E+07  0.9118800E+02  0.7818608E-02  0.1180000E+00
       11   -1    0    0    0    0  0.00000000000E+00  0.00000000000E+00  0.39999999673E+01  0.40000000000E+01  0.51109989000E-03 0.  1.
     -623   -1    0    0    0    0  0.00000000000E+00  0.00000000000E+00  0.12525980253E-10  0.17130000000E+03  0.17130000000E+03 0.  1.
       11    1    1    2    0    0  0.18296566250E-02 -0.11408001377E-02  0.63494720492E-03  0.23050915757E-02  0.51109989000E-03 0.  1.
     -623    1    1    2    0    0 -0.41662890753E-02  0.72726809949E-03  0.18709987895E-02  0.17130000006E+03  0.17130000000E+03 0.  1.
      622    1    1    2    0    0  0.23366324503E-02  0.41353203824E-03  0.39974940214E+01  0.39976948460E+01  0.40000000000E-01 0.  1.
</event>
<event>
 5   0  0.6200596E+07  0.9118800E+02  0.7818608E-02  0.1180000E+00
       11   -1    0    0    0    0  0.00000000000E+00  0.00000000000E+00  0.39999999673E+01  0.40000000000E+01  0.51109989000E-03 0.  1.
     -623   -1    0    0    0    0  0.00000000000E+00  0.00000000000E+00  0.12525980253E-10  0.17130000000E+03  0.17130000000E+03 0.  1.
       11    1    1    2    0    0  0.60193725541E-03  0.20207002205E-02  0.46301317704E-01  0.46352117533E-01  0.51109989000E-03 0.  1.
     -623    1    1    2    0    0 -0.20143800942E-02 -0.19038176217E-03  0.25380528304E-03  0.17130000001E+03  0.17130000000E+03 0.  1.
      622    1    1    2    0    0  0.14124428388E-02 -0.18303184583E-02  0.39534448444E+01  0.39536478703E+01  0.40000000000E-01 0.  1.
</event>
<event>
 5   0  0.6200596E+07  0.9118800E+02  0.7818608E-02  0.1180000E+00
       11   -1    0    0    0    0  0.00000000000E+00  0.00000000000E+00  0.39999999673E+01  0.40000000000E+01  0.51109989000E-03 0. -1.
     -623   -1    0    0    0    0  0.00000000000E+00  0.00000000000E+00  0.12525980253E-10  0.17130000000E+03  0.17130000000E+03 0. -1.
       11    1    1    2    0    0 -0.72788785257E-02  0.80320056999E-02  0.18270298728E+01  0.18270620987E+01  0.51109989000E-03 0. -1.
     -623    1    1    2    0    0  0.27530078656E-02  0.37231001379E-02  0.43696880917E-03  0.17130000006E+03  0.17130000000E+03 0. -1.
      622    1    1    2    0    0  0.45258706601E-02 -0.11755105838E-01  0.21725331258E+01  0.21729378382E+01  0.40000000000E-01 0. -1.
</event>
<event>
 5   0  0.6200596E+07  0.9118800E+02  0.7818608E-02  0.1180000E+00
       11   -1    0    0    0    0  0.00000000000E+00  0.00000000000E+00  0.39999999673E+01  0.40000000000E+01  0.51109989000E-03 0.  1.
     -623   -1    0    0    0    0  0.00000000000E+00  0.00000000000E+00  0.12525980253E-10  0.17130000000E+03  0.17130000000E+03 0.  1.
       11    1    1    2    0    0  0.31987768643E-02 -0.13334381041E-03  0.24119345405E-01  0.24336269209E-01  0.51109989000E-03 0.  1.
     -623    1    1    2    0    0 -0.42382065429E-02  0.15252988313E-02  0.41855982608E-03  0.17130000006E+03  0.17130000000E+03 0.  1.
      622    1    1    2    0    0  0.10394296786E-02 -0.13919550209E-02  0.39754620621E+01  0.39756636711E+01  0.40000000000E-01 0.  1.
</event>
<event>
 5   0  0.6200596E+07  0.9118800E+02  0.7818608E-02  0.1180000E+00
       11   -1    0    0    0    0  0.00000000000E+00  0.00000000000E+00  0.39999999673E+01  0.40000000000E+01  0.51109989000E-03 0. -1.
     -623   -1    0    0    0    0  0.00000000000E+00  0.00000000000E+00  0.12525980253E-10  0.17130000000E+03  0.17130000000E+03 0.  1.
       11    1    1    2    0    0  0.19959923283E-02 -0.21093498121E-01  0.58550975826E-01  0.62268753330E-01  0.51109989000E-03 0. -1.
     -623    1    1    2    0    0 -0.33179882005E-02 -0.53275273044E-02  0.40099408809E-02  0.17130000016E+03  0.17130000000E+03 0.  1.
      622    1    1    2    0    0  0.13219958722E-02  0.26421025426E-01  0.39374390507E+01  0.39377310848E+01  0.40000000000E-01 0. -1.
</event>
<event>
 5   0  0.6200596E+07  0.9118800E+02  0.7818608E-02  0.1180000E+00
       11   -1    0    0    0    0  0.00000000000E+00  0.00000000000E+00  0.39999999673E+01  0.40000000000E+01  0.51109989000E-03 0. -1.
     -623   -1    0    0    0    0  0.00000000000E+00  0.00000000000E+00  0.12525980253E-10  0.17130000000E+03  0.17130000000E+03 0. -1.
       11    1    1    2    0    0  0.41767527025E-02  0.54528891154E-02  0.44114068321E-01  0.44648533106E-01  0.51109989000E-03 0. -1.
     -623    1    1    2    0    0 -0.40348561870E-02 -0.83472069768E-02  0.73800899330E-03  0.17130000025E+03  0.17130000000E+03 0. -1.
      622    1    1    2    0    0 -0.14189651549E-03  0.28943178614E-02  0.39551478900E+01  0.39553512144E+01  0.40000000000E-01 0. -1.
</event>
<event>
 5   0  0.6200596E+07  0.9118800E+02  0.7818608E-02  0.1180000E+00
       11   -1    0    0    0    0  0.00000000000E+00  0.00000000000E+00  0.39999999673E+01  0.40000000000E+01  0.51109989000E-03 0.  1.
     -623   -1    0    0    0    0  0.00000000000E+00  0.00000000000E+00  0.12525980253E-10  0.17130000000E+03  0.17130000000E+03 0.  1.
       11    1    1    2    0    0 -0.35291728997E-01 -0.14935636693E+00  0.18953735225E+01  0.19015766831E+01  0.51109989000E-03 0.  1.
     -623    1    1    2    0    0  0.30582362032E-01  0.20472959264E-01  0.10556400787E-01  0.17130000428E+03  0.17130000000E+03 0.  1.
      622    1    1    2    0    0  0.47093669650E-02  0.12888340766E+00  0.20940700441E+01  0.20984190383E+01  0.40000000000E-01 0.  1.
</event>
<event>
 5   0  0.6200596E+07  0.9118800E+02  0.7818608E-02  0.1180000E+00
       11   -1    0    0    0    0  0.00000000000E+00  0.00000000000E+00  0.39999999673E+01  0.40000000000E+01  0.51109989000E-03 0.  1.
     -623   -1    0    0    0    0  0.00000000000E+00  0.00000000000E+00  0.12525980253E-10  0.17130000000E+03  0.17130000000E+03 0. -1.
       11    1    1    2    0    0 -0.60872603846E-01 -0.40654122767E-02  0.13900108079E+01  0.13913490966E+01  0.51109989000E-03 0.  1.
     -623    1    1    2    0    0  0.24771791738E-01 -0.17088958466E-01  0.19832339554E-02  0.17130000266E+03  0.17130000000E+03 0. -1.
      622    1    1    2    0    0  0.36100812108E-01  0.21154370743E-01  0.26080059255E+01  0.26086482484E+01  0.40000000000E-01 0.  0.
</event>
<event>
 5   0  0.6200596E+07  0.9118800E+02  0.7818608E-02  0.1180000E+00
       11   -1    0    0    0    0  0.00000000000E+00  0.00000000000E+00  0.39999999673E+01  0.40000000000E+01  0.51109989000E-03 0. -1.
     -623   -1    0    0    0    0  0.00000000000E+00  0.00000000000E+00  0.12525980253E-10  0.17130000000E+03  0.17130000000E+03 0. -1.
       11    1    1    2    0    0 -0.72259202538E-02 -0.47750617813E-03  0.60576680672E+00  0.60581030636E+00  0.51109989000E-03 0. -1.
     -623    1    1    2    0    0  0.13109822075E-01  0.12710517328E-01  0.30729209793E-03  0.17130000097E+03  0.17130000000E+03 0. -1.
      622    1    1    2    0    0 -0.58839018211E-02 -0.12233011150E-01  0.33939258685E+01  0.33941887201E+01  0.40000000000E-01 0. -1.
</event>
<event>
 5   0  0.6200596E+07  0.9118800E+02  0.7818608E-02  0.1180000E+00
       11   -1    0    0    0    0  0.00000000000E+00  0.00000000000E+00  0.39999999673E+01  0.40000000000E+01  0.51109989000E-03 0. -1.
     -623   -1    0    0    0    0  0.00000000000E+00  0.00000000000E+00  0.12525980253E-10  0.17130000000E+03  0.17130000000E+03 0.  1.
       11    1    1    2    0    0  0.13285961631E-02  0.12543327014E-02  0.78533524585E-02  0.80792873718E-02  0.51109989000E-03 0. -1.
     -623    1    1    2    0    0  0.10736188914E-02 -0.11972684295E-03  0.42720010109E-03  0.17130000000E+03  0.17130000000E+03 0.  1.
      622    1    1    2    0    0 -0.24022150545E-02 -0.11346058584E-02  0.39917194148E+01  0.39919207087E+01  0.40000000000E-01 0. -1.
</event>
<event>
 5   0  0.6200596E+07  0.9118800E+02  0.7818608E-02  0.1180000E+00
       11   -1    0    0    0    0  0.00000000000E+00  0.00000000000E+00  0.39999999673E+01  0.40000000000E+01  0.51109989000E-03 0.  1.
     -623   -1    0    0    0    0  0.00000000000E+00  0.00000000000E+00  0.12525980253E-10  0.17130000000E+03  0.17130000000E+03 0.  1.
       11    1    1    2    0    0  0.22231300754E-01 -0.19830150204E-01  0.25430924932E+01  0.25432670241E+01  0.51109989000E-03 0.  1.
     -623    1    1    2    0    0 -0.16875960602E-02  0.89895161813E-03  0.99178649471E-03  0.17130000001E+03  0.17130000000E+03 0.  1.
      622    1    1    2    0    0 -0.20543704693E-01  0.18931198586E-01  0.14559156876E+01  0.14567329623E+01  0.40000000000E-01 0.  0.
</event>
<event>
 5   0  0.6200596E+07  0.9118800E+02  0.7818608E-02  0.1180000E+00
       11   -1    0    0    0    0  0.00000000000E+00  0.00000000000E+00  0.39999999673E+01  0.40000000000E+01  0.51109989000E-03 0.  1.
     -623   -1    0    0    0    0  0.00000000000E+00  0.00000000000E+00  0.12525980253E-10  0.17130000000E+03  0.17130000000E+03 0.  1.
       11    1    1    2    0    0  0.14790381847E-01  0.10214071456E-01  0.37565947396E+00  0.37608959604E+00  0.51109989000E-03 0.  1.
     -623    1    1    2    0    0 -0.12807486339E-02  0.21126546609E-02  0.69702057137E-03  0.17130000002E+03  0.17130000000E+03 0.  1.
      622    1    1    2    0    0 -0.13509633213E-01 -0.12326726117E-01  0.36236434728E+01  0.36239103847E+01  0.40000000000E-01 0.  1.
</event>
<event>
 5   0  0.6200596E+07  0.9118800E+02  0.7818608E-02  0.1180000E+00
       11   -1    0    0    0    0  0.00000000000E+00  0.00000000000E+00  0.39999999673E+01  0.40000000000E+01  0.51109989000E-03 0.  1.
     -623   -1    0    0    0    0  0.00000000000E+00  0.00000000000E+00  0.12525980253E-10  0.17130000000E+03  0.17130000000E+03 0.  1.
       11    1    1    2    0    0 -0.25814660369E-02  0.21236319366E-02  0.12386809374E+00  0.12391424311E+00  0.51109989000E-03 0.  1.
     -623    1    1    2    0    0  0.36872042028E-02  0.57676894069E-03  0.25365529236E-03  0.17130000004E+03  0.17130000000E+03 0.  1.
      622    1    1    2    0    0 -0.11057381659E-02 -0.27004008773E-02  0.38758782183E+01  0.38760857160E+01  0.40000000000E-01 0.  1.
</event>
<event>
 5   0  0.6200596E+07  0.9118800E+02  0.7818608E-02  0.1180000E+00
       11   -1    0    0    0    0  0.00000000000E+00  0.00000000000E+00  0.39999999673E+01  0.40000000000E+01  0.51109989000E-03 0. -1.
     -623   -1    0    0    0    0  0.00000000000E+00  0.00000000000E+00  0.12525980253E-10  0.17130000000E+03  0.17130000000E+03 0. -1.
       11    1    1    2    0    0  0.68466613195E-02 -0.78309981730E-02  0.71303821888E+00  0.71311427143E+00  0.51109989000E-03 0. -1.
     -623    1    1    2    0    0 -0.87916669203E-02  0.16417952313E-01  0.33222621946E-03  0.17130000101E+03  0.17130000000E+03 0. -1.
      622    1    1    2    0    0  0.19450056008E-02 -0.85869541397E-02  0.32866295223E+01  0.32868847159E+01  0.40000000000E-01 0. -1.
</event>
<event>
 5   0  0.6200596E+07  0.9118800E+02  0.7818608E-02  0.1180000E+00
       11   -1    0    0    0    0  0.00000000000E+00  0.00000000000E+00  0.39999999673E+01  0.40000000000E+01  0.51109989000E-03 0. -1.
     -623   -1    0    0    0    0  0.00000000000E+00  0.00000000000E+00  0.12525980253E-10  0.17130000000E+03  0.17130000000E+03 0.  1.
       11    1    1    2    0    0 -0.13351669742E-01 -0.73471186323E-02  0.70464779092E-01  0.72095724919E-01  0.51109989000E-03 0. -1.
     -623    1    1    2    0    0  0.10468674537E-01 -0.41103159846E-02  0.18527379347E-02  0.17130000038E+03  0.17130000000E+03 0.  1.
      622    1    1    2    0    0  0.28829952048E-02  0.11457434617E-01  0.39276824503E+01  0.39279038959E+01  0.40000000000E-01 0. -1.
</event>
<event>
 5   0  0.6200596E+07  0.9118800E+02  0.7818608E-02  0.1180000E+00
       11   -1    0    0    0    0  0.00000000000E+00  0.00000000000E+00  0.39999999673E+01  0.40000000000E+01  0.51109989000E-03 0. -1.
     -623   -1    0    0    0    0  0.00000000000E+00  0.00000000000E+00  0.12525980253E-10  0.17130000000E+03  0.17130000000E+03 0.  1.
       11    1    1    2    0    0 -0.13411424848E-02  0.43774843794E-03  0.24164933984E+00  0.24165399842E+00  0.51109989000E-03 0. -1.
     -623    1    1    2    0    0 -0.10038662189E-03  0.13605054998E-02  0.21820383340E-03  0.17130000001E+03  0.17130000000E+03 0.  1.
      622    1    1    2    0    0  0.14415291067E-02 -0.17982539378E-02  0.37581324237E+01  0.37583459960E+01  0.40000000000E-01 0. -1.
</event>
<event>
 5   0  0.6200596E+07  0.9118800E+02  0.7818608E-02  0.1180000E+00
       11   -1    0    0    0    0  0.00000000000E+00  0.00000000000E+00  0.39999999673E+01  0.40000000000E+01  0.51109989000E-03 0.  1.
     -623   -1    0    0    0    0  0.00000000000E+00  0.00000000000E+00  0.12525980253E-10  0.17130000000E+03  0.17130000000E+03 0.  1.
       11    1    1    2    0    0  0.67013996515E-02  0.96741753447E-02  0.15769190531E+01  0.15769630496E+01  0.51109989000E-03 0.  1.
     -623    1    1    2    0    0 -0.11495068032E-01 -0.13354222341E-01  0.38259471881E-03  0.17130000091E+03  0.17130000000E+03 0.  1.
      622    1    1    2    0    0  0.47936683802E-02  0.36800469962E-02  0.24226983195E+01  0.24230360438E+01  0.40000000000E-01 0.  1.
</event>
<event>
 5   0  0.6200596E+07  0.9118800E+02  0.7818608E-02  0.1180000E+00
       11   -1    0    0    0    0  0.00000000000E+00  0.00000000000E+00  0.39999999673E+01  0.40000000000E+01  0.51109989000E-03 0.  1.
     -623   -1    0    0    0    0  0.00000000000E+00  0.00000000000E+00  0.12525980253E-10  0.17130000000E+03  0.17130000000E+03 0. -1.
       11    1    1    2    0    0  0.13693876798E-02  0.20256098948E-02  0.48758094506E+00  0.48758734348E+00  0.51109989000E-03 0.  1.
     -623    1    1    2    0    0  0.33179043116E-03 -0.89641497482E-03  0.23473318479E-03  0.17130000000E+03  0.17130000000E+03 0. -1.
      622    1    1    2    0    0 -0.17011781110E-02 -0.11291949200E-02  0.35121842891E+01  0.35124126537E+01  0.40000000000E-01 0.  1.
</event>
<event>
 5   0  0.6200596E+07  0.9118800E+02  0.7818608E-02  0.1180000E+00
       11   -1    0    0    0    0  0.00000000000E+00  0.00000000000E+00  0.39999999673E+01  0.40000000000E+01  0.51109989000E-03 0.  1.
     -623   -1    0    0    0    0  0.00000000000E+00  0.00000000000E+00  0.12525980253E-10  0.17130000000E+03  0.17130000000E+03 0.  1.
       11    1    1    2    0    0 -0.65882183490E-02  0.19306178513E-02  0.41750049072E+00  0.41755724503E+00  0.51109989000E-03 0.  1.
     -623    1    1    2    0    0  0.97452500584E-05 -0.28933092119E-03  0.28645686932E-03  0.17130000000E+03  0.17130000000E+03 0.  1.
      622    1    1    2    0    0  0.65784730990E-02 -0.16412869301E-02  0.35822130198E+01  0.35824427545E+01  0.40000000000E-01 0.  1.
</event>
<event>
 5   0  0.6200596E+07  0.9118800E+02  0.7818608E-02  0.1180000E+00
       11   -1    0    0    0    0  0.00000000000E+00  0.00000000000E+00  0.39999999673E+01  0.40000000000E+01  0.51109989000E-03 0.  1.
     -623   -1    0    0    0    0  0.00000000000E+00  0.00000000000E+00  0.12525980253E-10  0.17130000000E+03  0.17130000000E+03 0. -1.
       11    1    1    2    0    0  0.50937544814E-02 -0.11059791166E-04  0.43924537225E+00  0.43927520386E+00  0.51109989000E-03 0.  1.
     -623    1    1    2    0    0 -0.60321234435E-02 -0.71931482690E-02  0.26214891264E-03  0.17130000026E+03  0.17130000000E+03 0. -1.
      622    1    1    2    0    0  0.93836896208E-03  0.72042080602E-02  0.35604924462E+01  0.35607245387E+01  0.40000000000E-01 0.  1.
</event>
<event>
 5   0  0.6200596E+07  0.9118800E+02  0.7818608E-02  0.1180000E+00
       11   -1    0    0    0    0  0.00000000000E+00  0.00000000000E+00  0.39999999673E+01  0.40000000000E+01  0.51109989000E-03 0. -1.
     -623   -1    0    0    0    0  0.00000000000E+00  0.00000000000E+00  0.12525980253E-10  0.17130000000E+03  0.17130000000E+03 0. -1.
       11    1    1    2    0    0 -0.90275473487E-03  0.12498211785E-02  0.38088995478E-01  0.38123612331E-01  0.51109989000E-03 0. -1.
     -623    1    1    2    0    0 -0.22253194894E-02 -0.73605141531E-03  0.23779833582E-03  0.17130000002E+03  0.17130000000E+03 0. -1.
      622    1    1    2    0    0  0.31280742242E-02 -0.51376976323E-03  0.39616731735E+01  0.39618763715E+01  0.40000000000E-01 0. -1.
</event>
<event>
 5   0  0.6200596E+07  0.9118800E+02  0.7818608E-02  0.1180000E+00
       11   -1    0    0    0    0  0.00000000000E+00  0.00000000000E+00  0.39999999673E+01  0.40000000000E+01  0.51109989000E-03 0.  1.
     -623   -1    0    0    0    0  0.00000000000E+00  0.00000000000E+00  0.12525980253E-10  0.17130000000E+03  0.17130000000E+03 0. -1.
       11    1    1    2    0    0  0.22285481604E-02  0.93017520858E-03  0.44678402647E-01  0.44746536601E-01  0.51109989000E-03 0.  1.
     -623    1    1    2    0    0 -0.18624346553E-02 -0.31533376188E-02  0.27105026132E-03  0.17130000004E+03  0.17130000000E+03 0. -1.
      622    1    1    2    0    0 -0.36611350510E-03  0.22231624102E-02  0.39550505145E+01  0.39552534240E+01  0.40000000000E-01 0.  1.
</event>
<event>
 5   0  0.6200596E+07  0.9118800E+02  0.7818608E-02  0.1180000E+00
       11   -1    0    0    0    0  0.00000000000E+00  0.00000000000E+00  0.39999999673E+01  0.40000000000E+01  0.51109989000E-03 0.  1.
     -623   -1    0    0    0    0  0.00000000000E+00  0.00000000000E+00  0.12525980253E-10  0.17130000000E+03  0.17130000000E+03 0.  1.
       11    1    1    2    0    0 -0.27261756716E-02  0.10966896499E-01  0.21209051402E+01  0.21209353078E+01  0.51109989000E-03 0.  1.
     -623    1    1    2    0    0 -0.72606959005E-03 -0.22607032824E-01  0.49665510645E-03  0.17130000149E+03  0.17130000000E+03 0.  1.
      622    1    1    2    0    0  0.34522452617E-02  0.11640136325E-01  0.18785981720E+01  0.18790631982E+01  0.40000000000E-01 0.  1.
</event>
<event>
 5   0  0.6200596E+07  0.9118800E+02  0.7818608E-02  0.1180000E+00
       11   -1    0    0    0    0  0.00000000000E+00  0.00000000000E+00  0.39999999673E+01  0.40000000000E+01  0.51109989000E-03 0. -1.
     -623   -1    0    0    0    0  0.00000000000E+00  0.00000000000E+00  0.12525980253E-10  0.17130000000E+03  0.17130000000E+03 0.  1.
       11    1    1    2    0    0  0.95851243989E-03  0.16054734285E-02  0.43107053661E+00  0.43107489494E+00  0.51109989000E-03 0. -1.
     -623    1    1    2    0    0  0.62441105287E-03 -0.19970905841E-03  0.22911919951E-03  0.17130000000E+03  0.17130000000E+03 0.  1.
      622    1    1    2    0    0 -0.15829234928E-02 -0.14057643701E-02  0.35687003116E+01  0.35689251037E+01  0.40000000000E-01 0. -1.
</event>
<event>
 5   0  0.6200596E+07  0.9118800E+02  0.7818608E-02  0.1180000E+00
       11   -1    0    0    0    0  0.00000000000E+00  0.00000000000E+00  0.39999999673E+01  0.40000000000E+01  0.51109989000E-03 0. -1.
     -623   -1    0    0    0    0  0.00000000000E+00  0.00000000000E+00  0.12525980253E-10  0.17130000000E+03  0.17130000000E+03 0.  1.
       11    1    1    2    0    0  0.43116018157E-02  0.56996061465E-02  0.39397120188E+00  0.39403634928E+00  0.51109989000E-03 0. -1.
     -623    1    1    2    0    0 -0.27510198156E-02 -0.41003099356E-03  0.29121670141E-03  0.17130000002E+03  0.17130000000E+03 0.  1.
      622    1    1    2    0    0 -0.15605820002E-02 -0.52895751529E-02  0.36057375488E+01  0.36059636279E+01  0.40000000000E-01 0. -1.
</event>
<event>
 5   0  0.6200596E+07  0.9118800E+02  0.7818608E-02  0.1180000E+00
       11   -1    0    0    0    0  0.00000000000E+00  0.00000000000E+00  0.39999999673E+01  0.40000000000E+01  0.51109989000E-03 0.  1.
     -623   -1    0    0    0    0  0.00000000000E+00  0.00000000000E+00  0.12525980253E-10  0.17130000000E+03  0.17130000000E+03 0.  1.
       11    1    1    2    0    0  0.12880560662E-01 -0.27872307289E-01  0.22244858894E+01  0.22246978463E+01  0.51109989000E-03 0.  1.
     -623    1    1    2    0    0  0.25670221909E-02 -0.51994993514E-02  0.10380976296E-02  0.17130000010E+03  0.17130000000E+03 0.  1.
      622    1    1    2    0    0 -0.15447582853E-01  0.33071806640E-01  0.17744759804E+01  0.17753020524E+01  0.40000000000E-01 0.  0.
</event>
<event>
 5   0  0.6200596E+07  0.9118800E+02  0.7818608E-02  0.1180000E+00
       11   -1    0    0    0    0  0.00000000000E+00  0.00000000000E+00  0.39999999673E+01  0.40000000000E+01  0.51109989000E-03 0. -1.
     -623   -1    0    0    0    0  0.00000000000E+00  0.00000000000E+00  0.12525980253E-10  0.17130000000E+03  0.17130000000E+03 0. -1.
       11    1    1    2    0    0 -0.11894841345E-01  0.10253192230E-01  0.79855194159E+00  0.79870650419E+00  0.51109989000E-03 0. -1.
     -623    1    1    2    0    0  0.59452933203E-03 -0.33080773815E-03  0.43976535251E-03  0.17130000000E+03  0.17130000000E+03 0. -1.
      622    1    1    2    0    0  0.11300312013E-01 -0.99223844914E-02  0.32010082604E+01  0.32012934939E+01  0.40000000000E-01 0.  0.
</event>
<event>
 5   0  0.6200596E+07  0.9118800E+02  0.7818608E-02  0.1180000E+00
       11   -1    0    0    0    0  0.00000000000E+00  0.00000000000E+00  0.39999999673E+01  0.40000000000E+01  0.51109989000E-03 0.  1.
     -623   -1    0    0    0    0  0.00000000000E+00  0.00000000000E+00  0.12525980253E-10  0.17130000000E+03  0.17130000000E+03 0.  1.
       11    1    1    2    0    0 -0.61599269752E-02 -0.68933379804E-02  0.36560226099E+00  0.36571947894E+00  0.51109989000E-03 0.  1.
     -623    1    1    2    0    0 -0.22893905729E-03  0.85654580663E-02  0.34353340471E-03  0.17130000021E+03  0.17130000000E+03 0.  1.
      622    1    1    2    0    0  0.63888660325E-02 -0.16721200859E-02  0.36340541730E+01  0.36342803064E+01  0.40000000000E-01 0.  1.
</event>
<event>
 5   0  0.6200596E+07  0.9118800E+02  0.7818608E-02  0.1180000E+00
       11   -1    0    0    0    0  0.00000000000E+00  0.00000000000E+00  0.39999999673E+01  0.40000000000E+01  0.51109989000E-03 0. -1.
     -623   -1    0    0    0    0  0.00000000000E+00  0.00000000000E+00  0.12525980253E-10  0.17130000000E+03  0.17130000000E+03 0. -1.
       11    1    1    2    0    0 -0.19907493677E-02 -0.12633833750E-01  0.69544799292E+00  0.69556577613E+00  0.51109989000E-03 0. -1.
     -623    1    1    2    0    0  0.29375579873E-03  0.91031813596E-04  0.38410134830E-03  0.17130000000E+03  0.17130000000E+03 0. -1.
      622    1    1    2    0    0  0.16969935690E-02  0.12542801937E-01  0.33041678731E+01  0.33044342232E+01  0.40000000000E-01 0. -1.
</event>
<event>
 5   0  0.6200596E+07  0.9118800E+02  0.7818608E-02  0.1180000E+00
       11   -1    0    0    0    0  0.00000000000E+00  0.00000000000E+00  0.39999999673E+01  0.40000000000E+01  0.51109989000E-03 0.  1.
     -623   -1    0    0    0    0  0.00000000000E+00  0.00000000000E+00  0.12525980253E-10  0.17130000000E+03  0.17130000000E+03 0.  1.
       11    1    1    2    0    0 -0.22300621633E-02  0.37468850360E-02  0.55140433001E+00  0.55142180652E+00  0.51109989000E-03 0.  1.
     -623    1    1    2    0    0  0.86792252550E-03  0.27893712629E-07  0.25173840965E-03  0.17130000000E+03  0.17130000000E+03 0.  1.
      622    1    1    2    0    0  0.13621396378E-02 -0.37469129297E-02  0.34483438989E+01  0.34485781911E+01  0.40000000000E-01 0.  1.
</event>
<event>
 5   0  0.6200596E+07  0.9118800E+02  0.7818608E-02  0.1180000E+00
       11   -1    0    0    0    0  0.00000000000E+00  0.00000000000E+00  0.39999999673E+01  0.40000000000E+01  0.51109989000E-03 0. -1.
     -623   -1    0    0    0    0  0.00000000000E+00  0.00000000000E+00  0.12525980253E-10  0.17130000000E+03  0.17130000000E+03 0. -1.
       11    1    1    2    0    0  0.36710041241E-02  0.21606549440E-02  0.42726209945E+00  0.42728363829E+00  0.51109989000E-03 0. -1.
     -623    1    1    2    0    0  0.39973401593E-03  0.16073354694E-02  0.24974699608E-03  0.17130000001E+03  0.17130000000E+03 0. -1.
      622    1    1    2    0    0 -0.40707381400E-02 -0.37679904134E-02  0.35724881209E+01  0.35727163535E+01  0.40000000000E-01 0. -1.
</event>
<event>
 5   0  0.6200596E+07  0.9118800E+02  0.7818608E-02  0.1180000E+00
       11   -1    0    0    0    0  0.00000000000E+00  0.00000000000E+00  0.39999999673E+01  0.40000000000E+01  0.51109989000E-03 0. -1.
     -623   -1    0    0    0    0  0.00000000000E+00  0.00000000000E+00  0.12525980253E-10  0.17130000000E+03  0.17130000000E+03 0. -1.
       11    1    1    2    0    0  0.69906404400E-02  0.56526048462E-02  0.41782816288E+00  0.41792517980E+00  0.51109989000E-03 0. -1.
     -623    1    1    2    0    0 -0.46945126264E-03 -0.82569498928E-04  0.33059369768E-03  0.17130000000E+03  0.17130000000E+03 0. -1.
      622    1    1    2    0    0 -0.65211891774E-02 -0.55700353473E-02  0.35818412108E+01  0.35820748192E+01  0.40000000000E-01 0.  0.
</event>
<event>
 5   0  0.6200596E+07  0.9118800E+02  0.7818608E-02  0.1180000E+00
       11   -1    0    0    0    0  0.00000000000E+00  0.00000000000E+00  0.39999999673E+01  0.40000000000E+01  0.51109989000E-03 0. -1.
     -623   -1    0    0    0    0  0.00000000000E+00  0.00000000000E+00  0.12525980253E-10  0.17130000000E+03  0.17130000000E+03 0. -1.
       11    1    1    2    0    0  0.10178265192E-02  0.56389409834E-02  0.11753163359E-01  0.13085552975E-01  0.51109989000E-03 0. -1.
     -623    1    1    2    0    0  0.28708331629E-02  0.78257963697E-03  0.15401194037E-02  0.17130000003E+03  0.17130000000E+03 0. -1.
      622    1    1    2    0    0 -0.38886596821E-02 -0.64215206203E-02  0.39867066846E+01  0.39869144143E+01  0.40000000000E-01 0. -1.
</event>
<event>
 5   0  0.6200596E+07  0.9118800E+02  0.7818608E-02  0.1180000E+00
       11   -1    0    0    0    0  0.00000000000E+00  0.00000000000E+00  0.39999999673E+01  0.40000000000E+01  0.51109989000E-03 0. -1.
     -623   -1    0    0    0    0  0.00000000000E+00  0.00000000000E+00  0.12525980253E-10  0.17130000000E+03  0.17130000000E+03 0.  1.
       11    1    1    2    0    0  0.47823777425E-02  0.22891271922E-01  0.18253778374E+01  0.18255277023E+01  0.51109989000E-03 0. -1.
     -623    1    1    2    0    0  0.11899196452E-01  0.47178993558E-02  0.75756543063E-03  0.17130000048E+03  0.17130000000E+03 0.  1.
      622    1    1    2    0    0 -0.16681574195E-01 -0.27609171278E-01  0.21738645646E+01  0.21744718178E+01  0.40000000000E-01 0. -1.
</event>
<event>
 5   0  0.6200596E+07  0.9118800E+02  0.7818608E-02  0.1180000E+00
       11   -1    0    0    0    0  0.00000000000E+00  0.00000000000E+00  0.39999999673E+01  0.40000000000E+01  0.51109989000E-03 0. -1.
     -623   -1    0    0    0    0  0.00000000000E+00  0.00000000000E+00  0.12525980253E-10  0.17130000000E+03  0.17130000000E+03 0.  1.
       11    1    1    2    0    0 -0.31782295963E-02 -0.84409673985E-03  0.37051869155E-01  0.37201019776E-01  0.51109989000E-03 0.  1.
     -623    1    1    2    0    0 -0.45749770406E-03 -0.14849419694E-06  0.35275945549E-03  0.17130000000E+03  0.17130000000E+03 0.  1.
      622    1    1    2    0    0  0.36357273004E-02  0.84424523405E-03  0.39625953387E+01  0.39627989793E+01  0.40000000000E-01 0. -1.
</event>
<event>
 5   0  0.6200596E+07  0.9118800E+02  0.7818608E-02  0.1180000E+00
       11   -1    0    0    0    0  0.00000000000E+00  0.00000000000E+00  0.39999999673E+01  0.40000000000E+01  0.51109989000E-03 0.  1.
     -623   -1    0    0    0    0  0.00000000000E+00  0.00000000000E+00  0.12525980253E-10  0.17130000000E+03  0.17130000000E+03 0.  1.
       11    1    1    2    0    0 -0.53553354024E-02 -0.36739136302E-02  0.14248662706E+00  0.14263547024E+00  0.51109989000E-03 0.  1.
     -623    1    1    2    0    0 -0.44467786260E-03  0.26687488706E-02  0.36072506952E-03  0.17130000002E+03  0.17130000000E+03 0.  1.
      622    1    1    2    0    0  0.58000132650E-02  0.10051647596E-02  0.38571526152E+01  0.38573645080E+01  0.40000000000E-01 0.  1.
</event>
<event>
 5   0  0.6200596E+07  0.9118800E+02  0.7818608E-02  0.1180000E+00
       11   -1    0    0    0    0  0.00000000000E+00  0.00000000000E+00  0.39999999673E+01  0.40000000000E+01  0.51109989000E-03 0. -1.
     -623   -1    0    0    0    0  0.00000000000E+00  0.00000000000E+00  0.12525980253E-10  0.17130000000E+03  0.17130000000E+03 0.  1.
       11    1    1    2    0    0  0.47280298885E-02 -0.13959663678E-01  0.12585573824E+01  0.12586437830E+01  0.51109989000E-03 0. -1.
     -623    1    1    2    0    0  0.31235625972E-02 -0.10231467339E-02  0.43043604460E-03  0.17130000003E+03  0.17130000000E+03 0.  1.
      622    1    1    2    0    0 -0.78515924857E-02  0.14982810412E-01  0.27410121489E+01  0.27413561850E+01  0.40000000000E-01 0. -1.
</event>
<event>
 5   0  0.6200596E+07  0.9118800E+02  0.7818608E-02  0.1180000E+00
       11   -1    0    0    0    0  0.00000000000E+00  0.00000000000E+00  0.39999999673E+01  0.40000000000E+01  0.51109989000E-03 0.  1.
     -623   -1    0    0    0    0  0.00000000000E+00  0.00000000000E+00  0.12525980253E-10  0.17130000000E+03  0.17130000000E+03 0.  1.
       11    1    1    2    0    0 -0.10791882921E-01 -0.22530999797E-02  0.20036127862E+00  0.20066500539E+00  0.51109989000E-03 0.  1.
     -623    1    1    2    0    0  0.68138974852E-02 -0.38435786685E-02  0.52141706135E-03  0.17130000018E+03  0.17130000000E+03 0.  1.
      622    1    1    2    0    0  0.39779854358E-02  0.60966786482E-02  0.37991172717E+01  0.37993348152E+01  0.40000000000E-01 0.  1.
</event>
<event>
 5   0  0.6200596E+07  0.9118800E+02  0.7818608E-02  0.1180000E+00
       11   -1    0    0    0    0  0.00000000000E+00  0.00000000000E+00  0.39999999673E+01  0.40000000000E+01  0.51109989000E-03 0.  1.
     -623   -1    0    0    0    0  0.00000000000E+00  0.00000000000E+00  0.12525980253E-10  0.17130000000E+03  0.17130000000E+03 0.  1.
       11    1    1    2    0    0  0.47868225489E-03  0.31260627652E-03  0.18684781163E+00  0.18684938531E+00  0.51109989000E-03 0.  1.
     -623    1    1    2    0    0  0.12522749228E-02 -0.91184635869E-03  0.21179420336E-03  0.17130000001E+03  0.17130000000E+03 0.  1.
      622    1    1    2    0    0 -0.17309571776E-02  0.59924008217E-03  0.38129403615E+01  0.38131506076E+01  0.40000000000E-01 0.  1.
</event>
<event>
 5   0  0.6200596E+07  0.9118800E+02  0.7818608E-02  0.1180000E+00
       11   -1    0    0    0    0  0.00000000000E+00  0.00000000000E+00  0.39999999673E+01  0.40000000000E+01  0.51109989000E-03 0. -1.
     -623   -1    0    0    0    0  0.00000000000E+00  0.00000000000E+00  0.12525980253E-10  0.17130000000E+03  0.17130000000E+03 0.  1.
       11    1    1    2    0    0  0.32787947100E-02 -0.55556799209E-02  0.10886861465E+00  0.10906077458E+00  0.51109989000E-03 0. -1.
     -623    1    1    2    0    0  0.42661152310E-04  0.21487014036E-02  0.40066198079E-03  0.17130000001E+03  0.17130000000E+03 0.  1.
      622    1    1    2    0    0 -0.33214558623E-02  0.34069785173E-02  0.38907306907E+01  0.38909392115E+01  0.40000000000E-01 0. -1.
</event>
<event>
 5   0  0.6200596E+07  0.9118800E+02  0.7818608E-02  0.1180000E+00
       11   -1    0    0    0    0  0.00000000000E+00  0.00000000000E+00  0.39999999673E+01  0.40000000000E+01  0.51109989000E-03 0.  1.
     -623   -1    0    0    0    0  0.00000000000E+00  0.00000000000E+00  0.12525980253E-10  0.17130000000E+03  0.17130000000E+03 0.  1.
       11    1    1    2    0    0 -0.88945953347E-02  0.42410134441E-02  0.28414949794E-01  0.30079405140E-01  0.51109989000E-03 0.  1.
     -623    1    1    2    0    0  0.31024431431E-02 -0.93840989083E-02  0.18737958438E-02  0.17130000030E+03  0.17130000000E+03 0.  1.
      622    1    1    2    0    0  0.57921521916E-02  0.51430854642E-02  0.39697112217E+01  0.39699202995E+01  0.40000000000E-01 0.  1.
</event>
<event>
 5   0  0.6200596E+07  0.9118800E+02  0.7818608E-02  0.1180000E+00
       11   -1    0    0    0    0  0.00000000000E+00  0.00000000000E+00  0.39999999673E+01  0.40000000000E+01  0.51109989000E-03 0.  1.
     -623   -1    0    0    0    0  0.00000000000E+00  0.00000000000E+00  0.12525980253E-10  0.17130000000E+03  0.17130000000E+03 0. -1.
       11    1    1    2    0    0  0.95166146682E-02 -0.12618656982E-01  0.63458399476E-01  0.65398976627E-01  0.51109989000E-03 0.  1.
     -623    1    1    2    0    0 -0.11213950185E-01  0.16377051886E-02  0.21599527266E-02  0.17130000039E+03  0.17130000000E+03 0. -1.
      622    1    1    2    0    0  0.16973355171E-02  0.10980951793E-01  0.39343816152E+01  0.39346006349E+01  0.40000000000E-01 0.  1.
</event>
<event>
 5   0  0.6200596E+07  0.9118800E+02  0.7818608E-02  0.1180000E+00
       11   -1    0    0    0    0  0.00000000000E+00  0.00000000000E+00  0.39999999673E+01  0.40000000000E+01  0.51109989000E-03 0. -1.
     -623   -1    0    0    0    0  0.00000000000E+00  0.00000000000E+00  0.12525980253E-10  0.17130000000E+03  0.17130000000E+03 0.  1.
       11    1    1    2    0    0  0.58567901603E-02 -0.12126669469E-02  0.23968676878E-01  0.24708930461E-01  0.51109989000E-03 0. -1.
     -623    1    1    2    0    0  0.22359479218E-03  0.40545019499E-02  0.94718609182E-03  0.17130000005E+03  0.17130000000E+03 0.  1.
      622    1    1    2    0    0 -0.60803849525E-02 -0.28418350030E-02  0.39750841044E+01  0.39752910188E+01  0.40000000000E-01 0. -1.
</event>
<event>
 5   0  0.6200596E+07  0.9118800E+02  0.7818608E-02  0.1180000E+00
       11   -1    0    0    0    0  0.00000000000E+00  0.00000000000E+00  0.39999999673E+01  0.40000000000E+01  0.51109989000E-03 0.  1.
     -623   -1    0    0    0    0  0.00000000000E+00  0.00000000000E+00  0.12525980253E-10  0.17130000000E+03  0.17130000000E+03 0.  1.
       11    1    1    2    0    0 -0.18758992647E-02  0.12077318466E-02  0.72732805429E-01  0.72768810770E-01  0.51109989000E-03 0.  1.
     -623    1    1    2    0    0  0.32248242544E-03  0.98133627689E-03  0.24060450219E-03  0.17130000000E+03  0.17130000000E+03 0.  1.
      622    1    1    2    0    0  0.15534168392E-02 -0.21890681235E-02  0.39270265574E+01  0.39272311859E+01  0.40000000000E-01 0.  1.
</event>
<event>
 5   0  0.6200596E+07  0.9118800E+02  0.7818608E-02  0.1180000E+00
       11   -1    0    0    0    0  0.00000000000E+00  0.00000000000E+00  0.39999999673E+01  0.40000000000E+01  0.51109989000E-03 0.  1.
     -623   -1    0    0    0    0  0.00000000000E+00  0.00000000000E+00  0.12525980253E-10  0.17130000000E+03  0.17130000000E+03 0. -1.
       11    1    1    2    0    0  0.24947681677E-01  0.21698077485E-01  0.14496519664E+01  0.14500290612E+01  0.51109989000E-03 0.  1.
     -623    1    1    2    0    0 -0.33878849691E-02 -0.54310199094E-02  0.83398325230E-03  0.17130000012E+03  0.17130000000E+03 0. -1.
      622    1    1    2    0    0 -0.21559796708E-01 -0.16267057575E-01  0.25495140177E+01  0.25499708172E+01  0.40000000000E-01 0.  1.
</event>
<event>
 5   0  0.6200596E+07  0.9118800E+02  0.7818608E-02  0.1180000E+00
       11   -1    0    0    0    0  0.00000000000E+00  0.00000000000E+00  0.39999999673E+01  0.40000000000E+01  0.51109989000E-03 0.  1.
     -623   -1    0    0    0    0  0.00000000000E+00  0.00000000000E+00  0.12525980253E-10  0.17130000000E+03  0.17130000000E+03 0. -1.
       11    1    1    2    0    0 -0.10442606037E-01  0.22243860882E-01  0.18375606347E+01  0.18377250025E+01  0.51109989000E-03 0.  1.
     -623    1    1    2    0    0 -0.10705930025E-02  0.88003827837E-04  0.68035476700E-03  0.17130000000E+03  0.17130000000E+03 0. -1.
      622    1    1    2    0    0  0.11513199040E-01 -0.22331864710E-01  0.21617589779E+01  0.21622749928E+01  0.40000000000E-01 0.  1.
</event>
<event>
 5   0  0.6200596E+07  0.9118800E+02  0.7818608E-02  0.1180000E+00
       11   -1    0    0    0    0  0.00000000000E+00  0.00000000000E+00  0.39999999673E+01  0.40000000000E+01  0.51109989000E-03 0.  1.
     -623   -1    0    0    0    0  0.00000000000E+00  0.00000000000E+00  0.12525980253E-10  0.17130000000E+03  0.17130000000E+03 0. -1.
       11    1    1    2    0    0  0.82453272321E-03  0.25747202576E-02  0.28186338651E-01  0.28320309769E-01  0.51109989000E-03 0.  1.
     -623    1    1    2    0    0 -0.22583870217E-02 -0.12724237272E-02  0.33586199880E-03  0.17130000002E+03  0.17130000000E+03 0. -1.
      622    1    1    2    0    0  0.14338542985E-02 -0.13022965304E-02  0.39714777667E+01  0.39716796703E+01  0.40000000000E-01 0.  1.
</event>
<event>
 5   0  0.6200596E+07  0.9118800E+02  0.7818608E-02  0.1180000E+00
       11   -1    0    0    0    0  0.00000000000E+00  0.00000000000E+00  0.39999999673E+01  0.40000000000E+01  0.51109989000E-03 0. -1.
     -623   -1    0    0    0    0  0.00000000000E+00  0.00000000000E+00  0.12525980253E-10  0.17130000000E+03  0.17130000000E+03 0. -1.
       11    1    1    2    0    0 -0.46454360787E-02  0.21086936659E-02  0.63254562957E+00  0.63256640867E+00  0.51109989000E-03 0. -1.
     -623    1    1    2    0    0  0.26240824521E-03 -0.92041854760E-03  0.26138968830E-03  0.17130000000E+03  0.17130000000E+03 0. -1.
      622    1    1    2    0    0  0.43830278335E-02 -0.11882751184E-02  0.33671929481E+01  0.33674335885E+01  0.40000000000E-01 0. -1.
</event>
<event>
 5   0  0.6200596E+07  0.9118800E+02  0.7818608E-02  0.1180000E+00
       11   -1    0    0    0    0  0.00000000000E+00  0.00000000000E+00  0.39999999673E+01  0.40000000000E+01  0.51109989000E-03 0. -1.
     -623   -1    0    0    0    0  0.00000000000E+00  0.00000000000E+00  0.12525980253E-10  0.17130000000E+03  0.17130000000E+03 0. -1.
       11    1    1    2    0    0  0.42227517297E-02 -0.20654465695E-02  0.40095971853E-01  0.40373826680E-01  0.51109989000E-03 0. -1.
     -623    1    1    2    0    0 -0.20781808304E-02  0.27235596409E-02  0.48053703331E-03  0.17130000003E+03  0.17130000000E+03 0. -1.
      622    1    1    2    0    0 -0.21445708993E-02 -0.65811307145E-03  0.39594234585E+01  0.39596261384E+01  0.40000000000E-01 0. -1.
</event>
<event>
 5   0  0.6200596E+07  0.9118800E+02  0.7818608E-02  0.1180000E+00
       11   -1    0    0    0    0  0.00000000000E+00  0.00000000000E+00  0.39999999673E+01  0.40000000000E+01  0.51109989000E-03 0.  1.
     -623   -1    0    0    0    0  0.00000000000E+00  0.00000000000E+00  0.12525980253E-10  0.17130000000E+03  0.17130000000E+03 0. -1.
       11    1    1    2    0    0  0.22484759298E-02 -0.55703289101E-02  0.21763498392E-01  0.22583075371E-01  0.51109989000E-03 0.  1.
     -623    1    1    2    0    0 -0.16769863851E-02 -0.87736397789E-03  0.10259659429E-02  0.17130000001E+03  0.17130000000E+03 0. -1.
      622    1    1    2    0    0 -0.57148954478E-03  0.64476928879E-02  0.39772105030E+01  0.39774169111E+01  0.40000000000E-01 0.  1.
</event>
<event>
 5   0  0.6200596E+07  0.9118800E+02  0.7818608E-02  0.1180000E+00
       11   -1    0    0    0    0  0.00000000000E+00  0.00000000000E+00  0.39999999673E+01  0.40000000000E+01  0.51109989000E-03 0. -1.
     -623   -1    0    0    0    0  0.00000000000E+00  0.00000000000E+00  0.12525980253E-10  0.17130000000E+03  0.17130000000E+03 0.  1.
       11    1    1    2    0    0  0.31395226604E-02 -0.11927782242E-02  0.26717348013E+00  0.26719507673E+00  0.51109989000E-03 0. -1.
     -623    1    1    2    0    0 -0.90973651752E-02  0.14898015645E-02  0.24090107410E-03  0.17130000025E+03  0.17130000000E+03 0.  1.
      622    1    1    2    0    0  0.59578425149E-02 -0.29702334032E-03  0.37325855862E+01  0.37328046751E+01  0.40000000000E-01 0. -1.
</event>
<event>
 5   0  0.6200596E+07  0.9118800E+02  0.7818608E-02  0.1180000E+00
       11   -1    0    0    0    0  0.00000000000E+00  0.00000000000E+00  0.39999999673E+01  0.40000000000E+01  0.51109989000E-03 0. -1.
     -623   -1    0    0    0    0  0.00000000000E+00  0.00000000000E+00  0.12525980253E-10  0.17130000000E+03  0.17130000000E+03 0.  1.
       11    1    1    2    0    0  0.17156813414E-01  0.15492368671E-01  0.10251496272E+01  0.10254103515E+01  0.51109989000E-03 0. -1.
     -623    1    1    2    0    0 -0.36806412248E-02  0.38102812405E-02  0.62289711544E-03  0.17130000008E+03  0.17130000000E+03 0.  1.
      622    1    1    2    0    0 -0.13476172190E-01 -0.19302649912E-01  0.29742274431E+01  0.29745895654E+01  0.40000000000E-01 0. -1.
</event>
<event>
 5   0  0.6200596E+07  0.9118800E+02  0.7818608E-02  0.1180000E+00
       11   -1    0    0    0    0  0.00000000000E+00  0.00000000000E+00  0.39999999673E+01  0.40000000000E+01  0.51109989000E-03 0. -1.
     -623   -1    0    0    0    0  0.00000000000E+00  0.00000000000E+00  0.12525980253E-10  0.17130000000E+03  0.17130000000E+03 0.  1.
       11    1    1    2    0    0 -0.97801346643E-02  0.46769384029E-02  0.79734160575E+00  0.79741546402E+00  0.51109989000E-03 0. -1.
     -623    1    1    2    0    0  0.12032910112E-02 -0.27426513657E-03  0.33815062863E-03  0.17130000000E+03  0.17130000000E+03 0.  1.
      622    1    1    2    0    0  0.85768436531E-02 -0.44026732663E-02  0.32023202110E+01  0.32025845312E+01  0.40000000000E-01 0.  0.
</event>
<event>
 5   0  0.6200596E+07  0.9118800E+02  0.7818608E-02  0.1180000E+00
       11   -1    0    0    0    0  0.00000000000E+00  0.00000000000E+00  0.39999999673E+01  0.40000000000E+01  0.51109989000E-03 0.  1.
     -623   -1    0    0    0    0  0.00000000000E+00  0.00000000000E+00  0.12525980253E-10  0.17130000000E+03  0.17130000000E+03 0. -1.
       11    1    1    2    0    0  0.13461668799E-02 -0.89264653076E-03  0.39798980473E+00  0.39799341059E+00  0.51109989000E-03 0.  1.
     -623    1    1    2    0    0  0.91837619067E-03  0.77189897817E-04  0.22648532808E-03  0.17130000000E+03  0.17130000000E+03 0. -1.
      622    1    1    2    0    0 -0.22645430705E-02  0.81545663294E-03  0.36017836773E+01  0.36020065868E+01  0.40000000000E-01 0.  1.
</event>
<event>
 5   0  0.6200596E+07  0.9118800E+02  0.7818608E-02  0.1180000E+00
       11   -1    0    0    0    0  0.00000000000E+00  0.00000000000E+00  0.39999999673E+01  0.40000000000E+01  0.51109989000E-03 0. -1.
     -623   -1    0    0    0    0  0.00000000000E+00  0.00000000000E+00  0.12525980253E-10  0.17130000000E+03  0.17130000000E+03 0.  1.
       11    1    1    2    0    0 -0.11987931572E-02  0.64302691739E-02  0.31484839898E+00  0.31491675254E+00  0.51109989000E-03 0. -1.
     -623    1    1    2    0    0 -0.32627292814E-04 -0.35571347880E-03  0.29063212654E-03  0.17130000000E+03  0.17130000000E+03 0.  1.
      622    1    1    2    0    0  0.12314204500E-02 -0.60745556951E-02  0.36848609363E+01  0.36850832468E+01  0.40000000000E-01 0. -1.
</event>
<event>
 5   0  0.6200596E+07  0.9118800E+02  0.7818608E-02  0.1180000E+00
       11   -1    0    0    0    0  0.00000000000E+00  0.00000000000E+00  0.39999999673E+01  0.40000000000E+01  0.51109989000E-03 0. -1.
     -623   -1    0    0    0    0  0.00000000000E+00  0.00000000000E+00  0.12525980253E-10  0.17130000000E+03  0.17130000000E+03 0. -1.
       11    1    1    2    0    0 -0.49336077732E-03  0.94335864150E-03  0.26662325409E-01  0.26688464686E-01  0.51109989000E-03 0. -1.
     -623    1    1    2    0    0 -0.65824177101E-03 -0.17583372894E-03  0.22769766217E-03  0.17130000000E+03  0.17130000000E+03 0. -1.
      622    1    1    2    0    0  0.11516025483E-02 -0.76752491256E-03  0.39731099443E+01  0.39733115338E+01  0.40000000000E-01 0. -1.
</event>
<event>
 5   0  0.6200596E+07  0.9118800E+02  0.7818608E-02  0.1180000E+00
       11   -1    0    0    0    0  0.00000000000E+00  0.00000000000E+00  0.39999999673E+01  0.40000000000E+01  0.51109989000E-03 0.  1.
     -623   -1    0    0    0    0  0.00000000000E+00  0.00000000000E+00  0.12525980253E-10  0.17130000000E+03  0.17130000000E+03 0. -1.
       11    1    1    2    0    0  0.60232333590E-02 -0.15112655818E-02  0.76067095514E-01  0.76321867803E-01  0.51109989000E-03 0.  1.
     -623    1    1    2    0    0  0.13605868736E-02 -0.10793651400E-02  0.46644802581E-03  0.17130000001E+03  0.17130000000E+03 0. -1.
      622    1    1    2    0    0 -0.73838202326E-02  0.25906307219E-02  0.39234664238E+01  0.39236781228E+01  0.40000000000E-01 0.  1.
</event>
<event>
 5   0  0.6200596E+07  0.9118800E+02  0.7818608E-02  0.1180000E+00
       11   -1    0    0    0    0  0.00000000000E+00  0.00000000000E+00  0.39999999673E+01  0.40000000000E+01  0.51109989000E-03 0.  1.
     -623   -1    0    0    0    0  0.00000000000E+00  0.00000000000E+00  0.12525980253E-10  0.17130000000E+03  0.17130000000E+03 0.  1.
       11    1    1    2    0    0  0.18552040900E-02 -0.15848690333E-03  0.33219800463E-02  0.38423525928E-02  0.51109989000E-03 0.  1.
     -623    1    1    2    0    0 -0.31504575898E-03  0.67391161547E-03  0.72087040815E-03  0.17130000000E+03  0.17130000000E+03 0.  1.
      622    1    1    2    0    0 -0.15401583311E-02 -0.51542471213E-03  0.39959571169E+01  0.39961576443E+01  0.40000000000E-01 0.  1.
</event>
<event>
 5   0  0.6200596E+07  0.9118800E+02  0.7818608E-02  0.1180000E+00
       11   -1    0    0    0    0  0.00000000000E+00  0.00000000000E+00  0.39999999673E+01  0.40000000000E+01  0.51109989000E-03 0.  1.
     -623   -1    0    0    0    0  0.00000000000E+00  0.00000000000E+00  0.12525980253E-10  0.17130000000E+03  0.17130000000E+03 0.  1.
       11    1    1    2    0    0 -0.16735435952E-02 -0.79802531388E-03  0.12396429313E+00  0.12397921110E+00  0.51109989000E-03 0.  1.
     -623    1    1    2    0    0  0.35303166507E-03 -0.10500376221E-03  0.22161875398E-03  0.17130000000E+03  0.17130000000E+03 0.  1.
      622    1    1    2    0    0  0.13205119301E-02  0.90302907608E-03  0.38758140555E+01  0.38760207884E+01  0.40000000000E-01 0.  1.
</event>
<event>
 5   0  0.6200596E+07  0.9118800E+02  0.7818608E-02  0.1180000E+00
       11   -1    0    0    0    0  0.00000000000E+00  0.00000000000E+00  0.39999999673E+01  0.40000000000E+01  0.51109989000E-03 0. -1.
     -623   -1    0    0    0    0  0.00000000000E+00  0.00000000000E+00  0.12525980253E-10  0.17130000000E+03  0.17130000000E+03 0. -1.
       11    1    1    2    0    0  0.34991888104E-02  0.30217909420E-02  0.20632910999E-01  0.21150739506E-01  0.51109989000E-03 0.  1.
     -623    1    1    2    0    0 -0.17822495412E-02 -0.12028410075E-02  0.71966536684E-03  0.17130000002E+03  0.17130000000E+03 0. -1.
      622    1    1    2    0    0 -0.17169392693E-02 -0.18189499345E-02  0.39786473910E+01  0.39788492455E+01  0.40000000000E-01 0. -1.
</event>
<event>
 5   0  0.6200596E+07  0.9118800E+02  0.7818608E-02  0.1180000E+00
       11   -1    0    0    0    0  0.00000000000E+00  0.00000000000E+00  0.39999999673E+01  0.40000000000E+01  0.51109989000E-03 0.  1.
     -623   -1    0    0    0    0  0.00000000000E+00  0.00000000000E+00  0.12525980253E-10  0.17130000000E+03  0.17130000000E+03 0.  1.
       11    1    1    2    0    0 -0.94796847345E-03  0.65742853716E-03  0.11661296223E-01  0.11729360856E-01  0.51109989000E-03 0.  1.
     -623    1    1    2    0    0  0.88224984766E-03  0.14055020141E-02  0.26916757348E-03  0.17130000001E+03  0.17130000000E+03 0.  1.
      622    1    1    2    0    0  0.65718625788E-04 -0.20629305512E-02  0.39880695036E+01  0.39882706309E+01  0.40000000000E-01 0.  1.
</event>
<event>
 5   0  0.6200596E+07  0.9118800E+02  0.7818608E-02  0.1180000E+00
       11   -1    0    0    0    0  0.00000000000E+00  0.00000000000E+00  0.39999999673E+01  0.40000000000E+01  0.51109989000E-03 0. -1.
     -623   -1    0    0    0    0  0.00000000000E+00  0.00000000000E+00  0.12525980253E-10  0.17130000000E+03  0.17130000000E+03 0.  1.
       11    1    1    2    0    0  0.88665602597E-02  0.43292213015E-02  0.19745505397E+00  0.19770209308E+00  0.51109989000E-03 0. -1.
     -623    1    1    2    0    0  0.22640276564E-03  0.29304704759E-02  0.47524133858E-03  0.17130000003E+03  0.17130000000E+03 0.  1.
      622    1    1    2    0    0 -0.90929630254E-02 -0.72596917773E-02  0.38020696720E+01  0.38022978810E+01  0.40000000000E-01 0. -1.
</event>
<event>
 5   0  0.6200596E+07  0.9118800E+02  0.7818608E-02  0.1180000E+00
       11   -1    0    0    0    0  0.00000000000E+00  0.00000000000E+00  0.39999999673E+01  0.40000000000E+01  0.51109989000E-03 0.  1.
     -623   -1    0    0    0    0  0.00000000000E+00  0.00000000000E+00  0.12525980253E-10  0.17130000000E+03  0.17130000000E+03 0.  1.
       11    1    1    2    0    0 -0.13738693084E-03 -0.15227876446E-02  0.27465970704E-02  0.31847722753E-02  0.51109989000E-03 0.  1.
     -623    1    1    2    0    0 -0.29218511005E-03  0.61124470427E-03  0.63843650995E-03  0.17130000000E+03  0.17130000000E+03 0.  1.
      622    1    1    2    0    0  0.42957204089E-03  0.91154294034E-03  0.39966149338E+01  0.39968152252E+01  0.40000000000E-01 0.  1.
</event>
<event>
 5   0  0.6200596E+07  0.9118800E+02  0.7818608E-02  0.1180000E+00
       11   -1    0    0    0    0  0.00000000000E+00  0.00000000000E+00  0.39999999673E+01  0.40000000000E+01  0.51109989000E-03 0.  1.
     -623   -1    0    0    0    0  0.00000000000E+00  0.00000000000E+00  0.12525980253E-10  0.17130000000E+03  0.17130000000E+03 0. -1.
       11    1    1    2    0    0 -0.18826867087E-01  0.26842698589E-02  0.23385460855E+01  0.23386234651E+01  0.51109989000E-03 0.  1.
     -623    1    1    2    0    0 -0.93061726341E-02  0.39381804437E-02  0.81073258163E-03  0.17130000030E+03  0.17130000000E+03 0. -1.
      622    1    1    2    0    0  0.28133039721E-01 -0.66224503026E-02  0.16606431493E+01  0.16613762349E+01  0.40000000000E-01 0.  0.
</event>
<event>
 5   0  0.6200596E+07  0.9118800E+02  0.7818608E-02  0.1180000E+00
       11   -1    0    0    0    0  0.00000000000E+00  0.00000000000E+00  0.39999999673E+01  0.40000000000E+01  0.51109989000E-03 0.  1.
     -623   -1    0    0    0    0  0.00000000000E+00  0.00000000000E+00  0.12525980253E-10  0.17130000000E+03  0.17130000000E+03 0.  1.
       11    1    1    2    0    0  0.18405986962E-01 -0.36530315028E-01  0.28160255974E+00  0.28455844241E+00  0.51109989000E-03 0.  1.
     -623    1    1    2    0    0 -0.83408929833E-02  0.18973695150E-01  0.32275752111E-02  0.17130000128E+03  0.17130000000E+03 0.  1.
      622    1    1    2    0    0 -0.10065093979E-01  0.17556619879E-01  0.37151698324E+01  0.37154402733E+01  0.40000000000E-01 0.  1.
</event>
<event>
 5   0  0.6200596E+07  0.9118800E+02  0.7818608E-02  0.1180000E+00
       11   -1    0    0    0    0  0.00000000000E+00  0.00000000000E+00  0.39999999673E+01  0.40000000000E+01  0.51109989000E-03 0. -1.
     -623   -1    0    0    0    0  0.00000000000E+00  0.00000000000E+00  0.12525980253E-10  0.17130000000E+03  0.17130000000E+03 0. -1.
       11    1    1    2    0    0  0.11951602597E-02 -0.83064438071E-02  0.75761457625E-02  0.11317447735E-01  0.51109989000E-03 0. -1.
     -623    1    1    2    0    0 -0.19960258760E-02  0.11414802922E-01  0.39435708480E-02  0.17130000044E+03  0.17130000000E+03 0. -1.
      622    1    1    2    0    0  0.80086561631E-03 -0.31083591149E-02  0.39884802507E+01  0.39886821149E+01  0.40000000000E-01 0. -1.
</event>
<event>
 5   0  0.6200596E+07  0.9118800E+02  0.7818608E-02  0.1180000E+00
       11   -1    0    0    0    0  0.00000000000E+00  0.00000000000E+00  0.39999999673E+01  0.40000000000E+01  0.51109989000E-03 0. -1.
     -623   -1    0    0    0    0  0.00000000000E+00  0.00000000000E+00  0.12525980253E-10  0.17130000000E+03  0.17130000000E+03 0. -1.
       11    1    1    2    0    0  0.33307284987E-03  0.30692849539E-02  0.29766250418E-01  0.29930291218E-01  0.51109989000E-03 0. -1.
     -623    1    1    2    0    0  0.33861677057E-02 -0.27241315367E-02  0.36733381841E-03  0.17130000006E+03  0.17130000000E+03 0. -1.
      622    1    1    2    0    0 -0.37192405556E-02 -0.34515341716E-03  0.39698663831E+01  0.39700696533E+01  0.40000000000E-01 0. -1.
</event>
<event>
 5   0  0.6200596E+07  0.9118800E+02  0.7818608E-02  0.1180000E+00
       11   -1    0    0    0    0  0.00000000000E+00  0.00000000000E+00  0.39999999673E+01  0.40000000000E+01  0.51109989000E-03 0.  1.
     -623   -1    0    0    0    0  0.00000000000E+00  0.00000000000E+00  0.12525980253E-10  0.17130000000E+03  0.17130000000E+03 0. -1.
       11    1    1    2    0    0 -0.30240003495E-01  0.63946316042E-02  0.42321225172E-01  0.52408934782E-01  0.51109989000E-03 0.  1.
     -623    1    1    2    0    0  0.42500298255E-01 -0.93800306389E-02  0.10316346214E-01  0.17130000584E+03  0.17130000000E+03 0. -1.
      622    1    1    2    0    0 -0.12260294760E-01  0.29853990347E-02  0.39473623960E+01  0.39475852255E+01  0.40000000000E-01 0.  1.
</event>
<event>
 5   0  0.6200596E+07  0.9118800E+02  0.7818608E-02  0.1180000E+00
       11   -1    0    0    0    0  0.00000000000E+00  0.00000000000E+00  0.39999999673E+01  0.40000000000E+01  0.51109989000E-03 0.  1.
     -623   -1    0    0    0    0  0.00000000000E+00  0.00000000000E+00  0.12525980253E-10  0.17130000000E+03  0.17130000000E+03 0. -1.
       11    1    1    2    0    0 -0.92033459628E-02  0.92243078793E-03  0.22026576593E+01  0.22026771388E+01  0.51109989000E-03 0.  1.
     -623    1    1    2    0    0 -0.47124934137E-03  0.66528305485E-03  0.49135728792E-03  0.17130000000E+03  0.17130000000E+03 0. -1.
      622    1    1    2    0    0  0.96745953042E-02 -0.15877138428E-02  0.17968509508E+01  0.17973228586E+01  0.40000000000E-01 0.  1.
</event>
<event>
 5   0  0.6200596E+07  0.9118800E+02  0.7818608E-02  0.1180000E+00
       11   -1    0    0    0    0  0.00000000000E+00  0.00000000000E+00  0.39999999673E+01  0.40000000000E+01  0.51109989000E-03 0. -1.
     -623   -1    0    0    0    0  0.00000000000E+00  0.00000000000E+00  0.12525980253E-10  0.17130000000E+03  0.17130000000E+03 0.  1.
       11    1    1    2    0    0 -0.45828197723E-03  0.18661712187E-02  0.26092543955E-01  0.26168199957E-01  0.51109989000E-03 0. -1.
     -623    1    1    2    0    0 -0.10754583472E-02 -0.23427126535E-02  0.27728968006E-03  0.17130000002E+03  0.17130000000E+03 0.  1.
      622    1    1    2    0    0  0.15337403245E-02  0.47654143484E-03  0.39736301337E+01  0.39738317804E+01  0.40000000000E-01 0. -1.
</event>
<event>
 5   0  0.6200596E+07  0.9118800E+02  0.7818608E-02  0.1180000E+00
       11   -1    0    0    0    0  0.00000000000E+00  0.00000000000E+00  0.39999999673E+01  0.40000000000E+01  0.51109989000E-03 0. -1.
     -623   -1    0    0    0    0  0.00000000000E+00  0.00000000000E+00  0.12525980253E-10  0.17130000000E+03  0.17130000000E+03 0.  1.
       11    1    1    2    0    0  0.26930828635E-01  0.42367337763E-01  0.89221655814E+00  0.89362794757E+00  0.51109989000E-03 0. -1.
     -623    1    1    2    0    0 -0.22418119256E-02 -0.29195352288E-01  0.17974670910E-02  0.17130000251E+03  0.17130000000E+03 0.  1.
      622    1    1    2    0    0 -0.24689016710E-01 -0.13171985476E-01  0.31059859421E+01  0.31063695404E+01  0.40000000000E-01 0. -1.
</event>
<event>
 5   0  0.6200596E+07  0.9118800E+02  0.7818608E-02  0.1180000E+00
       11   -1    0    0    0    0  0.00000000000E+00  0.00000000000E+00  0.39999999673E+01  0.40000000000E+01  0.51109989000E-03 0.  1.
     -623   -1    0    0    0    0  0.00000000000E+00  0.00000000000E+00  0.12525980253E-10  0.17130000000E+03  0.17130000000E+03 0.  1.
       11    1    1    2    0    0 -0.10391904450E-02  0.26158473878E-03  0.25963524290E+00  0.25963795740E+00  0.51109989000E-03 0.  1.
     -623    1    1    2    0    0 -0.87774842967E-03  0.36361724126E-03  0.21711728200E-03  0.17130000000E+03  0.17130000000E+03 0.  1.
      622    1    1    2    0    0  0.19169388747E-02 -0.62520198003E-03  0.37401476072E+01  0.37403620398E+01  0.40000000000E-01 0.  1.
</event>
<event>
 5   0  0.6200596E+07  0.9118800E+02  0.7818608E-02  0.1180000E+00
       11   -1    0    0    0    0  0.00000000000E+00  0.00000000000E+00  0.39999999673E+01  0.40000000000E+01  0.51109989000E-03 0. -1.
     -623   -1    0    0    0    0  0.00000000000E+00  0.00000000000E+00  0.12525980253E-10  0.17130000000E+03  0.17130000000E+03 0. -1.
       11    1    1    2    0    0 -0.15102293886E-01  0.94925710326E-02  0.23565042830E+01  0.23565718502E+01  0.51109989000E-03 0. -1.
     -623    1    1    2    0    0 -0.10941898042E-02  0.13759923314E-02  0.67019216461E-03  0.17130000001E+03  0.17130000000E+03 0. -1.
      622    1    1    2    0    0  0.16196483690E-01 -0.10868563364E-01  0.16428254922E+01  0.16434281394E+01  0.40000000000E-01 0. -1.
</event>
<event>
 5   0  0.6200596E+07  0.9118800E+02  0.7818608E-02  0.1180000E+00
       11   -1    0    0    0    0  0.00000000000E+00  0.00000000000E+00  0.39999999673E+01  0.40000000000E+01  0.51109989000E-03 0.  1.
     -623   -1    0    0    0    0  0.00000000000E+00  0.00000000000E+00  0.12525980253E-10  0.17130000000E+03  0.17130000000E+03 0.  1.
       11    1    1    2    0    0  0.11531017170E-01 -0.36680687094E-02  0.29005865676E+00  0.29031139259E+00  0.51109989000E-03 0.  1.
     -623    1    1    2    0    0  0.57273526833E-03  0.28457541771E-03  0.48965287012E-03  0.17130000000E+03  0.17130000000E+03 0.  1.
      622    1    1    2    0    0 -0.12103752438E-01  0.33834932917E-02  0.37094516577E+01  0.37096886055E+01  0.40000000000E-01 0.  0.
</event>
<event>
 5   0  0.6200596E+07  0.9118800E+02  0.7818608E-02  0.1180000E+00
       11   -1    0    0    0    0  0.00000000000E+00  0.00000000000E+00  0.39999999673E+01  0.40000000000E+01  0.51109989000E-03 0. -1.
     -623   -1    0    0    0    0  0.00000000000E+00  0.00000000000E+00  0.12525980253E-10  0.17130000000E+03  0.17130000000E+03 0.  1.
       11    1    1    2    0    0  0.76749784182E-04 -0.16912867602E-02  0.53887151368E-01  0.53916163115E-01  0.51109989000E-03 0. -1.
     -623    1    1    2    0    0 -0.67219307467E-04  0.24680218632E-03  0.23198171028E-03  0.17130000000E+03  0.17130000000E+03 0.  1.
      622    1    1    2    0    0 -0.95304767150E-05  0.14444845739E-02  0.39458808343E+01  0.39460838365E+01  0.40000000000E-01 0. -1.
</event>
<event>
 5   0  0.6200596E+07  0.9118800E+02  0.7818608E-02  0.1180000E+00
       11   -1    0    0    0    0  0.00000000000E+00  0.00000000000E+00  0.39999999673E+01  0.40000000000E+01  0.51109989000E-03 0. -1.
     -623   -1    0    0    0    0  0.00000000000E+00  0.00000000000E+00  0.12525980253E-10  0.17130000000E+03  0.17130000000E+03 0.  1.
       11    1    1    2    0    0 -0.81464057962E-02 -0.75702232447E-02  0.41769050829E+00  0.41783883753E+00  0.51109989000E-03 0. -1.
     -623    1    1    2    0    0 -0.25456949541E-02  0.11115327722E-01  0.38972479072E-03  0.17130000038E+03  0.17130000000E+03 0.  1.
      622    1    1    2    0    0  0.10692100750E-01 -0.35451044773E-02  0.35819197343E+01  0.35821607825E+01  0.40000000000E-01 0. -1.
</event>
<event>
 5   0  0.6200596E+07  0.9118800E+02  0.7818608E-02  0.1180000E+00
       11   -1    0    0    0    0  0.00000000000E+00  0.00000000000E+00  0.39999999673E+01  0.40000000000E+01  0.51109989000E-03 0.  1.
     -623   -1    0    0    0    0  0.00000000000E+00  0.00000000000E+00  0.12525980253E-10  0.17130000000E+03  0.17130000000E+03 0.  1.
       11    1    1    2    0    0  0.27401866393E-02  0.14858748220E-02  0.34264957852E-01  0.34410245663E-01  0.51109989000E-03 0.  1.
     -623    1    1    2    0    0  0.49288954556E-03 -0.30428162009E-03  0.34849112398E-03  0.17130000000E+03  0.17130000000E+03 0.  1.
      622    1    1    2    0    0 -0.32330761849E-02 -0.11815932019E-02  0.39653865184E+01  0.39655897530E+01  0.40000000000E-01 0.  1.
</event>
<event>
 5   0  0.6200596E+07  0.9118800E+02  0.7818608E-02  0.1180000E+00
       11   -1    0    0    0    0  0.00000000000E+00  0.00000000000E+00  0.39999999673E+01  0.40000000000E+01  0.51109989000E-03 0. -1.
     -623   -1    0    0    0    0  0.00000000000E+00  0.00000000000E+00  0.12525980253E-10  0.17130000000E+03  0.17130000000E+03 0. -1.
       11    1    1    2    0    0  0.81961734032E-02 -0.67618976836E-02  0.49803426649E+00  0.49814786192E+00  0.51109989000E-03 0. -1.
     -623    1    1    2    0    0 -0.44009963731E-03  0.14586672513E-02  0.35463366119E-03  0.17130000001E+03  0.17130000000E+03 0. -1.
      622    1    1    2    0    0 -0.77560737659E-02  0.53032304323E-02  0.35016110672E+01  0.35018521309E+01  0.40000000000E-01 0. -1.
</event>
<event>
 5   0  0.6200596E+07  0.9118800E+02  0.7818608E-02  0.1180000E+00
       11   -1    0    0    0    0  0.00000000000E+00  0.00000000000E+00  0.39999999673E+01  0.40000000000E+01  0.51109989000E-03 0. -1.
     -623   -1    0    0    0    0  0.00000000000E+00  0.00000000000E+00  0.12525980253E-10  0.17130000000E+03  0.17130000000E+03 0.  1.
       11    1    1    2    0    0  0.60734649834E-02  0.12315554862E-02  0.81382573832E-01  0.81619778544E-01  0.51109989000E-03 0. -1.
     -623    1    1    2    0    0  0.39305908440E-03  0.78795285435E-03  0.44720283434E-03  0.17130000000E+03  0.17130000000E+03 0.  1.
      622    1    1    2    0    0 -0.64665240678E-02 -0.20195083405E-02  0.39181701907E+01  0.39183802186E+01  0.40000000000E-01 0. -1.
</event>
<event>
 5   0  0.6200596E+07  0.9118800E+02  0.7818608E-02  0.1180000E+00
       11   -1    0    0    0    0  0.00000000000E+00  0.00000000000E+00  0.39999999673E+01  0.40000000000E+01  0.51109989000E-03 0.  1.
     -623   -1    0    0    0    0  0.00000000000E+00  0.00000000000E+00  0.12525980253E-10  0.17130000000E+03  0.17130000000E+03 0. -1.
       11    1    1    2    0    0 -0.12857824732E-03 -0.80506016493E-03  0.12761889969E-01  0.12798113543E-01  0.51109989000E-03 0.  1.
     -623    1    1    2    0    0  0.64674753474E-04  0.40795579970E-03  0.23685889102E-03  0.17130000000E+03  0.17130000000E+03 0. -1.
      622    1    1    2    0    0  0.63903493842E-04  0.39710436523E-03  0.39870012185E+01  0.39872018858E+01  0.40000000000E-01 0.  1.
</event>
<event>
 5   0  0.6200596E+07  0.9118800E+02  0.7818608E-02  0.1180000E+00
       11   -1    0    0    0    0  0.00000000000E+00  0.00000000000E+00  0.39999999673E+01  0.40000000000E+01  0.51109989000E-03 0. -1.
     -623   -1    0    0    0    0  0.00000000000E+00  0.00000000000E+00  0.12525980253E-10  0.17130000000E+03  0.17130000000E+03 0. -1.
       11    1    1    2    0    0 -0.32928198496E-01  0.20561316761E-03  0.83969499300E+00  0.84034055658E+00  0.51109989000E-03 0. -1.
     -623    1    1    2    0    0  0.30982288102E-02  0.16087593570E-02  0.10401176822E-02  0.17130000004E+03  0.17130000000E+03 0. -1.
      622    1    1    2    0    0  0.29829969685E-01 -0.18143725246E-02  0.31592648567E+01  0.31596594047E+01  0.40000000000E-01 0.  0.
</event>
<event>
 5   0  0.6200596E+07  0.9118800E+02  0.7818608E-02  0.1180000E+00
       11   -1    0    0    0    0  0.00000000000E+00  0.00000000000E+00  0.39999999673E+01  0.40000000000E+01  0.51109989000E-03 0. -1.
     -623   -1    0    0    0    0  0.00000000000E+00  0.00000000000E+00  0.12525980253E-10  0.17130000000E+03  0.17130000000E+03 0.  1.
       11    1    1    2    0    0 -0.11995297122E-01 -0.10119114558E-02  0.72226093829E+00  0.72236142984E+00  0.51109989000E-03 0. -1.
     -623    1    1    2    0    0  0.23845541925E-01  0.11202077824E-01  0.38383848966E-03  0.17130000203E+03  0.17130000000E+03 0.  1.
      622    1    1    2    0    0 -0.11850244803E-01 -0.10190166369E-01  0.32773551906E+01  0.32776365438E+01  0.40000000000E-01 0. -1.
</event>
<event>
 5   0  0.6200596E+07  0.9118800E+02  0.7818608E-02  0.1180000E+00
       11   -1    0    0    0    0  0.00000000000E+00  0.00000000000E+00  0.39999999673E+01  0.40000000000E+01  0.51109989000E-03 0.  1.
     -623   -1    0    0    0    0  0.00000000000E+00  0.00000000000E+00  0.12525980253E-10  0.17130000000E+03  0.17130000000E+03 0.  1.
       11    1    1    2    0    0 -0.34208608774E-02  0.14995590751E-02  0.63482889207E-01  0.63594727845E-01  0.51109989000E-03 0.  1.
     -623    1    1    2    0    0 -0.10409760952E-03 -0.11939461851E-02  0.31663704037E-03  0.17130000000E+03  0.17130000000E+03 0.  1.
      622    1    1    2    0    0  0.35249584869E-02 -0.30561289003E-03  0.39362004411E+01  0.39364052677E+01  0.40000000000E-01 0.  1.
</event>
<event>
 5   0  0.6200596E+07  0.9118800E+02  0.7818608E-02  0.1180000E+00
       11   -1    0    0    0    0  0.00000000000E+00  0.00000000000E+00  0.39999999673E+01  0.40000000000E+01  0.51109989000E-03 0. -1.
     -623   -1    0    0    0    0  0.00000000000E+00  0.00000000000E+00  0.12525980253E-10  0.17130000000E+03  0.17130000000E+03 0.  1.
       11    1    1    2    0    0  0.86533848868E-02 -0.73436441301E-02  0.10302842808E+00  0.10365292274E+00  0.51109989000E-03 0. -1.
     -623    1    1    2    0    0  0.30603069343E-03  0.12526317855E-02  0.84485745299E-03  0.17130000001E+03  0.17130000000E+03 0.  1.
      622    1    1    2    0    0 -0.89594155802E-02  0.60910123446E-02  0.38961266818E+01  0.38963470703E+01  0.40000000000E-01 0. -1.
</event>
<event>
 5   0  0.6200596E+07  0.9118800E+02  0.7818608E-02  0.1180000E+00
       11   -1    0    0    0    0  0.00000000000E+00  0.00000000000E+00  0.39999999673E+01  0.40000000000E+01  0.51109989000E-03 0.  1.
     -623   -1    0    0    0    0  0.00000000000E+00  0.00000000000E+00  0.12525980253E-10  0.17130000000E+03  0.17130000000E+03 0.  1.
       11    1    1    2    0    0  0.88110549537E-03  0.49081859637E-02  0.10271367984E+01  0.10271490303E+01  0.51109989000E-03 0.  1.
     -623    1    1    2    0    0 -0.83546104620E-03 -0.23357420456E-03  0.28499179042E-03  0.17130000000E+03  0.17130000000E+03 0.  1.
      622    1    1    2    0    0 -0.45644449166E-04 -0.46746117592E-02  0.29725781771E+01  0.29728509672E+01  0.40000000000E-01 0.  1.
</event>
<event>
 5   0  0.6200596E+07  0.9118800E+02  0.7818608E-02  0.1180000E+00
       11   -1    0    0    0    0  0.00000000000E+00  0.00000000000E+00  0.39999999673E+01  0.40000000000E+01  0.51109989000E-03 0.  1.
     -623   -1    0    0    0    0  0.00000000000E+00  0.00000000000E+00  0.12525980253E-10  0.17130000000E+03  0.17130000000E+03 0.  1.
       11    1    1    2    0    0  0.92995794285E-02 -0.37746295853E-01  0.79915208834E+00  0.80009723568E+00  0.51109989000E-03 0.  1.
     -623    1    1    2    0    0 -0.15827640597E-02  0.23145331379E-02  0.14006519946E-02  0.17130000003E+03  0.17130000000E+03 0.  1.
      622    1    1    2    0    0 -0.77168153688E-02  0.35431762715E-01  0.31994472270E+01  0.31999027356E+01  0.40000000000E-01 0.  1.
</event>
<event>
 5   0  0.6200596E+07  0.9118800E+02  0.7818608E-02  0.1180000E+00
       11   -1    0    0    0    0  0.00000000000E+00  0.00000000000E+00  0.39999999673E+01  0.40000000000E+01  0.51109989000E-03 0. -1.
     -623   -1    0    0    0    0  0.00000000000E+00  0.00000000000E+00  0.12525980253E-10  0.17130000000E+03  0.17130000000E+03 0. -1.
       11    1    1    2    0    0  0.28743571832E-01 -0.42990205580E-01  0.28722802304E+01  0.28727457830E+01  0.51109989000E-03 0. -1.
     -623    1    1    2    0    0 -0.59309989928E-02 -0.58404797591E-02  0.24656659055E-02  0.17130000022E+03  0.17130000000E+03 0. -1.
      622    1    1    2    0    0 -0.22812572840E-01  0.48830685339E-01  0.11252540711E+01  0.11272539970E+01  0.40000000000E-01 0. -1.
</event>
<event>
 5   0  0.6200596E+07  0.9118800E+02  0.7818608E-02  0.1180000E+00
       11   -1    0    0    0    0  0.00000000000E+00  0.00000000000E+00  0.39999999673E+01  0.40000000000E+01  0.51109989000E-03 0.  1.
     -623   -1    0    0    0    0  0.00000000000E+00  0.00000000000E+00  0.12525980253E-10  0.17130000000E+03  0.17130000000E+03 0. -1.
       11    1    1    2    0    0  0.57105399727E-03 -0.15501627425E-02  0.20051251766E-02  0.26478019714E-02  0.51109989000E-03 0.  1.
     -623    1    1    2    0    0  0.29811068035E-03  0.10893351928E-02  0.84290850223E-03  0.17130000001E+03  0.17130000000E+03 0. -1.
      622    1    1    2    0    0 -0.86916467763E-03  0.46082754970E-03  0.39971519337E+01  0.39973521922E+01  0.40000000000E-01 0.  1.
</event>
<event>
 5   0  0.6200596E+07  0.9118800E+02  0.7818608E-02  0.1180000E+00
       11   -1    0    0    0    0  0.00000000000E+00  0.00000000000E+00  0.39999999673E+01  0.40000000000E+01  0.51109989000E-03 0.  1.
     -623   -1    0    0    0    0  0.00000000000E+00  0.00000000000E+00  0.12525980253E-10  0.17130000000E+03  0.17130000000E+03 0.  1.
       11    1    1    2    0    0  0.46542185199E-02 -0.46180984675E-02  0.72055819449E-02  0.97555222868E-02  0.51109989000E-03 0.  1.
     -623    1    1    2    0    0  0.55560074290E-02  0.42065017816E-02  0.27636506162E-02  0.17130000016E+03  0.17130000000E+03 0.  1.
      622    1    1    2    0    0 -0.10210225949E-01  0.41159668592E-03  0.39900307348E+01  0.39902443137E+01  0.40000000000E-01 0.  1.
</event>
<event>
 5   0  0.6200596E+07  0.9118800E+02  0.7818608E-02  0.1180000E+00
       11   -1    0    0    0    0  0.00000000000E+00  0.00000000000E+00  0.39999999673E+01  0.40000000000E+01  0.51109989000E-03 0.  1.
     -623   -1    0    0    0    0  0.00000000000E+00  0.00000000000E+00  0.12525980253E-10  0.17130000000E+03  0.17130000000E+03 0.  1.
       11    1    1    2    0    0 -0.11380054646E-02 -0.15086383481E-02  0.87022947283E-02  0.89197646763E-02  0.51109989000E-03 0.  1.
     -623    1    1    2    0    0 -0.11757757344E-03 -0.65032252482E-03  0.41867259537E-03  0.17130000000E+03  0.17130000000E+03 0.  1.
      622    1    1    2    0    0  0.12555830380E-02  0.21589608730E-02  0.39908790000E+01  0.39910802335E+01  0.40000000000E-01 0.  1.
</event>
<event>
 5   0  0.6200596E+07  0.9118800E+02  0.7818608E-02  0.1180000E+00
       11   -1    0    0    0    0  0.00000000000E+00  0.00000000000E+00  0.39999999673E+01  0.40000000000E+01  0.51109989000E-03 0.  1.
     -623   -1    0    0    0    0  0.00000000000E+00  0.00000000000E+00  0.12525980253E-10  0.17130000000E+03  0.17130000000E+03 0.  1.
       11    1    1    2    0    0  0.22598632185E-02  0.33942537795E-02  0.18945367547E-01  0.19385977250E-01  0.51109989000E-03 0.  1.
     -623    1    1    2    0    0 -0.37409270713E-02 -0.85378015007E-02  0.64540982818E-03  0.17130000025E+03  0.17130000000E+03 0.  1.
      622    1    1    2    0    0  0.14810638527E-02  0.51435477213E-02  0.39804091900E+01  0.39806137679E+01  0.40000000000E-01 0.  1.
</event>
<event>
 5   0  0.6200596E+07  0.9118800E+02  0.7818608E-02  0.1180000E+00
       11   -1    0    0    0    0  0.00000000000E+00  0.00000000000E+00  0.39999999673E+01  0.40000000000E+01  0.51109989000E-03 0. -1.
     -623   -1    0    0    0    0  0.00000000000E+00  0.00000000000E+00  0.12525980253E-10  0.17130000000E+03  0.17130000000E+03 0.  1.
       11    1    1    2    0    0 -0.18066558248E-01 -0.21784795074E-01  0.23316705791E+01  0.23318423893E+01  0.51109989000E-03 0. -1.
     -623    1    1    2    0    0 -0.39779404187E-02 -0.33406245110E-03  0.94387598814E-03  0.17130000005E+03  0.17130000000E+03 0.  1.
      622    1    1    2    0    0  0.22044498666E-01  0.22118857525E-01  0.16673855123E+01  0.16681575616E+01  0.40000000000E-01 0.  0.
</event>
<event>
 5   0  0.6200596E+07  0.9118800E+02  0.7818608E-02  0.1180000E+00
       11   -1    0    0    0    0  0.00000000000E+00  0.00000000000E+00  0.39999999673E+01  0.40000000000E+01  0.51109989000E-03 0.  1.
     -623   -1    0    0    0    0  0.00000000000E+00  0.00000000000E+00  0.12525980253E-10  0.17130000000E+03  0.17130000000E+03 0.  1.
       11    1    1    2    0    0 -0.19828092246E-01 -0.56163471422E-02  0.11904637614E+01  0.11906422322E+01  0.51109989000E-03 0.  1.
     -623    1    1    2    0    0 -0.30039227225E-04  0.57474125900E-03  0.53793356545E-03  0.17130000000E+03  0.17130000000E+03 0.  1.
      622    1    1    2    0    0  0.19858131473E-01  0.50416058832E-02  0.28089982724E+01  0.28093577660E+01  0.40000000000E-01 0.  1.
</event>
<event>
 5   0  0.6200596E+07  0.9118800E+02  0.7818608E-02  0.1180000E+00
       11   -1    0    0    0    0  0.00000000000E+00  0.00000000000E+00  0.39999999673E+01  0.40000000000E+01  0.51109989000E-03 0. -1.
     -623   -1    0    0    0    0  0.00000000000E+00  0.00000000000E+00  0.12525980253E-10  0.17130000000E+03  0.17130000000E+03 0.  1.
       11    1    1    2    0    0  0.62599591552E-04  0.18468533510E-02  0.34433329737E-01  0.34486667065E-01  0.51109989000E-03 0.  1.
     -623    1    1    2    0    0 -0.57523537965E-03  0.12603203958E-02  0.25630545425E-03  0.17130000001E+03  0.17130000000E+03 0.  1.
      622    1    1    2    0    0  0.51263578810E-03 -0.31071737468E-02  0.39653103322E+01  0.39655133271E+01  0.40000000000E-01 0. -1.
</event>
<event>
 5   0  0.6200596E+07  0.9118800E+02  0.7818608E-02  0.1180000E+00
       11   -1    0    0    0    0  0.00000000000E+00  0.00000000000E+00  0.39999999673E+01  0.40000000000E+01  0.51109989000E-03 0. -1.
     -623   -1    0    0    0    0  0.00000000000E+00  0.00000000000E+00  0.12525980253E-10  0.17130000000E+03  0.17130000000E+03 0. -1.
       11    1    1    2    0    0 -0.20654025787E-02  0.85996613506E-02  0.27004778366E-01  0.28420755427E-01  0.51109989000E-03 0. -1.
     -623    1    1    2    0    0 -0.15811563190E-01 -0.15762016845E-02  0.16645728369E-02  0.17130000075E+03  0.17130000000E+03 0. -1.
      622    1    1    2    0    0  0.17876965768E-01 -0.70234596660E-02  0.39713306162E+01  0.39715784995E+01  0.40000000000E-01 0. -1.
</event>
<event>
 5   0  0.6200596E+07  0.9118800E+02  0.7818608E-02  0.1180000E+00
       11   -1    0    0    0    0  0.00000000000E+00  0.00000000000E+00  0.39999999673E+01  0.40000000000E+01  0.51109989000E-03 0.  1.
     -623   -1    0    0    0    0  0.00000000000E+00  0.00000000000E+00  0.12525980253E-10  0.17130000000E+03  0.17130000000E+03 0. -1.
       11    1    1    2    0    0  0.20621858193E-01 -0.33504649843E-01  0.16449328987E+01  0.16454033928E+01  0.51109989000E-03 0.  1.
     -623    1    1    2    0    0  0.10926287984E-01  0.25146694144E-01  0.10386716682E-02  0.17130000220E+03  0.17130000000E+03 0. -1.
      622    1    1    2    0    0 -0.31548146177E-01  0.83579556987E-02  0.23540283970E+01  0.23545944099E+01  0.40000000000E-01 0. -1.
</event>
<event>
 5   0  0.6200596E+07  0.9118800E+02  0.7818608E-02  0.1180000E+00
       11   -1    0    0    0    0  0.00000000000E+00  0.00000000000E+00  0.39999999673E+01  0.40000000000E+01  0.51109989000E-03 0. -1.
     -623   -1    0    0    0    0  0.00000000000E+00  0.00000000000E+00  0.12525980253E-10  0.17130000000E+03  0.17130000000E+03 0.  1.
       11    1    1    2    0    0  0.18273222031E-01 -0.15832218994E-01  0.28841513322E+01  0.28842527175E+01  0.51109989000E-03 0. -1.
     -623    1    1    2    0    0 -0.30139469999E-03 -0.24795325691E-02  0.11138492116E-02  0.17130000002E+03  0.17130000000E+03 0.  1.
      622    1    1    2    0    0 -0.17971827331E-01  0.18311751563E-01  0.11147347859E+01  0.11157472607E+01  0.40000000000E-01 0.  1.
</event>
<event>
 5   0  0.6200596E+07  0.9118800E+02  0.7818608E-02  0.1180000E+00
       11   -1    0    0    0    0  0.00000000000E+00  0.00000000000E+00  0.39999999673E+01  0.40000000000E+01  0.51109989000E-03 0. -1.
     -623   -1    0    0    0    0  0.00000000000E+00  0.00000000000E+00  0.12525980253E-10  0.17130000000E+03  0.17130000000E+03 0. -1.
       11    1    1    2    0    0  0.27606874654E-01 -0.36966951442E-01  0.54045854653E+00  0.54242455398E+00  0.51109989000E-03 0. -1.
     -623    1    1    2    0    0 -0.31183528141E-02 -0.12290098559E-02  0.24951392044E-02  0.17130000005E+03  0.17130000000E+03 0. -1.
      622    1    1    2    0    0 -0.24488521840E-01  0.38195961298E-01  0.34570462816E+01  0.34575753951E+01  0.40000000000E-01 0. -1.
</event>
<event>
 5   0  0.6200596E+07  0.9118800E+02  0.7818608E-02  0.1180000E+00
       11   -1    0    0    0    0  0.00000000000E+00  0.00000000000E+00  0.39999999673E+01  0.40000000000E+01  0.51109989000E-03 0. -1.
     -623   -1    0    0    0    0  0.00000000000E+00  0.00000000000E+00  0.12525980253E-10  0.17130000000E+03  0.17130000000E+03 0. -1.
       11    1    1    2    0    0  0.15852266128E-02 -0.89301708349E-03  0.16654324828E-01  0.16761210558E-01  0.51109989000E-03 0. -1.
     -623    1    1    2    0    0 -0.55327346397E-03  0.15870244915E-02  0.30790240853E-03  0.17130000001E+03  0.17130000000E+03 0. -1.
      622    1    1    2    0    0 -0.10319531489E-02 -0.69400740802E-03  0.39830377401E+01  0.39832387809E+01  0.40000000000E-01 0. -1.
</event>
<event>
 5   0  0.6200596E+07  0.9118800E+02  0.7818608E-02  0.1180000E+00
       11   -1    0    0    0    0  0.00000000000E+00  0.00000000000E+00  0.39999999673E+01  0.40000000000E+01  0.51109989000E-03 0.  1.
     -623   -1    0    0    0    0  0.00000000000E+00  0.00000000000E+00  0.12525980253E-10  0.17130000000E+03  0.17130000000E+03 0. -1.
       11    1    1    2    0    0  0.64082465832E-03 -0.49050248158E-02  0.21415531086E+00  0.21421304423E+00  0.51109989000E-03 0.  1.
     -623    1    1    2    0    0 -0.66758076520E-03 -0.12620004162E-03  0.27236835725E-03  0.17130000000E+03  0.17130000000E+03 0. -1.
      622    1    1    2    0    0  0.26756106885E-04  0.50312248574E-02  0.37855722881E+01  0.37857869542E+01  0.40000000000E-01 0.  1.
</event>
<event>
 5   0  0.6200596E+07  0.9118800E+02  0.7818608E-02  0.1180000E+00
       11   -1    0    0    0    0  0.00000000000E+00  0.00000000000E+00  0.39999999673E+01  0.40000000000E+01  0.51109989000E-03 0. -1.
     -623   -1    0    0    0    0  0.00000000000E+00  0.00000000000E+00  0.12525980253E-10  0.17130000000E+03  0.17130000000E+03 0. -1.
       11    1    1    2    0    0  0.12857701408E-01  0.99751116641E-02  0.53320897130E+00  0.53345748812E+00  0.51109989000E-03 0. -1.
     -623    1    1    2    0    0 -0.64726096048E-03  0.16228095394E-02  0.52018829320E-03  0.17130000001E+03  0.17130000000E+03 0. -1.
      622    1    1    2    0    0 -0.12210440447E-01 -0.11597921203E-01  0.34662708078E+01  0.34665425022E+01  0.40000000000E-01 0. -1.
</event>
<event>
 5   0  0.6200596E+07  0.9118800E+02  0.7818608E-02  0.1180000E+00
       11   -1    0    0    0    0  0.00000000000E+00  0.00000000000E+00  0.39999999673E+01  0.40000000000E+01  0.51109989000E-03 0.  1.
     -623   -1    0    0    0    0  0.00000000000E+00  0.00000000000E+00  0.12525980253E-10  0.17130000000E+03  0.17130000000E+03 0. -1.
       11    1    1    2    0    0  0.72746147309E-02  0.18704962139E-01  0.95068722164E+00  0.95089917985E+00  0.51109989000E-03 0.  1.
     -623    1    1    2    0    0 -0.38420530685E-03  0.13457722079E-03  0.54030466975E-03  0.17130000000E+03  0.17130000000E+03 0. -1.
      622    1    1    2    0    0 -0.68904094241E-02 -0.18839539360E-01  0.30487724411E+01  0.30491008188E+01  0.40000000000E-01 0.  1.
</event>
<event>
 5   0  0.6200596E+07  0.9118800E+02  0.7818608E-02  0.1180000E+00
       11   -1    0    0    0    0  0.00000000000E+00  0.00000000000E+00  0.39999999673E+01  0.40000000000E+01  0.51109989000E-03 0.  1.
     -623   -1    0    0    0    0  0.00000000000E+00  0.00000000000E+00  0.12525980253E-10  0.17130000000E+03  0.17130000000E+03 0. -1.
       11    1    1    2    0    0  0.39950172580E-01 -0.22896924854E-01  0.23833330850E+01  0.23837779135E+01  0.51109989000E-03 0.  1.
     -623    1    1    2    0    0 -0.80460584557E-02  0.34582593541E-01  0.13008263251E-02  0.17130000368E+03  0.17130000000E+03 0. -1.
      622    1    1    2    0    0 -0.31904114124E-01 -0.11685668687E-01  0.16153660560E+01  0.16162184018E+01  0.40000000000E-01 0.  1.
</event>
<event>
 5   0  0.6200596E+07  0.9118800E+02  0.7818608E-02  0.1180000E+00
       11   -1    0    0    0    0  0.00000000000E+00  0.00000000000E+00  0.39999999673E+01  0.40000000000E+01  0.51109989000E-03 0.  1.
     -623   -1    0    0    0    0  0.00000000000E+00  0.00000000000E+00  0.12525980253E-10  0.17130000000E+03  0.17130000000E+03 0.  1.
       11    1    1    2    0    0  0.23868979930E-02 -0.32859744379E-02  0.10104717901E+00  0.10113005744E+00  0.51109989000E-03 0.  1.
     -623    1    1    2    0    0  0.21652940883E-03  0.70631132867E-03  0.28976339287E-03  0.17130000000E+03  0.17130000000E+03 0.  1.
      622    1    1    2    0    0 -0.26034274018E-02  0.25796631093E-02  0.38986630250E+01  0.38988699407E+01  0.40000000000E-01 0.  1.
</event>
<event>
 5   0  0.6200596E+07  0.9118800E+02  0.7818608E-02  0.1180000E+00
       11   -1    0    0    0    0  0.00000000000E+00  0.00000000000E+00  0.39999999673E+01  0.40000000000E+01  0.51109989000E-03 0. -1.
     -623   -1    0    0    0    0  0.00000000000E+00  0.00000000000E+00  0.12525980253E-10  0.17130000000E+03  0.17130000000E+03 0.  1.
       11    1    1    2    0    0 -0.16346318375E-03  0.52178105822E-03  0.10580535876E-01  0.10606975856E-01  0.51109989000E-03 0. -1.
     -623    1    1    2    0    0 -0.18935452016E-03  0.14209237115E-03  0.22701529577E-03  0.17130000000E+03  0.17130000000E+03 0.  1.
      622    1    1    2    0    0  0.35281770391E-03 -0.66387342937E-03  0.39891924162E+01  0.39893930238E+01  0.40000000000E-01 0. -1.
</event>
<event>
 5   0  0.6200596E+07  0.9118800E+02  0.7818608E-02  0.1180000E+00
       11   -1    0    0    0    0  0.00000000000E+00  0.00000000000E+00  0.39999999673E+01  0.40000000000E+01  0.51109989000E-03 0.  1.
     -623   -1    0    0    0    0  0.00000000000E+00  0.00000000000E+00  0.12525980253E-10  0.17130000000E+03  0.17130000000E+03 0.  1.
       11    1    1    2    0    0 -0.91197452746E-02  0.11367084367E-01  0.41257878223E+00  0.41283639995E+00  0.51109989000E-03 0.  1.
     -623    1    1    2    0    0 -0.66517474064E-03 -0.17837710875E-02  0.50676913737E-03  0.17130000001E+03  0.17130000000E+03 0.  1.
      622    1    1    2    0    0  0.97849200153E-02 -0.95833132791E-02  0.35869144160E+01  0.35871635887E+01  0.40000000000E-01 0.  1.
</event>
<event>
 5   0  0.6200596E+07  0.9118800E+02  0.7818608E-02  0.1180000E+00
       11   -1    0    0    0    0  0.00000000000E+00  0.00000000000E+00  0.39999999673E+01  0.40000000000E+01  0.51109989000E-03 0.  1.
     -623   -1    0    0    0    0  0.00000000000E+00  0.00000000000E+00  0.12525980253E-10  0.17130000000E+03  0.17130000000E+03 0. -1.
       11    1    1    2    0    0  0.11834491841E-01  0.61899573918E-03  0.21891041611E+01  0.21891362972E+01  0.51109989000E-03 0.  1.
     -623    1    1    2    0    0 -0.20658273613E-02  0.38404238111E-02  0.50583911080E-03  0.17130000006E+03  0.17130000000E+03 0. -1.
      622    1    1    2    0    0 -0.97686644792E-02 -0.44594195503E-02  0.18103899672E+01  0.18108636466E+01  0.40000000000E-01 0.  1.
</event>
<event>
 5   0  0.6200596E+07  0.9118800E+02  0.7818608E-02  0.1180000E+00
       11   -1    0    0    0    0  0.00000000000E+00  0.00000000000E+00  0.39999999673E+01  0.40000000000E+01  0.51109989000E-03 0. -1.
     -623   -1    0    0    0    0  0.00000000000E+00  0.00000000000E+00  0.12525980253E-10  0.17130000000E+03  0.17130000000E+03 0.  1.
       11    1    1    2    0    0 -0.27917967017E-01 -0.13293304611E-01  0.48967659793E+00  0.49065217477E+00  0.51109989000E-03 0. -1.
     -623    1    1    2    0    0  0.10562015836E-01 -0.83070453226E-02  0.13134492678E-02  0.17130000053E+03  0.17130000000E+03 0.  1.
      622    1    1    2    0    0  0.17355951181E-01  0.21600349934E-01  0.35090099202E+01  0.35093472932E+01  0.40000000000E-01 0. -1.
</event>
<event>
 5   0  0.6200596E+07  0.9118800E+02  0.7818608E-02  0.1180000E+00
       11   -1    0    0    0    0  0.00000000000E+00  0.00000000000E+00  0.39999999673E+01  0.40000000000E+01  0.51109989000E-03 0.  1.
     -623   -1    0    0    0    0  0.00000000000E+00  0.00000000000E+00  0.12525980253E-10  0.17130000000E+03  0.17130000000E+03 0.  1.
       11    1    1    2    0    0  0.10412232437E-02  0.62815346831E-03  0.34945934961E-01  0.34970820906E-01  0.51109989000E-03 0.  1.
     -623    1    1    2    0    0 -0.12955415217E-03 -0.24351052453E-03  0.22674624607E-03  0.17130000000E+03  0.17130000000E+03 0.  1.
      622    1    1    2    0    0 -0.91166909157E-03 -0.38464294378E-03  0.39648272862E+01  0.39650291787E+01  0.40000000000E-01 0.  1.
</event>
<event>
 5   0  0.6200596E+07  0.9118800E+02  0.7818608E-02  0.1180000E+00
       11   -1    0    0    0    0  0.00000000000E+00  0.00000000000E+00  0.39999999673E+01  0.40000000000E+01  0.51109989000E-03 0. -1.
     -623   -1    0    0    0    0  0.00000000000E+00  0.00000000000E+00  0.12525980253E-10  0.17130000000E+03  0.17130000000E+03 0. -1.
       11    1    1    2    0    0 -0.33481656052E-01 -0.27725762293E-01  0.21711482980E+01  0.21715835080E+01  0.51109989000E-03 0. -1.
     -623    1    1    2    0    0  0.23135626725E-01  0.95033104630E-02  0.99470495803E-03  0.17130000183E+03  0.17130000000E+03 0. -1.
      622    1    1    2    0    0  0.10346029327E-01  0.18222451830E-01  0.18278569644E+01  0.18284146632E+01  0.40000000000E-01 0.  0.
</event>
<event>
 5   0  0.6200596E+07  0.9118800E+02  0.7818608E-02  0.1180000E+00
       11   -1    0    0    0    0  0.00000000000E+00  0.00000000000E+00  0.39999999673E+01  0.40000000000E+01  0.51109989000E-03 0.  1.
     -623   -1    0    0    0    0  0.00000000000E+00  0.00000000000E+00  0.12525980253E-10  0.17130000000E+03  0.17130000000E+03 0. -1.
       11    1    1    2    0    0  0.18911280663E-02  0.65048428694E-03  0.52162056745E-02  0.56097699242E-02  0.51109989000E-03 0.  1.
     -623    1    1    2    0    0 -0.40959913658E-02  0.52035784169E-03  0.59464847828E-03  0.17130000005E+03  0.17130000000E+03 0. -1.
      622    1    1    2    0    0  0.22048632996E-02 -0.11708421286E-02  0.39941891132E+01  0.39943901793E+01  0.40000000000E-01 0.  1.
</event>
<event>
 5   0  0.6200596E+07  0.9118800E+02  0.7818608E-02  0.1180000E+00
       11   -1    0    0    0    0  0.00000000000E+00  0.00000000000E+00  0.39999999673E+01  0.40000000000E+01  0.51109989000E-03 0.  1.
     -623   -1    0    0    0    0  0.00000000000E+00  0.00000000000E+00  0.12525980253E-10  0.17130000000E+03  0.17130000000E+03 0.  1.
       11    1    1    2    0    0 -0.11035370852E-01 -0.35557985333E-02  0.11003013069E+01  0.11003625086E+01  0.51109989000E-03 0.  1.
     -623    1    1    2    0    0  0.15545605580E-02  0.13287823144E-02  0.35344759808E-03  0.17130000001E+03  0.17130000000E+03 0.  1.
      622    1    1    2    0    0  0.94808102938E-02  0.22270162189E-02  0.28993452128E+01  0.28996374788E+01  0.40000000000E-01 0.  0.
</event>
<event>
 5   0  0.6200596E+07  0.9118800E+02  0.7818608E-02  0.1180000E+00
       11   -1    0    0    0    0  0.00000000000E+00  0.00000000000E+00  0.39999999673E+01  0.40000000000E+01  0.51109989000E-03 0.  1.
     -623   -1    0    0    0    0  0.00000000000E+00  0.00000000000E+00  0.12525980253E-10  0.17130000000E+03  0.17130000000E+03 0.  1.
       11    1    1    2    0    0  0.11390884984E-02 -0.12653102867E-02  0.62999679855E-02  0.65459415399E-02  0.51109989000E-03 0.  1.
     -623    1    1    2    0    0 -0.24942469837E-02 -0.11451441953E-03  0.44676088991E-03  0.17130000002E+03  0.17130000000E+03 0.  1.
      622    1    1    2    0    0  0.13551584853E-02  0.13798247062E-02  0.39932532385E+01  0.39934540397E+01  0.40000000000E-01 0.  1.
</event>
<event>
 5   0  0.6200596E+07  0.9118800E+02  0.7818608E-02  0.1180000E+00
       11   -1    0    0    0    0  0.00000000000E+00  0.00000000000E+00  0.39999999673E+01  0.40000000000E+01  0.51109989000E-03 0. -1.
     -623   -1    0    0    0    0  0.00000000000E+00  0.00000000000E+00  0.12525980253E-10  0.17130000000E+03  0.17130000000E+03 0.  1.
       11    1    1    2    0    0  0.99049700929E-03  0.42249978023E-02  0.71858800448E-01  0.71991528064E-01  0.51109989000E-03 0. -1.
     -623    1    1    2    0    0  0.98100423833E-03 -0.19193487246E-02  0.33755119824E-03  0.17130000001E+03  0.17130000000E+03 0.  1.
      622    1    1    2    0    0 -0.19715012476E-02 -0.23056490778E-02  0.39278036157E+01  0.39280084580E+01  0.40000000000E-01 0. -1.
</event>
<event>
 5   0  0.6200596E+07  0.9118800E+02  0.7818608E-02  0.1180000E+00
       11   -1    0    0    0    0  0.00000000000E+00  0.00000000000E+00  0.39999999673E+01  0.40000000000E+01  0.51109989000E-03 0.  1.
     -623   -1    0    0    0    0  0.00000000000E+00  0.00000000000E+00  0.12525980253E-10  0.17130000000E+03  0.17130000000E+03 0. -1.
       11    1    1    2    0    0 -0.23602967375E-02 -0.71746418888E-02  0.32809870592E-01  0.33671877222E-01  0.51109989000E-03 0.  1.
     -623    1    1    2    0    0 -0.70383262276E-03 -0.10091112309E-03  0.10715386951E-02  0.17130000000E+03  0.17130000000E+03 0. -1.
      622    1    1    2    0    0  0.30641293603E-02  0.72755530119E-02  0.39661185581E+01  0.39663281180E+01  0.40000000000E-01 0.  1.
</event>
<event>
 5   0  0.6200596E+07  0.9118800E+02  0.7818608E-02  0.1180000E+00
       11   -1    0    0    0    0  0.00000000000E+00  0.00000000000E+00  0.39999999673E+01  0.40000000000E+01  0.51109989000E-03 0.  1.
     -623   -1    0    0    0    0  0.00000000000E+00  0.00000000000E+00  0.12525980253E-10  0.17130000000E+03  0.17130000000E+03 0.  1.
       11    1    1    2    0    0 -0.21921500914E-03  0.85416260742E-03  0.64252789560E-02  0.65056191268E-02  0.51109989000E-03 0.  1.
     -623    1    1    2    0    0  0.82809216569E-03  0.13536574623E-03  0.28080967210E-03  0.17130000000E+03  0.17130000000E+03 0.  1.
      622    1    1    2    0    0 -0.60887715656E-03 -0.98952835366E-03  0.39932938787E+01  0.39934943786E+01  0.40000000000E-01 0.  1.
</event>
<event>
 5   0  0.6200596E+07  0.9118800E+02  0.7818608E-02  0.1180000E+00
       11   -1    0    0    0    0  0.00000000000E+00  0.00000000000E+00  0.39999999673E+01  0.40000000000E+01  0.51109989000E-03 0.  1.
     -623   -1    0    0    0    0  0.00000000000E+00  0.00000000000E+00  0.12525980253E-10  0.17130000000E+03  0.17130000000E+03 0.  1.
       11    1    1    2    0    0 -0.20476953971E-02  0.43395149226E-02  0.12590920307E+00  0.12600163921E+00  0.51109989000E-03 0.  1.
     -623    1    1    2    0    0 -0.41438736078E-04  0.10178114611E-02  0.30318513763E-03  0.17130000000E+03  0.17130000000E+03 0.  1.
      622    1    1    2    0    0  0.20891341332E-02 -0.53573263837E-02  0.38737875792E+01  0.38739983575E+01  0.40000000000E-01 0.  1.
</event>
<event>
 5   0  0.6200596E+07  0.9118800E+02  0.7818608E-02  0.1180000E+00
       11   -1    0    0    0    0  0.00000000000E+00  0.00000000000E+00  0.39999999673E+01  0.40000000000E+01  0.51109989000E-03 0. -1.
     -623   -1    0    0    0    0  0.00000000000E+00  0.00000000000E+00  0.12525980253E-10  0.17130000000E+03  0.17130000000E+03 0.  1.
       11    1    1    2    0    0  0.11201498281E-01 -0.20046532806E-02  0.14777265968E+00  0.14821103997E+00  0.51109989000E-03 0. -1.
     -623    1    1    2    0    0 -0.18275275935E-02  0.79348450597E-03  0.65765942497E-03  0.17130000001E+03  0.17130000000E+03 0.  1.
      622    1    1    2    0    0 -0.93739706870E-02  0.12111687746E-02  0.38515696483E+01  0.38517889472E+01  0.40000000000E-01 0.  0.
</event>
<event>
 5   0  0.6200596E+07  0.9118800E+02  0.7818608E-02  0.1180000E+00
       11   -1    0    0    0    0  0.00000000000E+00  0.00000000000E+00  0.39999999673E+01  0.40000000000E+01  0.51109989000E-03 0. -1.
     -623   -1    0    0    0    0  0.00000000000E+00  0.00000000000E+00  0.12525980253E-10  0.17130000000E+03  0.17130000000E+03 0.  1.
       11    1    1    2    0    0 -0.20255539989E-02 -0.90637806764E-02  0.84859963589E+00  0.84865061023E+00  0.51109989000E-03 0. -1.
     -623    1    1    2    0    0 -0.69421252363E-02  0.26942623197E-02  0.32417175807E-03  0.17130000016E+03  0.17130000000E+03 0.  1.
      622    1    1    2    0    0  0.89676792352E-02  0.63695183567E-02  0.31510761597E+01  0.31513492276E+01  0.40000000000E-01 0. -1.
</event>
<event>
 5   0  0.6200596E+07  0.9118800E+02  0.7818608E-02  0.1180000E+00
       11   -1    0    0    0    0  0.00000000000E+00  0.00000000000E+00  0.39999999673E+01  0.40000000000E+01  0.51109989000E-03 0. -1.
     -623   -1    0    0    0    0  0.00000000000E+00  0.00000000000E+00  0.12525980253E-10  0.17130000000E+03  0.17130000000E+03 0. -1.
       11    1    1    2    0    0 -0.22515486318E-01  0.77585880102E-02  0.72747667877E+00  0.72786655520E+00  0.51109989000E-03 0. -1.
     -623    1    1    2    0    0 -0.18643663938E-03 -0.10796132883E-02  0.71992321120E-03  0.17130000001E+03  0.17130000000E+03 0. -1.
      622    1    1    2    0    0  0.22701922957E-01 -0.66789747219E-02  0.32718033654E+01  0.32721334398E+01  0.40000000000E-01 0. -1.
</event>
<event>
 5   0  0.6200596E+07  0.9118800E+02  0.7818608E-02  0.1180000E+00
       11   -1    0    0    0    0  0.00000000000E+00  0.00000000000E+00  0.39999999673E+01  0.40000000000E+01  0.51109989000E-03 0.  1.
     -623   -1    0    0    0    0  0.00000000000E+00  0.00000000000E+00  0.12525980253E-10  0.17130000000E+03  0.17130000000E+03 0.  1.
       11    1    1    2    0    0 -0.47972842843E-03  0.39659040878E-01  0.11601502420E+01  0.11608281160E+01  0.51109989000E-03 0.  1.
     -623    1    1    2    0    0 -0.97556261463E-02 -0.25624199571E-01  0.10149696012E-02  0.17130000220E+03  0.17130000000E+03 0.  1.
      622    1    1    2    0    0  0.10235354575E-01 -0.14034841307E-01  0.28388347558E+01  0.28391696867E+01  0.40000000000E-01 0.  1.
</event>
<event>
 5   0  0.6200596E+07  0.9118800E+02  0.7818608E-02  0.1180000E+00
       11   -1    0    0    0    0  0.00000000000E+00  0.00000000000E+00  0.39999999673E+01  0.40000000000E+01  0.51109989000E-03 0.  1.
     -623   -1    0    0    0    0  0.00000000000E+00  0.00000000000E+00  0.12525980253E-10  0.17130000000E+03  0.17130000000E+03 0.  1.
       11    1    1    2    0    0  0.12631430398E-02 -0.70142323691E-02  0.11230278772E+01  0.11230506085E+01  0.51109989000E-03 0.  1.
     -623    1    1    2    0    0  0.20916291006E-03 -0.23382245801E-02  0.31638064753E-03  0.17130000002E+03  0.17130000000E+03 0.  1.
      622    1    1    2    0    0 -0.14723059499E-02  0.93524569492E-02  0.28766557095E+01  0.28769493752E+01  0.40000000000E-01 0.  0.
</event>
<event>
 5   0  0.6200596E+07  0.9118800E+02  0.7818608E-02  0.1180000E+00
       11   -1    0    0    0    0  0.00000000000E+00  0.00000000000E+00  0.39999999673E+01  0.40000000000E+01  0.51109989000E-03 0.  1.
     -623   -1    0    0    0    0  0.00000000000E+00  0.00000000000E+00  0.12525980253E-10  0.17130000000E+03  0.17130000000E+03 0.  1.
       11    1    1    2    0    0  0.17055482587E-01 -0.29041661144E-01  0.22527066708E+01  0.22529584802E+01  0.51109989000E-03 0.  1.
     -623    1    1    2    0    0 -0.16859152323E-01  0.13930242753E-01  0.77653614509E-03  0.17130000140E+03  0.17130000000E+03 0.  1.
      622    1    1    2    0    0 -0.19633026335E-03  0.15111418391E-01  0.17465167604E+01  0.17470401220E+01  0.40000000000E-01 0.  0.
</event>
<event>
 5   0  0.6200596E+07  0.9118800E+02  0.7818608E-02  0.1180000E+00
       11   -1    0    0    0    0  0.00000000000E+00  0.00000000000E+00  0.39999999673E+01  0.40000000000E+01  0.51109989000E-03 0. -1.
     -623   -1    0    0    0    0  0.00000000000E+00  0.00000000000E+00  0.12525980253E-10  0.17130000000E+03  0.17130000000E+03 0. -1.
       11    1    1    2    0    0 -0.31337641358E-02  0.11181019688E-01  0.15021958025E+00  0.15066857400E+00  0.51109989000E-03 0. -1.
     -623    1    1    2    0    0 -0.19929379457E-02 -0.45945424255E-04  0.67632841465E-03  0.17130000001E+03  0.17130000000E+03 0. -1.
      622    1    1    2    0    0  0.51267020816E-02 -0.11135074264E-01  0.38491040587E+01  0.38493314131E+01  0.40000000000E-01 0. -1.
</event>
<event>
 5   0  0.6200596E+07  0.9118800E+02  0.7818608E-02  0.1180000E+00
       11   -1    0    0    0    0  0.00000000000E+00  0.00000000000E+00  0.39999999673E+01  0.40000000000E+01  0.51109989000E-03 0. -1.
     -623   -1    0    0    0    0  0.00000000000E+00  0.00000000000E+00  0.12525980253E-10  0.17130000000E+03  0.17130000000E+03 0. -1.
       11    1    1    2    0    0  0.72153300338E-02  0.38369291843E-02  0.82487003323E-01  0.82892399842E-01  0.51109989000E-03 0. -1.
     -623    1    1    2    0    0 -0.77023206521E-02 -0.69460895745E-02  0.61118089941E-03  0.17130000032E+03  0.17130000000E+03 0. -1.
      622    1    1    2    0    0  0.48699061828E-03  0.31091603902E-02  0.39169017831E+01  0.39171072851E+01  0.40000000000E-01 0. -1.
</event>
<event>
 5   0  0.6200596E+07  0.9118800E+02  0.7818608E-02  0.1180000E+00
       11   -1    0    0    0    0  0.00000000000E+00  0.00000000000E+00  0.39999999673E+01  0.40000000000E+01  0.51109989000E-03 0. -1.
     -623   -1    0    0    0    0  0.00000000000E+00  0.00000000000E+00  0.12525980253E-10  0.17130000000E+03  0.17130000000E+03 0.  1.
       11    1    1    2    0    0 -0.17825966400E-02 -0.38980538307E-02  0.12617600434E+00  0.12624982283E+00  0.51109989000E-03 0. -1.
     -623    1    1    2    0    0  0.24123312231E-03 -0.90865402982E-04  0.28267054729E-03  0.17130000000E+03  0.17130000000E+03 0.  1.
      622    1    1    2    0    0  0.15413635177E-02  0.39889192337E-02  0.38735412925E+01  0.38737501767E+01  0.40000000000E-01 0. -1.
</event>
<event>
 5   0  0.6200596E+07  0.9118800E+02  0.7818608E-02  0.1180000E+00
       11   -1    0    0    0    0  0.00000000000E+00  0.00000000000E+00  0.39999999673E+01  0.40000000000E+01  0.51109989000E-03 0. -1.
     -623   -1    0    0    0    0  0.00000000000E+00  0.00000000000E+00  0.12525980253E-10  0.17130000000E+03  0.17130000000E+03 0. -1.
       11    1    1    2    0    0 -0.77511803628E-02 -0.95038814439E-03  0.13693170432E-01  0.15771752362E-01  0.51109989000E-03 0. -1.
     -623    1    1    2    0    0  0.35655150353E-02 -0.11594143031E-02  0.22821596889E-02  0.17130000006E+03  0.17130000000E+03 0. -1.
      622    1    1    2    0    0  0.41856653275E-02  0.21098024475E-02  0.39840246372E+01  0.39842281914E+01  0.40000000000E-01 0. -1.
</event>
<event>
 5   0  0.6200596E+07  0.9118800E+02  0.7818608E-02  0.1180000E+00
       11   -1    0    0    0    0  0.00000000000E+00  0.00000000000E+00  0.39999999673E+01  0.40000000000E+01  0.51109989000E-03 0.  1.
     -623   -1    0    0    0    0  0.00000000000E+00  0.00000000000E+00  0.12525980253E-10  0.17130000000E+03  0.17130000000E+03 0.  1.
       11    1    1    2    0    0 -0.10442927571E-02 -0.24830628576E-02  0.41822574135E-01  0.41912349930E-01  0.51109989000E-03 0.  1.
     -623    1    1    2    0    0 -0.52356450300E-03  0.12779601889E-03  0.29287855241E-03  0.17130000000E+03  0.17130000000E+03 0.  1.
      622    1    1    2    0    0  0.15678572601E-02  0.23552668387E-02  0.39578845147E+01  0.39580876490E+01  0.40000000000E-01 0.  1.
</event>
<event>
 5   0  0.6200596E+07  0.9118800E+02  0.7818608E-02  0.1180000E+00
       11   -1    0    0    0    0  0.00000000000E+00  0.00000000000E+00  0.39999999673E+01  0.40000000000E+01  0.51109989000E-03 0. -1.
     -623   -1    0    0    0    0  0.00000000000E+00  0.00000000000E+00  0.12525980253E-10  0.17130000000E+03  0.17130000000E+03 0. -1.
       11    1    1    2    0    0  0.14993054213E-01  0.22203369463E-01  0.35140193598E+01  0.35141215265E+01  0.51109989000E-03 0. -1.
     -623    1    1    2    0    0 -0.17316607261E-01  0.23855746558E-01  0.39551510085E-02  0.17130000258E+03  0.17130000000E+03 0. -1.
      622    1    1    2    0    0  0.23235530486E-02 -0.46059116021E-01  0.48202545658E+00  0.48587589142E+00  0.40000000000E-01 0.  0.
</event>
<event>
 5   0  0.6200596E+07  0.9118800E+02  0.7818608E-02  0.1180000E+00
       11   -1    0    0    0    0  0.00000000000E+00  0.00000000000E+00  0.39999999673E+01  0.40000000000E+01  0.51109989000E-03 0. -1.
     -623   -1    0    0    0    0  0.00000000000E+00  0.00000000000E+00  0.12525980253E-10  0.17130000000E+03  0.17130000000E+03 0. -1.
       11    1    1    2    0    0  0.64201526053E-02 -0.20308648910E-02  0.67493552612E-01  0.67830550916E-01  0.51109989000E-03 0. -1.
     -623    1    1    2    0    0 -0.39108927366E-03  0.37009165627E-02  0.54543924381E-03  0.17130000004E+03  0.17130000000E+03 0. -1.
      622    1    1    2    0    0 -0.60290633316E-02 -0.16700516717E-02  0.39319609755E+01  0.39321694078E+01  0.40000000000E-01 0. -1.
</event>
<event>
 5   0  0.6200596E+07  0.9118800E+02  0.7818608E-02  0.1180000E+00
       11   -1    0    0    0    0  0.00000000000E+00  0.00000000000E+00  0.39999999673E+01  0.40000000000E+01  0.51109989000E-03 0. -1.
     -623   -1    0    0    0    0  0.00000000000E+00  0.00000000000E+00  0.12525980253E-10  0.17130000000E+03  0.17130000000E+03 0.  1.
       11    1    1    2    0    0 -0.55256411500E-02 -0.22145103613E-01  0.39924724998E+00  0.39989944506E+00  0.51109989000E-03 0. -1.
     -623    1    1    2    0    0  0.44186018839E-02  0.32502581871E-02  0.92423332147E-03  0.17130000009E+03  0.17130000000E+03 0.  1.
      622    1    1    2    0    0  0.11070392661E-02  0.18894845426E-01  0.35998284841E+01  0.36001004646E+01  0.40000000000E-01 0. -1.
</event>
<event>
 5   0  0.6200596E+07  0.9118800E+02  0.7818608E-02  0.1180000E+00
       11   -1    0    0    0    0  0.00000000000E+00  0.00000000000E+00  0.39999999673E+01  0.40000000000E+01  0.51109989000E-03 0. -1.
     -623   -1    0    0    0    0  0.00000000000E+00  0.00000000000E+00  0.12525980253E-10  0.17130000000E+03  0.17130000000E+03 0. -1.
       11    1    1    2    0    0  0.70289591070E-03 -0.18430279525E-02  0.55678813328E-02  0.59290250709E-02  0.51109989000E-03 0.  1.
     -623    1    1    2    0    0 -0.17678841035E-02 -0.67699812753E-04  0.56202212348E-03  0.17130000001E+03  0.17130000000E+03 0. -1.
      622    1    1    2    0    0  0.10649881928E-02  0.19107277653E-02  0.39938700639E+01  0.39940709649E+01  0.40000000000E-01 0. -1.
</event>
<event>
 5   0  0.6200596E+07  0.9118800E+02  0.7818608E-02  0.1180000E+00
       11   -1    0    0    0    0  0.00000000000E+00  0.00000000000E+00  0.39999999673E+01  0.40000000000E+01  0.51109989000E-03 0.  1.
     -623   -1    0    0    0    0  0.00000000000E+00  0.00000000000E+00  0.12525980253E-10  0.17130000000E+03  0.17130000000E+03 0.  1.
       11    1    1    2    0    0 -0.11934882341E-02 -0.71321531069E-02  0.24253449435E+00  0.24264281195E+00  0.51109989000E-03 0.  1.
     -623    1    1    2    0    0  0.32543173013E-02  0.75943780464E-03  0.32720928368E-03  0.17130000003E+03  0.17130000000E+03 0.  1.
      622    1    1    2    0    0 -0.20608290672E-02  0.63727153023E-02  0.37571382637E+01  0.37573571551E+01  0.40000000000E-01 0.  1.
</event>
<event>
 5   0  0.6200596E+07  0.9118800E+02  0.7818608E-02  0.1180000E+00
       11   -1    0    0    0    0  0.00000000000E+00  0.00000000000E+00  0.39999999673E+01  0.40000000000E+01  0.51109989000E-03 0. -1.
     -623   -1    0    0    0    0  0.00000000000E+00  0.00000000000E+00  0.12525980253E-10  0.17130000000E+03  0.17130000000E+03 0.  1.
       11    1    1    2    0    0  0.77296781924E-03 -0.41429711630E-03  0.52449530953E-02  0.53422724794E-02  0.51109989000E-03 0. -1.
     -623    1    1    2    0    0 -0.71275115339E-03 -0.41313516476E-03  0.29764762794E-03  0.17130000000E+03  0.17130000000E+03 0.  1.
      622    1    1    2    0    0 -0.60216665844E-04  0.82743228106E-03  0.39944573666E+01  0.39946577253E+01  0.40000000000E-01 0. -1.
</event>
<event>
 5   0  0.6200596E+07  0.9118800E+02  0.7818608E-02  0.1180000E+00
       11   -1    0    0    0    0  0.00000000000E+00  0.00000000000E+00  0.39999999673E+01  0.40000000000E+01  0.51109989000E-03 0.  1.
     -623   -1    0    0    0    0  0.00000000000E+00  0.00000000000E+00  0.12525980253E-10  0.17130000000E+03  0.17130000000E+03 0.  1.
       11    1    1    2    0    0  0.38648674620E-02  0.35597678755E-03  0.11382247730E-01  0.12036640093E-01  0.51109989000E-03 0.  1.
     -623    1    1    2    0    0 -0.50374610826E-03 -0.54807590790E-02  0.85976847497E-03  0.17130000009E+03  0.17130000000E+03 0.  1.
      622    1    1    2    0    0 -0.33611213537E-02  0.51247822915E-02  0.39877579512E+01  0.39879632693E+01  0.40000000000E-01 0.  1.
</event>
<event>
 5   0  0.6200596E+07  0.9118800E+02  0.7818608E-02  0.1180000E+00
       11   -1    0    0    0    0  0.00000000000E+00  0.00000000000E+00  0.39999999673E+01  0.40000000000E+01  0.51109989000E-03 0.  1.
     -623   -1    0    0    0    0  0.00000000000E+00  0.00000000000E+00  0.12525980253E-10  0.17130000000E+03  0.17130000000E+03 0. -1.
       11    1    1    2    0    0 -0.29020045269E-04  0.67257445800E-04  0.58565321210E-02  0.58792479420E-02  0.51109989000E-03 0.  1.
     -623    1    1    2    0    0  0.53747204228E-03  0.13904048693E-04  0.22301677668E-03  0.17130000000E+03  0.17130000000E+03 0. -1.
      622    1    1    2    0    0 -0.50845199701E-03 -0.81161494493E-04  0.39939204185E+01  0.39941207511E+01  0.40000000000E-01 0.  1.
</event>
<event>
 5   0  0.6200596E+07  0.9118800E+02  0.7818608E-02  0.1180000E+00
       11   -1    0    0    0    0  0.00000000000E+00  0.00000000000E+00  0.39999999673E+01  0.40000000000E+01  0.51109989000E-03 0. -1.
     -623   -1    0    0    0    0  0.00000000000E+00  0.00000000000E+00  0.12525980253E-10  0.17130000000E+03  0.17130000000E+03 0. -1.
       11    1    1    2    0    0  0.33539788802E-02 -0.42979930087E-02  0.16208713910E-01  0.17108639528E-01  0.51109989000E-03 0. -1.
     -623    1    1    2    0    0 -0.75967641292E-04  0.81508739179E-03  0.11036345878E-02  0.17130000001E+03  0.17130000000E+03 0. -1.
      622    1    1    2    0    0 -0.32780112389E-02  0.34829056169E-02  0.39826876189E+01  0.39828913550E+01  0.40000000000E-01 0. -1.
</event>
<event>
 5   0  0.6200596E+07  0.9118800E+02  0.7818608E-02  0.1180000E+00
       11   -1    0    0    0    0  0.00000000000E+00  0.00000000000E+00  0.39999999673E+01  0.40000000000E+01  0.51109989000E-03 0.  1.
     -623   -1    0    0    0    0  0.00000000000E+00  0.00000000000E+00  0.12525980253E-10  0.17130000000E+03  0.17130000000E+03 0. -1.
       11    1    1    2    0    0  0.42776550962E-02 -0.51971369192E-03  0.31471993991E-01  0.31769735008E-01  0.51109989000E-03 0.  1.
     -623    1    1    2    0    0 -0.10145744866E-02  0.28027342687E-02  0.50133982915E-03  0.17130000003E+03  0.17130000000E+03 0. -1.
      622    1    1    2    0    0 -0.32630806096E-02 -0.22830205768E-02  0.39680266335E+01  0.39682302383E+01  0.40000000000E-01 0.  1.
</event>
<event>
 5   0  0.6200596E+07  0.9118800E+02  0.7818608E-02  0.1180000E+00
       11   -1    0    0    0    0  0.00000000000E+00  0.00000000000E+00  0.39999999673E+01  0.40000000000E+01  0.51109989000E-03 0.  1.
     -623   -1    0    0    0    0  0.00000000000E+00  0.00000000000E+00  0.12525980253E-10  0.17130000000E+03  0.17130000000E+03 0.  1.
       11    1    1    2    0    0  0.98546385131E-02  0.51445394692E-01  0.43978816398E+00  0.44289686489E+00  0.51109989000E-03 0.  1.
     -623    1    1    2    0    0  0.25884446095E-02 -0.73830022381E-02  0.36284928679E-02  0.17130000022E+03  0.17130000000E+03 0.  1.
      622    1    1    2    0    0 -0.12443083123E-01 -0.44062392454E-01  0.35565833105E+01  0.35571029180E+01  0.40000000000E-01 0.  1.
</event>
<event>
 5   0  0.6200596E+07  0.9118800E+02  0.7818608E-02  0.1180000E+00
       11   -1    0    0    0    0  0.00000000000E+00  0.00000000000E+00  0.39999999673E+01  0.40000000000E+01  0.51109989000E-03 0.  1.
     -623   -1    0    0    0    0  0.00000000000E+00  0.00000000000E+00  0.12525980253E-10  0.17130000000E+03  0.17130000000E+03 0. -1.
       11    1    1    2    0    0 -0.12998222104E-01 -0.30219852682E-01  0.98465478228E+00  0.98520429088E+00  0.51109989000E-03 0.  1.
     -623    1    1    2    0    0 -0.47464996835E-02  0.63391754271E-02  0.96185082679E-03  0.17130000019E+03  0.17130000000E+03 0. -1.
      622    1    1    2    0    0  0.17744721787E-01  0.23880677255E-01  0.30143833343E+01  0.30147955234E+01  0.40000000000E-01 0.  1.
</event>
<event>
 5   0  0.6200596E+07  0.9118800E+02  0.7818608E-02  0.1180000E+00
       11   -1    0    0    0    0  0.00000000000E+00  0.00000000000E+00  0.39999999673E+01  0.40000000000E+01  0.51109989000E-03 0. -1.
     -623   -1    0    0    0    0  0.00000000000E+00  0.00000000000E+00  0.12525980253E-10  0.17130000000E+03  0.17130000000E+03 0.  1.
       11    1    1    2    0    0  0.10215463189E-02  0.87593430311E-03  0.20589295707E-01  0.20639552769E-01  0.51109989000E-03 0. -1.
     -623    1    1    2    0    0  0.11973761766E-02 -0.38820431345E-02  0.25306937074E-03  0.17130000005E+03  0.17130000000E+03 0.  1.
      622    1    1    2    0    0 -0.22189224955E-02  0.30061088314E-02  0.39791576023E+01  0.39793603989E+01  0.40000000000E-01 0. -1.
</event>
<event>
 5   0  0.6200596E+07  0.9118800E+02  0.7818608E-02  0.1180000E+00
       11   -1    0    0    0    0  0.00000000000E+00  0.00000000000E+00  0.39999999673E+01  0.40000000000E+01  0.51109989000E-03 0. -1.
     -623   -1    0    0    0    0  0.00000000000E+00  0.00000000000E+00  0.12525980253E-10  0.17130000000E+03  0.17130000000E+03 0. -1.
       11    1    1    2    0    0 -0.12522683676E-01  0.62303854979E-02  0.13149179028E+00  0.13223459246E+00  0.51109989000E-03 0. -1.
     -623    1    1    2    0    0 -0.89866847458E-05 -0.35947988976E-02  0.97085397068E-03  0.17130000004E+03  0.17130000000E+03 0. -1.
      622    1    1    2    0    0  0.12531670361E-01 -0.26355866002E-02  0.38675373231E+01  0.38677653671E+01  0.40000000000E-01 0. -1.
</event>
<event>
 5   0  0.6200596E+07  0.9118800E+02  0.7818608E-02  0.1180000E+00
       11   -1    0    0    0    0  0.00000000000E+00  0.00000000000E+00  0.39999999673E+01  0.40000000000E+01  0.51109989000E-03 0. -1.
     -623   -1    0    0    0    0  0.00000000000E+00  0.00000000000E+00  0.12525980253E-10  0.17130000000E+03  0.17130000000E+03 0.  1.
       11    1    1    2    0    0 -0.27839008229E-02 -0.61162350510E-02  0.22913753603E+00  0.22923662464E+00  0.51109989000E-03 0. -1.
     -623    1    1    2    0    0 -0.10967003134E-02  0.66670584572E-03  0.31716067038E-03  0.17130000001E+03  0.17130000000E+03 0.  1.
      622    1    1    2    0    0  0.38806011363E-02  0.54495292052E-02  0.37705452707E+01  0.37707633703E+01  0.40000000000E-01 0. -1.
</event>
<event>
 5   0  0.6200596E+07  0.9118800E+02  0.7818608E-02  0.1180000E+00
       11   -1    0    0    0    0  0.00000000000E+00  0.00000000000E+00  0.39999999673E+01  0.40000000000E+01  0.51109989000E-03 0. -1.
     -623   -1    0    0    0    0  0.00000000000E+00  0.00000000000E+00  0.12525980253E-10  0.17130000000E+03  0.17130000000E+03 0.  1.
       11    1    1    2    0    0  0.22292819165E-02 -0.59224368934E-02  0.38421302050E+00  0.38426546982E+00  0.51109989000E-03 0. -1.
     -623    1    1    2    0    0  0.72750834755E-03  0.36434247884E-03  0.27916204378E-03  0.17130000000E+03  0.17130000000E+03 0.  1.
      622    1    1    2    0    0 -0.29567902641E-02  0.55580944146E-02  0.36155077848E+01  0.36157345280E+01  0.40000000000E-01 0. -1.
</event>
<event>
 5   0  0.6200596E+07  0.9118800E+02  0.7818608E-02  0.1180000E+00
       11   -1    0    0    0    0  0.00000000000E+00  0.00000000000E+00  0.39999999673E+01  0.40000000000E+01  0.51109989000E-03 0. -1.
     -623   -1    0    0    0    0  0.00000000000E+00  0.00000000000E+00  0.12525980253E-10  0.17130000000E+03  0.17130000000E+03 0. -1.
       11    1    1    2    0    0 -0.27858776303E-02 -0.26579299733E-02  0.26737668545E+00  0.26740489683E+00  0.51109989000E-03 0. -1.
     -623    1    1    2    0    0 -0.12838477014E-02  0.19073308600E-03  0.24555230472E-03  0.17130000001E+03  0.17130000000E+03 0. -1.
      622    1    1    2    0    0  0.40697253316E-02  0.24671968873E-02  0.37323777296E+01  0.37325950981E+01  0.40000000000E-01 0. -1.
</event>
<event>
 5   0  0.6200596E+07  0.9118800E+02  0.7818608E-02  0.1180000E+00
       11   -1    0    0    0    0  0.00000000000E+00  0.00000000000E+00  0.39999999673E+01  0.40000000000E+01  0.51109989000E-03 0. -1.
     -623   -1    0    0    0    0  0.00000000000E+00  0.00000000000E+00  0.12525980253E-10  0.17130000000E+03  0.17130000000E+03 0.  1.
       11    1    1    2    0    0 -0.23533722328E-03 -0.52643196814E-02  0.36495671999E+00  0.36499511932E+00  0.51109989000E-03 0. -1.
     -623    1    1    2    0    0 -0.30588833937E-02  0.16056945318E-01  0.27675162469E-03  0.17130000078E+03  0.17130000000E+03 0.  1.
      622    1    1    2    0    0  0.32942206169E-02 -0.10792625636E-01  0.36347664957E+01  0.36350041006E+01  0.40000000000E-01 0. -1.
</event>
<event>
 5   0  0.6200596E+07  0.9118800E+02  0.7818608E-02  0.1180000E+00
       11   -1    0    0    0    0  0.00000000000E+00  0.00000000000E+00  0.39999999673E+01  0.40000000000E+01  0.51109989000E-03 0. -1.
     -623   -1    0    0    0    0  0.00000000000E+00  0.00000000000E+00  0.12525980253E-10  0.17130000000E+03  0.17130000000E+03 0. -1.
       11    1    1    2    0    0  0.80858248116E-02  0.21608811336E-02  0.85419095342E+00  0.85423210903E+00  0.51109989000E-03 0. -1.
     -623    1    1    2    0    0 -0.96492468270E-03 -0.28168987979E-02  0.30359798833E-03  0.17130000003E+03  0.17130000000E+03 0. -1.
      622    1    1    2    0    0 -0.71209001289E-02  0.65601766436E-03  0.31455054159E+01  0.31457678648E+01  0.40000000000E-01 0. -1.
</event>
<event>
 5   0  0.6200596E+07  0.9118800E+02  0.7818608E-02  0.1180000E+00
       11   -1    0    0    0    0  0.00000000000E+00  0.00000000000E+00  0.39999999673E+01  0.40000000000E+01  0.51109989000E-03 0.  1.
     -623   -1    0    0    0    0  0.00000000000E+00  0.00000000000E+00  0.12525980253E-10  0.17130000000E+03  0.17130000000E+03 0. -1.
       11    1    1    2    0    0  0.36220135484E-01 -0.90994270418E-02  0.16413099354E+00  0.16832689045E+00  0.51109989000E-03 0.  1.
     -623    1    1    2    0    0 -0.46796874115E-03  0.10633902548E-01  0.45721640564E-02  0.17130000039E+03  0.17130000000E+03 0. -1.
      622    1    1    2    0    0 -0.35752166743E-01 -0.15344755061E-02  0.38312968098E+01  0.38316727178E+01  0.40000000000E-01 0.  1.
</event>
<event>
 5   0  0.6200596E+07  0.9118800E+02  0.7818608E-02  0.1180000E+00
       11   -1    0    0    0    0  0.00000000000E+00  0.00000000000E+00  0.39999999673E+01  0.40000000000E+01  0.51109989000E-03 0. -1.
     -623   -1    0    0    0    0  0.00000000000E+00  0.00000000000E+00  0.12525980253E-10  0.17130000000E+03  0.17130000000E+03 0. -1.
       11    1    1    2    0    0 -0.87189562596E-03 -0.21067888063E-02  0.60327739071E-02  0.64694934012E-02  0.51109989000E-03 0.  1.
     -623    1    1    2    0    0  0.16986999564E-02  0.19714007001E-02  0.63712471812E-03  0.17130000002E+03  0.17130000000E+03 0. -1.
      622    1    1    2    0    0 -0.82680433040E-03  0.13538810623E-03  0.39933300687E+01  0.39935304856E+01  0.40000000000E-01 0. -1.
</event>
<event>
 5   0  0.6200596E+07  0.9118800E+02  0.7818608E-02  0.1180000E+00
       11   -1    0    0    0    0  0.00000000000E+00  0.00000000000E+00  0.39999999673E+01  0.40000000000E+01  0.51109989000E-03 0. -1.
     -623   -1    0    0    0    0  0.00000000000E+00  0.00000000000E+00  0.12525980253E-10  0.17130000000E+03  0.17130000000E+03 0. -1.
       11    1    1    2    0    0 -0.41836547566E-02 -0.11157751538E-01  0.32183306462E-01  0.34322366204E-01  0.51109989000E-03 0. -1.
     -623    1    1    2    0    0 -0.24629138428E-02  0.22682129713E-02  0.23563463389E-02  0.17130000005E+03  0.17130000000E+03 0. -1.
      622    1    1    2    0    0  0.66465685994E-02  0.88895385665E-02  0.39654603146E+01  0.39656775849E+01  0.40000000000E-01 0. -1.
</event>
<event>
 5   0  0.6200596E+07  0.9118800E+02  0.7818608E-02  0.1180000E+00
       11   -1    0    0    0    0  0.00000000000E+00  0.00000000000E+00  0.39999999673E+01  0.40000000000E+01  0.51109989000E-03 0. -1.
     -623   -1    0    0    0    0  0.00000000000E+00  0.00000000000E+00  0.12525980253E-10  0.17130000000E+03  0.17130000000E+03 0. -1.
       11    1    1    2    0    0 -0.77668642702E-02 -0.77956166727E-03  0.28533668697E+00  0.28544389650E+00  0.51109989000E-03 0. -1.
     -623    1    1    2    0    0  0.18164894846E-01  0.65957284948E-03  0.33807308909E-03  0.17130000096E+03  0.17130000000E+03 0. -1.
      622    1    1    2    0    0 -0.10398030576E-01  0.11998881780E-03  0.37143252073E+01  0.37145551388E+01  0.40000000000E-01 0. -1.
</event>
<event>
 5   0  0.6200596E+07  0.9118800E+02  0.7818608E-02  0.1180000E+00
       11   -1    0    0    0    0  0.00000000000E+00  0.00000000000E+00  0.39999999673E+01  0.40000000000E+01  0.51109989000E-03 0.  1.
     -623   -1    0    0    0    0  0.00000000000E+00  0.00000000000E+00  0.12525980253E-10  0.17130000000E+03  0.17130000000E+03 0.  1.
       11    1    1    2    0    0 -0.93662606408E-02 -0.20331659799E-02  0.30752531918E-01  0.32215524885E-01  0.51109989000E-03 0.  1.
     -623    1    1    2    0    0  0.50074136505E-02 -0.70896950194E-03  0.16680140271E-02  0.17130000008E+03  0.17130000000E+03 0.  1.
      622    1    1    2    0    0  0.43588469902E-02  0.27421354819E-02  0.39675794214E+01  0.39677843923E+01  0.40000000000E-01 0.  1.
</event>
<event>
 5   0  0.6200596E+07  0.9118800E+02  0.7818608E-02  0.1180000E+00
       11   -1    0    0    0    0  0.00000000000E+00  0.00000000000E+00  0.39999999673E+01  0.40000000000E+01  0.51109989000E-03 0.  1.
     -623   -1    0    0    0    0  0.00000000000E+00  0.00000000000E+00  0.12525980253E-10  0.17130000000E+03  0.17130000000E+03 0. -1.
       11    1    1    2    0    0 -0.54164007936E-03  0.12540733265E-02  0.12817510482E+00  0.12818340295E+00  0.51109989000E-03 0.  1.
     -623    1    1    2    0    0  0.18145324506E-03  0.18014702486E-03  0.21517508590E-03  0.17130000000E+03  0.17130000000E+03 0. -1.
      622    1    1    2    0    0  0.36018683430E-03 -0.14342203514E-02  0.38716096875E+01  0.38718165967E+01  0.40000000000E-01 0.  1.
</event>
<event>
 5   0  0.6200596E+07  0.9118800E+02  0.7818608E-02  0.1180000E+00
       11   -1    0    0    0    0  0.00000000000E+00  0.00000000000E+00  0.39999999673E+01  0.40000000000E+01  0.51109989000E-03 0. -1.
     -623   -1    0    0    0    0  0.00000000000E+00  0.00000000000E+00  0.12525980253E-10  0.17130000000E+03  0.17130000000E+03 0. -1.
       11    1    1    2    0    0  0.44821443828E-02 -0.32758695128E-02  0.34640470300E-01  0.35086241509E-01  0.51109989000E-03 0. -1.
     -623    1    1    2    0    0 -0.64853874140E-02  0.50368266725E-03  0.64911354949E-03  0.17130000012E+03  0.17130000000E+03 0. -1.
      622    1    1    2    0    0  0.20032430312E-02  0.27721868456E-02  0.39647103835E+01  0.39649136338E+01  0.40000000000E-01 0. -1.
</event>
<event>
 5   0  0.6200596E+07  0.9118800E+02  0.7818608E-02  0.1180000E+00
       11   -1    0    0    0    0  0.00000000000E+00  0.00000000000E+00  0.39999999673E+01  0.40000000000E+01  0.51109989000E-03 0. -1.
     -623   -1    0    0    0    0  0.00000000000E+00  0.00000000000E+00  0.12525980253E-10  0.17130000000E+03  0.17130000000E+03 0.  1.
       11    1    1    2    0    0  0.12377344159E-01 -0.38873431210E-02  0.24530914250E+00  0.24565249175E+00  0.51109989000E-03 0. -1.
     -623    1    1    2    0    0  0.30605030005E-03  0.68693596457E-03  0.57920133363E-03  0.17130000000E+03  0.17130000000E+03 0.  1.
      622    1    1    2    0    0 -0.12683394459E-01  0.32004071565E-02  0.37541116235E+01  0.37543475056E+01  0.40000000000E-01 0. -1.
</event>
<event>
 5   0  0.6200596E+07  0.9118800E+02  0.7818608E-02  0.1180000E+00
       11   -1    0    0    0    0  0.00000000000E+00  0.00000000000E+00  0.39999999673E+01  0.40000000000E+01  0.51109989000E-03 0. -1.
     -623   -1    0    0    0    0  0.00000000000E+00  0.00000000000E+00  0.12525980253E-10  0.17130000000E+03  0.17130000000E+03 0. -1.
       11    1    1    2    0    0  0.22709587636E-02  0.92799070503E-03  0.38269285801E-01  0.38351243502E-01  0.51109989000E-03 0. -1.
     -623    1    1    2    0    0  0.56536474737E-03 -0.96495150002E-03  0.28488577150E-03  0.17130000000E+03  0.17130000000E+03 0. -1.
      622    1    1    2    0    0 -0.28363235110E-02  0.36960794989E-04  0.39614457958E+01  0.39616487526E+01  0.40000000000E-01 0. -1.
</event>
<event>
 5   0  0.6200596E+07  0.9118800E+02  0.7818608E-02  0.1180000E+00
       11   -1    0    0    0    0  0.00000000000E+00  0.00000000000E+00  0.39999999673E+01  0.40000000000E+01  0.51109989000E-03 0. -1.
     -623   -1    0    0    0    0  0.00000000000E+00  0.00000000000E+00  0.12525980253E-10  0.17130000000E+03  0.17130000000E+03 0. -1.
       11    1    1    2    0    0 -0.14751672094E-02 -0.24547089370E-02  0.34282336169E-01  0.34405544741E-01  0.51109989000E-03 0. -1.
     -623    1    1    2    0    0  0.15032749052E-02 -0.90208503918E-03  0.32634644864E-03  0.17130000001E+03  0.17130000000E+03 0. -1.
      622    1    1    2    0    0 -0.28107695731E-04  0.33567939762E-02  0.39653912847E+01  0.39655944460E+01  0.40000000000E-01 0. -1.
</event>
<event>
 5   0  0.6200596E+07  0.9118800E+02  0.7818608E-02  0.1180000E+00
       11   -1    0    0    0    0  0.00000000000E+00  0.00000000000E+00  0.39999999673E+01  0.40000000000E+01  0.51109989000E-03 0.  1.
     -623   -1    0    0    0    0  0.00000000000E+00  0.00000000000E+00  0.12525980253E-10  0.17130000000E+03  0.17130000000E+03 0.  1.
       11    1    1    2    0    0  0.30856636333E-02  0.33205285425E-04  0.18247528612E+00  0.18250209228E+00  0.51109989000E-03 0.  1.
     -623    1    1    2    0    0  0.30583943446E-03 -0.45971884683E-03  0.23787211433E-03  0.17130000000E+03  0.17130000000E+03 0.  1.
      622    1    1    2    0    0 -0.33915030678E-02  0.42651356140E-03  0.38172868091E+01  0.38174979067E+01  0.40000000000E-01 0.  1.
</event>
<event>
 5   0  0.6200596E+07  0.9118800E+02  0.7818608E-02  0.1180000E+00
       11   -1    0    0    0    0  0.00000000000E+00  0.00000000000E+00  0.39999999673E+01  0.40000000000E+01  0.51109989000E-03 0. -1.
     -623   -1    0    0    0    0  0.00000000000E+00  0.00000000000E+00  0.12525980253E-10  0.17130000000E+03  0.17130000000E+03 0.  1.
       11    1    1    2    0    0  0.20672262676E-04  0.54142321249E-03  0.81018329188E-02  0.81359992901E-02  0.51109989000E-03 0. -1.
     -623    1    1    2    0    0 -0.32826646482E-03 -0.83152318659E-03  0.23457127781E-03  0.17130000000E+03  0.17130000000E+03 0.  1.
      622    1    1    2    0    0  0.30759420214E-03  0.29009997410E-03  0.39916635632E+01  0.39918639982E+01  0.40000000000E-01 0. -1.
</event>
<event>
 5   0  0.6200596E+07  0.9118800E+02  0.7818608E-02  0.1180000E+00
       11   -1    0    0    0    0  0.00000000000E+00  0.00000000000E+00  0.39999999673E+01  0.40000000000E+01  0.51109989000E-03 0. -1.
     -623   -1    0    0    0    0  0.00000000000E+00  0.00000000000E+00  0.12525980253E-10  0.17130000000E+03  0.17130000000E+03 0.  1.
       11    1    1    2    0    0  0.21474434143E-01 -0.43911407582E-02  0.89145478951E+00  0.89172436122E+00  0.51109989000E-03 0. -1.
     -623    1    1    2    0    0 -0.87740202060E-02 -0.97992356605E-02  0.58577756713E-03  0.17130000051E+03  0.17130000000E+03 0.  1.
      622    1    1    2    0    0 -0.12700413937E-01  0.14190376419E-01  0.31079594003E+01  0.31082751328E+01  0.40000000000E-01 0. -1.
</event>
<event>
 5   0  0.6200596E+07  0.9118800E+02  0.7818608E-02  0.1180000E+00
       11   -1    0    0    0    0  0.00000000000E+00  0.00000000000E+00  0.39999999673E+01  0.40000000000E+01  0.51109989000E-03 0.  1.
     -623   -1    0    0    0    0  0.00000000000E+00  0.00000000000E+00  0.12525980253E-10  0.17130000000E+03  0.17130000000E+03 0. -1.
       11    1    1    2    0    0  0.13849068045E-01  0.11683339587E-02  0.14235872339E+00  0.14303646051E+00  0.51109989000E-03 0.  1.
     -623    1    1    2    0    0 -0.17278631063E-01  0.93775058002E-02  0.90220070671E-03  0.17130000113E+03  0.17130000000E+03 0. -1.
      622    1    1    2    0    0  0.34295630172E-02 -0.10545839759E-01  0.38567390433E+01  0.38569624090E+01  0.40000000000E-01 0.  1.
</event>
<event>
 5   0  0.6200596E+07  0.9118800E+02  0.7818608E-02  0.1180000E+00
       11   -1    0    0    0    0  0.00000000000E+00  0.00000000000E+00  0.39999999673E+01  0.40000000000E+01  0.51109989000E-03 0.  1.
     -623   -1    0    0    0    0  0.00000000000E+00  0.00000000000E+00  0.12525980253E-10  0.17130000000E+03  0.17130000000E+03 0.  1.
       11    1    1    2    0    0 -0.31038240051E-05  0.10109947657E-01  0.88137681101E-01  0.88717095888E-01  0.51109989000E-03 0.  1.
     -623    1    1    2    0    0 -0.53076098745E-02 -0.15598928321E-01  0.79217566306E-03  0.17130000079E+03  0.17130000000E+03 0.  1.
      622    1    1    2    0    0  0.53107136985E-02  0.54889806638E-02  0.39110701106E+01  0.39112821098E+01  0.40000000000E-01 0.  1.
</event>
<event>
 5   0  0.6200596E+07  0.9118800E+02  0.7818608E-02  0.1180000E+00
       11   -1    0    0    0    0  0.00000000000E+00  0.00000000000E+00  0.39999999673E+01  0.40000000000E+01  0.51109989000E-03 0.  1.
     -623   -1    0    0    0    0  0.00000000000E+00  0.00000000000E+00  0.12525980253E-10  0.17130000000E+03  0.17130000000E+03 0. -1.
       11    1    1    2    0    0  0.20562378514E-02  0.44666851143E-03  0.47280262876E+00  0.47280758731E+00  0.51109989000E-03 0.  1.
     -623    1    1    2    0    0  0.60960834833E-04 -0.35615703536E-03  0.23237964930E-03  0.17130000000E+03  0.17130000000E+03 0. -1.
      622    1    1    2    0    0 -0.21171986863E-02 -0.90511476074E-04  0.35269649589E+01  0.35271924122E+01  0.40000000000E-01 0.  1.
</event>
<event>
 5   0  0.6200596E+07  0.9118800E+02  0.7818608E-02  0.1180000E+00
       11   -1    0    0    0    0  0.00000000000E+00  0.00000000000E+00  0.39999999673E+01  0.40000000000E+01  0.51109989000E-03 0. -1.
     -623   -1    0    0    0    0  0.00000000000E+00  0.00000000000E+00  0.12525980253E-10  0.17130000000E+03  0.17130000000E+03 0. -1.
       11    1    1    2    0    0  0.27366887898E-02  0.28541881905E-03  0.19054201482E-01  0.19258627788E-01  0.51109989000E-03 0.  1.
     -623    1    1    2    0    0 -0.25036532870E-02 -0.41444362010E-03  0.40539451995E-03  0.17130000002E+03  0.17130000000E+03 0. -1.
      622    1    1    2    0    0 -0.23303550281E-03  0.12902480105E-03  0.39805403714E+01  0.39807413529E+01  0.40000000000E-01 0. -1.
</event>
<event>
 5   0  0.6200596E+07  0.9118800E+02  0.7818608E-02  0.1180000E+00
       11   -1    0    0    0    0  0.00000000000E+00  0.00000000000E+00  0.39999999673E+01  0.40000000000E+01  0.51109989000E-03 0.  1.
     -623   -1    0    0    0    0  0.00000000000E+00  0.00000000000E+00  0.12525980253E-10  0.17130000000E+03  0.17130000000E+03 0.  1.
       11    1    1    2    0    0  0.16938933175E-02  0.92968834896E-03  0.13681250793E-01  0.13826476061E-01  0.51109989000E-03 0.  1.
     -623    1    1    2    0    0 -0.62268207368E-03  0.42657750197E-03  0.34626809783E-03  0.17130000000E+03  0.17130000000E+03 0.  1.
      622    1    1    2    0    0 -0.10712112438E-02 -0.13562658509E-02  0.39859724485E+01  0.39861735219E+01  0.40000000000E-01 0.  1.
</event>
<event>
 5   0  0.6200596E+07  0.9118800E+02  0.7818608E-02  0.1180000E+00
       11   -1    0    0    0    0  0.00000000000E+00  0.00000000000E+00  0.39999999673E+01  0.40000000000E+01  0.51109989000E-03 0. -1.
     -623   -1    0    0    0    0  0.00000000000E+00  0.00000000000E+00  0.12525980253E-10  0.17130000000E+03  0.17130000000E+03 0.  1.
       11    1    1    2    0    0  0.20285431622E-02  0.40638454593E-02  0.15182445200E+00  0.15189323643E+00  0.51109989000E-03 0. -1.
     -623    1    1    2    0    0  0.55332360725E-03  0.16581437819E-03  0.27984389080E-03  0.17130000000E+03  0.17130000000E+03 0.  1.
      622    1    1    2    0    0 -0.25818667695E-02 -0.42296598375E-02  0.38478956715E+01  0.38481067624E+01  0.40000000000E-01 0. -1.
</event>
<event>
 5   0  0.6200596E+07  0.9118800E+02  0.7818608E-02  0.1180000E+00
       11   -1    0    0    0    0  0.00000000000E+00  0.00000000000E+00  0.39999999673E+01  0.40000000000E+01  0.51109989000E-03 0.  1.
     -623   -1    0    0    0    0  0.00000000000E+00  0.00000000000E+00  0.12525980253E-10  0.17130000000E+03  0.17130000000E+03 0. -1.
       11    1    1    2    0    0 -0.21490733396E-02  0.46156691123E-02  0.57797155245E+00  0.57799420376E+00  0.51109989000E-03 0.  1.
     -623    1    1    2    0    0  0.87092441123E-03 -0.17496974665E-03  0.25953041338E-03  0.17130000000E+03  0.17130000000E+03 0. -1.
      622    1    1    2    0    0  0.12781489284E-02 -0.44406993656E-02  0.34217688845E+01  0.34220057937E+01  0.40000000000E-01 0.  1.
</event>
<event>
 5   0  0.6200596E+07  0.9118800E+02  0.7818608E-02  0.1180000E+00
       11   -1    0    0    0    0  0.00000000000E+00  0.00000000000E+00  0.39999999673E+01  0.40000000000E+01  0.51109989000E-03 0.  1.
     -623   -1    0    0    0    0  0.00000000000E+00  0.00000000000E+00  0.12525980253E-10  0.17130000000E+03  0.17130000000E+03 0. -1.
       11    1    1    2    0    0 -0.10181229267E-02  0.32708601347E-02  0.78611927372E-01  0.78688191274E-01  0.51109989000E-03 0.  1.
     -623    1    1    2    0    0 -0.18501572604E-02 -0.80949275992E-03  0.28208366485E-03  0.17130000001E+03  0.17130000000E+03 0. -1.
      622    1    1    2    0    0  0.28682801871E-02 -0.24613673748E-02  0.39211059563E+01  0.39213117966E+01  0.40000000000E-01 0.  1.
</event>
<event>
 5   0  0.6200596E+07  0.9118800E+02  0.7818608E-02  0.1180000E+00
       11   -1    0    0    0    0  0.00000000000E+00  0.00000000000E+00  0.39999999673E+01  0.40000000000E+01  0.51109989000E-03 0.  1.
     -623   -1    0    0    0    0  0.00000000000E+00  0.00000000000E+00  0.12525980253E-10  0.17130000000E+03  0.17130000000E+03 0. -1.
       11    1    1    2    0    0 -0.74947628260E-03 -0.68294175901E-04  0.42172013026E+00  0.42172111148E+00  0.51109989000E-03 0.  1.
     -623    1    1    2    0    0 -0.93491174391E-03  0.26736809864E-03  0.22493164648E-03  0.17130000000E+03  0.17130000000E+03 0. -1.
      622    1    1    2    0    0  0.16843880265E-02 -0.19907392274E-03  0.35780549055E+01  0.35782788856E+01  0.40000000000E-01 0.  1.
</event>
<event>
 5   0  0.6200596E+07  0.9118800E+02  0.7818608E-02  0.1180000E+00
       11   -1    0    0    0    0  0.00000000000E+00  0.00000000000E+00  0.39999999673E+01  0.40000000000E+01  0.51109989000E-03 0. -1.
     -623   -1    0    0    0    0  0.00000000000E+00  0.00000000000E+00  0.12525980253E-10  0.17130000000E+03  0.17130000000E+03 0. -1.
       11    1    1    2    0    0 -0.32982838937E-02 -0.63401172543E-02  0.77409466173E-01  0.77740352700E-01  0.51109989000E-03 0. -1.
     -623    1    1    2    0    0 -0.30082983828E-02  0.12935278507E-03  0.54483854258E-03  0.17130000003E+03  0.17130000000E+03 0. -1.
      622    1    1    2    0    0  0.63065822766E-02  0.62107644692E-02  0.39220456626E+01  0.39222596200E+01  0.40000000000E-01 0. -1.
</event>
<event>
 5   0  0.6200596E+07  0.9118800E+02  0.7818608E-02  0.1180000E+00
       11   -1    0    0    0    0  0.00000000000E+00  0.00000000000E+00  0.39999999673E+01  0.40000000000E+01  0.51109989000E-03 0.  1.
     -623   -1    0    0    0    0  0.00000000000E+00  0.00000000000E+00  0.12525980253E-10  0.17130000000E+03  0.17130000000E+03 0.  1.
       11    1    1    2    0    0 -0.10761257321E-01  0.22932277513E-01  0.14699031604E+01  0.14701215107E+01  0.51109989000E-03 0.  1.
     -623    1    1    2    0    0 -0.39982895672E-02 -0.61915543580E-02  0.63317479092E-03  0.17130000016E+03  0.17130000000E+03 0.  1.
      622    1    1    2    0    0  0.14759546888E-01 -0.16740723155E-01  0.25294636322E+01  0.25298783296E+01  0.40000000000E-01 0.  1.
</event>
<event>
 5   0  0.6200596E+07  0.9118800E+02  0.7818608E-02  0.1180000E+00
       11   -1    0    0    0    0  0.00000000000E+00  0.00000000000E+00  0.39999999673E+01  0.40000000000E+01  0.51109989000E-03 0. -1.
     -623   -1    0    0    0    0  0.00000000000E+00  0.00000000000E+00  0.12525980253E-10  0.17130000000E+03  0.17130000000E+03 0. -1.
       11    1    1    2    0    0 -0.98449780922E-03 -0.97881663771E-03  0.62929710622E-02  0.64645203493E-02  0.51109989000E-03 0. -1.
     -623    1    1    2    0    0 -0.27207191964E-03  0.29688123610E-03  0.37210222527E-03  0.17130000000E+03  0.17130000000E+03 0. -1.
      622    1    1    2    0    0  0.12565697289E-02  0.68193540161E-03  0.39933348941E+01  0.39935354788E+01  0.40000000000E-01 0. -1.
</event>
<event>
 5   0  0.6200596E+07  0.9118800E+02  0.7818608E-02  0.1180000E+00
       11   -1    0    0    0    0  0.00000000000E+00  0.00000000000E+00  0.39999999673E+01  0.40000000000E+01  0.51109989000E-03 0.  1.
     -623   -1    0    0    0    0  0.00000000000E+00  0.00000000000E+00  0.12525980253E-10  0.17130000000E+03  0.17130000000E+03 0. -1.
       11    1    1    2    0    0 -0.13463844136E-04 -0.96198859569E-03  0.50689702284E-02  0.51847164997E-02  0.51109989000E-03 0.  1.
     -623    1    1    2    0    0  0.62562624067E-03  0.60062258732E-03  0.31604396168E-03  0.17130000000E+03  0.17130000000E+03 0. -1.
      622    1    1    2    0    0 -0.61216239653E-03  0.36136600837E-03  0.39946149532E+01  0.39948152810E+01  0.40000000000E-01 0.  1.
</event>
<event>
 5   0  0.6200596E+07  0.9118800E+02  0.7818608E-02  0.1180000E+00
       11   -1    0    0    0    0  0.00000000000E+00  0.00000000000E+00  0.39999999673E+01  0.40000000000E+01  0.51109989000E-03 0.  1.
     -623   -1    0    0    0    0  0.00000000000E+00  0.00000000000E+00  0.12525980253E-10  0.17130000000E+03  0.17130000000E+03 0.  1.
       11    1    1    2    0    0  0.37722190192E-02  0.35312070549E-02  0.88195419020E-02  0.10234481008E-01  0.51109989000E-03 0.  1.
     -623    1    1    2    0    0 -0.11061114842E-01 -0.10667219099E-03  0.16239175504E-02  0.17130000036E+03  0.17130000000E+03 0.  1.
      622    1    1    2    0    0  0.72888958230E-02 -0.34245348639E-02  0.39895565079E+01  0.39897651541E+01  0.40000000000E-01 0.  1.
</event>
<event>
 5   0  0.6200596E+07  0.9118800E+02  0.7818608E-02  0.1180000E+00
       11   -1    0    0    0    0  0.00000000000E+00  0.00000000000E+00  0.39999999673E+01  0.40000000000E+01  0.51109989000E-03 0.  1.
     -623   -1    0    0    0    0  0.00000000000E+00  0.00000000000E+00  0.12525980253E-10  0.17130000000E+03  0.17130000000E+03 0. -1.
       11    1    1    2    0    0 -0.88576282042E-02 -0.87787424187E-02  0.83910799855E+00  0.83920082123E+00  0.51109989000E-03 0.  1.
     -623    1    1    2    0    0 -0.20122682677E-02  0.17630706739E-01  0.37790877816E-03  0.17130000092E+03  0.17130000000E+03 0. -1.
      622    1    1    2    0    0  0.10869896472E-01 -0.88519643203E-02  0.31605140600E+01  0.31607982592E+01  0.40000000000E-01 0.  1.
</event>
<event>
 5   0  0.6200596E+07  0.9118800E+02  0.7818608E-02  0.1180000E+00
       11   -1    0    0    0    0  0.00000000000E+00  0.00000000000E+00  0.39999999673E+01  0.40000000000E+01  0.51109989000E-03 0.  1.
     -623   -1    0    0    0    0  0.00000000000E+00  0.00000000000E+00  0.12525980253E-10  0.17130000000E+03  0.17130000000E+03 0.  1.
       11    1    1    2    0    0  0.75032997210E-02 -0.43624792454E-01  0.44921597915E+00  0.45139193520E+00  0.51109989000E-03 0.  1.
     -623    1    1    2    0    0 -0.27824379663E-02  0.71631193736E-02  0.25920409102E-02  0.17130000019E+03  0.17130000000E+03 0.  1.
      622    1    1    2    0    0 -0.47208617547E-02  0.36461673080E-01  0.35481919473E+01  0.35486078728E+01  0.40000000000E-01 0.  1.
</event>
<event>
 5   0  0.6200596E+07  0.9118800E+02  0.7818608E-02  0.1180000E+00
       11   -1    0    0    0    0  0.00000000000E+00  0.00000000000E+00  0.39999999673E+01  0.40000000000E+01  0.51109989000E-03 0. -1.
     -623   -1    0    0    0    0  0.00000000000E+00  0.00000000000E+00  0.12525980253E-10  0.17130000000E+03  0.17130000000E+03 0. -1.
       11    1    1    2    0    0 -0.11067887753E-02 -0.11695963694E-03  0.62828074938E-01  0.62840010209E-01  0.51109989000E-03 0. -1.
     -623    1    1    2    0    0  0.32741368922E-03  0.68020929432E-03  0.21521925758E-03  0.17130000000E+03  0.17130000000E+03 0. -1.
      622    1    1    2    0    0  0.77937508608E-03 -0.56324965738E-03  0.39369566732E+01  0.39371599880E+01  0.40000000000E-01 0. -1.
</event>
<event>
 5   0  0.6200596E+07  0.9118800E+02  0.7818608E-02  0.1180000E+00
       11   -1    0    0    0    0  0.00000000000E+00  0.00000000000E+00  0.39999999673E+01  0.40000000000E+01  0.51109989000E-03 0.  1.
     -623   -1    0    0    0    0  0.00000000000E+00  0.00000000000E+00  0.12525980253E-10  0.17130000000E+03  0.17130000000E+03 0. -1.
       11    1    1    2    0    0 -0.70842070721E-02  0.65411929631E-02  0.40477321201E-01  0.41613074236E-01  0.51109989000E-03 0.  1.
     -623    1    1    2    0    0  0.22660271101E-02  0.49241548714E-03  0.13470308830E-02  0.17130000002E+03  0.17130000000E+03 0. -1.
      622    1    1    2    0    0  0.48181799620E-02 -0.70336084502E-02  0.39581756153E+01  0.39583869048E+01  0.40000000000E-01 0.  1.
</event>
<event>
 5   0  0.6200596E+07  0.9118800E+02  0.7818608E-02  0.1180000E+00
       11   -1    0    0    0    0  0.00000000000E+00  0.00000000000E+00  0.39999999673E+01  0.40000000000E+01  0.51109989000E-03 0. -1.
     -623   -1    0    0    0    0  0.00000000000E+00  0.00000000000E+00  0.12525980253E-10  0.17130000000E+03  0.17130000000E+03 0.  1.
       11    1    1    2    0    0 -0.12175107371E-01  0.35381138995E-01  0.12345464138E+01  0.12351134228E+01  0.51109989000E-03 0. -1.
     -623    1    1    2    0    0 -0.11178290104E-01  0.25673454073E-02  0.12158342556E-02  0.17130000039E+03  0.17130000000E+03 0.  1.
      622    1    1    2    0    0  0.23353397475E-01 -0.37948484402E-01  0.27642377194E+01  0.27648861889E+01  0.40000000000E-01 0. -1.
</event>
<event>
 5   0  0.6200596E+07  0.9118800E+02  0.7818608E-02  0.1180000E+00
       11   -1    0    0    0    0  0.00000000000E+00  0.00000000000E+00  0.39999999673E+01  0.40000000000E+01  0.51109989000E-03 0.  1.
     -623   -1    0    0    0    0  0.00000000000E+00  0.00000000000E+00  0.12525980253E-10  0.17130000000E+03  0.17130000000E+03 0.  1.
       11    1    1    2    0    0 -0.55589985035E-02 -0.18796978113E-01  0.26957326639E+01  0.26958039775E+01  0.51109989000E-03 0.  1.
     -623    1    1    2    0    0  0.46896818785E-02 -0.37543413894E-02  0.88030542934E-03  0.17130000011E+03  0.17130000000E+03 0.  1.
      622    1    1    2    0    0  0.86931662500E-03  0.22551319502E-01  0.13033869980E+01  0.13041959149E+01  0.40000000000E-01 0.  1.
</event>
<event>
 5   0  0.6200596E+07  0.9118800E+02  0.7818608E-02  0.1180000E+00
       11   -1    0    0    0    0  0.00000000000E+00  0.00000000000E+00  0.39999999673E+01  0.40000000000E+01  0.51109989000E-03 0.  1.
     -623   -1    0    0    0    0  0.00000000000E+00  0.00000000000E+00  0.12525980253E-10  0.17130000000E+03  0.17130000000E+03 0.  1.
       11    1    1    2    0    0  0.10978939641E-01 -0.10333827592E-01  0.40544784551E+00  0.40572840887E+00  0.51109989000E-03 0.  1.
     -623    1    1    2    0    0 -0.33460359529E-02 -0.37578895849E-02  0.53891989591E-03  0.17130000007E+03  0.17130000000E+03 0.  1.
      622    1    1    2    0    0 -0.76329036880E-02  0.14091717176E-01  0.35940132020E+01  0.35942715164E+01  0.40000000000E-01 0.  1.
</event>
<event>
 5   0  0.6200596E+07  0.9118800E+02  0.7818608E-02  0.1180000E+00
       11   -1    0    0    0    0  0.00000000000E+00  0.00000000000E+00  0.39999999673E+01  0.40000000000E+01  0.51109989000E-03 0. -1.
     -623   -1    0    0    0    0  0.00000000000E+00  0.00000000000E+00  0.12525980253E-10  0.17130000000E+03  0.17130000000E+03 0.  1.
       11    1    1    2    0    0 -0.57416635989E-02  0.85468182308E-02  0.11750981791E+01  0.11751433983E+01  0.51109989000E-03 0. -1.
     -623    1    1    2    0    0  0.13146854951E-02 -0.36350257235E-02  0.33618482392E-03  0.17130000004E+03  0.17130000000E+03 0.  1.
      622    1    1    2    0    0  0.44269781039E-02 -0.49117925073E-02  0.28245656034E+01  0.28248565577E+01  0.40000000000E-01 0. -1.
</event>
<event>
 5   0  0.6200596E+07  0.9118800E+02  0.7818608E-02  0.1180000E+00
       11   -1    0    0    0    0  0.00000000000E+00  0.00000000000E+00  0.39999999673E+01  0.40000000000E+01  0.51109989000E-03 0. -1.
     -623   -1    0    0    0    0  0.00000000000E+00  0.00000000000E+00  0.12525980253E-10  0.17130000000E+03  0.17130000000E+03 0. -1.
       11    1    1    2    0    0 -0.70987553819E-02 -0.11497467120E-01  0.23203863504E+01  0.23204257498E+01  0.51109989000E-03 0. -1.
     -623    1    1    2    0    0  0.78404092549E-03  0.25652914711E-02  0.55139983962E-03  0.17130000002E+03  0.17130000000E+03 0. -1.
      622    1    1    2    0    0  0.63147144564E-02  0.89321756486E-02  0.16790622171E+01  0.16795742283E+01  0.40000000000E-01 0. -1.
</event>
<event>
 5   0  0.6200596E+07  0.9118800E+02  0.7818608E-02  0.1180000E+00
       11   -1    0    0    0    0  0.00000000000E+00  0.00000000000E+00  0.39999999673E+01  0.40000000000E+01  0.51109989000E-03 0.  1.
     -623   -1    0    0    0    0  0.00000000000E+00  0.00000000000E+00  0.12525980253E-10  0.17130000000E+03  0.17130000000E+03 0. -1.
       11    1    1    2    0    0  0.83292399537E-02  0.36098062490E-02  0.30156274947E+00  0.30169978461E+00  0.51109989000E-03 0.  1.
     -623    1    1    2    0    0  0.24479605993E-02 -0.19869725248E-02  0.36941375154E-03  0.17130000003E+03  0.17130000000E+03 0. -1.
      622    1    1    2    0    0 -0.10777200553E-01 -0.16228337242E-02  0.36980678041E+01  0.36983001860E+01  0.40000000000E-01 0.  1.
</event>
<event>
 5   0  0.6200596E+07  0.9118800E+02  0.7818608E-02  0.1180000E+00
       11   -1    0    0    0    0  0.00000000000E+00  0.00000000000E+00  0.39999999673E+01  0.40000000000E+01  0.51109989000E-03 0. -1.
     -623   -1    0    0    0    0  0.00000000000E+00  0.00000000000E+00  0.12525980253E-10  0.17130000000E+03  0.17130000000E+03 0. -1.
       11    1    1    2    0    0 -0.31634011320E-02 -0.17216896658E-01  0.84188528519E-01  0.85990686668E-01  0.51109989000E-03 0. -1.
     -623    1    1    2    0    0  0.62107514181E-02  0.73780336841E-02  0.20203615260E-02  0.17130000028E+03  0.17130000000E+03 0. -1.
      622    1    1    2    0    0 -0.30473502861E-02  0.98388629735E-02  0.39137910773E+01  0.39140090299E+01  0.40000000000E-01 0. -1.
</event>
<event>
 5   0  0.6200596E+07  0.9118800E+02  0.7818608E-02  0.1180000E+00
       11   -1    0    0    0    0  0.00000000000E+00  0.00000000000E+00  0.39999999673E+01  0.40000000000E+01  0.51109989000E-03 0. -1.
     -623   -1    0    0    0    0  0.00000000000E+00  0.00000000000E+00  0.12525980253E-10  0.17130000000E+03  0.17130000000E+03 0.  1.
       11    1    1    2    0    0 -0.34027815048E-02  0.38831357681E-01  0.11786426272E+01  0.11792871394E+01  0.51109989000E-03 0. -1.
     -623    1    1    2    0    0  0.88107840282E-02 -0.22995981002E-01  0.97952246874E-03  0.17130000177E+03  0.17130000000E+03 0.  1.
      622    1    1    2    0    0 -0.54080025233E-02 -0.15835376678E-01  0.28203778177E+01  0.28207110877E+01  0.40000000000E-01 0.  0.
</event>
<event>
 5   0  0.6200596E+07  0.9118800E+02  0.7818608E-02  0.1180000E+00
       11   -1    0    0    0    0  0.00000000000E+00  0.00000000000E+00  0.39999999673E+01  0.40000000000E+01  0.51109989000E-03 0. -1.
     -623   -1    0    0    0    0  0.00000000000E+00  0.00000000000E+00  0.12525980253E-10  0.17130000000E+03  0.17130000000E+03 0.  1.
       11    1    1    2    0    0 -0.41445027618E-02 -0.71137262361E-02  0.14742023784E+01  0.14742254562E+01  0.51109989000E-03 0. -1.
     -623    1    1    2    0    0 -0.10921142914E-02  0.82354745950E-03  0.35306805257E-03  0.17130000001E+03  0.17130000000E+03 0.  1.
      622    1    1    2    0    0  0.52366170532E-02  0.62901787766E-02  0.25254445209E+01  0.25257745380E+01  0.40000000000E-01 0. -1.
</event>
<event>
 5   0  0.6200596E+07  0.9118800E+02  0.7818608E-02  0.1180000E+00
       11   -1    0    0    0    0  0.00000000000E+00  0.00000000000E+00  0.39999999673E+01  0.40000000000E+01  0.51109989000E-03 0. -1.
     -623   -1    0    0    0    0  0.00000000000E+00  0.00000000000E+00  0.12525980253E-10  0.17130000000E+03  0.17130000000E+03 0. -1.
       11    1    1    2    0    0  0.39210667431E-03  0.68317231611E-03  0.16420001541E-01  0.16446827760E-01  0.51109989000E-03 0. -1.
     -623    1    1    2    0    0 -0.22158195923E-02 -0.78389084935E-03  0.22805940765E-03  0.17130000002E+03  0.17130000000E+03 0. -1.
      622    1    1    2    0    0  0.18237129180E-02  0.10071853324E-03  0.39833519064E+01  0.39835531560E+01  0.40000000000E-01 0. -1.
</event>
<event>
 5   0  0.6200596E+07  0.9118800E+02  0.7818608E-02  0.1180000E+00
       11   -1    0    0    0    0  0.00000000000E+00  0.00000000000E+00  0.39999999673E+01  0.40000000000E+01  0.51109989000E-03 0.  1.
     -623   -1    0    0    0    0  0.00000000000E+00  0.00000000000E+00  0.12525980253E-10  0.17130000000E+03  0.17130000000E+03 0. -1.
       11    1    1    2    0    0  0.35979971330E-02 -0.21149014395E-01  0.35673334762E+00  0.35737818752E+00  0.51109989000E-03 0.  1.
     -623    1    1    2    0    0 -0.86427560568E-02  0.22272219286E-01  0.86977086131E-03  0.17130000167E+03  0.17130000000E+03 0. -1.
      622    1    1    2    0    0  0.50447589237E-02 -0.11232048913E-02  0.36423968489E+01  0.36426201443E+01  0.40000000000E-01 0.  1.
</event>
<event>
 5   0  0.6200596E+07  0.9118800E+02  0.7818608E-02  0.1180000E+00
       11   -1    0    0    0    0  0.00000000000E+00  0.00000000000E+00  0.39999999673E+01  0.40000000000E+01  0.51109989000E-03 0.  1.
     -623   -1    0    0    0    0  0.00000000000E+00  0.00000000000E+00  0.12525980253E-10  0.17130000000E+03  0.17130000000E+03 0. -1.
       11    1    1    2    0    0  0.26077770664E-01 -0.19570486569E-01  0.29069637246E+01  0.29071466099E+01  0.51109989000E-03 0.  1.
     -623    1    1    2    0    0 -0.24201476373E-01  0.22660086264E-01  0.92432169220E-03  0.17130000321E+03  0.17130000000E+03 0. -1.
      622    1    1    2    0    0 -0.18762942916E-02 -0.30895996948E-02  0.10921119211E+01  0.10928501792E+01  0.40000000000E-01 0. -1.
</event>
<event>
 5   0  0.6200596E+07  0.9118800E+02  0.7818608E-02  0.1180000E+00
       11   -1    0    0    0    0  0.00000000000E+00  0.00000000000E+00  0.39999999673E+01  0.40000000000E+01  0.51109989000E-03 0.  1.
     -623   -1    0    0    0    0  0.00000000000E+00  0.00000000000E+00  0.12525980253E-10  0.17130000000E+03  0.17130000000E+03 0.  1.
       11    1    1    2    0    0 -0.28820030706E-03  0.78886430639E-02  0.66847810337E-01  0.67314223731E-01  0.51109989000E-03 0.  1.
     -623    1    1    2    0    0 -0.30490590558E-02  0.38081689008E-02  0.68869185318E-03  0.17130000007E+03  0.17130000000E+03 0.  1.
      622    1    1    2    0    0  0.33372593629E-02 -0.11696811965E-01  0.39324634652E+01  0.39326857054E+01  0.40000000000E-01 0.  0.
</event>
<event>
 5   0  0.6200596E+07  0.9118800E+02  0.7818608E-02  0.1180000E+00
       11   -1    0    0    0    0  0.00000000000E+00  0.00000000000E+00  0.39999999673E+01  0.40000000000E+01  0.51109989000E-03 0. -1.
     -623   -1    0    0    0    0  0.00000000000E+00  0.00000000000E+00  0.12525980253E-10  0.17130000000E+03  0.17130000000E+03 0. -1.
       11    1    1    2    0    0 -0.12473501917E-01 -0.29767766634E-02  0.38444258653E+00  0.38465674699E+00  0.51109989000E-03 0. -1.
     -623    1    1    2    0    0  0.48518258105E-02  0.24889804468E-02  0.44356831414E-03  0.17130000009E+03  0.17130000000E+03 0. -1.
      622    1    1    2    0    0  0.76216761070E-02  0.48779621659E-03  0.36151138125E+01  0.36153431656E+01  0.40000000000E-01 0.  0.
</event>
<event>
 5   0  0.6200596E+07  0.9118800E+02  0.7818608E-02  0.1180000E+00
       11   -1    0    0    0    0  0.00000000000E+00  0.00000000000E+00  0.39999999673E+01  0.40000000000E+01  0.51109989000E-03 0.  1.
     -623   -1    0    0    0    0  0.00000000000E+00  0.00000000000E+00  0.12525980253E-10  0.17130000000E+03  0.17130000000E+03 0.  1.
       11    1    1    2    0    0 -0.30057119064E-03  0.74633232695E-03  0.39513196081E-02  0.40646651110E-02  0.51109989000E-03 0.  1.
     -623    1    1    2    0    0 -0.52206453978E-03 -0.10921957402E-02  0.31362553316E-03  0.17130000000E+03  0.17130000000E+03 0.  1.
      622    1    1    2    0    0  0.82263573042E-03  0.34586341321E-03  0.39957350222E+01  0.39959353303E+01  0.40000000000E-01 0.  1.
</event>
<event>
 5   0  0.6200596E+07  0.9118800E+02  0.7818608E-02  0.1180000E+00
       11   -1    0    0    0    0  0.00000000000E+00  0.00000000000E+00  0.39999999673E+01  0.40000000000E+01  0.51109989000E-03 0. -1.
     -623   -1    0    0    0    0  0.00000000000E+00  0.00000000000E+00  0.12525980253E-10  0.17130000000E+03  0.17130000000E+03 0.  1.
       11    1    1    2    0    0  0.25589816350E-01  0.78201145469E-02  0.38098795892E+00  0.38192679790E+00  0.51109989000E-03 0. -1.
     -623    1    1    2    0    0 -0.82531395688E-03 -0.13061962027E-02  0.12505596181E-02  0.17130000001E+03  0.17130000000E+03 0.  1.
      622    1    1    2    0    0 -0.24764502393E-01 -0.65139183442E-02  0.36177614488E+01  0.36180731906E+01  0.40000000000E-01 0. -1.
</event>
<event>
 5   0  0.6200596E+07  0.9118800E+02  0.7818608E-02  0.1180000E+00
       11   -1    0    0    0    0  0.00000000000E+00  0.00000000000E+00  0.39999999673E+01  0.40000000000E+01  0.51109989000E-03 0.  1.
     -623   -1    0    0    0    0  0.00000000000E+00  0.00000000000E+00  0.12525980253E-10  0.17130000000E+03  0.17130000000E+03 0.  1.
       11    1    1    2    0    0  0.33508863824E-03 -0.58405414976E-03  0.25734559752E-02  0.27087452660E-02  0.51109989000E-03 0.  1.
     -623    1    1    2    0    0 -0.21805695770E-02  0.37092845648E-02  0.33709937034E-03  0.17130000005E+03  0.17130000000E+03 0.  1.
      622    1    1    2    0    0  0.18454809388E-02 -0.31252304150E-02  0.39970894120E+01  0.39972912004E+01  0.40000000000E-01 0.  1.
</event>
<event>
 5   0  0.6200596E+07  0.9118800E+02  0.7818608E-02  0.1180000E+00
       11   -1    0    0    0    0  0.00000000000E+00  0.00000000000E+00  0.39999999673E+01  0.40000000000E+01  0.51109989000E-03 0.  1.
     -623   -1    0    0    0    0  0.00000000000E+00  0.00000000000E+00  0.12525980253E-10  0.17130000000E+03  0.17130000000E+03 0.  1.
       11    1    1    2    0    0  0.10690969051E-01  0.13342243108E-01  0.14835965180E+01  0.14836951175E+01  0.51109989000E-03 0.  1.
     -623    1    1    2    0    0  0.65022649271E-03 -0.10522732865E-02  0.47209699018E-03  0.17130000001E+03  0.17130000000E+03 0.  1.
      622    1    1    2    0    0 -0.11341195543E-01 -0.12289969821E-01  0.25159313524E+01  0.25163048774E+01  0.40000000000E-01 0.  1.
</event>
<event>
 5   0  0.6200596E+07  0.9118800E+02  0.7818608E-02  0.1180000E+00
       11   -1    0    0    0    0  0.00000000000E+00  0.00000000000E+00  0.39999999673E+01  0.40000000000E+01  0.51109989000E-03 0. -1.
     -623   -1    0    0    0    0  0.00000000000E+00  0.00000000000E+00  0.12525980253E-10  0.17130000000E+03  0.17130000000E+03 0.  1.
       11    1    1    2    0    0 -0.61286314808E-02 -0.21670825572E-02  0.43646095663E+00  0.43650966113E+00  0.51109989000E-03 0. -1.
     -623    1    1    2    0    0 -0.18090477850E-02  0.12773864500E-02  0.28214470531E-03  0.17130000001E+03  0.17130000000E+03 0.  1.
      622    1    1    2    0    0  0.79376792658E-02  0.88969610720E-03  0.35632568660E+01  0.35634903243E+01  0.40000000000E-01 0.  0.
</event>
<event>
 5   0  0.6200596E+07  0.9118800E+02  0.7818608E-02  0.1180000E+00
       11   -1    0    0    0    0  0.00000000000E+00  0.00000000000E+00  0.39999999673E+01  0.40000000000E+01  0.51109989000E-03 0.  1.
     -623   -1    0    0    0    0  0.00000000000E+00  0.00000000000E+00  0.12525980253E-10  0.17130000000E+03  0.17130000000E+03 0. -1.
       11    1    1    2    0    0  0.95385872135E-02 -0.16779777997E-01  0.20538816267E+00  0.20629373277E+00  0.51109989000E-03 0.  1.
     -623    1    1    2    0    0 -0.42628819845E-01  0.60342485464E-02  0.12813782360E-02  0.17130000542E+03  0.17130000000E+03 0. -1.
      622    1    1    2    0    0  0.33090232632E-01  0.10745529450E-01  0.37933304265E+01  0.37937008520E+01  0.40000000000E-01 0.  1.
</event>
<event>
 5   0  0.6200596E+07  0.9118800E+02  0.7818608E-02  0.1180000E+00
       11   -1    0    0    0    0  0.00000000000E+00  0.00000000000E+00  0.39999999673E+01  0.40000000000E+01  0.51109989000E-03 0. -1.
     -623   -1    0    0    0    0  0.00000000000E+00  0.00000000000E+00  0.12525980253E-10  0.17130000000E+03  0.17130000000E+03 0. -1.
       11    1    1    2    0    0  0.96718465858E-03  0.32485565479E-02  0.24213058191E+00  0.24215484402E+00  0.51109989000E-03 0. -1.
     -623    1    1    2    0    0 -0.71989593840E-04  0.11439382033E-03  0.23873518150E-03  0.17130000000E+03  0.17130000000E+03 0. -1.
      622    1    1    2    0    0 -0.89519506474E-03 -0.33629503682E-02  0.37576306503E+01  0.37578451558E+01  0.40000000000E-01 0. -1.
</event>
<event>
 5   0  0.6200596E+07  0.9118800E+02  0.7818608E-02  0.1180000E+00
       11   -1    0    0    0    0  0.00000000000E+00  0.00000000000E+00  0.39999999673E+01  0.40000000000E+01  0.51109989000E-03 0.  1.
     -623   -1    0    0    0    0  0.00000000000E+00  0.00000000000E+00  0.12525980253E-10  0.17130000000E+03  0.17130000000E+03 0. -1.
       11    1    1    2    0    0  0.99575331580E-03  0.65706533466E-03  0.16028662840E-01  0.16081122873E-01  0.51109989000E-03 0.  1.
     -623    1    1    2    0    0 -0.33797910348E-03 -0.12352196703E-02  0.25334098921E-03  0.17130000000E+03  0.17130000000E+03 0. -1.
      622    1    1    2    0    0 -0.65777421232E-03  0.57815433567E-03  0.39837179635E+01  0.39839188722E+01  0.40000000000E-01 0.  1.
</event>
<event>
 5   0  0.6200596E+07  0.9118800E+02  0.7818608E-02  0.1180000E+00
       11   -1    0    0    0    0  0.00000000000E+00  0.00000000000E+00  0.39999999673E+01  0.40000000000E+01  0.51109989000E-03 0.  1.
     -623   -1    0    0    0    0  0.00000000000E+00  0.00000000000E+00  0.12525980253E-10  0.17130000000E+03  0.17130000000E+03 0.  1.
       11    1    1    2    0    0 -0.23471624098E-02 -0.22835057232E-03  0.98082983845E-01  0.98112661043E-01  0.51109989000E-03 0.  1.
     -623    1    1    2    0    0  0.36096108820E-03  0.49389184093E-03  0.23519477037E-03  0.17130000000E+03  0.17130000000E+03 0.  1.
      622    1    1    2    0    0  0.19862013216E-02 -0.26554126862E-03  0.39016817887E+01  0.39018873377E+01  0.40000000000E-01 0.  1.
</event>
<event>
 5   0  0.6200596E+07  0.9118800E+02  0.7818608E-02  0.1180000E+00
       11   -1    0    0    0    0  0.00000000000E+00  0.00000000000E+00  0.39999999673E+01  0.40000000000E+01  0.51109989000E-03 0. -1.
     -623   -1    0    0    0    0  0.00000000000E+00  0.00000000000E+00  0.12525980253E-10  0.17130000000E+03  0.17130000000E+03 0.  1.
       11    1    1    2    0    0 -0.10222841059E-04  0.90434763750E-03  0.52510480702E-02  0.53528194218E-02  0.51109989000E-03 0. -1.
     -623    1    1    2    0    0  0.16626364573E-03 -0.47921888636E-03  0.30203841993E-03  0.17130000000E+03  0.17130000000E+03 0.  1.
      622    1    1    2    0    0 -0.15604080467E-03 -0.42512875114E-03  0.39944468809E+01  0.39946471796E+01  0.40000000000E-01 0. -1.
</event>
<event>
 5   0  0.6200596E+07  0.9118800E+02  0.7818608E-02  0.1180000E+00
       11   -1    0    0    0    0  0.00000000000E+00  0.00000000000E+00  0.39999999673E+01  0.40000000000E+01  0.51109989000E-03 0. -1.
     -623   -1    0    0    0    0  0.00000000000E+00  0.00000000000E+00  0.12525980253E-10  0.17130000000E+03  0.17130000000E+03 0. -1.
       11    1    1    2    0    0 -0.13790265505E-01  0.40182122725E-02  0.26063896357E+00  0.26103495552E+00  0.51109989000E-03 0. -1.
     -623    1    1    2    0    0 -0.61615489077E-03 -0.58142977988E-03  0.63926731185E-03  0.17130000000E+03  0.17130000000E+03 0. -1.
      622    1    1    2    0    0  0.14406420395E-01 -0.34367824927E-02  0.37387217365E+01  0.37389650412E+01  0.40000000000E-01 0. -1.
</event>
<event>
 5   0  0.6200596E+07  0.9118800E+02  0.7818608E-02  0.1180000E+00
       11   -1    0    0    0    0  0.00000000000E+00  0.00000000000E+00  0.39999999673E+01  0.40000000000E+01  0.51109989000E-03 0. -1.
     -623   -1    0    0    0    0  0.00000000000E+00  0.00000000000E+00  0.12525980253E-10  0.17130000000E+03  0.17130000000E+03 0.  1.
       11    1    1    2    0    0  0.12796745509E-01 -0.68086568540E-02  0.66458971989E+00  0.66474797594E+00  0.51109989000E-03 0. -1.
     -623    1    1    2    0    0 -0.16317579631E-02 -0.40855470879E-03  0.42460127208E-03  0.17130000001E+03  0.17130000000E+03 0.  1.
      622    1    1    2    0    0 -0.11164987546E-01  0.72172115628E-02  0.33349856462E+01  0.33352520153E+01  0.40000000000E-01 0. -1.
</event>
<event>
 5   0  0.6200596E+07  0.9118800E+02  0.7818608E-02  0.1180000E+00
       11   -1    0    0    0    0  0.00000000000E+00  0.00000000000E+00  0.39999999673E+01  0.40000000000E+01  0.51109989000E-03 0. -1.
     -623   -1    0    0    0    0  0.00000000000E+00  0.00000000000E+00  0.12525980253E-10  0.17130000000E+03  0.17130000000E+03 0.  1.
       11    1    1    2    0    0  0.33434080014E-02  0.57483505129E-02  0.63855051896E+00  0.63858534934E+00  0.51109989000E-03 0. -1.
     -623    1    1    2    0    0 -0.69930004403E-03  0.65606166943E-03  0.27994564228E-03  0.17130000000E+03  0.17130000000E+03 0.  1.
      622    1    1    2    0    0 -0.26441079574E-02 -0.64044121824E-02  0.33611695028E+01  0.33614146477E+01  0.40000000000E-01 0. -1.
</event>
<event>
 5   0  0.6200596E+07  0.9118800E+02  0.7818608E-02  0.1180000E+00
       11   -1    0    0    0    0  0.00000000000E+00  0.00000000000E+00  0.39999999673E+01  0.40000000000E+01  0.51109989000E-03 0. -1.
     -623   -1    0    0    0    0  0.00000000000E+00  0.00000000000E+00  0.12525980253E-10  0.17130000000E+03  0.17130000000E+03 0. -1.
       11    1    1    2    0    0  0.73596854911E-03  0.50325954724E-03  0.30408163888E-01  0.30425525012E-01  0.51109989000E-03 0. -1.
     -623    1    1    2    0    0 -0.61956727307E-03  0.84803048810E-03  0.21910161172E-03  0.17130000000E+03  0.17130000000E+03 0. -1.
      622    1    1    2    0    0 -0.11640127604E-03 -0.13512900353E-02  0.39693727019E+01  0.39695744716E+01  0.40000000000E-01 0. -1.
</event>
<event>
 5   0  0.6200596E+07  0.9118800E+02  0.7818608E-02  0.1180000E+00
       11   -1    0    0    0    0  0.00000000000E+00  0.00000000000E+00  0.39999999673E+01  0.40000000000E+01  0.51109989000E-03 0.  1.
     -623   -1    0    0    0    0  0.00000000000E+00  0.00000000000E+00  0.12525980253E-10  0.17130000000E+03  0.17130000000E+03 0. -1.
       11    1    1    2    0    0 -0.43235327973E-02 -0.35149778167E-02  0.32549468831E+00  0.32554277960E+00  0.51109989000E-03 0.  1.
     -623    1    1    2    0    0  0.74420497263E-02  0.10514162951E-01  0.27425883002E-03  0.17130000048E+03  0.17130000000E+03 0. -1.
      622    1    1    2    0    0 -0.31185169290E-02 -0.69991851340E-02  0.36742310202E+01  0.36744567359E+01  0.40000000000E-01 0.  1.
</event>
<event>
 5   0  0.6200596E+07  0.9118800E+02  0.7818608E-02  0.1180000E+00
       11   -1    0    0    0    0  0.00000000000E+00  0.00000000000E+00  0.39999999673E+01  0.40000000000E+01  0.51109989000E-03 0.  1.
     -623   -1    0    0    0    0  0.00000000000E+00  0.00000000000E+00  0.12525980253E-10  0.17130000000E+03  0.17130000000E+03 0.  1.
       11    1    1    2    0    0 -0.79973895451E-03 -0.42023916196E-02  0.10476787529E+00  0.10485641894E+00  0.51109989000E-03 0.  1.
     -623    1    1    2    0    0  0.13665413192E-03 -0.11531959176E-03  0.29635035642E-03  0.17130000000E+03  0.17130000000E+03 0.  1.
      622    1    1    2    0    0  0.66308482259E-03  0.43177112114E-02  0.38949357417E+01  0.38951435807E+01  0.40000000000E-01 0.  1.
</event>
<event>
 5   0  0.6200596E+07  0.9118800E+02  0.7818608E-02  0.1180000E+00
       11   -1    0    0    0    0  0.00000000000E+00  0.00000000000E+00  0.39999999673E+01  0.40000000000E+01  0.51109989000E-03 0.  1.
     -623   -1    0    0    0    0  0.00000000000E+00  0.00000000000E+00  0.12525980253E-10  0.17130000000E+03  0.17130000000E+03 0.  1.
       11    1    1    2    0    0  0.23529519506E-02 -0.10519137112E-01  0.27732421842E-01  0.29757974922E-01  0.51109989000E-03 0.  1.
     -623    1    1    2    0    0  0.56634124132E-02  0.80289211487E-02  0.22361953833E-02  0.17130000030E+03  0.17130000000E+03 0.  1.
      622    1    1    2    0    0 -0.80163643638E-02  0.24902159632E-02  0.39700313501E+01  0.39702417287E+01  0.40000000000E-01 0.  1.
</event>
<event>
 5   0  0.6200596E+07  0.9118800E+02  0.7818608E-02  0.1180000E+00
       11   -1    0    0    0    0  0.00000000000E+00  0.00000000000E+00  0.39999999673E+01  0.40000000000E+01  0.51109989000E-03 0.  1.
     -623   -1    0    0    0    0  0.00000000000E+00  0.00000000000E+00  0.12525980253E-10  0.17130000000E+03  0.17130000000E+03 0. -1.
       11    1    1    2    0    0 -0.11221985362E-01 -0.31964229181E-02  0.49043643635E+00  0.49057548797E+00  0.51109989000E-03 0.  1.
     -623    1    1    2    0    0  0.64816270964E-04  0.15503333181E-03  0.38603912586E-03  0.17130000000E+03  0.17130000000E+03 0. -1.
      622    1    1    2    0    0  0.11157169091E-01  0.30413895863E-02  0.35091774919E+01  0.35094245115E+01  0.40000000000E-01 0.  0.
</event>
<event>
 5   0  0.6200596E+07  0.9118800E+02  0.7818608E-02  0.1180000E+00
       11   -1    0    0    0    0  0.00000000000E+00  0.00000000000E+00  0.39999999673E+01  0.40000000000E+01  0.51109989000E-03 0.  1.
     -623   -1    0    0    0    0  0.00000000000E+00  0.00000000000E+00  0.12525980253E-10  0.17130000000E+03  0.17130000000E+03 0.  1.
       11    1    1    2    0    0 -0.13351338621E-01 -0.10665155789E-02  0.17198193096E+00  0.17250345358E+00  0.51109989000E-03 0.  1.
     -623    1    1    2    0    0 -0.31662936301E-02 -0.72429231892E-03  0.76660426017E-03  0.17130000003E+03  0.17130000000E+03 0.  1.
      622    1    1    2    0    0  0.16517632251E-01  0.17908078978E-02  0.38272514321E+01  0.38274965139E+01  0.40000000000E-01 0.  1.
</event>
<event>
 5   0  0.6200596E+07  0.9118800E+02  0.7818608E-02  0.1180000E+00
       11   -1    0    0    0    0  0.00000000000E+00  0.00000000000E+00  0.39999999673E+01  0.40000000000E+01  0.51109989000E-03 0.  1.
     -623   -1    0    0    0    0  0.00000000000E+00  0.00000000000E+00  0.12525980253E-10  0.17130000000E+03  0.17130000000E+03 0.  1.
       11    1    1    2    0    0  0.13265067997E-02  0.36771306379E-02  0.45582925775E-01  0.45753090110E-01  0.51109989000E-03 0.  1.
     -623    1    1    2    0    0  0.89706850606E-03 -0.19252244180E-03  0.37461453402E-03  0.17130000000E+03  0.17130000000E+03 0.  1.
      622    1    1    2    0    0 -0.22235753058E-02 -0.34846081961E-02  0.39540424271E+01  0.39542469070E+01  0.40000000000E-01 0.  1.
</event>
<event>
 5   0  0.6200596E+07  0.9118800E+02  0.7818608E-02  0.1180000E+00
       11   -1    0    0    0    0  0.00000000000E+00  0.00000000000E+00  0.39999999673E+01  0.40000000000E+01  0.51109989000E-03 0. -1.
     -623   -1    0    0    0    0  0.00000000000E+00  0.00000000000E+00  0.12525980253E-10  0.17130000000E+03  0.17130000000E+03 0. -1.
       11    1    1    2    0    0  0.10871679149E-01  0.93001456237E-02  0.53862368716E+00  0.53881390452E+00  0.51109989000E-03 0. -1.
     -623    1    1    2    0    0  0.11648668042E-02 -0.18831213081E-02  0.45022007119E-03  0.17130000001E+03  0.17130000000E+03 0. -1.
      622    1    1    2    0    0 -0.12036545953E-01 -0.74170243156E-02  0.34609260601E+01  0.34611860806E+01  0.40000000000E-01 0. -1.
</event>
<event>
 5   0  0.6200596E+07  0.9118800E+02  0.7818608E-02  0.1180000E+00
       11   -1    0    0    0    0  0.00000000000E+00  0.00000000000E+00  0.39999999673E+01  0.40000000000E+01  0.51109989000E-03 0.  1.
     -623   -1    0    0    0    0  0.00000000000E+00  0.00000000000E+00  0.12525980253E-10  0.17130000000E+03  0.17130000000E+03 0. -1.
       11    1    1    2    0    0  0.19274398791E-02  0.23165640831E-02  0.20129165431E-01  0.20359912010E-01  0.51109989000E-03 0.  1.
     -623    1    1    2    0    0  0.58193527707E-03 -0.60102718134E-04  0.43317469458E-03  0.17130000000E+03  0.17130000000E+03 0. -1.
      622    1    1    2    0    0 -0.25093751561E-02 -0.22564613650E-02  0.39794376272E+01  0.39796400864E+01  0.40000000000E-01 0.  1.
</event>
<event>
 5   0  0.6200596E+07  0.9118800E+02  0.7818608E-02  0.1180000E+00
       11   -1    0    0    0    0  0.00000000000E+00  0.00000000000E+00  0.39999999673E+01  0.40000000000E+01  0.51109989000E-03 0. -1.
     -623   -1    0    0    0    0  0.00000000000E+00  0.00000000000E+00  0.12525980253E-10  0.17130000000E+03  0.17130000000E+03 0.  1.
       11    1    1    2    0    0  0.13084369383E-01 -0.15425949199E-01  0.22404392042E+00  0.22495577372E+00  0.51109989000E-03 0. -1.
     -623    1    1    2    0    0 -0.15388415204E-01  0.22540643370E-01  0.11333306907E-02  0.17130000218E+03  0.17130000000E+03 0.  1.
      622    1    1    2    0    0  0.23040458206E-02 -0.71146941706E-02  0.37748227163E+01  0.37750420483E+01  0.40000000000E-01 0. -1.
</event>
<event>
 5   0  0.6200596E+07  0.9118800E+02  0.7818608E-02  0.1180000E+00
       11   -1    0    0    0    0  0.00000000000E+00  0.00000000000E+00  0.39999999673E+01  0.40000000000E+01  0.51109989000E-03 0. -1.
     -623   -1    0    0    0    0  0.00000000000E+00  0.00000000000E+00  0.12525980253E-10  0.17130000000E+03  0.17130000000E+03 0.  1.
       11    1    1    2    0    0  0.28725875364E-02  0.15706684488E-01  0.11237996084E+00  0.11350977278E+00  0.51109989000E-03 0. -1.
     -623    1    1    2    0    0  0.10209565704E-01 -0.98826606392E-02  0.13626036524E-02  0.17130000059E+03  0.17130000000E+03 0.  1.
      622    1    1    2    0    0 -0.13082153240E-01 -0.58240238484E-02  0.38862574029E+01  0.38864896325E+01  0.40000000000E-01 0. -1.
</event>
<event>
 5   0  0.6200596E+07  0.9118800E+02  0.7818608E-02  0.1180000E+00
       11   -1    0    0    0    0  0.00000000000E+00  0.00000000000E+00  0.39999999673E+01  0.40000000000E+01  0.51109989000E-03 0.  1.
     -623   -1    0    0    0    0  0.00000000000E+00  0.00000000000E+00  0.12525980253E-10  0.17130000000E+03  0.17130000000E+03 0. -1.
       11    1    1    2    0    0 -0.23508410067E-02  0.13770033118E-02  0.16536324705E+00  0.16538647856E+00  0.51109989000E-03 0.  1.
     -623    1    1    2    0    0  0.22579790716E-03  0.83722161069E-04  0.23269793408E-03  0.17130000000E+03  0.17130000000E+03 0. -1.
      622    1    1    2    0    0  0.21250430995E-02 -0.14607254729E-02  0.38344040224E+01  0.38346135211E+01  0.40000000000E-01 0.  1.
</event>
<event>
 5   0  0.6200596E+07  0.9118800E+02  0.7818608E-02  0.1180000E+00
       11   -1    0    0    0    0  0.00000000000E+00  0.00000000000E+00  0.39999999673E+01  0.40000000000E+01  0.51109989000E-03 0.  1.
     -623   -1    0    0    0    0  0.00000000000E+00  0.00000000000E+00  0.12525980253E-10  0.17130000000E+03  0.17130000000E+03 0. -1.
       11    1    1    2    0    0 -0.61675700845E-02  0.93871088447E-02  0.34739193374E+01  0.34739375326E+01  0.51109989000E-03 0.  1.
     -623    1    1    2    0    0  0.82235942998E-02 -0.30167647606E-02  0.15840449351E-02  0.17130000023E+03  0.17130000000E+03 0. -1.
      622    1    1    2    0    0 -0.20560242154E-02 -0.63703440841E-02  0.52449658507E+00  0.52606223612E+00  0.40000000000E-01 0. -1.
</event>
<event>
 5   0  0.6200596E+07  0.9118800E+02  0.7818608E-02  0.1180000E+00
       11   -1    0    0    0    0  0.00000000000E+00  0.00000000000E+00  0.39999999673E+01  0.40000000000E+01  0.51109989000E-03 0. -1.
     -623   -1    0    0    0    0  0.00000000000E+00  0.00000000000E+00  0.12525980253E-10  0.17130000000E+03  0.17130000000E+03 0.  1.
       11    1    1    2    0    0 -0.58514124872E-02  0.29627977619E-02  0.86341350975E+00  0.86343857178E+00  0.51109989000E-03 0. -1.
     -623    1    1    2    0    0 -0.84284190552E-03  0.17036587563E-02  0.29072276068E-03  0.17130000001E+03  0.17130000000E+03 0.  1.
      622    1    1    2    0    0  0.66942543927E-02 -0.46664565182E-02  0.31362957349E+01  0.31365614174E+01  0.40000000000E-01 0.  1.
</event>
<event>
 5   0  0.6200596E+07  0.9118800E+02  0.7818608E-02  0.1180000E+00
       11   -1    0    0    0    0  0.00000000000E+00  0.00000000000E+00  0.39999999673E+01  0.40000000000E+01  0.51109989000E-03 0. -1.
     -623   -1    0    0    0    0  0.00000000000E+00  0.00000000000E+00  0.12525980253E-10  0.17130000000E+03  0.17130000000E+03 0.  1.
       11    1    1    2    0    0 -0.31702717396E-02 -0.13849902447E-02  0.11233720738E-01  0.11765480195E-01  0.51109989000E-03 0. -1.
     -623    1    1    2    0    0  0.57546455328E-02 -0.31669034854E-02  0.73588451110E-03  0.17130000013E+03  0.17130000000E+03 0.  1.
      622    1    1    2    0    0 -0.25843737932E-02  0.45518937300E-02  0.39880303621E+01  0.39882343923E+01  0.40000000000E-01 0. -1.
</event>
<event>
 5   0  0.6200596E+07  0.9118800E+02  0.7818608E-02  0.1180000E+00
       11   -1    0    0    0    0  0.00000000000E+00  0.00000000000E+00  0.39999999673E+01  0.40000000000E+01  0.51109989000E-03 0. -1.
     -623   -1    0    0    0    0  0.00000000000E+00  0.00000000000E+00  0.12525980253E-10  0.17130000000E+03  0.17130000000E+03 0.  1.
       11    1    1    2    0    0  0.16866836659E-01  0.29270620277E-02  0.43592907901E+00  0.43626537912E+00  0.51109989000E-03 0. -1.
     -623    1    1    2    0    0  0.13513810227E-02 -0.12589573826E-02  0.60772965454E-03  0.17130000001E+03  0.17130000000E+03 0.  1.
      622    1    1    2    0    0 -0.18218217681E-01 -0.16681046451E-02  0.35634631587E+01  0.35637346098E+01  0.40000000000E-01 0. -1.
</event>
<event>
 5   0  0.6200596E+07  0.9118800E+02  0.7818608E-02  0.1180000E+00
       11   -1    0    0    0    0  0.00000000000E+00  0.00000000000E+00  0.39999999673E+01  0.40000000000E+01  0.51109989000E-03 0.  1.
     -623   -1    0    0    0    0  0.00000000000E+00  0.00000000000E+00  0.12525980253E-10  0.17130000000E+03  0.17130000000E+03 0. -1.
       11    1    1    2    0    0  0.39719683612E-01  0.17472215220E-02  0.36305588778E+01  0.36307766019E+01  0.51109989000E-03 0.  1.
     -623    1    1    2    0    0  0.13065320746E-01 -0.28473852593E-05  0.62109047714E-02  0.17130000061E+03  0.17130000000E+03 0. -1.
      622    1    1    2    0    0 -0.52785004358E-01 -0.17443741367E-02  0.36323018477E+00  0.36922278729E+00  0.40000000000E-01 0.  1.
</event>
<event>
 5   0  0.6200596E+07  0.9118800E+02  0.7818608E-02  0.1180000E+00
       11   -1    0    0    0    0  0.00000000000E+00  0.00000000000E+00  0.39999999673E+01  0.40000000000E+01  0.51109989000E-03 0.  1.
     -623   -1    0    0    0    0  0.00000000000E+00  0.00000000000E+00  0.12525980253E-10  0.17130000000E+03  0.17130000000E+03 0. -1.
       11    1    1    2    0    0 -0.81592538345E-02 -0.27754820631E-02  0.26769195373E+00  0.26783114090E+00  0.51109989000E-03 0.  1.
     -623    1    1    2    0    0  0.39375756602E-03 -0.42867387017E-03  0.36296941801E-03  0.17130000000E+03  0.17130000000E+03 0. -1.
      622    1    1    2    0    0  0.77654962685E-02  0.32041559333E-02  0.37319450442E+01  0.37321688577E+01  0.40000000000E-01 0.  1.
</event>
<event>
 5   0  0.6200596E+07  0.9118800E+02  0.7818608E-02  0.1180000E+00
       11   -1    0    0    0    0  0.00000000000E+00  0.00000000000E+00  0.39999999673E+01  0.40000000000E+01  0.51109989000E-03 0.  1.
     -623   -1    0    0    0    0  0.00000000000E+00  0.00000000000E+00  0.12525980253E-10  0.17130000000E+03  0.17130000000E+03 0. -1.
       11    1    1    2    0    0 -0.38322132874E-01  0.99437317469E-01  0.31536597726E+01  0.31554598062E+01  0.51109989000E-03 0.  1.
     -623    1    1    2    0    0  0.45819152253E-01 -0.67671763008E-01  0.33989758006E-02  0.17130001953E+03  0.17130000000E+03 0. -1.
      622    1    1    2    0    0 -0.74970193786E-02 -0.31765554461E-01  0.84294121892E+00  0.84452066541E+00  0.40000000000E-01 0. -1.
</event>
<event>
 5   0  0.6200596E+07  0.9118800E+02  0.7818608E-02  0.1180000E+00
       11   -1    0    0    0    0  0.00000000000E+00  0.00000000000E+00  0.39999999673E+01  0.40000000000E+01  0.51109989000E-03 0. -1.
     -623   -1    0    0    0    0  0.00000000000E+00  0.00000000000E+00  0.12525980253E-10  0.17130000000E+03  0.17130000000E+03 0. -1.
       11    1    1    2    0    0 -0.52108699534E-02 -0.31596275686E-02  0.82991332795E-01  0.83216338255E-01  0.51109989000E-03 0. -1.
     -623    1    1    2    0    0  0.34830452601E-02 -0.17160084517E-02  0.43268780872E-03  0.17130000004E+03  0.17130000000E+03 0. -1.
      622    1    1    2    0    0  0.17278246933E-02  0.48756360203E-02  0.39165759468E+01  0.39167836172E+01  0.40000000000E-01 0. -1.
</event>
<event>
 5   0  0.6200596E+07  0.9118800E+02  0.7818608E-02  0.1180000E+00
       11   -1    0    0    0    0  0.00000000000E+00  0.00000000000E+00  0.39999999673E+01  0.40000000000E+01  0.51109989000E-03 0.  1.
     -623   -1    0    0    0    0  0.00000000000E+00  0.00000000000E+00  0.12525980253E-10  0.17130000000E+03  0.17130000000E+03 0. -1.
       11    1    1    2    0    0  0.51326696057E-01  0.15292078699E-02  0.57596067391E+00  0.57824538676E+00  0.51109989000E-03 0.  1.
     -623    1    1    2    0    0 -0.11618892609E-02 -0.65080735465E-02  0.28900280148E-02  0.17130000015E+03  0.17130000000E+03 0. -1.
      622    1    1    2    0    0 -0.50164806796E-01  0.49788656766E-02  0.34211492654E+01  0.34217544613E+01  0.40000000000E-01 0.  1.
</event>
<event>
 5   0  0.6200596E+07  0.9118800E+02  0.7818608E-02  0.1180000E+00
       11   -1    0    0    0    0  0.00000000000E+00  0.00000000000E+00  0.39999999673E+01  0.40000000000E+01  0.51109989000E-03 0. -1.
     -623   -1    0    0    0    0  0.00000000000E+00  0.00000000000E+00  0.12525980253E-10  0.17130000000E+03  0.17130000000E+03 0. -1.
       11    1    1    2    0    0  0.83777610917E-02  0.39444926326E-02  0.14354663301E+01  0.14354962876E+01  0.51109989000E-03 0. -1.
     -623    1    1    2    0    0 -0.49708079900E-03 -0.37408606948E-02  0.35405525330E-03  0.17130000004E+03  0.17130000000E+03 0. -1.
      622    1    1    2    0    0 -0.78806802927E-02 -0.20363193777E-03  0.25641795820E+01  0.25645036704E+01  0.40000000000E-01 0. -1.
</event>
<event>
 5   0  0.6200596E+07  0.9118800E+02  0.7818608E-02  0.1180000E+00
       11   -1    0    0    0    0  0.00000000000E+00  0.00000000000E+00  0.39999999673E+01  0.40000000000E+01  0.51109989000E-03 0. -1.
     -623   -1    0    0    0    0  0.00000000000E+00  0.00000000000E+00  0.12525980253E-10  0.17130000000E+03  0.17130000000E+03 0. -1.
       11    1    1    2    0    0  0.13703002839E-03  0.10873697600E-03  0.26421208094E-01  0.26426730015E-01  0.51109989000E-03 0. -1.
     -623    1    1    2    0    0  0.12830722384E-03  0.55744131623E-03  0.20689029109E-03  0.17130000000E+03  0.17130000000E+03 0. -1.
      622    1    1    2    0    0 -0.26533725223E-03 -0.66617829223E-03  0.39733718690E+01  0.39735732689E+01  0.40000000000E-01 0. -1.
</event>
<event>
 5   0  0.6200596E+07  0.9118800E+02  0.7818608E-02  0.1180000E+00
       11   -1    0    0    0    0  0.00000000000E+00  0.00000000000E+00  0.39999999673E+01  0.40000000000E+01  0.51109989000E-03 0.  1.
     -623   -1    0    0    0    0  0.00000000000E+00  0.00000000000E+00  0.12525980253E-10  0.17130000000E+03  0.17130000000E+03 0. -1.
       11    1    1    2    0    0 -0.13199534833E-01 -0.10604356880E-01  0.28481758723E+00  0.28532087081E+00  0.51109989000E-03 0.  1.
     -623    1    1    2    0    0 -0.58180184089E-03  0.16535553778E-02  0.75497987804E-03  0.17130000001E+03  0.17130000000E+03 0. -1.
      622    1    1    2    0    0  0.13781336674E-01  0.89508015020E-02  0.37144274003E+01  0.37146791186E+01  0.40000000000E-01 0.  1.
</event>
<event>
 5   0  0.6200596E+07  0.9118800E+02  0.7818608E-02  0.1180000E+00
       11   -1    0    0    0    0  0.00000000000E+00  0.00000000000E+00  0.39999999673E+01  0.40000000000E+01  0.51109989000E-03 0. -1.
     -623   -1    0    0    0    0  0.00000000000E+00  0.00000000000E+00  0.12525980253E-10  0.17130000000E+03  0.17130000000E+03 0. -1.
       11    1    1    2    0    0  0.33688291167E-01 -0.24968125805E-01  0.24238194707E+00  0.24598288102E+00  0.51109989000E-03 0. -1.
     -623    1    1    2    0    0 -0.24425593777E-01  0.21193393211E-01  0.38304338674E-02  0.17130000310E+03  0.17130000000E+03 0. -1.
      622    1    1    2    0    0 -0.92626973899E-02  0.37747325943E-02  0.37537875864E+01  0.37540140237E+01  0.40000000000E-01 0. -1.
</event>
<event>
 5   0  0.6200596E+07  0.9118800E+02  0.7818608E-02  0.1180000E+00
       11   -1    0    0    0    0  0.00000000000E+00  0.00000000000E+00  0.39999999673E+01  0.40000000000E+01  0.51109989000E-03 0. -1.
     -623   -1    0    0    0    0  0.00000000000E+00  0.00000000000E+00  0.12525980253E-10  0.17130000000E+03  0.17130000000E+03 0.  1.
       11    1    1    2    0    0 -0.31463472677E-03 -0.54466745779E-03  0.16552665454E-01  0.16572495649E-01  0.51109989000E-03 0. -1.
     -623    1    1    2    0    0 -0.16806837762E-03  0.18759836051E-02  0.22089691856E-03  0.17130000001E+03  0.17130000000E+03 0.  1.
      622    1    1    2    0    0  0.48270310440E-03 -0.13313161473E-02  0.39832264050E+01  0.39834274939E+01  0.40000000000E-01 0. -1.
</event>
<event>
 5   0  0.6200596E+07  0.9118800E+02  0.7818608E-02  0.1180000E+00
       11   -1    0    0    0    0  0.00000000000E+00  0.00000000000E+00  0.39999999673E+01  0.40000000000E+01  0.51109989000E-03 0. -1.
     -623   -1    0    0    0    0  0.00000000000E+00  0.00000000000E+00  0.12525980253E-10  0.17130000000E+03  0.17130000000E+03 0. -1.
       11    1    1    2    0    0  0.32337276261E-03 -0.81243647680E-02  0.53251054671E-01  0.53870640589E-01  0.51109989000E-03 0. -1.
     -623    1    1    2    0    0 -0.58124231651E-02  0.40564613754E-02  0.82835208976E-03  0.17130000015E+03  0.17130000000E+03 0. -1.
      622    1    1    2    0    0  0.54890504024E-02  0.40679033926E-02  0.39459205606E+01  0.39461292108E+01  0.40000000000E-01 0. -1.
</event>
<event>
 5   0  0.6200596E+07  0.9118800E+02  0.7818608E-02  0.1180000E+00
       11   -1    0    0    0    0  0.00000000000E+00  0.00000000000E+00  0.39999999673E+01  0.40000000000E+01  0.51109989000E-03 0.  1.
     -623   -1    0    0    0    0  0.00000000000E+00  0.00000000000E+00  0.12525980253E-10  0.17130000000E+03  0.17130000000E+03 0.  1.
       11    1    1    2    0    0 -0.11085865590E-01 -0.16751845829E-01  0.15590136041E+01  0.15591430979E+01  0.51109989000E-03 0.  1.
     -623    1    1    2    0    0  0.43953752025E-03  0.18940613380E-02  0.52569759923E-03  0.17130000001E+03  0.17130000000E+03 0.  1.
      622    1    1    2    0    0  0.10646328069E-01  0.14857784491E-01  0.24404606657E+01  0.24408568903E+01  0.40000000000E-01 0.  0.
</event>
<event>
 5   0  0.6200596E+07  0.9118800E+02  0.7818608E-02  0.1180000E+00
       11   -1    0    0    0    0  0.00000000000E+00  0.00000000000E+00  0.39999999673E+01  0.40000000000E+01  0.51109989000E-03 0. -1.
     -623   -1    0    0    0    0  0.00000000000E+00  0.00000000000E+00  0.12525980253E-10  0.17130000000E+03  0.17130000000E+03 0.  1.
       11    1    1    2    0    0  0.28052665223E-02 -0.66458225850E-02  0.23168396423E+00  0.23179680106E+00  0.51109989000E-03 0. -1.
     -623    1    1    2    0    0  0.71378392881E-03  0.11001972393E-02  0.33084251917E-03  0.17130000001E+03  0.17130000000E+03 0.  1.
      622    1    1    2    0    0 -0.35190504512E-02  0.55456253457E-02  0.37679851606E+01  0.37682031936E+01  0.40000000000E-01 0. -1.
</event>
<event>
 5   0  0.6200596E+07  0.9118800E+02  0.7818608E-02  0.1180000E+00
       11   -1    0    0    0    0  0.00000000000E+00  0.00000000000E+00  0.39999999673E+01  0.40000000000E+01  0.51109989000E-03 0.  1.
     -623   -1    0    0    0    0  0.00000000000E+00  0.00000000000E+00  0.12525980253E-10  0.17130000000E+03  0.17130000000E+03 0. -1.
       11    1    1    2    0    0 -0.95692977183E-02  0.40339471224E-01  0.11087555908E+01  0.11095305610E+01  0.51109989000E-03 0.  1.
     -623    1    1    2    0    0  0.51073095612E-02 -0.52387400996E-02  0.12684810104E-02  0.17130000016E+03  0.17130000000E+03 0. -1.
      622    1    1    2    0    0  0.44619881571E-02 -0.35100731125E-01  0.28899758955E+01  0.28904692780E+01  0.40000000000E-01 0.  1.
</event>
<event>
 5   0  0.6200596E+07  0.9118800E+02  0.7818608E-02  0.1180000E+00
       11   -1    0    0    0    0  0.00000000000E+00  0.00000000000E+00  0.39999999673E+01  0.40000000000E+01  0.51109989000E-03 0. -1.
     -623   -1    0    0    0    0  0.00000000000E+00  0.00000000000E+00  0.12525980253E-10  0.17130000000E+03  0.17130000000E+03 0. -1.
       11    1    1    2    0    0 -0.53124870691E-05  0.10044728063E-02  0.45976140502E-02  0.47337375810E-02  0.51109989000E-03 0. -1.
     -623    1    1    2    0    0  0.86026965632E-03 -0.63575836279E-03  0.33644504326E-03  0.17130000000E+03  0.17130000000E+03 0. -1.
      622    1    1    2    0    0 -0.85495716926E-03 -0.36871444350E-03  0.39950659083E+01  0.39952662587E+01  0.40000000000E-01 0. -1.
</event>
<event>
 5   0  0.6200596E+07  0.9118800E+02  0.7818608E-02  0.1180000E+00
       11   -1    0    0    0    0  0.00000000000E+00  0.00000000000E+00  0.39999999673E+01  0.40000000000E+01  0.51109989000E-03 0.  1.
     -623   -1    0    0    0    0  0.00000000000E+00  0.00000000000E+00  0.12525980253E-10  0.17130000000E+03  0.17130000000E+03 0.  1.
       11    1    1    2    0    0 -0.25684094777E-02 -0.20962373736E-02  0.22287086161E-01  0.22538109279E-01  0.51109989000E-03 0.  1.
     -623    1    1    2    0    0 -0.54522306622E-03  0.67082752944E-03  0.45360583052E-03  0.17130000000E+03  0.17130000000E+03 0.  1.
      622    1    1    2    0    0  0.31136325439E-02  0.14254098442E-02  0.39772592754E+01  0.39774618879E+01  0.40000000000E-01 0.  1.
</event>
<event>
 5   0  0.6200596E+07  0.9118800E+02  0.7818608E-02  0.1180000E+00
       11   -1    0    0    0    0  0.00000000000E+00  0.00000000000E+00  0.39999999673E+01  0.40000000000E+01  0.51109989000E-03 0. -1.
     -623   -1    0    0    0    0  0.00000000000E+00  0.00000000000E+00  0.12525980253E-10  0.17130000000E+03  0.17130000000E+03 0. -1.
       11    1    1    2    0    0 -0.26848238127E-01  0.70089178205E-03  0.59808924197E+00  0.59869217610E+00  0.51109989000E-03 0. -1.
     -623    1    1    2    0    0  0.52008898837E-01  0.22803805418E-01  0.10218226570E-02  0.17130000942E+03  0.17130000000E+03 0. -1.
      622    1    1    2    0    0 -0.25160660710E-01 -0.23504697200E-01  0.34008889027E+01  0.34012984077E+01  0.40000000000E-01 0. -1.
</event>
<event>
 5   0  0.6200596E+07  0.9118800E+02  0.7818608E-02  0.1180000E+00
       11   -1    0    0    0    0  0.00000000000E+00  0.00000000000E+00  0.39999999673E+01  0.40000000000E+01  0.51109989000E-03 0.  1.
     -623   -1    0    0    0    0  0.00000000000E+00  0.00000000000E+00  0.12525980253E-10  0.17130000000E+03  0.17130000000E+03 0. -1.
       11    1    1    2    0    0  0.85543514730E-02 -0.66650639877E-02  0.65959045853E+00  0.65967979673E+00  0.51109989000E-03 0.  1.
     -623    1    1    2    0    0 -0.12751626469E-02  0.16883662529E-02  0.34046512487E-03  0.17130000001E+03  0.17130000000E+03 0. -1.
      622    1    1    2    0    0 -0.72791888261E-02  0.49766977348E-02  0.33400690437E+01  0.33403201899E+01  0.40000000000E-01 0.  1.
</event>
<event>
 5   0  0.6200596E+07  0.9118800E+02  0.7818608E-02  0.1180000E+00
       11   -1    0    0    0    0  0.00000000000E+00  0.00000000000E+00  0.39999999673E+01  0.40000000000E+01  0.51109989000E-03 0. -1.
     -623   -1    0    0    0    0  0.00000000000E+00  0.00000000000E+00  0.12525980253E-10  0.17130000000E+03  0.17130000000E+03 0. -1.
       11    1    1    2    0    0 -0.39201759808E-03 -0.22591052671E-02  0.17929478681E+00  0.17931017549E+00  0.51109989000E-03 0. -1.
     -623    1    1    2    0    0 -0.51772630418E-03 -0.24547639147E-03  0.22567843083E-03  0.17130000000E+03  0.17130000000E+03 0. -1.
      622    1    1    2    0    0  0.90974390226E-03  0.25045816585E-02  0.38204795021E+01  0.38206898234E+01  0.40000000000E-01 0.  0.
</event>
<event>
 5   0  0.6200596E+07  0.9118800E+02  0.7818608E-02  0.1180000E+00
       11   -1    0    0    0    0  0.00000000000E+00  0.00000000000E+00  0.39999999673E+01  0.40000000000E+01  0.51109989000E-03 0.  1.
     -623   -1    0    0    0    0  0.00000000000E+00  0.00000000000E+00  0.12525980253E-10  0.17130000000E+03  0.17130000000E+03 0. -1.
       11    1    1    2    0    0  0.10642716268E-01  0.52753436305E-02  0.21321115673E+00  0.21354239681E+00  0.51109989000E-03 0.  1.
     -623    1    1    2    0    0  0.78977308808E-02 -0.66686171335E-02  0.58845644914E-03  0.17130000031E+03  0.17130000000E+03 0. -1.
      622    1    1    2    0    0 -0.18540447149E-01  0.13932735030E-02  0.37862003542E+01  0.37864572903E+01  0.40000000000E-01 0.  1.
</event>
<event>
 5   0  0.6200596E+07  0.9118800E+02  0.7818608E-02  0.1180000E+00
       11   -1    0    0    0    0  0.00000000000E+00  0.00000000000E+00  0.39999999673E+01  0.40000000000E+01  0.51109989000E-03 0.  1.
     -623   -1    0    0    0    0  0.00000000000E+00  0.00000000000E+00  0.12525980253E-10  0.17130000000E+03  0.17130000000E+03 0.  1.
       11    1    1    2    0    0 -0.27649137103E-02 -0.40261121461E-02  0.11333727107E+01  0.11333833495E+01  0.51109989000E-03 0.  1.
     -623    1    1    2    0    0 -0.13536867970E-02 -0.14370835202E-02  0.29787138713E-03  0.17130000001E+03  0.17130000000E+03 0.  1.
      622    1    1    2    0    0  0.41186005073E-02  0.54631956663E-02  0.28663293853E+01  0.28666166389E+01  0.40000000000E-01 0.  1.
</event>
<event>
 5   0  0.6200596E+07  0.9118800E+02  0.7818608E-02  0.1180000E+00
       11   -1    0    0    0    0  0.00000000000E+00  0.00000000000E+00  0.39999999673E+01  0.40000000000E+01  0.51109989000E-03 0. -1.
     -623   -1    0    0    0    0  0.00000000000E+00  0.00000000000E+00  0.12525980253E-10  0.17130000000E+03  0.17130000000E+03 0.  1.
       11    1    1    2    0    0  0.23857515425E-02 -0.47804141679E-02  0.39133638242E+00  0.39137318457E+00  0.51109989000E-03 0. -1.
     -623    1    1    2    0    0 -0.28841793572E-03 -0.25694085096E-04  0.26227793820E-03  0.17130000000E+03  0.17130000000E+03 0.  1.
      622    1    1    2    0    0 -0.20973336068E-02  0.48061082530E-02  0.36084013070E+01  0.36086268150E+01  0.40000000000E-01 0. -1.
</event>
<event>
 5   0  0.6200596E+07  0.9118800E+02  0.7818608E-02  0.1180000E+00
       11   -1    0    0    0    0  0.00000000000E+00  0.00000000000E+00  0.39999999673E+01  0.40000000000E+01  0.51109989000E-03 0.  1.
     -623   -1    0    0    0    0  0.00000000000E+00  0.00000000000E+00  0.12525980253E-10  0.17130000000E+03  0.17130000000E+03 0.  1.
       11    1    1    2    0    0 -0.34850865845E-03 -0.12255263091E-02  0.33060619719E+00  0.33060904738E+00  0.51109989000E-03 0.  1.
     -623    1    1    2    0    0 -0.25524038185E-03 -0.13876002253E-02  0.22183000625E-03  0.17130000001E+03  0.17130000000E+03 0.  1.
      622    1    1    2    0    0  0.60374904031E-03  0.26131265344E-02  0.36691719402E+01  0.36693909467E+01  0.40000000000E-01 0.  1.
</event>
<event>
 5   0  0.6200596E+07  0.9118800E+02  0.7818608E-02  0.1180000E+00
       11   -1    0    0    0    0  0.00000000000E+00  0.00000000000E+00  0.39999999673E+01  0.40000000000E+01  0.51109989000E-03 0. -1.
     -623   -1    0    0    0    0  0.00000000000E+00  0.00000000000E+00  0.12525980253E-10  0.17130000000E+03  0.17130000000E+03 0. -1.
       11    1    1    2    0    0 -0.46756012411E-02 -0.15449070975E-02  0.22249250628E-01  0.22793384116E-01  0.51109989000E-03 0. -1.
     -623    1    1    2    0    0  0.31556638925E-02  0.36728370029E-02  0.74618193407E-03  0.17130000007E+03  0.17130000000E+03 0. -1.
      622    1    1    2    0    0  0.15199373487E-02 -0.21279299054E-02  0.39770045348E+01  0.39772065458E+01  0.40000000000E-01 0. -1.
</event>
<event>
 5   0  0.6200596E+07  0.9118800E+02  0.7818608E-02  0.1180000E+00
       11   -1    0    0    0    0  0.00000000000E+00  0.00000000000E+00  0.39999999673E+01  0.40000000000E+01  0.51109989000E-03 0.  1.
     -623   -1    0    0    0    0  0.00000000000E+00  0.00000000000E+00  0.12525980253E-10  0.17130000000E+03  0.17130000000E+03 0. -1.
       11    1    1    2    0    0  0.11510298812E-01 -0.14878898716E-01  0.64106038823E-01  0.66811032324E-01  0.51109989000E-03 0.  1.
     -623    1    1    2    0    0 -0.67081178506E-02  0.17817308404E-01  0.29134756123E-02  0.17130000108E+03  0.17130000000E+03 0. -1.
      622    1    1    2    0    0 -0.48021809611E-02 -0.29384096881E-02  0.39329804529E+01  0.39331878849E+01  0.40000000000E-01 0.  1.
</event>
<event>
 5   0  0.6200596E+07  0.9118800E+02  0.7818608E-02  0.1180000E+00
       11   -1    0    0    0    0  0.00000000000E+00  0.00000000000E+00  0.39999999673E+01  0.40000000000E+01  0.51109989000E-03 0.  1.
     -623   -1    0    0    0    0  0.00000000000E+00  0.00000000000E+00  0.12525980253E-10  0.17130000000E+03  0.17130000000E+03 0.  1.
       11    1    1    2    0    0  0.90898560642E-04 -0.61689074340E-01  0.19038933781E+01  0.19048925971E+01  0.51109989000E-03 0.  1.
     -623    1    1    2    0    0 -0.16502426934E-02 -0.77551267446E-02  0.25332674897E-02  0.17130000020E+03  0.17130000000E+03 0.  1.
      622    1    1    2    0    0  0.15593441327E-02  0.69444201085E-01  0.20935733218E+01  0.20951072007E+01  0.40000000000E-01 0. -1.
</event>
<event>
 5   0  0.6200596E+07  0.9118800E+02  0.7818608E-02  0.1180000E+00
       11   -1    0    0    0    0  0.00000000000E+00  0.00000000000E+00  0.39999999673E+01  0.40000000000E+01  0.51109989000E-03 0.  1.
     -623   -1    0    0    0    0  0.00000000000E+00  0.00000000000E+00  0.12525980253E-10  0.17130000000E+03  0.17130000000E+03 0.  1.
       11    1    1    2    0    0 -0.76654987657E-03  0.59091614349E-03  0.24485205506E-01  0.24509657096E-01  0.51109989000E-03 0.  1.
     -623    1    1    2    0    0 -0.13106064519E-02 -0.58186729092E-03  0.22620591841E-03  0.17130000001E+03  0.17130000000E+03 0.  1.
      622    1    1    2    0    0  0.20771563285E-02 -0.90488525717E-05  0.39752885559E+01  0.39754903368E+01  0.40000000000E-01 0.  1.
</event>
<event>
 5   0  0.6200596E+07  0.9118800E+02  0.7818608E-02  0.1180000E+00
       11   -1    0    0    0    0  0.00000000000E+00  0.00000000000E+00  0.39999999673E+01  0.40000000000E+01  0.51109989000E-03 0. -1.
     -623   -1    0    0    0    0  0.00000000000E+00  0.00000000000E+00  0.12525980253E-10  0.17130000000E+03  0.17130000000E+03 0. -1.
       11    1    1    2    0    0  0.72254969191E-02  0.47672125511E-02  0.57645285785E+00  0.57651807662E+00  0.51109989000E-03 0. -1.
     -623    1    1    2    0    0  0.48269162848E-02 -0.15740942212E-01  0.33847191632E-03  0.17130000079E+03  0.17130000000E+03 0. -1.
      622    1    1    2    0    0 -0.12052413204E-01  0.10973729661E-01  0.34232086376E+01  0.34234811318E+01  0.40000000000E-01 0. -1.
</event>
<event>
 5   0  0.6200596E+07  0.9118800E+02  0.7818608E-02  0.1180000E+00
       11   -1    0    0    0    0  0.00000000000E+00  0.00000000000E+00  0.39999999673E+01  0.40000000000E+01  0.51109989000E-03 0. -1.
     -623   -1    0    0    0    0  0.00000000000E+00  0.00000000000E+00  0.12525980253E-10  0.17130000000E+03  0.17130000000E+03 0. -1.
       11    1    1    2    0    0 -0.36731103575E-01  0.58506510670E-03  0.21803868353E+01  0.21806963404E+01  0.51109989000E-03 0. -1.
     -623    1    1    2    0    0  0.70371600208E-02  0.17310344066E-01  0.10807267707E-02  0.17130000102E+03  0.17130000000E+03 0. -1.
      622    1    1    2    0    0  0.29693943554E-01 -0.17895409173E-01  0.18185324053E+01  0.18193026370E+01  0.40000000000E-01 0. -1.
</event>
<event>
 5   0  0.6200596E+07  0.9118800E+02  0.7818608E-02  0.1180000E+00
       11   -1    0    0    0    0  0.00000000000E+00  0.00000000000E+00  0.39999999673E+01  0.40000000000E+01  0.51109989000E-03 0. -1.
     -623   -1    0    0    0    0  0.00000000000E+00  0.00000000000E+00  0.12525980253E-10  0.17130000000E+03  0.17130000000E+03 0. -1.
       11    1    1    2    0    0  0.11389051241E-02 -0.16705763166E-02  0.28014753150E-01  0.28092268434E-01  0.51109989000E-03 0. -1.
     -623    1    1    2    0    0 -0.52339635692E-02  0.38201478717E-02  0.28171791167E-03  0.17130000012E+03  0.17130000000E+03 0. -1.
      622    1    1    2    0    0  0.40950584451E-02 -0.21495715551E-02  0.39717034963E+01  0.39719076088E+01  0.40000000000E-01 0. -1.
</event>
<event>
 5   0  0.6200596E+07  0.9118800E+02  0.7818608E-02  0.1180000E+00
       11   -1    0    0    0    0  0.00000000000E+00  0.00000000000E+00  0.39999999673E+01  0.40000000000E+01  0.51109989000E-03 0.  1.
     -623   -1    0    0    0    0  0.00000000000E+00  0.00000000000E+00  0.12525980253E-10  0.17130000000E+03  0.17130000000E+03 0. -1.
       11    1    1    2    0    0 -0.64992719637E-03  0.11018760683E-01  0.13391397355E+01  0.13391853225E+01  0.51109989000E-03 0.  1.
     -623    1    1    2    0    0  0.14707464452E-01 -0.16746189350E-01  0.39098527063E-03  0.17130000145E+03  0.17130000000E+03 0. -1.
      622    1    1    2    0    0 -0.14057537255E-01  0.57274286671E-02  0.26604692465E+01  0.26608132271E+01  0.40000000000E-01 0.  1.
</event>
<event>
 5   0  0.6200596E+07  0.9118800E+02  0.7818608E-02  0.1180000E+00
       11   -1    0    0    0    0  0.00000000000E+00  0.00000000000E+00  0.39999999673E+01  0.40000000000E+01  0.51109989000E-03 0. -1.
     -623   -1    0    0    0    0  0.00000000000E+00  0.00000000000E+00  0.12525980253E-10  0.17130000000E+03  0.17130000000E+03 0. -1.
       11    1    1    2    0    0  0.38985562906E-02 -0.36796018858E-02  0.36571613437E+00  0.36575577968E+00  0.51109989000E-03 0. -1.
     -623    1    1    2    0    0  0.37595183158E-03  0.63925441757E-03  0.26353521649E-03  0.17130000000E+03  0.17130000000E+03 0. -1.
      622    1    1    2    0    0 -0.42745081222E-02  0.30403474683E-02  0.36340202978E+01  0.36342442185E+01  0.40000000000E-01 0. -1.
</event>
<event>
 5   0  0.6200596E+07  0.9118800E+02  0.7818608E-02  0.1180000E+00
       11   -1    0    0    0    0  0.00000000000E+00  0.00000000000E+00  0.39999999673E+01  0.40000000000E+01  0.51109989000E-03 0. -1.
     -623   -1    0    0    0    0  0.00000000000E+00  0.00000000000E+00  0.12525980253E-10  0.17130000000E+03  0.17130000000E+03 0.  1.
       11    1    1    2    0    0  0.33973307891E-02 -0.47132008763E-02  0.45391650024E-01  0.45764825284E-01  0.51109989000E-03 0. -1.
     -623    1    1    2    0    0  0.36775118782E-03  0.34479269620E-02  0.57749361242E-03  0.17130000004E+03  0.17130000000E+03 0.  1.
      622    1    1    2    0    0 -0.37650819769E-02  0.12652739143E-02  0.39540308237E+01  0.39542351386E+01  0.40000000000E-01 0. -1.
</event>
<event>
 5   0  0.6200596E+07  0.9118800E+02  0.7818608E-02  0.1180000E+00
       11   -1    0    0    0    0  0.00000000000E+00  0.00000000000E+00  0.39999999673E+01  0.40000000000E+01  0.51109989000E-03 0.  1.
     -623   -1    0    0    0    0  0.00000000000E+00  0.00000000000E+00  0.12525980253E-10  0.17130000000E+03  0.17130000000E+03 0.  1.
       11    1    1    2    0    0  0.88421611785E-03  0.59917602428E-03  0.13784903178E-01  0.13835665020E-01  0.51109989000E-03 0.  1.
     -623    1    1    2    0    0  0.71510667710E-03 -0.97110827274E-03  0.25177107678E-03  0.17130000000E+03  0.17130000000E+03 0.  1.
      622    1    1    2    0    0 -0.15993227949E-02  0.37193224846E-03  0.39859632931E+01  0.39861643306E+01  0.40000000000E-01 0.  1.
</event>
<event>
 5   0  0.6200596E+07  0.9118800E+02  0.7818608E-02  0.1180000E+00
       11   -1    0    0    0    0  0.00000000000E+00  0.00000000000E+00  0.39999999673E+01  0.40000000000E+01  0.51109989000E-03 0.  1.
     -623   -1    0    0    0    0  0.00000000000E+00  0.00000000000E+00  0.12525980253E-10  0.17130000000E+03  0.17130000000E+03 0. -1.
       11    1    1    2    0    0  0.52739179342E-03 -0.20160871226E-02  0.14642127879E-01  0.14798509380E-01  0.51109989000E-03 0.  1.
     -623    1    1    2    0    0  0.72163817868E-02  0.34074787274E-02  0.36504976414E-03  0.17130000019E+03  0.17130000000E+03 0. -1.
      622    1    1    2    0    0 -0.77437735802E-02 -0.13913916049E-02  0.39849927897E+01  0.39852013043E+01  0.40000000000E-01 0.  1.
</event>
<event>
 5   0  0.6200596E+07  0.9118800E+02  0.7818608E-02  0.1180000E+00
       11   -1    0    0    0    0  0.00000000000E+00  0.00000000000E+00  0.39999999673E+01  0.40000000000E+01  0.51109989000E-03 0. -1.
     -623   -1    0    0    0    0  0.00000000000E+00  0.00000000000E+00  0.12525980253E-10  0.17130000000E+03  0.17130000000E+03 0.  1.
       11    1    1    2    0    0  0.18158449475E-02  0.36186539836E-03  0.12487926443E-01  0.12634784015E-01  0.51109989000E-03 0. -1.
     -623    1    1    2    0    0 -0.37974466392E-03 -0.78348287474E-03  0.34774720590E-03  0.17130000000E+03  0.17130000000E+03 0.  1.
      622    1    1    2    0    0 -0.14361002836E-02  0.42161747637E-03  0.39871642937E+01  0.39873652134E+01  0.40000000000E-01 0. -1.
</event>
<event>
 5   0  0.6200596E+07  0.9118800E+02  0.7818608E-02  0.1180000E+00
       11   -1    0    0    0    0  0.00000000000E+00  0.00000000000E+00  0.39999999673E+01  0.40000000000E+01  0.51109989000E-03 0.  1.
     -623   -1    0    0    0    0  0.00000000000E+00  0.00000000000E+00  0.12525980253E-10  0.17130000000E+03  0.17130000000E+03 0. -1.
       11    1    1    2    0    0  0.59123149432E-02  0.28677872946E-02  0.97005724764E-01  0.97229375866E-01  0.51109989000E-03 0.  1.
     -623    1    1    2    0    0  0.24324296833E-03  0.11843761530E-02  0.43556961566E-03  0.17130000000E+03  0.17130000000E+03 0. -1.
      622    1    1    2    0    0 -0.61555579115E-02 -0.40521634476E-02  0.39025586730E+01  0.39027706193E+01  0.40000000000E-01 0.  1.
</event>
<event>
 5   0  0.6200596E+07  0.9118800E+02  0.7818608E-02  0.1180000E+00
       11   -1    0    0    0    0  0.00000000000E+00  0.00000000000E+00  0.39999999673E+01  0.40000000000E+01  0.51109989000E-03 0. -1.
     -623   -1    0    0    0    0  0.00000000000E+00  0.00000000000E+00  0.12525980253E-10  0.17130000000E+03  0.17130000000E+03 0.  1.
       11    1    1    2    0    0 -0.16831637483E-01 -0.75455992865E-03  0.72332151630E-01  0.74270281827E-01  0.51109989000E-03 0. -1.
     -623    1    1    2    0    0  0.74668233745E-03  0.35420575864E-02  0.21758828093E-02  0.17130000005E+03  0.17130000000E+03 0.  1.
      622    1    1    2    0    0  0.16084955145E-01 -0.27874976578E-02  0.39254919329E+01  0.39257296661E+01  0.40000000000E-01 0. -1.
</event>
<event>
 5   0  0.6200596E+07  0.9118800E+02  0.7818608E-02  0.1180000E+00
       11   -1    0    0    0    0  0.00000000000E+00  0.00000000000E+00  0.39999999673E+01  0.40000000000E+01  0.51109989000E-03 0.  1.
     -623   -1    0    0    0    0  0.00000000000E+00  0.00000000000E+00  0.12525980253E-10  0.17130000000E+03  0.17130000000E+03 0.  1.
       11    1    1    2    0    0 -0.46242811455E-04  0.32287751025E-02  0.99889163156E-01  0.99942649872E-01  0.51109989000E-03 0.  1.
     -623    1    1    2    0    0 -0.15303451539E-03  0.86944142265E-03  0.26074555963E-03  0.17130000000E+03  0.17130000000E+03 0.  1.
      622    1    1    2    0    0  0.19927732685E-03 -0.40982165251E-02  0.38998500586E+01  0.39000573477E+01  0.40000000000E-01 0.  0.
</event>
<event>
 5   0  0.6200596E+07  0.9118800E+02  0.7818608E-02  0.1180000E+00
       11   -1    0    0    0    0  0.00000000000E+00  0.00000000000E+00  0.39999999673E+01  0.40000000000E+01  0.51109989000E-03 0.  1.
     -623   -1    0    0    0    0  0.00000000000E+00  0.00000000000E+00  0.12525980253E-10  0.17130000000E+03  0.17130000000E+03 0.  1.
       11    1    1    2    0    0  0.93293617194E-03  0.35875062253E-02  0.41396788941E-01  0.41565561782E-01  0.51109989000E-03 0.  1.
     -623    1    1    2    0    0 -0.16173687093E-02  0.16800601745E-02  0.37442592728E-03  0.17130000002E+03  0.17130000000E+03 0.  1.
      622    1    1    2    0    0  0.68443253732E-03 -0.52675663998E-02  0.39582287525E+01  0.39584344219E+01  0.40000000000E-01 0.  1.
</event>
<event>
 5   0  0.6200596E+07  0.9118800E+02  0.7818608E-02  0.1180000E+00
       11   -1    0    0    0    0  0.00000000000E+00  0.00000000000E+00  0.39999999673E+01  0.40000000000E+01  0.51109989000E-03 0.  1.
     -623   -1    0    0    0    0  0.00000000000E+00  0.00000000000E+00  0.12525980253E-10  0.17130000000E+03  0.17130000000E+03 0.  1.
       11    1    1    2    0    0  0.25039733534E-02 -0.16178882900E-02  0.24366965678E-01  0.24553974874E-01  0.51109989000E-03 0.  1.
     -623    1    1    2    0    0  0.81790034281E-03  0.27623029876E-02  0.38979427531E-03  0.17130000002E+03  0.17130000000E+03 0.  1.
      622    1    1    2    0    0 -0.33218736962E-02 -0.11444146975E-02  0.39752432074E+01  0.39754460005E+01  0.40000000000E-01 0.  1.
</event>
<event>
 5   0  0.6200596E+07  0.9118800E+02  0.7818608E-02  0.1180000E+00
       11   -1    0    0    0    0  0.00000000000E+00  0.00000000000E+00  0.39999999673E+01  0.40000000000E+01  0.51109989000E-03 0. -1.
     -623   -1    0    0    0    0  0.00000000000E+00  0.00000000000E+00  0.12525980253E-10  0.17130000000E+03  0.17130000000E+03 0. -1.
       11    1    1    2    0    0 -0.11456528340E-02 -0.39662403866E-03  0.54323133022E-02  0.55893720607E-02  0.51109989000E-03 0. -1.
     -623    1    1    2    0    0  0.12446274027E-02  0.14302347297E-02  0.35745682872E-03  0.17130000001E+03  0.17130000000E+03 0. -1.
      622    1    1    2    0    0 -0.98974568696E-04 -0.10336106910E-02  0.39942101972E+01  0.39944106171E+01  0.40000000000E-01 0. -1.
</event>
<event>
 5   0  0.6200596E+07  0.9118800E+02  0.7818608E-02  0.1180000E+00
       11   -1    0    0    0    0  0.00000000000E+00  0.00000000000E+00  0.39999999673E+01  0.40000000000E+01  0.51109989000E-03 0.  1.
     -623   -1    0    0    0    0  0.00000000000E+00  0.00000000000E+00  0.12525980253E-10  0.17130000000E+03  0.17130000000E+03 0.  1.
       11    1    1    2    0    0  0.95660944462E-02  0.17641753368E-01  0.17543979188E+01  0.17545127701E+01  0.51109989000E-03 0.  1.
     -623    1    1    2    0    0  0.96316388522E-03  0.25656214824E-02  0.58677165354E-03  0.17130000002E+03  0.17130000000E+03 0.  1.
      622    1    1    2    0    0 -0.10529258331E-01 -0.20207374851E-01  0.22450152769E+01  0.22454872070E+01  0.40000000000E-01 0.  0.
</event>
<event>
 5   0  0.6200596E+07  0.9118800E+02  0.7818608E-02  0.1180000E+00
       11   -1    0    0    0    0  0.00000000000E+00  0.00000000000E+00  0.39999999673E+01  0.40000000000E+01  0.51109989000E-03 0. -1.
     -623   -1    0    0    0    0  0.00000000000E+00  0.00000000000E+00  0.12525980253E-10  0.17130000000E+03  0.17130000000E+03 0. -1.
       11    1    1    2    0    0  0.29402041576E-01 -0.53046967687E-02  0.21971015038E+01  0.21973046897E+01  0.51109989000E-03 0. -1.
     -623    1    1    2    0    0  0.75570306484E-03 -0.13358421592E-02  0.91157066356E-03  0.17130000001E+03  0.17130000000E+03 0. -1.
      622    1    1    2    0    0 -0.30157744641E-01  0.66405389279E-02  0.18019868929E+01  0.18026953010E+01  0.40000000000E-01 0. -1.
</event>
<event>
 5   0  0.6200596E+07  0.9118800E+02  0.7818608E-02  0.1180000E+00
       11   -1    0    0    0    0  0.00000000000E+00  0.00000000000E+00  0.39999999673E+01  0.40000000000E+01  0.51109989000E-03 0. -1.
     -623   -1    0    0    0    0  0.00000000000E+00  0.00000000000E+00  0.12525980253E-10  0.17130000000E+03  0.17130000000E+03 0.  1.
       11    1    1    2    0    0 -0.68848383098E-02 -0.46548363082E-01  0.11342333345E+01  0.11352090862E+01  0.51109989000E-03 0. -1.
     -623    1    1    2    0    0  0.16368337104E-01  0.91885553735E-02  0.15153595481E-02  0.17130000104E+03  0.17130000000E+03 0.  1.
      622    1    1    2    0    0 -0.94834987938E-02  0.37359807709E-01  0.28642512733E+01  0.28647898786E+01  0.40000000000E-01 0. -1.
</event>
<event>
 5   0  0.6200596E+07  0.9118800E+02  0.7818608E-02  0.1180000E+00
       11   -1    0    0    0    0  0.00000000000E+00  0.00000000000E+00  0.39999999673E+01  0.40000000000E+01  0.51109989000E-03 0.  1.
     -623   -1    0    0    0    0  0.00000000000E+00  0.00000000000E+00  0.12525980253E-10  0.17130000000E+03  0.17130000000E+03 0.  1.
       11    1    1    2    0    0  0.20430489383E-02 -0.76594100819E-03  0.15750383855E-01  0.15909007712E-01  0.51109989000E-03 0.  1.
     -623    1    1    2    0    0 -0.57820802698E-03  0.21204005848E-02  0.35990893379E-03  0.17130000001E+03  0.17130000000E+03 0.  1.
      622    1    1    2    0    0 -0.14648409113E-02 -0.13544595766E-02  0.39838896746E+01  0.39840909778E+01  0.40000000000E-01 0.  1.
</event>
<event>
 5   0  0.6200596E+07  0.9118800E+02  0.7818608E-02  0.1180000E+00
       11   -1    0    0    0    0  0.00000000000E+00  0.00000000000E+00  0.39999999673E+01  0.40000000000E+01  0.51109989000E-03 0.  1.
     -623   -1    0    0    0    0  0.00000000000E+00  0.00000000000E+00  0.12525980253E-10  0.17130000000E+03  0.17130000000E+03 0. -1.
       11    1    1    2    0    0 -0.25150248937E-01  0.17107563245E-01  0.21760630801E+00  0.21972248463E+00  0.51109989000E-03 0.  1.
     -623    1    1    2    0    0  0.28951487201E-02 -0.14709842557E-01  0.23947217701E-02  0.17130000067E+03  0.17130000000E+03 0. -1.
      622    1    1    2    0    0  0.22255100217E-01 -0.23977206878E-02  0.37799989376E+01  0.37802768426E+01  0.40000000000E-01 0.  1.
</event>
<event>
 5   0  0.6200596E+07  0.9118800E+02  0.7818608E-02  0.1180000E+00
       11   -1    0    0    0    0  0.00000000000E+00  0.00000000000E+00  0.39999999673E+01  0.40000000000E+01  0.51109989000E-03 0. -1.
     -623   -1    0    0    0    0  0.00000000000E+00  0.00000000000E+00  0.12525980253E-10  0.17130000000E+03  0.17130000000E+03 0. -1.
       11    1    1    2    0    0  0.33385066620E-02  0.17001643731E-01  0.11355456282E+01  0.11356779193E+01  0.51109989000E-03 0. -1.
     -623    1    1    2    0    0 -0.18525567570E-02  0.26650809459E-02  0.47951146138E-03  0.17130000003E+03  0.17130000000E+03 0. -1.
      622    1    1    2    0    0 -0.14859499050E-02 -0.19666724677E-01  0.28639748277E+01  0.28643220492E+01  0.40000000000E-01 0. -1.
</event>
<event>
 5   0  0.6200596E+07  0.9118800E+02  0.7818608E-02  0.1180000E+00
       11   -1    0    0    0    0  0.00000000000E+00  0.00000000000E+00  0.39999999673E+01  0.40000000000E+01  0.51109989000E-03 0. -1.
     -623   -1    0    0    0    0  0.00000000000E+00  0.00000000000E+00  0.12525980253E-10  0.17130000000E+03  0.17130000000E+03 0.  1.
       11    1    1    2    0    0 -0.41828134843E-02  0.15061755496E-02  0.17695237695E-01  0.18252319060E-01  0.51109989000E-03 0. -1.
     -623    1    1    2    0    0 -0.16323233336E-02 -0.72664611345E-03  0.76230448948E-03  0.17130000001E+03  0.17130000000E+03 0.  1.
      622    1    1    2    0    0  0.58151368179E-02 -0.77952943611E-03  0.39815424252E+01  0.39817476699E+01  0.40000000000E-01 0. -1.
</event>
<event>
 5   0  0.6200596E+07  0.9118800E+02  0.7818608E-02  0.1180000E+00
       11   -1    0    0    0    0  0.00000000000E+00  0.00000000000E+00  0.39999999673E+01  0.40000000000E+01  0.51109989000E-03 0. -1.
     -623   -1    0    0    0    0  0.00000000000E+00  0.00000000000E+00  0.12525980253E-10  0.17130000000E+03  0.17130000000E+03 0.  1.
       11    1    1    2    0    0  0.51768199036E-01  0.79043134773E-02  0.28240217746E+00  0.28721712285E+00  0.51109989000E-03 0. -1.
     -623    1    1    2    0    0 -0.61681641399E-01  0.10890409119E-01  0.51027288805E-02  0.17130001153E+03  0.17130000000E+03 0.  1.
      622    1    1    2    0    0  0.99134423630E-02 -0.18794722597E-01  0.37124950610E+01  0.37127713498E+01  0.40000000000E-01 0. -1.
</event>
<event>
 5   0  0.6200596E+07  0.9118800E+02  0.7818608E-02  0.1180000E+00
       11   -1    0    0    0    0  0.00000000000E+00  0.00000000000E+00  0.39999999673E+01  0.40000000000E+01  0.51109989000E-03 0.  1.
     -623   -1    0    0    0    0  0.00000000000E+00  0.00000000000E+00  0.12525980253E-10  0.17130000000E+03  0.17130000000E+03 0. -1.
       11    1    1    2    0    0 -0.19025659926E-02 -0.81554415029E-02  0.66275415086E-01  0.66804362506E-01  0.51109989000E-03 0.  1.
     -623    1    1    2    0    0  0.63776274317E-02  0.89291212547E-02  0.73529204515E-03  0.17130000035E+03  0.17130000000E+03 0. -1.
      622    1    1    2    0    0 -0.44750614391E-02 -0.77367975183E-03  0.39329892602E+01  0.39331952845E+01  0.40000000000E-01 0.  1.
</event>
<event>
 5   0  0.6200596E+07  0.9118800E+02  0.7818608E-02  0.1180000E+00
       11   -1    0    0    0    0  0.00000000000E+00  0.00000000000E+00  0.39999999673E+01  0.40000000000E+01  0.51109989000E-03 0.  1.
     -623   -1    0    0    0    0  0.00000000000E+00  0.00000000000E+00  0.12525980253E-10  0.17130000000E+03  0.17130000000E+03 0.  1.
       11    1    1    2    0    0 -0.49975487060E-02 -0.21734497454E-01  0.21499916686E+01  0.21501073927E+01  0.51109989000E-03 0.  1.
     -623    1    1    2    0    0 -0.29643370270E-02  0.82296478983E-02  0.61486966350E-03  0.17130000022E+03  0.17130000000E+03 0.  1.
      622    1    1    2    0    0  0.79618857330E-02  0.13504849556E-01  0.18493934291E+01  0.18498923828E+01  0.40000000000E-01 0.  1.
</event>
<event>
 5   0  0.6200596E+07  0.9118800E+02  0.7818608E-02  0.1180000E+00
       11   -1    0    0    0    0  0.00000000000E+00  0.00000000000E+00  0.39999999673E+01  0.40000000000E+01  0.51109989000E-03 0. -1.
     -623   -1    0    0    0    0  0.00000000000E+00  0.00000000000E+00  0.12525980253E-10  0.17130000000E+03  0.17130000000E+03 0. -1.
       11    1    1    2    0    0 -0.50017386505E-03  0.84670390445E-03  0.44013117912E-02  0.45387056113E-02  0.51109989000E-03 0. -1.
     -623    1    1    2    0    0  0.13262021063E-02 -0.17267287297E-02  0.33778987258E-03  0.17130000001E+03  0.17130000000E+03 0. -1.
      622    1    1    2    0    0 -0.82602824130E-03  0.88002482523E-03  0.39952608657E+01  0.39954612802E+01  0.40000000000E-01 0. -1.
</event>
<event>
 5   0  0.6200596E+07  0.9118800E+02  0.7818608E-02  0.1180000E+00
       11   -1    0    0    0    0  0.00000000000E+00  0.00000000000E+00  0.39999999673E+01  0.40000000000E+01  0.51109989000E-03 0.  1.
     -623   -1    0    0    0    0  0.00000000000E+00  0.00000000000E+00  0.12525980253E-10  0.17130000000E+03  0.17130000000E+03 0.  1.
       11    1    1    2    0    0  0.18393275369E-01 -0.37316218727E-01  0.26619988551E+01  0.26623239808E+01  0.51109989000E-03 0.  1.
     -623    1    1    2    0    0  0.10639591926E-01  0.18417230635E-01  0.13734506256E-02  0.17130000133E+03  0.17130000000E+03 0.  1.
      622    1    1    2    0    0 -0.29032867295E-01  0.18898988092E-01  0.13366276616E+01  0.13376746933E+01  0.40000000000E-01 0.  1.
</event>
<event>
 5   0  0.6200596E+07  0.9118800E+02  0.7818608E-02  0.1180000E+00
       11   -1    0    0    0    0  0.00000000000E+00  0.00000000000E+00  0.39999999673E+01  0.40000000000E+01  0.51109989000E-03 0. -1.
     -623   -1    0    0    0    0  0.00000000000E+00  0.00000000000E+00  0.12525980253E-10  0.17130000000E+03  0.17130000000E+03 0. -1.
       11    1    1    2    0    0  0.85090110777E-02 -0.52958452778E-02  0.43843452741E+00  0.43854936472E+00  0.51109989000E-03 0. -1.
     -623    1    1    2    0    0  0.10916697210E-01  0.44487935584E-02  0.39292805139E-03  0.17130000041E+03  0.17130000000E+03 0. -1.
      622    1    1    2    0    0 -0.19425708288E-01  0.84705171935E-03  0.35611725119E+01  0.35614502292E+01  0.40000000000E-01 0. -1.
</event>
<event>
 5   0  0.6200596E+07  0.9118800E+02  0.7818608E-02  0.1180000E+00
       11   -1    0    0    0    0  0.00000000000E+00  0.00000000000E+00  0.39999999673E+01  0.40000000000E+01  0.51109989000E-03 0.  1.
     -623   -1    0    0    0    0  0.00000000000E+00  0.00000000000E+00  0.12525980253E-10  0.17130000000E+03  0.17130000000E+03 0. -1.
       11    1    1    2    0    0 -0.12531543367E-02  0.19358206296E-02  0.30431576936E+00  0.30432493572E+00  0.51109989000E-03 0.  1.
     -623    1    1    2    0    0 -0.13821946016E-02 -0.16240604696E-02  0.22657555807E-03  0.17130000001E+03  0.17130000000E+03 0. -1.
      622    1    1    2    0    0  0.26353489384E-02 -0.31176016005E-03  0.36954576224E+01  0.36956750509E+01  0.40000000000E-01 0.  1.
</event>
<event>
 5   0  0.6200596E+07  0.9118800E+02  0.7818608E-02  0.1180000E+00
       11   -1    0    0    0    0  0.00000000000E+00  0.00000000000E+00  0.39999999673E+01  0.40000000000E+01  0.51109989000E-03 0.  1.
     -623   -1    0    0    0    0  0.00000000000E+00  0.00000000000E+00  0.12525980253E-10  0.17130000000E+03  0.17130000000E+03 0.  1.
       11    1    1    2    0    0  0.45510293553E-02 -0.52631717795E-02  0.33168149986E-01  0.33893955820E-01  0.51109989000E-03 0.  1.
     -623    1    1    2    0    0 -0.92846742125E-03  0.37435427510E-02  0.92947906266E-03  0.17130000005E+03  0.17130000000E+03 0.  1.
      622    1    1    2    0    0 -0.36225619341E-02  0.15196290284E-02  0.39659023383E+01  0.39661059982E+01  0.40000000000E-01 0.  1.
</event>
<event>
 5   0  0.6200596E+07  0.9118800E+02  0.7818608E-02  0.1180000E+00
       11   -1    0    0    0    0  0.00000000000E+00  0.00000000000E+00  0.39999999673E+01  0.40000000000E+01  0.51109989000E-03 0. -1.
     -623   -1    0    0    0    0  0.00000000000E+00  0.00000000000E+00  0.12525980253E-10  0.17130000000E+03  0.17130000000E+03 0.  1.
       11    1    1    2    0    0  0.11846473434E-01 -0.22544371248E-01  0.27443699775E+01  0.27444881895E+01  0.51109989000E-03 0. -1.
     -623    1    1    2    0    0 -0.19252804387E-02 -0.32890695904E-02  0.10607431062E-02  0.17130000005E+03  0.17130000000E+03 0.  1.
      622    1    1    2    0    0 -0.99211929958E-02  0.25833440838E-01  0.12545692468E+01  0.12555117648E+01  0.40000000000E-01 0. -1.
</event>
<event>
 5   0  0.6200596E+07  0.9118800E+02  0.7818608E-02  0.1180000E+00
       11   -1    0    0    0    0  0.00000000000E+00  0.00000000000E+00  0.39999999673E+01  0.40000000000E+01  0.51109989000E-03 0.  1.
     -623   -1    0    0    0    0  0.00000000000E+00  0.00000000000E+00  0.12525980253E-10  0.17130000000E+03  0.17130000000E+03 0.  1.
       11    1    1    2    0    0 -0.22239808566E-02  0.35741480475E-02  0.46445416026E-01  0.46638594715E-01  0.51109989000E-03 0.  1.
     -623    1    1    2    0    0  0.28047728081E-03  0.23175526133E-03  0.39782132879E-03  0.17130000000E+03  0.17130000000E+03 0.  1.
      622    1    1    2    0    0  0.19435035758E-02 -0.38059033089E-02  0.39531567300E+01  0.39533614044E+01  0.40000000000E-01 0.  1.
</event>
<event>
 5   0  0.6200596E+07  0.9118800E+02  0.7818608E-02  0.1180000E+00
       11   -1    0    0    0    0  0.00000000000E+00  0.00000000000E+00  0.39999999673E+01  0.40000000000E+01  0.51109989000E-03 0. -1.
     -623   -1    0    0    0    0  0.00000000000E+00  0.00000000000E+00  0.12525980253E-10  0.17130000000E+03  0.17130000000E+03 0.  1.
       11    1    1    2    0    0 -0.11572437702E-02  0.15692450357E-02  0.17539994134E+00  0.17541152296E+00  0.51109989000E-03 0. -1.
     -623    1    1    2    0    0 -0.45530943069E-02 -0.64783277209E-02  0.22832460110E-03  0.17130000018E+03  0.17130000000E+03 0.  1.
      622    1    1    2    0    0  0.57103380770E-02  0.49090826852E-02  0.38243717014E+01  0.38245882939E+01  0.40000000000E-01 0. -1.
</event>
<event>
 5   0  0.6200596E+07  0.9118800E+02  0.7818608E-02  0.1180000E+00
       11   -1    0    0    0    0  0.00000000000E+00  0.00000000000E+00  0.39999999673E+01  0.40000000000E+01  0.51109989000E-03 0. -1.
     -623   -1    0    0    0    0  0.00000000000E+00  0.00000000000E+00  0.12525980253E-10  0.17130000000E+03  0.17130000000E+03 0.  1.
       11    1    1    2    0    0 -0.13918876280E-02  0.21186142487E-02  0.18396563471E+00  0.18398380867E+00  0.51109989000E-03 0. -1.
     -623    1    1    2    0    0  0.10981692766E-02  0.57136976532E-03  0.22875388819E-03  0.17130000000E+03  0.17130000000E+03 0.  1.
      622    1    1    2    0    0  0.29371835147E-03 -0.26899840141E-02  0.38158055788E+01  0.38160161867E+01  0.40000000000E-01 0. -1.
</event>
<event>
 5   0  0.6200596E+07  0.9118800E+02  0.7818608E-02  0.1180000E+00
       11   -1    0    0    0    0  0.00000000000E+00  0.00000000000E+00  0.39999999673E+01  0.40000000000E+01  0.51109989000E-03 0.  1.
     -623   -1    0    0    0    0  0.00000000000E+00  0.00000000000E+00  0.12525980253E-10  0.17130000000E+03  0.17130000000E+03 0. -1.
       11    1    1    2    0    0  0.15746999412E-02  0.11282766429E-02  0.72438417939E-01  0.72466118306E-01  0.51109989000E-03 0.  1.
     -623    1    1    2    0    0  0.17217134598E-03 -0.56851703635E-05  0.23191235608E-03  0.17130000000E+03  0.17130000000E+03 0. -1.
      622    1    1    2    0    0 -0.17468712872E-02 -0.11225914725E-02  0.39273296371E+01  0.39275338815E+01  0.40000000000E-01 0.  1.
</event>
<event>
 5   0  0.6200596E+07  0.9118800E+02  0.7818608E-02  0.1180000E+00
       11   -1    0    0    0    0  0.00000000000E+00  0.00000000000E+00  0.39999999673E+01  0.40000000000E+01  0.51109989000E-03 0.  1.
     -623   -1    0    0    0    0  0.00000000000E+00  0.00000000000E+00  0.12525980253E-10  0.17130000000E+03  0.17130000000E+03 0. -1.
       11    1    1    2    0    0  0.42185825678E-03  0.25801696265E-04  0.10765912071E+00  0.10766116348E+00  0.51109989000E-03 0.  1.
     -623    1    1    2    0    0 -0.62994513392E-03  0.10987840195E-02  0.20772035310E-03  0.17130000000E+03  0.17130000000E+03 0. -1.
      622    1    1    2    0    0  0.20808687714E-03 -0.11245857157E-02  0.38921331263E+01  0.38923388317E+01  0.40000000000E-01 0.  1.
</event>
<event>
 5   0  0.6200596E+07  0.9118800E+02  0.7818608E-02  0.1180000E+00
       11   -1    0    0    0    0  0.00000000000E+00  0.00000000000E+00  0.39999999673E+01  0.40000000000E+01  0.51109989000E-03 0.  1.
     -623   -1    0    0    0    0  0.00000000000E+00  0.00000000000E+00  0.12525980253E-10  0.17130000000E+03  0.17130000000E+03 0. -1.
       11    1    1    2    0    0 -0.29489013258E-01 -0.24179312413E-01  0.75400593086E-01  0.84497051488E-01  0.51109989000E-03 0.  1.
     -623    1    1    2    0    0  0.88220320928E-02  0.38695215810E-02  0.94084998044E-02  0.17130000053E+03  0.17130000000E+03 0. -1.
      622    1    1    2    0    0  0.20666981165E-01  0.20309790832E-01  0.39151908745E+01  0.39155024193E+01  0.40000000000E-01 0.  1.
</event>
<event>
 5   0  0.6200596E+07  0.9118800E+02  0.7818608E-02  0.1180000E+00
       11   -1    0    0    0    0  0.00000000000E+00  0.00000000000E+00  0.39999999673E+01  0.40000000000E+01  0.51109989000E-03 0. -1.
     -623   -1    0    0    0    0  0.00000000000E+00  0.00000000000E+00  0.12525980253E-10  0.17130000000E+03  0.17130000000E+03 0. -1.
       11    1    1    2    0    0  0.13278283016E-02 -0.11408514058E-02  0.57850720171E-01  0.57879458487E-01  0.51109989000E-03 0. -1.
     -623    1    1    2    0    0 -0.59412577033E-03 -0.73814447282E-03  0.23216625326E-03  0.17130000000E+03  0.17130000000E+03 0. -1.
      622    1    1    2    0    0 -0.73370253125E-03  0.18789958786E-02  0.39419170809E+01  0.39421205387E+01  0.40000000000E-01 0. -1.
</event>
<event>
 5   0  0.6200596E+07  0.9118800E+02  0.7818608E-02  0.1180000E+00
       11   -1    0    0    0    0  0.00000000000E+00  0.00000000000E+00  0.39999999673E+01  0.40000000000E+01  0.51109989000E-03 0.  1.
     -623   -1    0    0    0    0  0.00000000000E+00  0.00000000000E+00  0.12525980253E-10  0.17130000000E+03  0.17130000000E+03 0. -1.
       11    1    1    2    0    0  0.54922936582E-02  0.26645882191E-02  0.10812366553E+00  0.10829706178E+00  0.51109989000E-03 0.  1.
     -623    1    1    2    0    0 -0.27505689267E-03  0.61959923356E-03  0.38381948719E-03  0.17130000000E+03  0.17130000000E+03 0. -1.
      622    1    1    2    0    0 -0.52172367656E-02 -0.32841874526E-02  0.38914924823E+01  0.38917029365E+01  0.40000000000E-01 0.  1.
</event>
<event>
 5   0  0.6200596E+07  0.9118800E+02  0.7818608E-02  0.1180000E+00
       11   -1    0    0    0    0  0.00000000000E+00  0.00000000000E+00  0.39999999673E+01  0.40000000000E+01  0.51109989000E-03 0.  1.
     -623   -1    0    0    0    0  0.00000000000E+00  0.00000000000E+00  0.12525980253E-10  0.17130000000E+03  0.17130000000E+03 0.  1.
       11    1    1    2    0    0 -0.12776510737E-02 -0.14387170536E-02  0.14217878358E-01  0.14356586845E-01  0.51109989000E-03 0.  1.
     -623    1    1    2    0    0  0.60703426772E-03 -0.28577944269E-03  0.33983248274E-03  0.17130000000E+03  0.17130000000E+03 0.  1.
      622    1    1    2    0    0  0.67061680599E-03  0.17244964963E-02  0.39854422565E+01  0.39856434115E+01  0.40000000000E-01 0.  1.
</event>
<event>
 5   0  0.6200596E+07  0.9118800E+02  0.7818608E-02  0.1180000E+00
       11   -1    0    0    0    0  0.00000000000E+00  0.00000000000E+00  0.39999999673E+01  0.40000000000E+01  0.51109989000E-03 0. -1.
     -623   -1    0    0    0    0  0.00000000000E+00  0.00000000000E+00  0.12525980253E-10  0.17130000000E+03  0.17130000000E+03 0. -1.
       11    1    1    2    0    0 -0.34491630465E-01  0.34334170002E-01  0.19417928774E+00  0.20018582570E+00  0.51109989000E-03 0. -1.
     -623    1    1    2    0    0  0.45196788762E-03 -0.17470600311E-01  0.64079625349E-02  0.17130000101E+03  0.17130000000E+03 0. -1.
      622    1    1    2    0    0  0.34039662578E-01 -0.16863569691E-01  0.37994127171E+01  0.37998131630E+01  0.40000000000E-01 0. -1.
</event>
<event>
 5   0  0.6200596E+07  0.9118800E+02  0.7818608E-02  0.1180000E+00
       11   -1    0    0    0    0  0.00000000000E+00  0.00000000000E+00  0.39999999673E+01  0.40000000000E+01  0.51109989000E-03 0. -1.
     -623   -1    0    0    0    0  0.00000000000E+00  0.00000000000E+00  0.12525980253E-10  0.17130000000E+03  0.17130000000E+03 0. -1.
       11    1    1    2    0    0  0.32648453874E-02  0.23453670875E-02  0.19590717952E+00  0.19594908566E+00  0.51109989000E-03 0. -1.
     -623    1    1    2    0    0 -0.46794688917E-02 -0.15409051272E-01  0.27563435642E-03  0.17130000076E+03  0.17130000000E+03 0. -1.
      622    1    1    2    0    0  0.14146235042E-02  0.13063684184E-01  0.38038171535E+01  0.38040501572E+01  0.40000000000E-01 0. -1.
</event>
<event>
 5   0  0.6200596E+07  0.9118800E+02  0.7818608E-02  0.1180000E+00
       11   -1    0    0    0    0  0.00000000000E+00  0.00000000000E+00  0.39999999673E+01  0.40000000000E+01  0.51109989000E-03 0.  1.
     -623   -1    0    0    0    0  0.00000000000E+00  0.00000000000E+00  0.12525980253E-10  0.17130000000E+03  0.17130000000E+03 0. -1.
       11    1    1    2    0    0  0.19610571414E-02  0.11762912971E-02  0.22092934980E-01  0.22216849557E-01  0.51109989000E-03 0.  1.
     -623    1    1    2    0    0  0.30397554581E-03 -0.19891209514E-03  0.32576975632E-03  0.17130000000E+03  0.17130000000E+03 0. -1.
      622    1    1    2    0    0 -0.22650326873E-02 -0.97737920194E-03  0.39775812626E+01  0.39777831497E+01  0.40000000000E-01 0.  1.
</event>
<event>
 5   0  0.6200596E+07  0.9118800E+02  0.7818608E-02  0.1180000E+00
       11   -1    0    0    0    0  0.00000000000E+00  0.00000000000E+00  0.39999999673E+01  0.40000000000E+01  0.51109989000E-03 0.  1.
     -623   -1    0    0    0    0  0.00000000000E+00  0.00000000000E+00  0.12525980253E-10  0.17130000000E+03  0.17130000000E+03 0.  1.
       11    1    1    2    0    0 -0.11619512208E-01 -0.17257614209E-01  0.61968724469E+00  0.62003659631E+00  0.51109989000E-03 0.  1.
     -623    1    1    2    0    0  0.32621037796E-02 -0.18582958954E-02  0.65045263080E-03  0.17130000004E+03  0.17130000000E+03 0.  1.
      622    1    1    2    0    0  0.83574084287E-02  0.19115910105E-01  0.33796622700E+01  0.33799633613E+01  0.40000000000E-01 0.  1.
</event>
<event>
 5   0  0.6200596E+07  0.9118800E+02  0.7818608E-02  0.1180000E+00
       11   -1    0    0    0    0  0.00000000000E+00  0.00000000000E+00  0.39999999673E+01  0.40000000000E+01  0.51109989000E-03 0. -1.
     -623   -1    0    0    0    0  0.00000000000E+00  0.00000000000E+00  0.12525980253E-10  0.17130000000E+03  0.17130000000E+03 0. -1.
       11    1    1    2    0    0  0.20752364721E-01  0.17478526386E-01  0.52395425917E+00  0.52465654142E+00  0.51109989000E-03 0. -1.
     -623    1    1    2    0    0 -0.25801094812E-02  0.56393382912E-04  0.10242270405E-02  0.17130000002E+03  0.17130000000E+03 0. -1.
      622    1    1    2    0    0 -0.18172255240E-01 -0.17534919769E-01  0.34750214811E+01  0.34753434361E+01  0.40000000000E-01 0.  0.
</event>
<event>
 5   0  0.6200596E+07  0.9118800E+02  0.7818608E-02  0.1180000E+00
       11   -1    0    0    0    0  0.00000000000E+00  0.00000000000E+00  0.39999999673E+01  0.40000000000E+01  0.51109989000E-03 0. -1.
     -623   -1    0    0    0    0  0.00000000000E+00  0.00000000000E+00  0.12525980253E-10  0.17130000000E+03  0.17130000000E+03 0.  1.
       11    1    1    2    0    0  0.14464488119E-01 -0.15437221736E-01  0.25803517843E+01  0.25804385521E+01  0.51109989000E-03 0. -1.
     -623    1    1    2    0    0  0.73067538369E-02  0.73814562134E-02  0.84061252711E-03  0.17130000032E+03  0.17130000000E+03 0.  1.
      622    1    1    2    0    0 -0.21771241956E-01  0.80557655223E-02  0.14188075705E+01  0.14195611310E+01  0.40000000000E-01 0. -1.
</event>
<event>
 5   0  0.6200596E+07  0.9118800E+02  0.7818608E-02  0.1180000E+00
       11   -1    0    0    0    0  0.00000000000E+00  0.00000000000E+00  0.39999999673E+01  0.40000000000E+01  0.51109989000E-03 0. -1.
     -623   -1    0    0    0    0  0.00000000000E+00  0.00000000000E+00  0.12525980253E-10  0.17130000000E+03  0.17130000000E+03 0.  1.
       11    1    1    2    0    0  0.12311655480E-01  0.10071422954E-01  0.27530979599E+00  0.27576938809E+00  0.51109989000E-03 0. -1.
     -623    1    1    2    0    0 -0.14406342927E-01 -0.37677318172E-02  0.68094803072E-03  0.17130000065E+03  0.17130000000E+03 0.  1.
      622    1    1    2    0    0  0.20946874468E-02 -0.63036911369E-02  0.37240092233E+01  0.37242299633E+01  0.40000000000E-01 0. -1.
</event>
<event>
 5   0  0.6200596E+07  0.9118800E+02  0.7818608E-02  0.1180000E+00
       11   -1    0    0    0    0  0.00000000000E+00  0.00000000000E+00  0.39999999673E+01  0.40000000000E+01  0.51109989000E-03 0.  1.
     -623   -1    0    0    0    0  0.00000000000E+00  0.00000000000E+00  0.12525980253E-10  0.17130000000E+03  0.17130000000E+03 0. -1.
       11    1    1    2    0    0  0.10504913095E-01 -0.38627091571E-02  0.20059298697E-01  0.22976300986E-01  0.51109989000E-03 0.  1.
     -623    1    1    2    0    0 -0.10099174583E-01 -0.12117093018E-02  0.31217188130E-02  0.17130000033E+03  0.17130000000E+03 0. -1.
      622    1    1    2    0    0 -0.40573851176E-03  0.50744184589E-02  0.39768189499E+01  0.39770233686E+01  0.40000000000E-01 0.  1.
</event>
<event>
 5   0  0.6200596E+07  0.9118800E+02  0.7818608E-02  0.1180000E+00
       11   -1    0    0    0    0  0.00000000000E+00  0.00000000000E+00  0.39999999673E+01  0.40000000000E+01  0.51109989000E-03 0.  1.
     -623   -1    0    0    0    0  0.00000000000E+00  0.00000000000E+00  0.12525980253E-10  0.17130000000E+03  0.17130000000E+03 0.  1.
       11    1    1    2    0    0  0.17534330542E-03  0.31741201437E-03  0.11205366844E-01  0.11222876817E-01  0.51109989000E-03 0.  1.
     -623    1    1    2    0    0 -0.14082749885E-03  0.41422439357E-03  0.21811304802E-03  0.17130000000E+03  0.17130000000E+03 0.  1.
      622    1    1    2    0    0 -0.34515806570E-04 -0.73163640794E-03  0.39885764875E+01  0.39887771225E+01  0.40000000000E-01 0.  1.
</event>
<event>
 5   0  0.6200596E+07  0.9118800E+02  0.7818608E-02  0.1180000E+00
       11   -1    0    0    0    0  0.00000000000E+00  0.00000000000E+00  0.39999999673E+01  0.40000000000E+01  0.51109989000E-03 0. -1.
     -623   -1    0    0    0    0  0.00000000000E+00  0.00000000000E+00  0.12525980253E-10  0.17130000000E+03  0.17130000000E+03 0. -1.
       11    1    1    2    0    0 -0.33782478426E-02 -0.33821409763E-03  0.28204349766E-01  0.28412559073E-01  0.51109989000E-03 0. -1.
     -623    1    1    2    0    0 -0.77542909999E-03  0.35517770422E-03  0.41178738907E-03  0.17130000000E+03  0.17130000000E+03 0. -1.
      622    1    1    2    0    0  0.41536769425E-02 -0.16963606588E-04  0.39713838302E+01  0.39715874383E+01  0.40000000000E-01 0. -1.
</event>
<event>
 5   0  0.6200596E+07  0.9118800E+02  0.7818608E-02  0.1180000E+00
       11   -1    0    0    0    0  0.00000000000E+00  0.00000000000E+00  0.39999999673E+01  0.40000000000E+01  0.51109989000E-03 0. -1.
     -623   -1    0    0    0    0  0.00000000000E+00  0.00000000000E+00  0.12525980253E-10  0.17130000000E+03  0.17130000000E+03 0.  1.
       11    1    1    2    0    0 -0.16875715650E-01  0.15684950964E-01  0.25382713280E+00  0.25487110867E+00  0.51109989000E-03 0. -1.
     -623    1    1    2    0    0  0.21379301846E-01  0.84450068153E-02  0.13395560172E-02  0.17130000155E+03  0.17130000000E+03 0.  1.
      622    1    1    2    0    0 -0.45035861954E-02 -0.24129957779E-01  0.37448332785E+01  0.37451273438E+01  0.40000000000E-01 0. -1.
</event>
<event>
 5   0  0.6200596E+07  0.9118800E+02  0.7818608E-02  0.1180000E+00
       11   -1    0    0    0    0  0.00000000000E+00  0.00000000000E+00  0.39999999673E+01  0.40000000000E+01  0.51109989000E-03 0. -1.
     -623   -1    0    0    0    0  0.00000000000E+00  0.00000000000E+00  0.12525980253E-10  0.17130000000E+03  0.17130000000E+03 0. -1.
       11    1    1    2    0    0 -0.30727069181E-01  0.10678730817E-01  0.31553438300E+00  0.31720718174E+00  0.51109989000E-03 0. -1.
     -623    1    1    2    0    0 -0.45527847158E-02 -0.10378109287E-01  0.20593966358E-02  0.17130000039E+03  0.17130000000E+03 0. -1.
      622    1    1    2    0    0  0.35279853897E-01 -0.30062153027E-03  0.36824061877E+01  0.36827924310E+01  0.40000000000E-01 0. -1.
</event>
<event>
 5   0  0.6200596E+07  0.9118800E+02  0.7818608E-02  0.1180000E+00
       11   -1    0    0    0    0  0.00000000000E+00  0.00000000000E+00  0.39999999673E+01  0.40000000000E+01  0.51109989000E-03 0.  1.
     -623   -1    0    0    0    0  0.00000000000E+00  0.00000000000E+00  0.12525980253E-10  0.17130000000E+03  0.17130000000E+03 0.  1.
       11    1    1    2    0    0  0.15772166803E-01  0.11772356050E-01  0.28541935860E+00  0.28609757269E+00  0.51109989000E-03 0.  1.
     -623    1    1    2    0    0 -0.40608935210E-03  0.14965144575E-02  0.94909921514E-03  0.17130000001E+03  0.17130000000E+03 0.  1.
      622    1    1    2    0    0 -0.15366077451E-01 -0.13268870507E-01  0.37136315095E+01  0.37139024177E+01  0.40000000000E-01 0.  1.
</event>
<event>
 5   0  0.6200596E+07  0.9118800E+02  0.7818608E-02  0.1180000E+00
       11   -1    0    0    0    0  0.00000000000E+00  0.00000000000E+00  0.39999999673E+01  0.40000000000E+01  0.51109989000E-03 0. -1.
     -623   -1    0    0    0    0  0.00000000000E+00  0.00000000000E+00  0.12525980253E-10  0.17130000000E+03  0.17130000000E+03 0.  1.
       11    1    1    2    0    0 -0.24290793344E-01  0.24240434334E-03  0.18461018416E+01  0.18462617291E+01  0.51109989000E-03 0. -1.
     -623    1    1    2    0    0 -0.57146095020E-03  0.96585488923E-05  0.67488265058E-03  0.17130000000E+03  0.17130000000E+03 0.  1.
      622    1    1    2    0    0  0.24862254294E-01 -0.25206289224E-03  0.21532232431E+01  0.21537382687E+01  0.40000000000E-01 0.  0.
</event>
<event>
 5   0  0.6200596E+07  0.9118800E+02  0.7818608E-02  0.1180000E+00
       11   -1    0    0    0    0  0.00000000000E+00  0.00000000000E+00  0.39999999673E+01  0.40000000000E+01  0.51109989000E-03 0. -1.
     -623   -1    0    0    0    0  0.00000000000E+00  0.00000000000E+00  0.12525980253E-10  0.17130000000E+03  0.17130000000E+03 0.  1.
       11    1    1    2    0    0 -0.79554091694E-03 -0.22100811784E-01  0.53812416062E+00  0.53857864071E+00  0.51109989000E-03 0. -1.
     -623    1    1    2    0    0  0.12162137303E-01 -0.18711466993E-01  0.94632131004E-03  0.17130000146E+03  0.17130000000E+03 0.  1.
      622    1    1    2    0    0 -0.11366596386E-01  0.40812278777E-01  0.34609294854E+01  0.34614199030E+01  0.40000000000E-01 0.  0.
</event>
<event>
 5   0  0.6200596E+07  0.9118800E+02  0.7818608E-02  0.1180000E+00
       11   -1    0    0    0    0  0.00000000000E+00  0.00000000000E+00  0.39999999673E+01  0.40000000000E+01  0.51109989000E-03 0.  1.
     -623   -1    0    0    0    0  0.00000000000E+00  0.00000000000E+00  0.12525980253E-10  0.17130000000E+03  0.17130000000E+03 0. -1.
       11    1    1    2    0    0  0.10794838641E-01 -0.63950302794E-02  0.27727356274E+01  0.27727640624E+01  0.51109989000E-03 0.  1.
     -623    1    1    2    0    0 -0.43197930331E-02  0.50721710137E-03  0.71172597925E-03  0.17130000006E+03  0.17130000000E+03 0. -1.
      622    1    1    2    0    0 -0.64750456084E-02  0.58878131781E-02  0.12265526139E+01  0.12272358809E+01  0.40000000000E-01 0. -1.
</event>
<event>
 5   0  0.6200596E+07  0.9118800E+02  0.7818608E-02  0.1180000E+00
       11   -1    0    0    0    0  0.00000000000E+00  0.00000000000E+00  0.39999999673E+01  0.40000000000E+01  0.51109989000E-03 0. -1.
     -623   -1    0    0    0    0  0.00000000000E+00  0.00000000000E+00  0.12525980253E-10  0.17130000000E+03  0.17130000000E+03 0.  1.
       11    1    1    2    0    0  0.52272492196E-03  0.31549016982E-02  0.13878362576E+01  0.13878400361E+01  0.51109989000E-03 0. -1.
     -623    1    1    2    0    0  0.81381257112E-04  0.47867968674E-04  0.31205762639E-03  0.17130000000E+03  0.17130000000E+03 0.  1.
      622    1    1    2    0    0 -0.60410617907E-03 -0.32027696669E-02  0.26118516522E+01  0.26121599636E+01  0.40000000000E-01 0. -1.
</event>
<event>
 5   0  0.6200596E+07  0.9118800E+02  0.7818608E-02  0.1180000E+00
       11   -1    0    0    0    0  0.00000000000E+00  0.00000000000E+00  0.39999999673E+01  0.40000000000E+01  0.51109989000E-03 0. -1.
     -623   -1    0    0    0    0  0.00000000000E+00  0.00000000000E+00  0.12525980253E-10  0.17130000000E+03  0.17130000000E+03 0.  1.
       11    1    1    2    0    0  0.47446282842E-02 -0.14838030349E-02  0.41710197091E-01  0.42008510214E-01  0.51109989000E-03 0. -1.
     -623    1    1    2    0    0 -0.69854624125E-02 -0.89857986064E-03  0.50190528949E-03  0.17130000015E+03  0.17130000000E+03 0.  1.
      622    1    1    2    0    0  0.22408341283E-02  0.23823828956E-02  0.39577878650E+01  0.39579913443E+01  0.40000000000E-01 0. -1.
</event>
<event>
 5   0  0.6200596E+07  0.9118800E+02  0.7818608E-02  0.1180000E+00
       11   -1    0    0    0    0  0.00000000000E+00  0.00000000000E+00  0.39999999673E+01  0.40000000000E+01  0.51109989000E-03 0. -1.
     -623   -1    0    0    0    0  0.00000000000E+00  0.00000000000E+00  0.12525980253E-10  0.17130000000E+03  0.17130000000E+03 0.  1.
       11    1    1    2    0    0  0.84299626184E-02  0.88604777912E-03  0.24744008480E-01  0.26160591118E-01  0.51109989000E-03 0. -1.
     -623    1    1    2    0    0 -0.20218296916E-02 -0.23389328719E-02  0.16233400195E-02  0.17130000004E+03  0.17130000000E+03 0.  1.
      622    1    1    2    0    0 -0.64081329268E-02  0.14528850928E-02  0.39736326189E+01  0.39738393733E+01  0.40000000000E-01 0. -1.
</event>
<event>
 5   0  0.6200596E+07  0.9118800E+02  0.7818608E-02  0.1180000E+00
       11   -1    0    0    0    0  0.00000000000E+00  0.00000000000E+00  0.39999999673E+01  0.40000000000E+01  0.51109989000E-03 0.  1.
     -623   -1    0    0    0    0  0.00000000000E+00  0.00000000000E+00  0.12525980253E-10  0.17130000000E+03  0.17130000000E+03 0. -1.
       11    1    1    2    0    0  0.32658434447E-02 -0.23206046902E-02  0.36324361903E+00  0.36326607181E+00  0.51109989000E-03 0.  1.
     -623    1    1    2    0    0  0.25253542303E-02  0.33008982342E-02  0.24719840407E-03  0.17130000005E+03  0.17130000000E+03 0. -1.
      622    1    1    2    0    0 -0.57911976750E-02 -0.98029354405E-03  0.36365091499E+01  0.36367338776E+01  0.40000000000E-01 0.  1.
</event>
<event>
 5   0  0.6200596E+07  0.9118800E+02  0.7818608E-02  0.1180000E+00
       11   -1    0    0    0    0  0.00000000000E+00  0.00000000000E+00  0.39999999673E+01  0.40000000000E+01  0.51109989000E-03 0. -1.
     -623   -1    0    0    0    0  0.00000000000E+00  0.00000000000E+00  0.12525980253E-10  0.17130000000E+03  0.17130000000E+03 0. -1.
       11    1    1    2    0    0  0.51083576799E-03 -0.29802034752E-02  0.14323576033E-01  0.14648160895E-01  0.51109989000E-03 0. -1.
     -623    1    1    2    0    0  0.63376384688E-03  0.44755007748E-03  0.52626409576E-03  0.17130000000E+03  0.17130000000E+03 0. -1.
      622    1    1    2    0    0 -0.11445996149E-02  0.25326533977E-02  0.39851501272E+01  0.39853518365E+01  0.40000000000E-01 0. -1.
</event>
<event>
 5   0  0.6200596E+07  0.9118800E+02  0.7818608E-02  0.1180000E+00
       11   -1    0    0    0    0  0.00000000000E+00  0.00000000000E+00  0.39999999673E+01  0.40000000000E+01  0.51109989000E-03 0.  1.
     -623   -1    0    0    0    0  0.00000000000E+00  0.00000000000E+00  0.12525980253E-10  0.17130000000E+03  0.17130000000E+03 0.  1.
       11    1    1    2    0    0  0.93046701588E-02  0.12000774854E-01  0.59468792654E-01  0.61379100725E-01  0.51109989000E-03 0.  1.
     -623    1    1    2    0    0 -0.12852519912E-01 -0.67111205540E-02  0.21191744671E-02  0.17130000063E+03  0.17130000000E+03 0.  1.
      622    1    1    2    0    0  0.35478497530E-02 -0.52896543001E-02  0.39384120002E+01  0.39386202725E+01  0.40000000000E-01 0.  1.
</event>
<event>
 5   0  0.6200596E+07  0.9118800E+02  0.7818608E-02  0.1180000E+00
       11   -1    0    0    0    0  0.00000000000E+00  0.00000000000E+00  0.39999999673E+01  0.40000000000E+01  0.51109989000E-03 0.  1.
     -623   -1    0    0    0    0  0.00000000000E+00  0.00000000000E+00  0.12525980253E-10  0.17130000000E+03  0.17130000000E+03 0. -1.
       11    1    1    2    0    0 -0.27591587725E-01 -0.29752542495E-01  0.12647241619E+01  0.12653750339E+01  0.51109989000E-03 0.  1.
     -623    1    1    2    0    0  0.51309825571E-02  0.42767276316E-01  0.10720446111E-02  0.17130000542E+03  0.17130000000E+03 0. -1.
      622    1    1    2    0    0  0.22460605167E-01 -0.13014733821E-01  0.27342037609E+01  0.27346195472E+01  0.40000000000E-01 0.  1.
</event>
<event>
 5   0  0.6200596E+07  0.9118800E+02  0.7818608E-02  0.1180000E+00
       11   -1    0    0    0    0  0.00000000000E+00  0.00000000000E+00  0.39999999673E+01  0.40000000000E+01  0.51109989000E-03 0.  1.
     -623   -1    0    0    0    0  0.00000000000E+00  0.00000000000E+00  0.12525980253E-10  0.17130000000E+03  0.17130000000E+03 0. -1.
       11    1    1    2    0    0 -0.14984970142E-02 -0.19396417196E-01  0.12754394947E+00  0.12902010215E+00  0.51109989000E-03 0.  1.
     -623    1    1    2    0    0  0.58219133272E-02  0.12710855244E-02  0.17277556595E-02  0.17130000011E+03  0.17130000000E+03 0. -1.
      622    1    1    2    0    0 -0.43234163131E-02  0.18125331671E-01  0.38707282622E+01  0.38709797855E+01  0.40000000000E-01 0.  1.
</event>
<event>
 5   0  0.6200596E+07  0.9118800E+02  0.7818608E-02  0.1180000E+00
       11   -1    0    0    0    0  0.00000000000E+00  0.00000000000E+00  0.39999999673E+01  0.40000000000E+01  0.51109989000E-03 0.  1.
     -623   -1    0    0    0    0  0.00000000000E+00  0.00000000000E+00  0.12525980253E-10  0.17130000000E+03  0.17130000000E+03 0. -1.
       11    1    1    2    0    0  0.26386997895E-02  0.59397105820E-03  0.19715173870E-01  0.19906402002E-01  0.51109989000E-03 0.  1.
     -623    1    1    2    0    0 -0.10236995709E-02  0.72453818897E-03  0.39275198901E-03  0.17130000001E+03  0.17130000000E+03 0. -1.
      622    1    1    2    0    0 -0.16150002187E-02 -0.13185092472E-02  0.39798920415E+01  0.39800935930E+01  0.40000000000E-01 0.  1.
</event>
<event>
 5   0  0.6200596E+07  0.9118800E+02  0.7818608E-02  0.1180000E+00
       11   -1    0    0    0    0  0.00000000000E+00  0.00000000000E+00  0.39999999673E+01  0.40000000000E+01  0.51109989000E-03 0.  1.
     -623   -1    0    0    0    0  0.00000000000E+00  0.00000000000E+00  0.12525980253E-10  0.17130000000E+03  0.17130000000E+03 0.  1.
       11    1    1    2    0    0 -0.15529816026E-01  0.17338476870E-01  0.43674942975E+00  0.43736955035E+00  0.51109989000E-03 0.  1.
     -623    1    1    2    0    0  0.11227745344E-02 -0.25137624993E-01  0.88416864460E-03  0.17130000185E+03  0.17130000000E+03 0.  1.
      622    1    1    2    0    0  0.14407041492E-01  0.77991481230E-02  0.35623663690E+01  0.35626285993E+01  0.40000000000E-01 0.  1.
</event>
<event>
 5   0  0.6200596E+07  0.9118800E+02  0.7818608E-02  0.1180000E+00
       11   -1    0    0    0    0  0.00000000000E+00  0.00000000000E+00  0.39999999673E+01  0.40000000000E+01  0.51109989000E-03 0. -1.
     -623   -1    0    0    0    0  0.00000000000E+00  0.00000000000E+00  0.12525980253E-10  0.17130000000E+03  0.17130000000E+03 0. -1.
       11    1    1    2    0    0  0.48879757913E-02  0.13744055105E-01  0.80807625928E+00  0.80820807555E+00  0.51109989000E-03 0. -1.
     -623    1    1    2    0    0  0.90385242137E-03 -0.34560431187E-02  0.40431135479E-03  0.17130000004E+03  0.17130000000E+03 0. -1.
      622    1    1    2    0    0 -0.57918282127E-02 -0.10288011986E-01  0.31915193967E+01  0.31917918867E+01  0.40000000000E-01 0.  0.
</event>
<event>
 5   0  0.6200596E+07  0.9118800E+02  0.7818608E-02  0.1180000E+00
       11   -1    0    0    0    0  0.00000000000E+00  0.00000000000E+00  0.39999999673E+01  0.40000000000E+01  0.51109989000E-03 0. -1.
     -623   -1    0    0    0    0  0.00000000000E+00  0.00000000000E+00  0.12525980253E-10  0.17130000000E+03  0.17130000000E+03 0.  1.
       11    1    1    2    0    0  0.10528154816E-01 -0.12072024900E-02  0.89553963627E-01  0.90180225136E-01  0.51109989000E-03 0. -1.
     -623    1    1    2    0    0 -0.22381015756E-02 -0.88330902699E-02  0.85277326833E-03  0.17130000024E+03  0.17130000000E+03 0.  1.
      622    1    1    2    0    0 -0.82900532408E-02  0.10040292760E-01  0.39095932305E+01  0.39098195304E+01  0.40000000000E-01 0. -1.
</event>
<event>
 5   0  0.6200596E+07  0.9118800E+02  0.7818608E-02  0.1180000E+00
       11   -1    0    0    0    0  0.00000000000E+00  0.00000000000E+00  0.39999999673E+01  0.40000000000E+01  0.51109989000E-03 0.  1.
     -623   -1    0    0    0    0  0.00000000000E+00  0.00000000000E+00  0.12525980253E-10  0.17130000000E+03  0.17130000000E+03 0.  1.
       11    1    1    2    0    0  0.40428995336E-03 -0.42886037542E-03  0.81720009377E-01  0.81723732935E-01  0.51109989000E-03 0.  1.
     -623    1    1    2    0    0 -0.14529850841E-03 -0.76626598711E-04  0.20790902335E-03  0.17130000000E+03  0.17130000000E+03 0.  1.
      622    1    1    2    0    0 -0.25899144495E-03  0.50548697413E-03  0.39180720490E+01  0.39182762669E+01  0.40000000000E-01 0.  1.
</event>
<event>
 5   0  0.6200596E+07  0.9118800E+02  0.7818608E-02  0.1180000E+00
       11   -1    0    0    0    0  0.00000000000E+00  0.00000000000E+00  0.39999999673E+01  0.40000000000E+01  0.51109989000E-03 0.  1.
     -623   -1    0    0    0    0  0.00000000000E+00  0.00000000000E+00  0.12525980253E-10  0.17130000000E+03  0.17130000000E+03 0.  1.
       11    1    1    2    0    0  0.25482320849E-02  0.34613906739E-02  0.16589992844E-01  0.17145372431E-01  0.51109989000E-03 0.  1.
     -623    1    1    2    0    0 -0.10496329432E-03 -0.32841000343E-02  0.75699955003E-03  0.17130000003E+03  0.17130000000E+03 0.  1.
      622    1    1    2    0    0 -0.24432687906E-02 -0.17729063961E-03  0.39826529750E+01  0.39828545944E+01  0.40000000000E-01 0.  1.
</event>
<event>
 5   0  0.6200596E+07  0.9118800E+02  0.7818608E-02  0.1180000E+00
       11   -1    0    0    0    0  0.00000000000E+00  0.00000000000E+00  0.39999999673E+01  0.40000000000E+01  0.51109989000E-03 0.  1.
     -623   -1    0    0    0    0  0.00000000000E+00  0.00000000000E+00  0.12525980253E-10  0.17130000000E+03  0.17130000000E+03 0.  1.
       11    1    1    2    0    0 -0.19044722249E-03  0.25076179702E-02  0.33660176967E-01  0.33757860613E-01  0.51109989000E-03 0.  1.
     -623    1    1    2    0    0 -0.71849644128E-03  0.27044463459E-03  0.30043749896E-03  0.17130000000E+03  0.17130000000E+03 0.  1.
      622    1    1    2    0    0  0.90894366377E-03 -0.27780626048E-02  0.39660393529E+01  0.39662421374E+01  0.40000000000E-01 0.  1.
</event>
<event>
 5   0  0.6200596E+07  0.9118800E+02  0.7818608E-02  0.1180000E+00
       11   -1    0    0    0    0  0.00000000000E+00  0.00000000000E+00  0.39999999673E+01  0.40000000000E+01  0.51109989000E-03 0.  1.
     -623   -1    0    0    0    0  0.00000000000E+00  0.00000000000E+00  0.12525980253E-10  0.17130000000E+03  0.17130000000E+03 0.  1.
       11    1    1    2    0    0  0.65064549264E-02  0.70932676124E-02  0.96384041841E+00  0.96388861482E+00  0.51109989000E-03 0.  1.
     -623    1    1    2    0    0 -0.33906358716E-02 -0.61113496153E-04  0.32144753146E-03  0.17130000003E+03  0.17130000000E+03 0.  1.
      622    1    1    2    0    0 -0.31158190548E-02 -0.70321541162E-02  0.30358381014E+01  0.30361113513E+01  0.40000000000E-01 0.  1.
</event>
<event>
 5   0  0.6200596E+07  0.9118800E+02  0.7818608E-02  0.1180000E+00
       11   -1    0    0    0    0  0.00000000000E+00  0.00000000000E+00  0.39999999673E+01  0.40000000000E+01  0.51109989000E-03 0. -1.
     -623   -1    0    0    0    0  0.00000000000E+00  0.00000000000E+00  0.12525980253E-10  0.17130000000E+03  0.17130000000E+03 0.  1.
       11    1    1    2    0    0  0.13965355002E-01  0.88936097717E-04  0.11777190502E+00  0.11859815295E+00  0.51109989000E-03 0. -1.
     -623    1    1    2    0    0  0.88625126013E-03 -0.48785398434E-02  0.10637776102E-02  0.17130000008E+03  0.17130000000E+03 0.  1.
      622    1    1    2    0    0 -0.14851606262E-01  0.47896037457E-02  0.38811642847E+01  0.38814017720E+01  0.40000000000E-01 0. -1.
</event>
<event>
 5   0  0.6200596E+07  0.9118800E+02  0.7818608E-02  0.1180000E+00
       11   -1    0    0    0    0  0.00000000000E+00  0.00000000000E+00  0.39999999673E+01  0.40000000000E+01  0.51109989000E-03 0. -1.
     -623   -1    0    0    0    0  0.00000000000E+00  0.00000000000E+00  0.12525980253E-10  0.17130000000E+03  0.17130000000E+03 0.  1.
       11    1    1    2    0    0  0.82184293724E-02  0.12395839887E-01  0.30457255754E+00  0.30493590057E+00  0.51109989000E-03 0. -1.
     -623    1    1    2    0    0  0.15967987938E-02 -0.34891424951E-02  0.60363790854E-03  0.17130000004E+03  0.17130000000E+03 0.  1.
      622    1    1    2    0    0 -0.98152281661E-02 -0.89066973914E-02  0.36948237719E+01  0.36950640554E+01  0.40000000000E-01 0. -1.
</event>
<event>
 5   0  0.6200596E+07  0.9118800E+02  0.7818608E-02  0.1180000E+00
       11   -1    0    0    0    0  0.00000000000E+00  0.00000000000E+00  0.39999999673E+01  0.40000000000E+01  0.51109989000E-03 0. -1.
     -623   -1    0    0    0    0  0.00000000000E+00  0.00000000000E+00  0.12525980253E-10  0.17130000000E+03  0.17130000000E+03 0.  1.
       11    1    1    2    0    0  0.22502724525E-01  0.90084354385E-02  0.17498119072E+00  0.17665277480E+00  0.51109989000E-03 0. -1.
     -623    1    1    2    0    0 -0.15714313395E-02 -0.77271989815E-02  0.19385038591E-02  0.17130000019E+03  0.17130000000E+03 0.  1.
      622    1    1    2    0    0 -0.20931293185E-01 -0.12812364570E-02  0.38230802728E+01  0.38233470327E+01  0.40000000000E-01 0. -1.
</event>
<event>
 5   0  0.6200596E+07  0.9118800E+02  0.7818608E-02  0.1180000E+00
       11   -1    0    0    0    0  0.00000000000E+00  0.00000000000E+00  0.39999999673E+01  0.40000000000E+01  0.51109989000E-03 0. -1.
     -623   -1    0    0    0    0  0.00000000000E+00  0.00000000000E+00  0.12525980253E-10  0.17130000000E+03  0.17130000000E+03 0.  1.
       11    1    1    2    0    0  0.30521304222E-02 -0.62019919230E-02 -0.19951514861E-02  0.72126315479E-02  0.51109989000E-03 0. -1.
     -623    1    1    2    0    0 -0.31277334079E-03  0.12198270028E-01  0.94142525563E-02  0.17130000069E+03  0.17130000000E+03 0.  1.
      622    1    1    2    0    0 -0.27393570814E-02 -0.59962781050E-02  0.39925808663E+01  0.39927866752E+01  0.40000000000E-01 0. -1.
</event>
<event>
 5   0  0.6200596E+07  0.9118800E+02  0.7818608E-02  0.1180000E+00
       11   -1    0    0    0    0  0.00000000000E+00  0.00000000000E+00  0.39999999673E+01  0.40000000000E+01  0.51109989000E-03 0. -1.
     -623   -1    0    0    0    0  0.00000000000E+00  0.00000000000E+00  0.12525980253E-10  0.17130000000E+03  0.17130000000E+03 0. -1.
       11    1    1    2    0    0  0.48604103480E-03  0.76103952935E-02  0.15986547926E+00  0.16004807725E+00  0.51109989000E-03 0. -1.
     -623    1    1    2    0    0  0.12104651226E-02 -0.19183303028E-02  0.39551619031E-03  0.17130000002E+03  0.17130000000E+03 0. -1.
      622    1    1    2    0    0 -0.16965061574E-02 -0.56920649907E-02  0.38397389719E+01  0.38399519073E+01  0.40000000000E-01 0. -1.
</event>
<event>
 5   0  0.6200596E+07  0.9118800E+02  0.7818608E-02  0.1180000E+00
       11   -1    0    0    0    0  0.00000000000E+00  0.00000000000E+00  0.39999999673E+01  0.40000000000E+01  0.51109989000E-03 0. -1.
     -623   -1    0    0    0    0  0.00000000000E+00  0.00000000000E+00  0.12525980253E-10  0.17130000000E+03  0.17130000000E+03 0. -1.
       11    1    1    2    0    0  0.50350074276E-02 -0.11690349313E-03  0.32711629238E-01  0.33101010197E-01  0.51109989000E-03 0. -1.
     -623    1    1    2    0    0 -0.52958169247E-03 -0.44336304476E-03  0.59362295534E-03  0.17130000000E+03  0.17130000000E+03 0. -1.
      622    1    1    2    0    0 -0.45054257352E-02  0.56026653789E-03  0.39666947152E+01  0.39668989874E+01  0.40000000000E-01 0. -1.
</event>
<event>
 5   0  0.6200596E+07  0.9118800E+02  0.7818608E-02  0.1180000E+00
       11   -1    0    0    0    0  0.00000000000E+00  0.00000000000E+00  0.39999999673E+01  0.40000000000E+01  0.51109989000E-03 0.  1.
     -623   -1    0    0    0    0  0.00000000000E+00  0.00000000000E+00  0.12525980253E-10  0.17130000000E+03  0.17130000000E+03 0. -1.
       11    1    1    2    0    0  0.77571078924E-02 -0.28937851747E-03  0.52258248633E-01  0.52834101060E-01  0.51109989000E-03 0.  1.
     -623    1    1    2    0    0 -0.14318074696E-02 -0.90673797174E-02  0.79490896136E-03  0.17130000025E+03  0.17130000000E+03 0. -1.
      622    1    1    2    0    0 -0.63253004227E-02  0.93567582348E-02  0.39469468098E+01  0.39471656511E+01  0.40000000000E-01 0.  1.
</event>
<event>
 5   0  0.6200596E+07  0.9118800E+02  0.7818608E-02  0.1180000E+00
       11   -1    0    0    0    0  0.00000000000E+00  0.00000000000E+00  0.39999999673E+01  0.40000000000E+01  0.51109989000E-03 0.  1.
     -623   -1    0    0    0    0  0.00000000000E+00  0.00000000000E+00  0.12525980253E-10  0.17130000000E+03  0.17130000000E+03 0. -1.
       11    1    1    2    0    0  0.67528181889E-02 -0.67461279405E-01  0.11448536912E+00  0.13305557386E+00  0.51109989000E-03 0.  1.
     -623    1    1    2    0    0 -0.12929191364E-01  0.54995330454E-01  0.18812436232E-01  0.17130001035E+03  0.17130000000E+03 0. -1.
      622    1    1    2    0    0  0.61763731755E-02  0.12465948951E-01  0.38667021620E+01  0.38669340772E+01  0.40000000000E-01 0.  1.
</event>
<event>
 5   0  0.6200596E+07  0.9118800E+02  0.7818608E-02  0.1180000E+00
       11   -1    0    0    0    0  0.00000000000E+00  0.00000000000E+00  0.39999999673E+01  0.40000000000E+01  0.51109989000E-03 0. -1.
     -623   -1    0    0    0    0  0.00000000000E+00  0.00000000000E+00  0.12525980253E-10  0.17130000000E+03  0.17130000000E+03 0. -1.
       11    1    1    2    0    0 -0.14492732997E-02 -0.21933198286E-02  0.44088153739E-01  0.44169418905E-01  0.51109989000E-03 0. -1.
     -623    1    1    2    0    0  0.89942026972E-03 -0.17843880702E-03  0.28422277418E-03  0.17130000000E+03  0.17130000000E+03 0. -1.
      622    1    1    2    0    0  0.54985303002E-03  0.23717586356E-02  0.39556275908E+01  0.39558305784E+01  0.40000000000E-01 0. -1.
</event>
<event>
 5   0  0.6200596E+07  0.9118800E+02  0.7818608E-02  0.1180000E+00
       11   -1    0    0    0    0  0.00000000000E+00  0.00000000000E+00  0.39999999673E+01  0.40000000000E+01  0.51109989000E-03 0.  1.
     -623   -1    0    0    0    0  0.00000000000E+00  0.00000000000E+00  0.12525980253E-10  0.17130000000E+03  0.17130000000E+03 0. -1.
       11    1    1    2    0    0 -0.14052830292E+00 -0.24673205682E-01  0.98065214405E+00  0.99097722468E+00  0.51109989000E-03 0.  1.
     -623    1    1    2    0    0  0.39495031479E-01 -0.73764617349E-01  0.13920407378E-01  0.17130002100E+03  0.17130000000E+03 0. -1.
      622    1    1    2    0    0  0.10103327144E+00  0.98437823031E-01  0.30054274159E+01  0.30090017746E+01  0.40000000000E-01 0.  1.
</event>
<event>
 5   0  0.6200596E+07  0.9118800E+02  0.7818608E-02  0.1180000E+00
       11   -1    0    0    0    0  0.00000000000E+00  0.00000000000E+00  0.39999999673E+01  0.40000000000E+01  0.51109989000E-03 0. -1.
     -623   -1    0    0    0    0  0.00000000000E+00  0.00000000000E+00  0.12525980253E-10  0.17130000000E+03  0.17130000000E+03 0. -1.
       11    1    1    2    0    0  0.55610205727E-02  0.98855076871E-02  0.28675734237E+00  0.28698202529E+00  0.51109989000E-03 0. -1.
     -623    1    1    2    0    0 -0.27102107267E-01  0.12421967261E-01  0.57221600461E-03  0.17130000260E+03  0.17130000000E+03 0. -1.
      622    1    1    2    0    0  0.21541086694E-01 -0.22307474948E-01  0.37126704090E+01  0.37130153794E+01  0.40000000000E-01 0. -1.
</event>
<event>
 5   0  0.6200596E+07  0.9118800E+02  0.7818608E-02  0.1180000E+00
       11   -1    0    0    0    0  0.00000000000E+00  0.00000000000E+00  0.39999999673E+01  0.40000000000E+01  0.51109989000E-03 0. -1.
     -623   -1    0    0    0    0  0.00000000000E+00  0.00000000000E+00  0.12525980253E-10  0.17130000000E+03  0.17130000000E+03 0.  1.
       11    1    1    2    0    0  0.41414268206E-04  0.17850626368E-02  0.51367465047E-01  0.51401029669E-01  0.51109989000E-03 0. -1.
     -623    1    1    2    0    0  0.17022614062E-02  0.16068000402E-02  0.23799875216E-03  0.17130000002E+03  0.17130000000E+03 0.  1.
      622    1    1    2    0    0 -0.17436756744E-02 -0.33918626771E-02  0.39483945036E+01  0.39485989542E+01  0.40000000000E-01 0. -1.
</event>
<event>
 5   0  0.6200596E+07  0.9118800E+02  0.7818608E-02  0.1180000E+00
       11   -1    0    0    0    0  0.00000000000E+00  0.00000000000E+00  0.39999999673E+01  0.40000000000E+01  0.51109989000E-03 0.  1.
     -623   -1    0    0    0    0  0.00000000000E+00  0.00000000000E+00  0.12525980253E-10  0.17130000000E+03  0.17130000000E+03 0. -1.
       11    1    1    2    0    0  0.14301793245E-02  0.20550685339E-01  0.36481560259E+00  0.36539712806E+00  0.51109989000E-03 0.  1.
     -623    1    1    2    0    0  0.35581884864E-02 -0.13043665324E-01  0.81331808884E-03  0.17130000054E+03  0.17130000000E+03 0. -1.
      622    1    1    2    0    0 -0.49883678109E-02 -0.75070200152E-02  0.36343710467E+01  0.36346023364E+01  0.40000000000E-01 0.  1.
</event>
<event>
 5   0  0.6200596E+07  0.9118800E+02  0.7818608E-02  0.1180000E+00
       11   -1    0    0    0    0  0.00000000000E+00  0.00000000000E+00  0.39999999673E+01  0.40000000000E+01  0.51109989000E-03 0. -1.
     -623   -1    0    0    0    0  0.00000000000E+00  0.00000000000E+00  0.12525980253E-10  0.17130000000E+03  0.17130000000E+03 0. -1.
       11    1    1    2    0    0 -0.36044240550E-02  0.12603413822E-02  0.52393327357E-01  0.52534772356E-01  0.51109989000E-03 0. -1.
     -623    1    1    2    0    0  0.56921564654E-02 -0.35601525392E-03  0.34483025258E-03  0.17130000010E+03  0.17130000000E+03 0. -1.
      622    1    1    2    0    0 -0.20877324104E-02 -0.90432612830E-03  0.39472618098E+01  0.39474651324E+01  0.40000000000E-01 0. -1.
</event>
<event>
 5   0  0.6200596E+07  0.9118800E+02  0.7818608E-02  0.1180000E+00
       11   -1    0    0    0    0  0.00000000000E+00  0.00000000000E+00  0.39999999673E+01  0.40000000000E+01  0.51109989000E-03 0.  1.
     -623   -1    0    0    0    0  0.00000000000E+00  0.00000000000E+00  0.12525980253E-10  0.17130000000E+03  0.17130000000E+03 0. -1.
       11    1    1    2    0    0  0.17132780219E-01 -0.23531563653E-01  0.12533586006E+01  0.12536966577E+01  0.51109989000E-03 0.  1.
     -623    1    1    2    0    0  0.22697563421E-02  0.10172578418E-02  0.79020796404E-03  0.17130000002E+03  0.17130000000E+03 0. -1.
      622    1    1    2    0    0 -0.19402536561E-01  0.22514305811E-01  0.27458511588E+01  0.27463033224E+01  0.40000000000E-01 0.  1.
</event>
<event>
 5   0  0.6200596E+07  0.9118800E+02  0.7818608E-02  0.1180000E+00
       11   -1    0    0    0    0  0.00000000000E+00  0.00000000000E+00  0.39999999673E+01  0.40000000000E+01  0.51109989000E-03 0.  1.
     -623   -1    0    0    0    0  0.00000000000E+00  0.00000000000E+00  0.12525980253E-10  0.17130000000E+03  0.17130000000E+03 0.  1.
       11    1    1    2    0    0 -0.15448599052E-02  0.17416880048E-02  0.31034989917E+00  0.31035905208E+00  0.51109989000E-03 0.  1.
     -623    1    1    2    0    0 -0.21991106276E-02  0.91845381085E-02  0.24428914388E-03  0.17130000026E+03  0.17130000000E+03 0.  1.
      622    1    1    2    0    0  0.37439705329E-02 -0.10926226113E-01  0.36894057790E+01  0.36896406874E+01  0.40000000000E-01 0.  1.
</event>
<event>
 5   0  0.6200596E+07  0.9118800E+02  0.7818608E-02  0.1180000E+00
       11   -1    0    0    0    0  0.00000000000E+00  0.00000000000E+00  0.39999999673E+01  0.40000000000E+01  0.51109989000E-03 0.  1.
     -623   -1    0    0    0    0  0.00000000000E+00  0.00000000000E+00  0.12525980253E-10  0.17130000000E+03  0.17130000000E+03 0. -1.
       11    1    1    2    0    0 -0.29249101826E-02 -0.83518212052E-02  0.90878170616E-01  0.91309425214E-01  0.51109989000E-03 0.  1.
     -623    1    1    2    0    0  0.13828937268E-03  0.33042732468E-03  0.64512558627E-03  0.17130000000E+03  0.17130000000E+03 0. -1.
      622    1    1    2    0    0  0.27866208099E-02  0.80213938805E-02  0.39084766712E+01  0.39086905732E+01  0.40000000000E-01 0.  1.
</event>
<event>
 5   0  0.6200596E+07  0.9118800E+02  0.7818608E-02  0.1180000E+00
       11   -1    0    0    0    0  0.00000000000E+00  0.00000000000E+00  0.39999999673E+01  0.40000000000E+01  0.51109989000E-03 0. -1.
     -623   -1    0    0    0    0  0.00000000000E+00  0.00000000000E+00  0.12525980253E-10  0.17130000000E+03  0.17130000000E+03 0.  1.
       11    1    1    2    0    0  0.43773405858E-02  0.68636705366E-02  0.45283931465E-01  0.46012680372E-01  0.51109989000E-03 0. -1.
     -623    1    1    2    0    0  0.31630725847E-02 -0.84493479270E-03  0.94285413138E-03  0.17130000003E+03  0.17130000000E+03 0.  1.
      622    1    1    2    0    0 -0.75404131705E-02 -0.60187357439E-02  0.39537731818E+01  0.39539872857E+01  0.40000000000E-01 0. -1.
</event>
<event>
 5   0  0.6200596E+07  0.9118800E+02  0.7818608E-02  0.1180000E+00
       11   -1    0    0    0    0  0.00000000000E+00  0.00000000000E+00  0.39999999673E+01  0.40000000000E+01  0.51109989000E-03 0. -1.
     -623   -1    0    0    0    0  0.00000000000E+00  0.00000000000E+00  0.12525980253E-10  0.17130000000E+03  0.17130000000E+03 0. -1.
       11    1    1    2    0    0  0.60020138221E-03  0.20302212157E-02  0.11525641538E+00  0.11527699054E+00  0.51109989000E-03 0. -1.
     -623    1    1    2    0    0 -0.27957384276E-02  0.24567900437E-02  0.22973539216E-03  0.17130000004E+03  0.17130000000E+03 0. -1.
      622    1    1    2    0    0  0.21955370454E-02 -0.44870112593E-02  0.38845138166E+01  0.38847229689E+01  0.40000000000E-01 0. -1.
</event>
<event>
 5   0  0.6200596E+07  0.9118800E+02  0.7818608E-02  0.1180000E+00
       11   -1    0    0    0    0  0.00000000000E+00  0.00000000000E+00  0.39999999673E+01  0.40000000000E+01  0.51109989000E-03 0.  1.
     -623   -1    0    0    0    0  0.00000000000E+00  0.00000000000E+00  0.12525980253E-10  0.17130000000E+03  0.17130000000E+03 0.  1.
       11    1    1    2    0    0  0.73807573094E-02  0.34313240490E-02  0.18872660566E+00  0.18890273283E+00  0.51109989000E-03 0.  1.
     -623    1    1    2    0    0  0.52882515698E-02  0.11537044323E-01  0.43693956028E-03  0.17130000047E+03  0.17130000000E+03 0.  1.
      622    1    1    2    0    0 -0.12669008879E-01 -0.14968368372E-01  0.38108364221E+01  0.38110967965E+01  0.40000000000E-01 0.  1.
</event>
<event>
 5   0  0.6200596E+07  0.9118800E+02  0.7818608E-02  0.1180000E+00
       11   -1    0    0    0    0  0.00000000000E+00  0.00000000000E+00  0.39999999673E+01  0.40000000000E+01  0.51109989000E-03 0.  1.
     -623   -1    0    0    0    0  0.00000000000E+00  0.00000000000E+00  0.12525980253E-10  0.17130000000E+03  0.17130000000E+03 0. -1.
       11    1    1    2    0    0  0.77451133139E-03  0.45078914453E-03  0.81915259820E-02  0.82562338413E-02  0.51109989000E-03 0.  1.
     -623    1    1    2    0    0 -0.17490698279E-02  0.72424525723E-03  0.26539650870E-03  0.17130000001E+03  0.17130000000E+03 0. -1.
      622    1    1    2    0    0  0.97455849651E-03 -0.11750344018E-02  0.39915430449E+01  0.39917437555E+01  0.40000000000E-01 0.  1.
</event>
<event>
 5   0  0.6200596E+07  0.9118800E+02  0.7818608E-02  0.1180000E+00
       11   -1    0    0    0    0  0.00000000000E+00  0.00000000000E+00  0.39999999673E+01  0.40000000000E+01  0.51109989000E-03 0. -1.
     -623   -1    0    0    0    0  0.00000000000E+00  0.00000000000E+00  0.12525980253E-10  0.17130000000E+03  0.17130000000E+03 0. -1.
       11    1    1    2    0    0  0.23969092412E-01  0.22582280189E-01  0.13346937697E+01  0.13351000700E+01  0.51109989000E-03 0. -1.
     -623    1    1    2    0    0 -0.38715839099E-02 -0.13372616906E-01  0.79876022297E-03  0.17130000057E+03  0.17130000000E+03 0. -1.
      622    1    1    2    0    0 -0.20097508502E-01 -0.92096632827E-02  0.26645074375E+01  0.26648993625E+01  0.40000000000E-01 0. -1.
</event>
<event>
 5   0  0.6200596E+07  0.9118800E+02  0.7818608E-02  0.1180000E+00
       11   -1    0    0    0    0  0.00000000000E+00  0.00000000000E+00  0.39999999673E+01  0.40000000000E+01  0.51109989000E-03 0.  1.
     -623   -1    0    0    0    0  0.00000000000E+00  0.00000000000E+00  0.12525980253E-10  0.17130000000E+03  0.17130000000E+03 0. -1.
       11    1    1    2    0    0 -0.29153658668E-01  0.63905607137E-02  0.20148320743E+01  0.20150531815E+01  0.51109989000E-03 0.  1.
     -623    1    1    2    0    0  0.21078945805E-01 -0.14078460389E-01  0.65734445341E-03  0.17130000188E+03  0.17130000000E+03 0. -1.
      622    1    1    2    0    0  0.80747128623E-02  0.76878996757E-02  0.19845105486E+01  0.19849449418E+01  0.40000000000E-01 0.  0.
</event>
<event>
 5   0  0.6200596E+07  0.9118800E+02  0.7818608E-02  0.1180000E+00
       11   -1    0    0    0    0  0.00000000000E+00  0.00000000000E+00  0.39999999673E+01  0.40000000000E+01  0.51109989000E-03 0.  1.
     -623   -1    0    0    0    0  0.00000000000E+00  0.00000000000E+00  0.12525980253E-10  0.17130000000E+03  0.17130000000E+03 0. -1.
       11    1    1    2    0    0  0.24456178219E-02 -0.36329647719E-03  0.62810695060E-02  0.67694967221E-02  0.51109989000E-03 0.  1.
     -623    1    1    2    0    0 -0.22747747198E-02 -0.30485963119E-02  0.69024359640E-03  0.17130000004E+03  0.17130000000E+03 0. -1.
      622    1    1    2    0    0 -0.17084310211E-03  0.34118927891E-02  0.39930286543E+01  0.39932304597E+01  0.40000000000E-01 0.  1.
</event>
<event>
 5   0  0.6200596E+07  0.9118800E+02  0.7818608E-02  0.1180000E+00
       11   -1    0    0    0    0  0.00000000000E+00  0.00000000000E+00  0.39999999673E+01  0.40000000000E+01  0.51109989000E-03 0.  1.
     -623   -1    0    0    0    0  0.00000000000E+00  0.00000000000E+00  0.12525980253E-10  0.17130000000E+03  0.17130000000E+03 0. -1.
       11    1    1    2    0    0  0.12215629285E-01  0.11356757730E-01  0.11786330651E+01  0.11787511870E+01  0.51109989000E-03 0.  1.
     -623    1    1    2    0    0  0.16926792144E-02 -0.11983526145E-03  0.45834217557E-03  0.17130000001E+03  0.17130000000E+03 0. -1.
      622    1    1    2    0    0 -0.13908308500E-01 -0.11236922468E-01  0.28209085601E+01  0.28212488040E+01  0.40000000000E-01 0.  1.
</event>
<event>
 5   0  0.6200596E+07  0.9118800E+02  0.7818608E-02  0.1180000E+00
       11   -1    0    0    0    0  0.00000000000E+00  0.00000000000E+00  0.39999999673E+01  0.40000000000E+01  0.51109989000E-03 0. -1.
     -623   -1    0    0    0    0  0.00000000000E+00  0.00000000000E+00  0.12525980253E-10  0.17130000000E+03  0.17130000000E+03 0.  1.
       11    1    1    2    0    0  0.12343193494E-01 -0.24117374589E-01  0.82862906756E+00  0.82907200834E+00  0.51109989000E-03 0. -1.
     -623    1    1    2    0    0 -0.12302234515E-02 -0.49420057470E-02  0.84793202436E-03  0.17130000008E+03  0.17130000000E+03 0.  1.
      622    1    1    2    0    0 -0.11112970042E-01  0.29059380336E-01  0.31705229678E+01  0.31709279139E+01  0.40000000000E-01 0. -1.
</event>
<event>
 5   0  0.6200596E+07  0.9118800E+02  0.7818608E-02  0.1180000E+00
       11   -1    0    0    0    0  0.00000000000E+00  0.00000000000E+00  0.39999999673E+01  0.40000000000E+01  0.51109989000E-03 0. -1.
     -623   -1    0    0    0    0  0.00000000000E+00  0.00000000000E+00  0.12525980253E-10  0.17130000000E+03  0.17130000000E+03 0. -1.
       11    1    1    2    0    0  0.19895133932E-01 -0.52866138841E-02  0.20612933826E+01  0.20613962343E+01  0.51109989000E-03 0. -1.
     -623    1    1    2    0    0 -0.35341414493E-02 -0.12977183525E-02  0.59581386969E-03  0.17130000004E+03  0.17130000000E+03 0. -1.
      622    1    1    2    0    0 -0.16360992482E-01  0.65843322367E-02  0.19381107709E+01  0.19386037233E+01  0.40000000000E-01 0. -1.
</event>
<event>
 5   0  0.6200596E+07  0.9118800E+02  0.7818608E-02  0.1180000E+00
       11   -1    0    0    0    0  0.00000000000E+00  0.00000000000E+00  0.39999999673E+01  0.40000000000E+01  0.51109989000E-03 0. -1.
     -623   -1    0    0    0    0  0.00000000000E+00  0.00000000000E+00  0.12525980253E-10  0.17130000000E+03  0.17130000000E+03 0. -1.
       11    1    1    2    0    0 -0.44990788235E-03  0.23344540542E-03  0.72525356331E-02  0.72881689952E-02  0.51109989000E-03 0. -1.
     -623    1    1    2    0    0  0.43980438347E-03  0.12650921745E-03  0.23598783624E-03  0.17130000000E+03  0.17130000000E+03 0. -1.
      622    1    1    2    0    0  0.10103498883E-04 -0.35995462286E-03  0.39925114439E+01  0.39927118302E+01  0.40000000000E-01 0. -1.
</event>
<event>
 5   0  0.6200596E+07  0.9118800E+02  0.7818608E-02  0.1180000E+00
       11   -1    0    0    0    0  0.00000000000E+00  0.00000000000E+00  0.39999999673E+01  0.40000000000E+01  0.51109989000E-03 0.  1.
     -623   -1    0    0    0    0  0.00000000000E+00  0.00000000000E+00  0.12525980253E-10  0.17130000000E+03  0.17130000000E+03 0.  1.
       11    1    1    2    0    0 -0.12376185117E-05  0.10560021639E-01  0.34523329385E+00  0.34539513961E+00  0.51109989000E-03 0.  1.
     -623    1    1    2    0    0  0.17679997183E-02 -0.54179116947E-03  0.39489125245E-03  0.17130000001E+03  0.17130000000E+03 0.  1.
      622    1    1    2    0    0 -0.17667620998E-02 -0.10018230470E-01  0.36543717823E+01  0.36546048500E+01  0.40000000000E-01 0.  1.
</event>
<event>
 5   0  0.6200596E+07  0.9118800E+02  0.7818608E-02  0.1180000E+00
       11   -1    0    0    0    0  0.00000000000E+00  0.00000000000E+00  0.39999999673E+01  0.40000000000E+01  0.51109989000E-03 0. -1.
     -623   -1    0    0    0    0  0.00000000000E+00  0.00000000000E+00  0.12525980253E-10  0.17130000000E+03  0.17130000000E+03 0. -1.
       11    1    1    2    0    0  0.52009795700E-02 -0.11895418460E-02  0.84023536579E+00  0.84025245988E+00  0.51109989000E-03 0. -1.
     -623    1    1    2    0    0  0.30403219725E-03 -0.42861820645E-03  0.27546767944E-03  0.17130000000E+03  0.17130000000E+03 0. -1.
      622    1    1    2    0    0 -0.55050117672E-02  0.16181600524E-02  0.31594891339E+01  0.31597475391E+01  0.40000000000E-01 0. -1.
</event>
<event>
 5   0  0.6200596E+07  0.9118800E+02  0.7818608E-02  0.1180000E+00
       11   -1    0    0    0    0  0.00000000000E+00  0.00000000000E+00  0.39999999673E+01  0.40000000000E+01  0.51109989000E-03 0. -1.
     -623   -1    0    0    0    0  0.00000000000E+00  0.00000000000E+00  0.12525980253E-10  0.17130000000E+03  0.17130000000E+03 0.  1.
       11    1    1    2    0    0 -0.11490691547E-01  0.20795204106E-02  0.10116025826E+00  0.10183329254E+00  0.51109989000E-03 0. -1.
     -623    1    1    2    0    0  0.15650905465E-01 -0.55555498887E-02  0.88280904445E-03  0.17130000081E+03  0.17130000000E+03 0.  1.
      622    1    1    2    0    0 -0.41602139178E-02  0.34760294781E-02  0.38979569001E+01  0.38981659001E+01  0.40000000000E-01 0. -1.
</event>
<event>
 5   0  0.6200596E+07  0.9118800E+02  0.7818608E-02  0.1180000E+00
       11   -1    0    0    0    0  0.00000000000E+00  0.00000000000E+00  0.39999999673E+01  0.40000000000E+01  0.51109989000E-03 0. -1.
     -623   -1    0    0    0    0  0.00000000000E+00  0.00000000000E+00  0.12525980253E-10  0.17130000000E+03  0.17130000000E+03 0. -1.
       11    1    1    2    0    0  0.25463344932E-02 -0.18976628172E-01  0.15517495671E+00  0.15635256521E+00  0.51109989000E-03 0. -1.
     -623    1    1    2    0    0 -0.11914311200E-01  0.17910783989E-02  0.14359856492E-02  0.17130000043E+03  0.17130000000E+03 0. -1.
      622    1    1    2    0    0  0.93679767069E-02  0.17185549774E-01  0.38433890250E+01  0.38436470051E+01  0.40000000000E-01 0. -1.
</event>
<event>
 5   0  0.6200596E+07  0.9118800E+02  0.7818608E-02  0.1180000E+00
       11   -1    0    0    0    0  0.00000000000E+00  0.00000000000E+00  0.39999999673E+01  0.40000000000E+01  0.51109989000E-03 0.  1.
     -623   -1    0    0    0    0  0.00000000000E+00  0.00000000000E+00  0.12525980253E-10  0.17130000000E+03  0.17130000000E+03 0.  1.
       11    1    1    2    0    0  0.83608942299E-04  0.88542245895E-02  0.48366754102E+00  0.48374885606E+00  0.51109989000E-03 0.  1.
     -623    1    1    2    0    0  0.19765068855E-02 -0.22934807941E-02  0.31555641389E-03  0.17130000003E+03  0.17130000000E+03 0.  1.
      622    1    1    2    0    0 -0.20601158278E-02 -0.65607437955E-02  0.35160168699E+01  0.35162511169E+01  0.40000000000E-01 0.  1.
</event>
<event>
 5   0  0.6200596E+07  0.9118800E+02  0.7818608E-02  0.1180000E+00
       11   -1    0    0    0    0  0.00000000000E+00  0.00000000000E+00  0.39999999673E+01  0.40000000000E+01  0.51109989000E-03 0.  1.
     -623   -1    0    0    0    0  0.00000000000E+00  0.00000000000E+00  0.12525980253E-10  0.17130000000E+03  0.17130000000E+03 0. -1.
       11    1    1    2    0    0 -0.11676864860E-01 -0.16732485065E-01  0.70840152056E-01  0.73721866464E-01  0.51109989000E-03 0.  1.
     -623    1    1    2    0    0 -0.61964875143E-02  0.49528242586E-02  0.31440109714E-02  0.17130000021E+03  0.17130000000E+03 0. -1.
      622    1    1    2    0    0  0.17873352374E-01  0.11779660807E-01  0.39260158043E+01  0.39262779210E+01  0.40000000000E-01 0.  1.
</event>
<event>
 5   0  0.6200596E+07  0.9118800E+02  0.7818608E-02  0.1180000E+00
       11   -1    0    0    0    0  0.00000000000E+00  0.00000000000E+00  0.39999999673E+01  0.40000000000E+01  0.51109989000E-03 0. -1.
     -623   -1    0    0    0    0  0.00000000000E+00  0.00000000000E+00  0.12525980253E-10  0.17130000000E+03  0.17130000000E+03 0.  1.
       11    1    1    2    0    0 -0.23278018261E-02  0.44944711124E-03  0.37452613708E-01  0.37531055918E-01  0.51109989000E-03 0. -1.
     -623    1    1    2    0    0 -0.21014813717E-02  0.37154814027E-02  0.28502711749E-03  0.17130000005E+03  0.17130000000E+03 0.  1.
      622    1    1    2    0    0  0.44292831979E-02 -0.41649285140E-02  0.39622623265E+01  0.39624688907E+01  0.40000000000E-01 0. -1.
</event>
<event>
 5   0  0.6200596E+07  0.9118800E+02  0.7818608E-02  0.1180000E+00
       11   -1    0    0    0    0  0.00000000000E+00  0.00000000000E+00  0.39999999673E+01  0.40000000000E+01  0.51109989000E-03 0. -1.
     -623   -1    0    0    0    0  0.00000000000E+00  0.00000000000E+00  0.12525980253E-10  0.17130000000E+03  0.17130000000E+03 0.  1.
       11    1    1    2    0    0  0.19679570855E-01  0.45175914233E-02  0.12234544679E+01  0.12236211793E+01  0.51109989000E-03 0. -1.
     -623    1    1    2    0    0 -0.14947711580E-02  0.18136282492E-02  0.52163592511E-03  0.17130000002E+03  0.17130000000E+03 0.  1.
      622    1    1    2    0    0 -0.18184799697E-01 -0.63312196725E-02  0.27760238636E+01  0.27763788038E+01  0.40000000000E-01 0. -1.
</event>
<event>
 5   0  0.6200596E+07  0.9118800E+02  0.7818608E-02  0.1180000E+00
       11   -1    0    0    0    0  0.00000000000E+00  0.00000000000E+00  0.39999999673E+01  0.40000000000E+01  0.51109989000E-03 0.  1.
     -623   -1    0    0    0    0  0.00000000000E+00  0.00000000000E+00  0.12525980253E-10  0.17130000000E+03  0.17130000000E+03 0.  1.
       11    1    1    2    0    0  0.13272099993E-01  0.11076987060E-01  0.16938002774E+01  0.16938885705E+01  0.51109989000E-03 0.  1.
     -623    1    1    2    0    0 -0.18779534551E-01 -0.24286945454E-01  0.48236151466E-03  0.17130000275E+03  0.17130000000E+03 0.  1.
      622    1    1    2    0    0  0.55074345588E-02  0.13209958394E-01  0.23057173285E+01  0.23061086778E+01  0.40000000000E-01 0.  1.
</event>
<event>
 5   0  0.6200596E+07  0.9118800E+02  0.7818608E-02  0.1180000E+00
       11   -1    0    0    0    0  0.00000000000E+00  0.00000000000E+00  0.39999999673E+01  0.40000000000E+01  0.51109989000E-03 0. -1.
     -623   -1    0    0    0    0  0.00000000000E+00  0.00000000000E+00  0.12525980253E-10  0.17130000000E+03  0.17130000000E+03 0. -1.
       11    1    1    2    0    0  0.22656140440E-03  0.17811391081E-02  0.82058103088E+00  0.82058315438E+00  0.51109989000E-03 0. -1.
     -623    1    1    2    0    0 -0.55033165026E-02 -0.15920196561E-02  0.25820007434E-03  0.17130000010E+03  0.17130000000E+03 0. -1.
      622    1    1    2    0    0  0.52767550982E-02 -0.18911945202E-03  0.31791607364E+01  0.31794167496E+01  0.40000000000E-01 0. -1.
</event>
<event>
 5   0  0.6200596E+07  0.9118800E+02  0.7818608E-02  0.1180000E+00
       11   -1    0    0    0    0  0.00000000000E+00  0.00000000000E+00  0.39999999673E+01  0.40000000000E+01  0.51109989000E-03 0. -1.
     -623   -1    0    0    0    0  0.00000000000E+00  0.00000000000E+00  0.12525980253E-10  0.17130000000E+03  0.17130000000E+03 0.  1.
       11    1    1    2    0    0  0.95627284006E-02  0.22406894975E-02  0.50115742407E+00  0.50125391908E+00  0.51109989000E-03 0. -1.
     -623    1    1    2    0    0 -0.47050440065E-02 -0.17809302891E-02  0.32860002856E-03  0.17130000007E+03  0.17130000000E+03 0.  1.
      622    1    1    2    0    0 -0.48576843941E-02 -0.45975920836E-03  0.34985139433E+01  0.34987460067E+01  0.40000000000E-01 0. -1.
</event>
<event>
 5   0  0.6200596E+07  0.9118800E+02  0.7818608E-02  0.1180000E+00
       11   -1    0    0    0    0  0.00000000000E+00  0.00000000000E+00  0.39999999673E+01  0.40000000000E+01  0.51109989000E-03 0.  1.
     -623   -1    0    0    0    0  0.00000000000E+00  0.00000000000E+00  0.12525980253E-10  0.17130000000E+03  0.17130000000E+03 0.  1.
       11    1    1    2    0    0  0.40127104077E-02  0.72035979060E-02  0.19221091063E+00  0.19238838077E+00  0.51109989000E-03 0.  1.
     -623    1    1    2    0    0 -0.82331562050E-02 -0.12081557685E-01  0.39363707080E-03  0.17130000062E+03  0.17130000000E+03 0.  1.
      622    1    1    2    0    0  0.42204457973E-02  0.48779597792E-02  0.38073954197E+01  0.38076109949E+01  0.40000000000E-01 0.  1.
</event>
<event>
 5   0  0.6200596E+07  0.9118800E+02  0.7818608E-02  0.1180000E+00
       11   -1    0    0    0    0  0.00000000000E+00  0.00000000000E+00  0.39999999673E+01  0.40000000000E+01  0.51109989000E-03 0.  1.
     -623   -1    0    0    0    0  0.00000000000E+00  0.00000000000E+00  0.12525980253E-10  0.17130000000E+03  0.17130000000E+03 0.  1.
       11    1    1    2    0    0  0.71119853947E-02  0.24353332010E-02  0.12740535604E+00  0.12762796383E+00  0.51109989000E-03 0.  1.
     -623    1    1    2    0    0 -0.24392474533E-02 -0.13293240208E-02  0.43217282806E-03  0.17130000002E+03  0.17130000000E+03 0.  1.
      622    1    1    2    0    0 -0.46727379414E-02 -0.11060091802E-02  0.38721624385E+01  0.38723720131E+01  0.40000000000E-01 0.  1.
</event>
<event>
 5   0  0.6200596E+07  0.9118800E+02  0.7818608E-02  0.1180000E+00
       11   -1    0    0    0    0  0.00000000000E+00  0.00000000000E+00  0.39999999673E+01  0.40000000000E+01  0.51109989000E-03 0. -1.
     -623   -1    0    0    0    0  0.00000000000E+00  0.00000000000E+00  0.12525980253E-10  0.17130000000E+03  0.17130000000E+03 0.  1.
       11    1    1    2    0    0  0.35409009585E-02 -0.75700432771E-02  0.12229959392E+01  0.12230246000E+01  0.51109989000E-03 0. -1.
     -623    1    1    2    0    0  0.38682048925E-03  0.53796649001E-03  0.32841034361E-03  0.17130000000E+03  0.17130000000E+03 0.  1.
      622    1    1    2    0    0 -0.39277214477E-02  0.70320767871E-02  0.27766756178E+01  0.27769753984E+01  0.40000000000E-01 0. -1.
</event>
<event>
 5   0  0.6200596E+07  0.9118800E+02  0.7818608E-02  0.1180000E+00
       11   -1    0    0    0    0  0.00000000000E+00  0.00000000000E+00  0.39999999673E+01  0.40000000000E+01  0.51109989000E-03 0.  1.
     -623   -1    0    0    0    0  0.00000000000E+00  0.00000000000E+00  0.12525980253E-10  0.17130000000E+03  0.17130000000E+03 0.  1.
       11    1    1    2    0    0 -0.21041865922E-01  0.16244968963E-01  0.15650751688E+01  0.15653009948E+01  0.51109989000E-03 0.  1.
     -623    1    1    2    0    0  0.65201389549E-02 -0.16574523803E-01  0.59866123789E-03  0.17130000093E+03  0.17130000000E+03 0.  1.
      622    1    1    2    0    0  0.14521726967E-01  0.32955483946E-03  0.24343261373E+01  0.24346980782E+01  0.40000000000E-01 0.  1.
</event>
<event>
 5   0  0.6200596E+07  0.9118800E+02  0.7818608E-02  0.1180000E+00
       11   -1    0    0    0    0  0.00000000000E+00  0.00000000000E+00  0.39999999673E+01  0.40000000000E+01  0.51109989000E-03 0. -1.
     -623   -1    0    0    0    0  0.00000000000E+00  0.00000000000E+00  0.12525980253E-10  0.17130000000E+03  0.17130000000E+03 0. -1.
       11    1    1    2    0    0  0.90048282129E-03 -0.11706060670E-02  0.35495269241E-01  0.35529657303E-01  0.51109989000E-03 0. -1.
     -623    1    1    2    0    0  0.12721144952E-03 -0.59151428777E-03  0.23667903543E-03  0.17130000000E+03  0.17130000000E+03 0. -1.
      622    1    1    2    0    0 -0.10276942708E-02  0.17621203548E-02  0.39642680191E+01  0.39644703415E+01  0.40000000000E-01 0. -1.
</event>
<event>
 5   0  0.6200596E+07  0.9118800E+02  0.7818608E-02  0.1180000E+00
       11   -1    0    0    0    0  0.00000000000E+00  0.00000000000E+00  0.39999999673E+01  0.40000000000E+01  0.51109989000E-03 0.  1.
     -623   -1    0    0    0    0  0.00000000000E+00  0.00000000000E+00  0.12525980253E-10  0.17130000000E+03  0.17130000000E+03 0.  1.
       11    1    1    2    0    0 -0.51924025343E-02 -0.10464562350E-02  0.29777962404E+00  0.29782716772E+00  0.51109989000E-03 0.  1.
     -623    1    1    2    0    0  0.63023058085E-03 -0.40685775073E-03  0.26670491901E-03  0.17130000000E+03  0.17130000000E+03 0.  1.
      622    1    1    2    0    0  0.45621719534E-02  0.14533139857E-02  0.37019536384E+01  0.37021728304E+01  0.40000000000E-01 0.  1.
</event>
<event>
 5   0  0.6200596E+07  0.9118800E+02  0.7818608E-02  0.1180000E+00
       11   -1    0    0    0    0  0.00000000000E+00  0.00000000000E+00  0.39999999673E+01  0.40000000000E+01  0.51109989000E-03 0.  1.
     -623   -1    0    0    0    0  0.00000000000E+00  0.00000000000E+00  0.12525980253E-10  0.17130000000E+03  0.17130000000E+03 0.  1.
       11    1    1    2    0    0 -0.47712897587E-02 -0.36816546011E-02  0.86674358835E-01  0.86885128117E-01  0.51109989000E-03 0.  1.
     -623    1    1    2    0    0 -0.20354400616E-03  0.58102401395E-03  0.41957528200E-03  0.17130000000E+03  0.17130000000E+03 0.  1.
      622    1    1    2    0    0  0.49748337649E-02  0.31006305872E-02  0.39129060332E+01  0.39131148703E+01  0.40000000000E-01 0.  1.
</event>
<event>
 5   0  0.6200596E+07  0.9118800E+02  0.7818608E-02  0.1180000E+00
       11   -1    0    0    0    0  0.00000000000E+00  0.00000000000E+00  0.39999999673E+01  0.40000000000E+01  0.51109989000E-03 0. -1.
     -623   -1    0    0    0    0  0.00000000000E+00  0.00000000000E+00  0.12525980253E-10  0.17130000000E+03  0.17130000000E+03 0.  1.
       11    1    1    2    0    0  0.46306382821E-03  0.95393262834E-02  0.22821108629E+00  0.22841141456E+00  0.51109989000E-03 0. -1.
     -623    1    1    2    0    0 -0.53994691731E-03 -0.56615035829E-03  0.42309178420E-03  0.17130000000E+03  0.17130000000E+03 0.  1.
      622    1    1    2    0    0  0.76883089101E-04 -0.89731759251E-02  0.37713657893E+01  0.37715885831E+01  0.40000000000E-01 0.  0.
</event>
<event>
 5   0  0.6200596E+07  0.9118800E+02  0.7818608E-02  0.1180000E+00
       11   -1    0    0    0    0  0.00000000000E+00  0.00000000000E+00  0.39999999673E+01  0.40000000000E+01  0.51109989000E-03 0.  1.
     -623   -1    0    0    0    0  0.00000000000E+00  0.00000000000E+00  0.12525980253E-10  0.17130000000E+03  0.17130000000E+03 0. -1.
       11    1    1    2    0    0 -0.22236593925E-03 -0.94225929967E-03  0.18259033127E-01  0.18291823598E-01  0.51109989000E-03 0.  1.
     -623    1    1    2    0    0  0.18230313526E-02  0.17950948419E-02  0.23411405183E-03  0.17130000002E+03  0.17130000000E+03 0. -1.
      622    1    1    2    0    0 -0.16006654133E-02 -0.85283554223E-03  0.39815068202E+01  0.39817081571E+01  0.40000000000E-01 0.  1.
</event>
<event>
 5   0  0.6200596E+07  0.9118800E+02  0.7818608E-02  0.1180000E+00
       11   -1    0    0    0    0  0.00000000000E+00  0.00000000000E+00  0.39999999673E+01  0.40000000000E+01  0.51109989000E-03 0.  1.
     -623   -1    0    0    0    0  0.00000000000E+00  0.00000000000E+00  0.12525980253E-10  0.17130000000E+03  0.17130000000E+03 0. -1.
       11    1    1    2    0    0  0.72922621739E-01 -0.24552565413E-01  0.14113309581E+01  0.14134269955E+01  0.51109989000E-03 0.  1.
     -623    1    1    2    0    0 -0.31768512057E-01  0.61868101196E-01  0.30161662317E-02  0.17130001414E+03  0.17130000000E+03 0. -1.
      622    1    1    2    0    0 -0.41154109682E-01 -0.37315535784E-01  0.25856528431E+01  0.25865588597E+01  0.40000000000E-01 0.  1.
</event>
<event>
 5   0  0.6200596E+07  0.9118800E+02  0.7818608E-02  0.1180000E+00
       11   -1    0    0    0    0  0.00000000000E+00  0.00000000000E+00  0.39999999673E+01  0.40000000000E+01  0.51109989000E-03 0.  1.
     -623   -1    0    0    0    0  0.00000000000E+00  0.00000000000E+00  0.12525980253E-10  0.17130000000E+03  0.17130000000E+03 0. -1.
       11    1    1    2    0    0  0.47890303872E-02 -0.82015705159E-02  0.84599144534E+00  0.84604490861E+00  0.51109989000E-03 0.  1.
     -623    1    1    2    0    0  0.11227192513E-02  0.75066936330E-03  0.32143888681E-03  0.17130000001E+03  0.17130000000E+03 0. -1.
      622    1    1    2    0    0 -0.59117496384E-02  0.74509011526E-02  0.31536870831E+01  0.31539550858E+01  0.40000000000E-01 0.  1.
</event>
<event>
 5   0  0.6200596E+07  0.9118800E+02  0.7818608E-02  0.1180000E+00
       11   -1    0    0    0    0  0.00000000000E+00  0.00000000000E+00  0.39999999673E+01  0.40000000000E+01  0.51109989000E-03 0.  1.
     -623   -1    0    0    0    0  0.00000000000E+00  0.00000000000E+00  0.12525980253E-10  0.17130000000E+03  0.17130000000E+03 0.  1.
       11    1    1    2    0    0 -0.23836352005E-02 -0.28922170405E-02  0.21018892209E-01  0.21356537356E-01  0.51109989000E-03 0.  1.
     -623    1    1    2    0    0 -0.79536458258E-03  0.37313600359E-03  0.54076187321E-03  0.17130000000E+03  0.17130000000E+03 0.  1.
      622    1    1    2    0    0  0.31789997831E-02  0.25190810369E-02  0.39784403133E+01  0.39786434595E+01  0.40000000000E-01 0.  1.
</event>
<event>
 5   0  0.6200596E+07  0.9118800E+02  0.7818608E-02  0.1180000E+00
       11   -1    0    0    0    0  0.00000000000E+00  0.00000000000E+00  0.39999999673E+01  0.40000000000E+01  0.51109989000E-03 0. -1.
     -623   -1    0    0    0    0  0.00000000000E+00  0.00000000000E+00  0.12525980253E-10  0.17130000000E+03  0.17130000000E+03 0. -1.
       11    1    1    2    0    0 -0.12866581538E-01  0.69157548311E-02  0.68298317799E-02  0.16133332197E-01  0.51109989000E-03 0. -1.
     -623    1    1    2    0    0  0.53874304725E-02 -0.85254642362E-02  0.95121898878E-02  0.17130000056E+03  0.17130000000E+03 0. -1.
      622    1    1    2    0    0  0.74791510652E-02  0.16097094051E-02  0.39836579457E+01  0.39838661068E+01  0.40000000000E-01 0. -1.
</event>
<event>
 5   0  0.6200596E+07  0.9118800E+02  0.7818608E-02  0.1180000E+00
       11   -1    0    0    0    0  0.00000000000E+00  0.00000000000E+00  0.39999999673E+01  0.40000000000E+01  0.51109989000E-03 0.  1.
     -623   -1    0    0    0    0  0.00000000000E+00  0.00000000000E+00  0.12525980253E-10  0.17130000000E+03  0.17130000000E+03 0.  1.
       11    1    1    2    0    0 -0.11375615737E-01 -0.33337672060E-02  0.52858788625E-01  0.54174084148E-01  0.51109989000E-03 0.  1.
     -623    1    1    2    0    0 -0.27537246963E-02  0.17987607359E-02  0.15436498916E-02  0.17130000004E+03  0.17130000000E+03 0.  1.
      622    1    1    2    0    0  0.14129340433E-01  0.15350064702E-02  0.39455975288E+01  0.39458258773E+01  0.40000000000E-01 0.  1.
</event>
<event>
 5   0  0.6200596E+07  0.9118800E+02  0.7818608E-02  0.1180000E+00
       11   -1    0    0    0    0  0.00000000000E+00  0.00000000000E+00  0.39999999673E+01  0.40000000000E+01  0.51109989000E-03 0. -1.
     -623   -1    0    0    0    0  0.00000000000E+00  0.00000000000E+00  0.12525980253E-10  0.17130000000E+03  0.17130000000E+03 0. -1.
       11    1    1    2    0    0 -0.16335965748E-02 -0.73517808082E-03  0.34032371054E-02  0.38797380887E-02  0.51109989000E-03 0. -1.
     -623    1    1    2    0    0  0.23751473827E-02  0.94451956081E-03  0.67676223221E-03  0.17130000002E+03  0.17130000000E+03 0. -1.
      622    1    1    2    0    0 -0.74155080794E-03 -0.20934147999E-03  0.39959199680E+01  0.39961202415E+01  0.40000000000E-01 0. -1.
</event>
<event>
 5   0  0.6200596E+07  0.9118800E+02  0.7818608E-02  0.1180000E+00
       11   -1    0    0    0    0  0.00000000000E+00  0.00000000000E+00  0.39999999673E+01  0.40000000000E+01  0.51109989000E-03 0. -1.
     -623   -1    0    0    0    0  0.00000000000E+00  0.00000000000E+00  0.12525980253E-10  0.17130000000E+03  0.17130000000E+03 0.  1.
       11    1    1    2    0    0 -0.33186164020E-03 -0.29318399725E-02  0.23816840102E-01  0.24004351929E-01  0.51109989000E-03 0. -1.
     -623    1    1    2    0    0 -0.27027820291E-02  0.50880178151E-02  0.39053189451E-03  0.17130000010E+03  0.17130000000E+03 0.  1.
      622    1    1    2    0    0  0.30346436693E-02 -0.21561778426E-02  0.39757925954E+01  0.39759955507E+01  0.40000000000E-01 0. -1.
</event>
<event>
 5   0  0.6200596E+07  0.9118800E+02  0.7818608E-02  0.1180000E+00
       11   -1    0    0    0    0  0.00000000000E+00  0.00000000000E+00  0.39999999673E+01  0.40000000000E+01  0.51109989000E-03 0.  1.
     -623   -1    0    0    0    0  0.00000000000E+00  0.00000000000E+00  0.12525980253E-10  0.17130000000E+03  0.17130000000E+03 0.  1.
       11    1    1    2    0    0  0.17189483626E-04 -0.19838029190E-02  0.48193017697E-01  0.48236541596E-01  0.51109989000E-03 0.  1.
     -623    1    1    2    0    0 -0.25543865053E-03  0.25330041212E-03  0.24632436704E-03  0.17130000000E+03  0.17130000000E+03 0.  1.
      622    1    1    2    0    0  0.23824916690E-03  0.17305025069E-02  0.39515606253E+01  0.39517634578E+01  0.40000000000E-01 0.  1.
</event>
<event>
 5   0  0.6200596E+07  0.9118800E+02  0.7818608E-02  0.1180000E+00
       11   -1    0    0    0    0  0.00000000000E+00  0.00000000000E+00  0.39999999673E+01  0.40000000000E+01  0.51109989000E-03 0.  1.
     -623   -1    0    0    0    0  0.00000000000E+00  0.00000000000E+00  0.12525980253E-10  0.17130000000E+03  0.17130000000E+03 0. -1.
       11    1    1    2    0    0 -0.16408546210E-02 -0.13661857109E-02  0.17178825875E+00  0.17180228734E+00  0.51109989000E-03 0.  1.
     -623    1    1    2    0    0 -0.24095860920E-02 -0.69998532664E-03  0.22569632302E-03  0.17130000002E+03  0.17130000000E+03 0. -1.
      622    1    1    2    0    0  0.40504407130E-02  0.20661710375E-02  0.38279860123E+01  0.38281976941E+01  0.40000000000E-01 0.  1.
</event>
<event>
 5   0  0.6200596E+07  0.9118800E+02  0.7818608E-02  0.1180000E+00
       11   -1    0    0    0    0  0.00000000000E+00  0.00000000000E+00  0.39999999673E+01  0.40000000000E+01  0.51109989000E-03 0. -1.
     -623   -1    0    0    0    0  0.00000000000E+00  0.00000000000E+00  0.12525980253E-10  0.17130000000E+03  0.17130000000E+03 0. -1.
       11    1    1    2    0    0 -0.27415060712E-02 -0.83007469834E-03  0.48991136171E-01  0.49077464532E-01  0.51109989000E-03 0. -1.
     -623    1    1    2    0    0  0.34626073329E-03 -0.25188757229E-02  0.29094989874E-03  0.17130000002E+03  0.17130000000E+03 0. -1.
      622    1    1    2    0    0  0.23952453379E-02  0.33489504213E-02  0.39507178813E+01  0.39509225164E+01  0.40000000000E-01 0. -1.
</event>
<event>
 5   0  0.6200596E+07  0.9118800E+02  0.7818608E-02  0.1180000E+00
       11   -1    0    0    0    0  0.00000000000E+00  0.00000000000E+00  0.39999999673E+01  0.40000000000E+01  0.51109989000E-03 0. -1.
     -623   -1    0    0    0    0  0.00000000000E+00  0.00000000000E+00  0.12525980253E-10  0.17130000000E+03  0.17130000000E+03 0.  1.
       11    1    1    2    0    0 -0.20584166230E-02 -0.87563085280E-03  0.54153530334E-02  0.58814181130E-02  0.51109989000E-03 0. -1.
     -623    1    1    2    0    0  0.77161554482E-02  0.46823230692E-03  0.67053583731E-03  0.17130000018E+03  0.17130000000E+03 0.  1.
      622    1    1    2    0    0 -0.56577388252E-02  0.40739854587E-03  0.39939140785E+01  0.39941184061E+01  0.40000000000E-01 0. -1.
</event>
<event>
 5   0  0.6200596E+07  0.9118800E+02  0.7818608E-02  0.1180000E+00
       11   -1    0    0    0    0  0.00000000000E+00  0.00000000000E+00  0.39999999673E+01  0.40000000000E+01  0.51109989000E-03 0. -1.
     -623   -1    0    0    0    0  0.00000000000E+00  0.00000000000E+00  0.12525980253E-10  0.17130000000E+03  0.17130000000E+03 0. -1.
       11    1    1    2    0    0  0.38939580427E-01 -0.49143627875E-02  0.24135802017E+01  0.24138993544E+01  0.51109989000E-03 0. -1.
     -623    1    1    2    0    0 -0.41920180435E-02 -0.69298385993E-02  0.12488102138E-02  0.17130000020E+03  0.17130000000E+03 0. -1.
      622    1    1    2    0    0 -0.34747562383E-01  0.11844201387E-01  0.15851709554E+01  0.15861004496E+01  0.40000000000E-01 0. -1.
</event>
<event>
 5   0  0.6200596E+07  0.9118800E+02  0.7818608E-02  0.1180000E+00
       11   -1    0    0    0    0  0.00000000000E+00  0.00000000000E+00  0.39999999673E+01  0.40000000000E+01  0.51109989000E-03 0.  1.
     -623   -1    0    0    0    0  0.00000000000E+00  0.00000000000E+00  0.12525980253E-10  0.17130000000E+03  0.17130000000E+03 0.  1.
       11    1    1    2    0    0  0.46682962899E-02 -0.49127287334E-03  0.16785361822E-01  0.17436855557E-01  0.51109989000E-03 0.  1.
     -623    1    1    2    0    0 -0.56087331347E-02  0.10203738946E-01  0.86469453051E-03  0.17130000040E+03  0.17130000000E+03 0.  1.
      622    1    1    2    0    0  0.94043684481E-03 -0.97124660731E-02  0.39823499110E+01  0.39825627465E+01  0.40000000000E-01 0.  1.
</event>
<event>
 5   0  0.6200596E+07  0.9118800E+02  0.7818608E-02  0.1180000E+00
       11   -1    0    0    0    0  0.00000000000E+00  0.00000000000E+00  0.39999999673E+01  0.40000000000E+01  0.51109989000E-03 0.  1.
     -623   -1    0    0    0    0  0.00000000000E+00  0.00000000000E+00  0.12525980253E-10  0.17130000000E+03  0.17130000000E+03 0.  1.
       11    1    1    2    0    0  0.20270925700E-02  0.39224266163E-02  0.23904216170E-01  0.24313932333E-01  0.51109989000E-03 0.  1.
     -623    1    1    2    0    0  0.10924437949E-02 -0.25909343129E-02  0.61238283602E-03  0.17130000002E+03  0.17130000000E+03 0.  1.
      622    1    1    2    0    0 -0.31195363649E-02 -0.13314923033E-02  0.39754833684E+01  0.39756860435E+01  0.40000000000E-01 0.  1.
</event>
<event>
 5   0  0.6200596E+07  0.9118800E+02  0.7818608E-02  0.1180000E+00
       11   -1    0    0    0    0  0.00000000000E+00  0.00000000000E+00  0.39999999673E+01  0.40000000000E+01  0.51109989000E-03 0.  1.
     -623   -1    0    0    0    0  0.00000000000E+00  0.00000000000E+00  0.12525980253E-10  0.17130000000E+03  0.17130000000E+03 0.  1.
       11    1    1    2    0    0 -0.17484764290E-02 -0.22280736399E-02  0.23982839404E-01  0.24154901948E-01  0.51109989000E-03 0.  1.
     -623    1    1    2    0    0  0.39785555405E-02  0.28167417864E-02  0.37398889761E-03  0.17130000007E+03  0.17130000000E+03 0.  1.
      622    1    1    2    0    0 -0.22300791115E-02 -0.58866814651E-03  0.39756431391E+01  0.39758450283E+01  0.40000000000E-01 0.  1.
</event>
<event>
 5   0  0.6200596E+07  0.9118800E+02  0.7818608E-02  0.1180000E+00
       11   -1    0    0    0    0  0.00000000000E+00  0.00000000000E+00  0.39999999673E+01  0.40000000000E+01  0.51109989000E-03 0. -1.
     -623   -1    0    0    0    0  0.00000000000E+00  0.00000000000E+00  0.12525980253E-10  0.17130000000E+03  0.17130000000E+03 0. -1.
       11    1    1    2    0    0 -0.55303113005E-02  0.77197183447E-03  0.76343561262E+00  0.76345620445E+00  0.51109989000E-03 0. -1.
     -623    1    1    2    0    0  0.13668597615E-03  0.26170538307E-03  0.27240595931E-03  0.17130000000E+03  0.17130000000E+03 0. -1.
      622    1    1    2    0    0  0.53936253244E-02 -0.10336772175E-02  0.32362919488E+01  0.32365437951E+01  0.40000000000E-01 0.  0.
</event>
<event>
 5   0  0.6200596E+07  0.9118800E+02  0.7818608E-02  0.1180000E+00
       11   -1    0    0    0    0  0.00000000000E+00  0.00000000000E+00  0.39999999673E+01  0.40000000000E+01  0.51109989000E-03 0.  1.
     -623   -1    0    0    0    0  0.00000000000E+00  0.00000000000E+00  0.12525980253E-10  0.17130000000E+03  0.17130000000E+03 0.  1.
       11    1    1    2    0    0  0.18994868253E-02  0.18618507107E-02  0.12613221910E+00  0.12616129539E+00  0.51109989000E-03 0.  1.
     -623    1    1    2    0    0 -0.61500159861E-02  0.15520099002E-03  0.23853050670E-03  0.17130000011E+03  0.17130000000E+03 0.  1.
      622    1    1    2    0    0  0.42505291608E-02 -0.20170517008E-02  0.38736292178E+01  0.38738385940E+01  0.40000000000E-01 0.  1.
</event>
<event>
 5   0  0.6200596E+07  0.9118800E+02  0.7818608E-02  0.1180000E+00
       11   -1    0    0    0    0  0.00000000000E+00  0.00000000000E+00  0.39999999673E+01  0.40000000000E+01  0.51109989000E-03 0. -1.
     -623   -1    0    0    0    0  0.00000000000E+00  0.00000000000E+00  0.12525980253E-10  0.17130000000E+03  0.17130000000E+03 0. -1.
       11    1    1    2    0    0 -0.34168014633E-02 -0.90865226549E-02  0.79047441416E-01  0.79642944713E-01  0.51109989000E-03 0. -1.
     -623    1    1    2    0    0 -0.94567052817E-02  0.12778967088E-01  0.82315561361E-03  0.17130000074E+03  0.17130000000E+03 0. -1.
      622    1    1    2    0    0  0.12873506745E-01 -0.36924444336E-02  0.39201293703E+01  0.39203563156E+01  0.40000000000E-01 0. -1.
</event>
<event>
 5   0  0.6200596E+07  0.9118800E+02  0.7818608E-02  0.1180000E+00
       11   -1    0    0    0    0  0.00000000000E+00  0.00000000000E+00  0.39999999673E+01  0.40000000000E+01  0.51109989000E-03 0.  1.
     -623   -1    0    0    0    0  0.00000000000E+00  0.00000000000E+00  0.12525980253E-10  0.17130000000E+03  0.17130000000E+03 0.  1.
       11    1    1    2    0    0 -0.11008526974E-02 -0.74788076703E-03  0.30474218668E-01  0.30507547049E-01  0.51109989000E-03 0.  1.
     -623    1    1    2    0    0 -0.13532669218E-03  0.15622636246E-02  0.23512133598E-03  0.17130000001E+03  0.17130000000E+03 0.  1.
      622    1    1    2    0    0  0.12361793896E-02 -0.81438285753E-03  0.39692906274E+01  0.39694924456E+01  0.40000000000E-01 0.  1.
</event>
<event>
 5   0  0.6200596E+07  0.9118800E+02  0.7818608E-02  0.1180000E+00
       11   -1    0    0    0    0  0.00000000000E+00  0.00000000000E+00  0.39999999673E+01  0.40000000000E+01  0.51109989000E-03 0. -1.
     -623   -1    0    0    0    0  0.00000000000E+00  0.00000000000E+00  0.12525980253E-10  0.17130000000E+03  0.17130000000E+03 0. -1.
       11    1    1    2    0    0 -0.71430212444E-02  0.26930928104E-02  0.37279751394E+00  0.37287601575E+00  0.51109989000E-03 0. -1.
     -623    1    1    2    0    0  0.29207602543E-06 -0.37097245124E-03  0.30681370517E-03  0.17130000000E+03  0.17130000000E+03 0. -1.
      622    1    1    2    0    0  0.71427291684E-02 -0.23221203591E-02  0.36268956397E+01  0.36271239836E+01  0.40000000000E-01 0. -1.
</event>
<event>
 5   0  0.6200596E+07  0.9118800E+02  0.7818608E-02  0.1180000E+00
       11   -1    0    0    0    0  0.00000000000E+00  0.00000000000E+00  0.39999999673E+01  0.40000000000E+01  0.51109989000E-03 0. -1.
     -623   -1    0    0    0    0  0.00000000000E+00  0.00000000000E+00  0.12525980253E-10  0.17130000000E+03  0.17130000000E+03 0. -1.
       11    1    1    2    0    0 -0.36861346140E-02  0.64781837738E-02  0.33368092328E+00  0.33376454910E+00  0.51109989000E-03 0. -1.
     -623    1    1    2    0    0  0.53367852135E-03  0.11214613996E-02  0.31104439409E-03  0.17130000000E+03  0.17130000000E+03 0. -1.
      622    1    1    2    0    0  0.31524560926E-02 -0.75996451733E-02  0.36660079997E+01  0.36662354461E+01  0.40000000000E-01 0. -1.
</event>
<event>
 5   0  0.6200596E+07  0.9118800E+02  0.7818608E-02  0.1180000E+00
       11   -1    0    0    0    0  0.00000000000E+00  0.00000000000E+00  0.39999999673E+01  0.40000000000E+01  0.51109989000E-03 0.  1.
     -623   -1    0    0    0    0  0.00000000000E+00  0.00000000000E+00  0.12525980253E-10  0.17130000000E+03  0.17130000000E+03 0.  1.
       11    1    1    2    0    0 -0.22771602064E-01 -0.34092499448E-01  0.12667183220E+01  0.12673817156E+01  0.51109989000E-03 0.  1.
     -623    1    1    2    0    0  0.23748578437E-01  0.31287039385E-01  0.96225765574E-03  0.17130000451E+03  0.17130000000E+03 0.  1.
      622    1    1    2    0    0 -0.97697637300E-03  0.28054600639E-02  0.27323193877E+01  0.27326137783E+01  0.40000000000E-01 0.  0.
</event>
<event>
 5   0  0.6200596E+07  0.9118800E+02  0.7818608E-02  0.1180000E+00
       11   -1    0    0    0    0  0.00000000000E+00  0.00000000000E+00  0.39999999673E+01  0.40000000000E+01  0.51109989000E-03 0.  1.
     -623   -1    0    0    0    0  0.00000000000E+00  0.00000000000E+00  0.12525980253E-10  0.17130000000E+03  0.17130000000E+03 0.  1.
       11    1    1    2    0    0 -0.29026750157E-03 -0.85302997578E-04  0.64873195021E-01  0.64875913754E-01  0.51109989000E-03 0.  1.
     -623    1    1    2    0    0 -0.59593833097E-03 -0.38447204690E-03  0.20611804743E-03  0.17130000000E+03  0.17130000000E+03 0.  1.
      622    1    1    2    0    0  0.88620583253E-03  0.46977504448E-03  0.39349206543E+01  0.39351240847E+01  0.40000000000E-01 0. -1.
</event>
<event>
 5   0  0.6200596E+07  0.9118800E+02  0.7818608E-02  0.1180000E+00
       11   -1    0    0    0    0  0.00000000000E+00  0.00000000000E+00  0.39999999673E+01  0.40000000000E+01  0.51109989000E-03 0.  1.
     -623   -1    0    0    0    0  0.00000000000E+00  0.00000000000E+00  0.12525980253E-10  0.17130000000E+03  0.17130000000E+03 0.  1.
       11    1    1    2    0    0  0.44071948555E-03 -0.99939153402E-03  0.15193687383E-02  0.19397735082E-02  0.51109989000E-03 0.  1.
     -623    1    1    2    0    0  0.34673545593E-03  0.20172135994E-02  0.62069464304E-03  0.17130000001E+03  0.17130000000E+03 0.  1.
      622    1    1    2    0    0 -0.78745494148E-03 -0.10178220654E-02  0.39978599040E+01  0.39980602131E+01  0.40000000000E-01 0.  1.
</event>
<event>
 5   0  0.6200596E+07  0.9118800E+02  0.7818608E-02  0.1180000E+00
       11   -1    0    0    0    0  0.00000000000E+00  0.00000000000E+00  0.39999999673E+01  0.40000000000E+01  0.51109989000E-03 0. -1.
     -623   -1    0    0    0    0  0.00000000000E+00  0.00000000000E+00  0.12525980253E-10  0.17130000000E+03  0.17130000000E+03 0. -1.
       11    1    1    2    0    0 -0.15050573493E-01 -0.16554046528E-02  0.54215481559E+00  0.54236644938E+00  0.51109989000E-03 0. -1.
     -623    1    1    2    0    0  0.68163013387E-02  0.54914315846E-02  0.45513886474E-03  0.17130000022E+03  0.17130000000E+03 0. -1.
      622    1    1    2    0    0  0.82342721544E-02 -0.38360269318E-02  0.34573900129E+01  0.34576333264E+01  0.40000000000E-01 0. -1.
</event>
<event>
 5   0  0.6200596E+07  0.9118800E+02  0.7818608E-02  0.1180000E+00
       11   -1    0    0    0    0  0.00000000000E+00  0.00000000000E+00  0.39999999673E+01  0.40000000000E+01  0.51109989000E-03 0. -1.
     -623   -1    0    0    0    0  0.00000000000E+00  0.00000000000E+00  0.12525980253E-10  0.17130000000E+03  0.17130000000E+03 0.  1.
       11    1    1    2    0    0 -0.25240240564E-02  0.18296337561E-03  0.31733796169E+00  0.31734846356E+00  0.51109989000E-03 0. -1.
     -623    1    1    2    0    0  0.53097283985E-02  0.49526171256E-02  0.23249922706E-03  0.17130000015E+03  0.17130000000E+03 0.  1.
      622    1    1    2    0    0 -0.27857043422E-02 -0.51355805013E-02  0.36824295064E+01  0.36826513824E+01  0.40000000000E-01 0. -1.
</event>
<event>
 5   0  0.6200596E+07  0.9118800E+02  0.7818608E-02  0.1180000E+00
       11   -1    0    0    0    0  0.00000000000E+00  0.00000000000E+00  0.39999999673E+01  0.40000000000E+01  0.51109989000E-03 0. -1.
     -623   -1    0    0    0    0  0.00000000000E+00  0.00000000000E+00  0.12525980253E-10  0.17130000000E+03  0.17130000000E+03 0. -1.
       11    1    1    2    0    0 -0.53615874383E-02 -0.16160694361E-01  0.49090163059E+00  0.49119709568E+00  0.51109989000E-03 0. -1.
     -623    1    1    2    0    0  0.53356872689E-02  0.25313003536E-02  0.55001306753E-03  0.17130000010E+03  0.17130000000E+03 0. -1.
      622    1    1    2    0    0  0.25900169392E-04  0.13629394008E-01  0.35085483237E+01  0.35088028016E+01  0.40000000000E-01 0. -1.
</event>
<event>
 5   0  0.6200596E+07  0.9118800E+02  0.7818608E-02  0.1180000E+00
       11   -1    0    0    0    0  0.00000000000E+00  0.00000000000E+00  0.39999999673E+01  0.40000000000E+01  0.51109989000E-03 0. -1.
     -623   -1    0    0    0    0  0.00000000000E+00  0.00000000000E+00  0.12525980253E-10  0.17130000000E+03  0.17130000000E+03 0.  1.
       11    1    1    2    0    0 -0.21322103507E-02  0.98657527449E-02  0.13040901925E+01  0.13041293536E+01  0.51109989000E-03 0. -1.
     -623    1    1    2    0    0  0.88516775157E-02 -0.25408809535E-02  0.35447015358E-03  0.17130000025E+03  0.17130000000E+03 0.  1.
      622    1    1    2    0    0 -0.67194671651E-02 -0.73248717914E-02  0.26955553047E+01  0.26958703985E+01  0.40000000000E-01 0. -1.
</event>
<event>
 5   0  0.6200596E+07  0.9118800E+02  0.7818608E-02  0.1180000E+00
       11   -1    0    0    0    0  0.00000000000E+00  0.00000000000E+00  0.39999999673E+01  0.40000000000E+01  0.51109989000E-03 0.  1.
     -623   -1    0    0    0    0  0.00000000000E+00  0.00000000000E+00  0.12525980253E-10  0.17130000000E+03  0.17130000000E+03 0.  1.
       11    1    1    2    0    0 -0.39382509523E-02 -0.24433452476E-01  0.11102678487E+01  0.11105437679E+01  0.51109989000E-03 0.  1.
     -623    1    1    2    0    0  0.21129572191E-01  0.14704292786E-01  0.62223245925E-03  0.17130000194E+03  0.17130000000E+03 0.  1.
      622    1    1    2    0    0 -0.17191321239E-01  0.97291596897E-02  0.28891098862E+01  0.28894542967E+01  0.40000000000E-01 0.  1.
</event>
<event>
 5   0  0.6200596E+07  0.9118800E+02  0.7818608E-02  0.1180000E+00
       11   -1    0    0    0    0  0.00000000000E+00  0.00000000000E+00  0.39999999673E+01  0.40000000000E+01  0.51109989000E-03 0.  1.
     -623   -1    0    0    0    0  0.00000000000E+00  0.00000000000E+00  0.12525980253E-10  0.17130000000E+03  0.17130000000E+03 0. -1.
       11    1    1    2    0    0  0.21195966204E-02 -0.72972980899E-02  0.93303237987E-01  0.93613560395E-01  0.51109989000E-03 0.  1.
     -623    1    1    2    0    0 -0.14460547261E-02  0.48315468700E-03  0.52109710551E-03  0.17130000001E+03  0.17130000000E+03 0. -1.
      622    1    1    2    0    0 -0.67354189425E-03  0.68141434029E-02  0.39061756323E+01  0.39063864320E+01  0.40000000000E-01 0.  1.
</event>
<event>
 5   0  0.6200596E+07  0.9118800E+02  0.7818608E-02  0.1180000E+00
       11   -1    0    0    0    0  0.00000000000E+00  0.00000000000E+00  0.39999999673E+01  0.40000000000E+01  0.51109989000E-03 0.  1.
     -623   -1    0    0    0    0  0.00000000000E+00  0.00000000000E+00  0.12525980253E-10  0.17130000000E+03  0.17130000000E+03 0.  1.
       11    1    1    2    0    0 -0.26000236406E-02  0.54550069740E-02  0.37857099685E+00  0.37861956909E+00  0.51109989000E-03 0.  1.
     -623    1    1    2    0    0  0.17356826175E-02  0.12698756610E-02  0.27581787481E-03  0.17130000001E+03  0.17130000000E+03 0.  1.
      622    1    1    2    0    0  0.86434102312E-03 -0.67248826349E-02  0.36211531526E+01  0.36213804172E+01  0.40000000000E-01 0.  1.
</event>
<event>
 5   0  0.6200596E+07  0.9118800E+02  0.7818608E-02  0.1180000E+00
       11   -1    0    0    0    0  0.00000000000E+00  0.00000000000E+00  0.39999999673E+01  0.40000000000E+01  0.51109989000E-03 0.  1.
     -623   -1    0    0    0    0  0.00000000000E+00  0.00000000000E+00  0.12525980253E-10  0.17130000000E+03  0.17130000000E+03 0. -1.
       11    1    1    2    0    0  0.31161564017E-02 -0.47068297669E-02  0.17716619997E+01  0.17716710662E+01  0.51109989000E-03 0.  1.
     -623    1    1    2    0    0  0.14255618148E-02  0.32979116776E-02  0.37318901378E-03  0.17130000004E+03  0.17130000000E+03 0. -1.
      622    1    1    2    0    0 -0.45417182166E-02  0.14089180893E-02  0.22279647787E+01  0.22283288957E+01  0.40000000000E-01 0.  1.
</event>
<event>
 5   0  0.6200596E+07  0.9118800E+02  0.7818608E-02  0.1180000E+00
       11   -1    0    0    0    0  0.00000000000E+00  0.00000000000E+00  0.39999999673E+01  0.40000000000E+01  0.51109989000E-03 0. -1.
     -623   -1    0    0    0    0  0.00000000000E+00  0.00000000000E+00  0.12525980253E-10  0.17130000000E+03  0.17130000000E+03 0. -1.
       11    1    1    2    0    0 -0.23819379105E-02 -0.16668197623E-02  0.30012881694E-01  0.30157688984E-01  0.51109989000E-03 0. -1.
     -623    1    1    2    0    0 -0.14700429940E-02  0.80108660721E-03  0.34827094714E-03  0.17130000001E+03  0.17130000000E+03 0. -1.
      622    1    1    2    0    0  0.38519809045E-02  0.86573315505E-03  0.39696388147E+01  0.39698423025E+01  0.40000000000E-01 0. -1.
</event>
<event>
 5   0  0.6200596E+07  0.9118800E+02  0.7818608E-02  0.1180000E+00
       11   -1    0    0    0    0  0.00000000000E+00  0.00000000000E+00  0.39999999673E+01  0.40000000000E+01  0.51109989000E-03 0. -1.
     -623   -1    0    0    0    0  0.00000000000E+00  0.00000000000E+00  0.12525980253E-10  0.17130000000E+03  0.17130000000E+03 0. -1.
       11    1    1    2    0    0 -0.27303631717E-02  0.13145799617E-01  0.17424995917E+00  0.17476720637E+00  0.51109989000E-03 0. -1.
     -623    1    1    2    0    0  0.90619041561E-03  0.16802346952E-02  0.75553859296E-03  0.17130000001E+03  0.17130000000E+03 0. -1.
      622    1    1    2    0    0  0.18241727561E-02 -0.14826034313E-01  0.38249944696E+01  0.38252327813E+01  0.40000000000E-01 0. -1.
</event>
<event>
 5   0  0.6200596E+07  0.9118800E+02  0.7818608E-02  0.1180000E+00
       11   -1    0    0    0    0  0.00000000000E+00  0.00000000000E+00  0.39999999673E+01  0.40000000000E+01  0.51109989000E-03 0.  1.
     -623   -1    0    0    0    0  0.00000000000E+00  0.00000000000E+00  0.12525980253E-10  0.17130000000E+03  0.17130000000E+03 0.  1.
       11    1    1    2    0    0 -0.19876696935E-02 -0.10266885597E-01  0.25139493408E+00  0.25161286508E+00  0.51109989000E-03 0.  1.
     -623    1    1    2    0    0  0.11351460314E-02 -0.16860789832E-03  0.44595797978E-03  0.17130000000E+03  0.17130000000E+03 0.  1.
      622    1    1    2    0    0  0.85252366203E-03  0.10435493496E-01  0.37481590753E+01  0.37483871305E+01  0.40000000000E-01 0.  1.
</event>
<event>
 5   0  0.6200596E+07  0.9118800E+02  0.7818608E-02  0.1180000E+00
       11   -1    0    0    0    0  0.00000000000E+00  0.00000000000E+00  0.39999999673E+01  0.40000000000E+01  0.51109989000E-03 0.  1.
     -623   -1    0    0    0    0  0.00000000000E+00  0.00000000000E+00  0.12525980253E-10  0.17130000000E+03  0.17130000000E+03 0.  1.
       11    1    1    2    0    0 -0.15328579867E-01  0.10009086108E-01  0.73351636004E+00  0.73374495489E+00  0.51109989000E-03 0.  1.
     -623    1    1    2    0    0  0.27667497673E-02 -0.50641896775E-03  0.51150646173E-03  0.17130000002E+03  0.17130000000E+03 0.  1.
      622    1    1    2    0    0  0.12561830099E-01 -0.95026671401E-02  0.32659721009E+01  0.32662550213E+01  0.40000000000E-01 0.  0.
</event>
<event>
 5   0  0.6200596E+07  0.9118800E+02  0.7818608E-02  0.1180000E+00
       11   -1    0    0    0    0  0.00000000000E+00  0.00000000000E+00  0.39999999673E+01  0.40000000000E+01  0.51109989000E-03 0.  1.
     -623   -1    0    0    0    0  0.00000000000E+00  0.00000000000E+00  0.12525980253E-10  0.17130000000E+03  0.17130000000E+03 0. -1.
       11    1    1    2    0    0  0.15862196089E-01 -0.11159609688E-01  0.73707590845E+00  0.73733120251E+00  0.51109989000E-03 0.  1.
     -623    1    1    2    0    0 -0.95434863441E-03  0.34255430442E-02  0.54373528991E-03  0.17130000004E+03  0.17130000000E+03 0. -1.
      622    1    1    2    0    0 -0.14907847454E-01  0.77340666439E-02  0.32623803236E+01  0.32626687597E+01  0.40000000000E-01 0.  1.
</event>
<event>
 5   0  0.6200596E+07  0.9118800E+02  0.7818608E-02  0.1180000E+00
       11   -1    0    0    0    0  0.00000000000E+00  0.00000000000E+00  0.39999999673E+01  0.40000000000E+01  0.51109989000E-03 0. -1.
     -623   -1    0    0    0    0  0.00000000000E+00  0.00000000000E+00  0.12525980253E-10  0.17130000000E+03  0.17130000000E+03 0. -1.
       11    1    1    2    0    0 -0.15294066098E-01 -0.32793315600E-02  0.37915087189E-01  0.41018014711E-01  0.51109989000E-03 0. -1.
     -623    1    1    2    0    0 -0.29141673761E-02  0.70617430736E-03  0.33477416218E-02  0.17130000006E+03  0.17130000000E+03 0. -1.
      622    1    1    2    0    0  0.18208233474E-01  0.25731572526E-02  0.39587371385E+01  0.39589819263E+01  0.40000000000E-01 0. -1.
</event>
<event>
 5   0  0.6200596E+07  0.9118800E+02  0.7818608E-02  0.1180000E+00
       11   -1    0    0    0    0  0.00000000000E+00  0.00000000000E+00  0.39999999673E+01  0.40000000000E+01  0.51109989000E-03 0. -1.
     -623   -1    0    0    0    0  0.00000000000E+00  0.00000000000E+00  0.12525980253E-10  0.17130000000E+03  0.17130000000E+03 0. -1.
       11    1    1    2    0    0 -0.22731396010E-02  0.80321797337E-02  0.78253874395E+00  0.78258343330E+00  0.51109989000E-03 0. -1.
     -623    1    1    2    0    0  0.24959536340E-03  0.23113873512E-03  0.30456222961E-03  0.17130000000E+03  0.17130000000E+03 0. -1.
      622    1    1    2    0    0  0.20235442376E-02 -0.82633184688E-02  0.32171566612E+01  0.32174165661E+01  0.40000000000E-01 0. -1.
</event>
<event>
 5   0  0.6200596E+07  0.9118800E+02  0.7818608E-02  0.1180000E+00
       11   -1    0    0    0    0  0.00000000000E+00  0.00000000000E+00  0.39999999673E+01  0.40000000000E+01  0.51109989000E-03 0. -1.
     -623   -1    0    0    0    0  0.00000000000E+00  0.00000000000E+00  0.12525980253E-10  0.17130000000E+03  0.17130000000E+03 0. -1.
       11    1    1    2    0    0  0.11978716634E-02  0.67682444375E-03  0.82110269605E-02  0.83411734013E-02  0.51109989000E-03 0. -1.
     -623    1    1    2    0    0 -0.67363497045E-03  0.85578136228E-03  0.33086920950E-03  0.17130000000E+03  0.17130000000E+03 0. -1.
      622    1    1    2    0    0 -0.52423669290E-03 -0.15326058060E-02  0.39914580712E+01  0.39916588228E+01  0.40000000000E-01 0. -1.
</event>
<event>
 5   0  0.6200596E+07  0.9118800E+02  0.7818608E-02  0.1180000E+00
       11   -1    0    0    0    0  0.00000000000E+00  0.00000000000E+00  0.39999999673E+01  0.40000000000E+01  0.51109989000E-03 0. -1.
     -623   -1    0    0    0    0  0.00000000000E+00  0.00000000000E+00  0.12525980253E-10  0.17130000000E+03  0.17130000000E+03 0.  1.
       11    1    1    2    0    0 -0.93387355319E-04  0.71272038334E-03  0.29871643830E-02  0.31146530249E-02  0.51109989000E-03 0. -1.
     -623    1    1    2    0    0  0.91659719343E-03 -0.11737756338E-02  0.32773502829E-03  0.17130000001E+03  0.17130000000E+03 0.  1.
      622    1    1    2    0    0 -0.82320983811E-03  0.46105525043E-03  0.39966850679E+01  0.39968853402E+01  0.40000000000E-01 0. -1.
</event>
<event>
 5   0  0.6200596E+07  0.9118800E+02  0.7818608E-02  0.1180000E+00
       11   -1    0    0    0    0  0.00000000000E+00  0.00000000000E+00  0.39999999673E+01  0.40000000000E+01  0.51109989000E-03 0.  1.
     -623   -1    0    0    0    0  0.00000000000E+00  0.00000000000E+00  0.12525980253E-10  0.17130000000E+03  0.17130000000E+03 0.  1.
       11    1    1    2    0    0 -0.55130260138E-03  0.46104829534E-03  0.44034749201E-01  0.44043579075E-01  0.51109989000E-03 0.  1.
     -623    1    1    2    0    0 -0.51382071276E-03 -0.34204238956E-03  0.21117552963E-03  0.17130000000E+03  0.17130000000E+03 0.  1.
      622    1    1    2    0    0  0.10651233141E-02 -0.11900590578E-03  0.39557540426E+01  0.39559564197E+01  0.40000000000E-01 0.  1.
</event>
<event>
 5   0  0.6200596E+07  0.9118800E+02  0.7818608E-02  0.1180000E+00
       11   -1    0    0    0    0  0.00000000000E+00  0.00000000000E+00  0.39999999673E+01  0.40000000000E+01  0.51109989000E-03 0.  1.
     -623   -1    0    0    0    0  0.00000000000E+00  0.00000000000E+00  0.12525980253E-10  0.17130000000E+03  0.17130000000E+03 0.  1.
       11    1    1    2    0    0 -0.65069050623E-03  0.53117735604E-03  0.10844970564E-01  0.10889451610E-01  0.51109989000E-03 0.  1.
     -623    1    1    2    0    0 -0.40638583124E-04 -0.10400404115E-02  0.24509510986E-03  0.17130000000E+03  0.17130000000E+03 0.  1.
      622    1    1    2    0    0  0.69132908935E-03  0.50886305547E-03  0.39889099017E+01  0.39891105451E+01  0.40000000000E-01 0.  1.
</event>
<event>
 5   0  0.6200596E+07  0.9118800E+02  0.7818608E-02  0.1180000E+00
       11   -1    0    0    0    0  0.00000000000E+00  0.00000000000E+00  0.39999999673E+01  0.40000000000E+01  0.51109989000E-03 0. -1.
     -623   -1    0    0    0    0  0.00000000000E+00  0.00000000000E+00  0.12525980253E-10  0.17130000000E+03  0.17130000000E+03 0. -1.
       11    1    1    2    0    0  0.74332066463E-03  0.52498209073E-02  0.12939880534E+01  0.12939990173E+01  0.51109989000E-03 0. -1.
     -623    1    1    2    0    0 -0.50069071257E-04 -0.26219025056E-03  0.31127294384E-03  0.17130000000E+03  0.17130000000E+03 0. -1.
      622    1    1    2    0    0 -0.69325159338E-03 -0.49876306568E-02  0.27057006410E+01  0.27060009822E+01  0.40000000000E-01 0. -1.
</event>
<event>
 5   0  0.6200596E+07  0.9118800E+02  0.7818608E-02  0.1180000E+00
       11   -1    0    0    0    0  0.00000000000E+00  0.00000000000E+00  0.39999999673E+01  0.40000000000E+01  0.51109989000E-03 0.  1.
     -623   -1    0    0    0    0  0.00000000000E+00  0.00000000000E+00  0.12525980253E-10  0.17130000000E+03  0.17130000000E+03 0.  1.
       11    1    1    2    0    0 -0.10702226378E-02  0.85791759636E-02  0.12899378434E+00  0.12928420343E+00  0.51109989000E-03 0.  1.
     -623    1    1    2    0    0 -0.78932212746E-02 -0.13569408347E-01  0.51138805960E-03  0.17130000072E+03  0.17130000000E+03 0.  1.
      622    1    1    2    0    0  0.89634439123E-02  0.49902323834E-02  0.38704947950E+01  0.38707150765E+01  0.40000000000E-01 0.  1.
</event>
<event>
 5   0  0.6200596E+07  0.9118800E+02  0.7818608E-02  0.1180000E+00
       11   -1    0    0    0    0  0.00000000000E+00  0.00000000000E+00  0.39999999673E+01  0.40000000000E+01  0.51109989000E-03 0. -1.
     -623   -1    0    0    0    0  0.00000000000E+00  0.00000000000E+00  0.12525980253E-10  0.17130000000E+03  0.17130000000E+03 0.  1.
       11    1    1    2    0    0 -0.58108147684E-02 -0.86659247246E-02  0.12139802244E+00  0.12184664498E+00  0.51109989000E-03 0. -1.
     -623    1    1    2    0    0  0.20687987990E-02  0.78933468387E-02  0.65695713669E-03  0.17130000020E+03  0.17130000000E+03 0.  1.
      622    1    1    2    0    0  0.37420159694E-02  0.77257788592E-03  0.38779449878E+01  0.38781531594E+01  0.40000000000E-01 0. -1.
</event>
<event>
 5   0  0.6200596E+07  0.9118800E+02  0.7818608E-02  0.1180000E+00
       11   -1    0    0    0    0  0.00000000000E+00  0.00000000000E+00  0.39999999673E+01  0.40000000000E+01  0.51109989000E-03 0.  1.
     -623   -1    0    0    0    0  0.00000000000E+00  0.00000000000E+00  0.12525980253E-10  0.17130000000E+03  0.17130000000E+03 0.  1.
       11    1    1    2    0    0  0.17797026453E-02 -0.14074726825E-02  0.13530034233E-01  0.13728487509E-01  0.51109989000E-03 0.  1.
     -623    1    1    2    0    0 -0.89558131985E-03 -0.51701745037E-03  0.39968068996E-03  0.17130000000E+03  0.17130000000E+03 0.  1.
      622    1    1    2    0    0 -0.88412132544E-03  0.19244901329E-02  0.39860702524E+01  0.39862715089E+01  0.40000000000E-01 0.  1.
</event>
<event>
 5   0  0.6200596E+07  0.9118800E+02  0.7818608E-02  0.1180000E+00
       11   -1    0    0    0    0  0.00000000000E+00  0.00000000000E+00  0.39999999673E+01  0.40000000000E+01  0.51109989000E-03 0.  1.
     -623   -1    0    0    0    0  0.00000000000E+00  0.00000000000E+00  0.12525980253E-10  0.17130000000E+03  0.17130000000E+03 0. -1.
       11    1    1    2    0    0  0.39427947553E-03 -0.25584235487E-02  0.11612811221E-01  0.11908803200E-01  0.51109989000E-03 0.  1.
     -623    1    1    2    0    0  0.22999082394E-02  0.96224314376E-03  0.49780999650E-03  0.17130000002E+03  0.17130000000E+03 0. -1.
      622    1    1    2    0    0 -0.26941877149E-02  0.15961804049E-02  0.39878893461E+01  0.39880911779E+01  0.40000000000E-01 0.  1.
</event>
<event>
 5   0  0.6200596E+07  0.9118800E+02  0.7818608E-02  0.1180000E+00
       11   -1    0    0    0    0  0.00000000000E+00  0.00000000000E+00  0.39999999673E+01  0.40000000000E+01  0.51109989000E-03 0.  1.
     -623   -1    0    0    0    0  0.00000000000E+00  0.00000000000E+00  0.12525980253E-10  0.17130000000E+03  0.17130000000E+03 0.  1.
       11    1    1    2    0    0 -0.24798428435E-01  0.36690840356E-01  0.50639434735E+00  0.50832733162E+00  0.51109989000E-03 0.  1.
     -623    1    1    2    0    0 -0.52405564922E-02 -0.10167550518E-01  0.23924477824E-02  0.17130000040E+03  0.17130000000E+03 0.  1.
      622    1    1    2    0    0  0.30038984927E-01 -0.26523289838E-01  0.34912131722E+01  0.34916722698E+01  0.40000000000E-01 0.  0.
</event>
<event>
 5   0  0.6200596E+07  0.9118800E+02  0.7818608E-02  0.1180000E+00
       11   -1    0    0    0    0  0.00000000000E+00  0.00000000000E+00  0.39999999673E+01  0.40000000000E+01  0.51109989000E-03 0.  1.
     -623   -1    0    0    0    0  0.00000000000E+00  0.00000000000E+00  0.12525980253E-10  0.17130000000E+03  0.17130000000E+03 0.  1.
       11    1    1    2    0    0  0.36532023819E-01 -0.50491028193E-01  0.87135728365E+00  0.87358325859E+00  0.51109989000E-03 0.  1.
     -623    1    1    2    0    0  0.17797063023E-01  0.20664499730E-01  0.30984719123E-02  0.17130000220E+03  0.17130000000E+03 0.  1.
      622    1    1    2    0    0 -0.54329086842E-01  0.29826528463E-01  0.31255442118E+01  0.31264145425E+01  0.40000000000E-01 0.  1.
</event>
<event>
 5   0  0.6200596E+07  0.9118800E+02  0.7818608E-02  0.1180000E+00
       11   -1    0    0    0    0  0.00000000000E+00  0.00000000000E+00  0.39999999673E+01  0.40000000000E+01  0.51109989000E-03 0.  1.
     -623   -1    0    0    0    0  0.00000000000E+00  0.00000000000E+00  0.12525980253E-10  0.17130000000E+03  0.17130000000E+03 0.  1.
       11    1    1    2    0    0  0.47894440068E-02 -0.35973145598E-02  0.45596276832E-02  0.75452548868E-02  0.51109989000E-03 0.  1.
     -623    1    1    2    0    0 -0.76080449876E-02  0.20530172710E-02  0.31874821632E-02  0.17130000021E+03  0.17130000000E+03 0.  1.
      622    1    1    2    0    0  0.28186009807E-02  0.15442972888E-02  0.39922528575E+01  0.39924545342E+01  0.40000000000E-01 0.  1.
</event>
<event>
 5   0  0.6200596E+07  0.9118800E+02  0.7818608E-02  0.1180000E+00
       11   -1    0    0    0    0  0.00000000000E+00  0.00000000000E+00  0.39999999673E+01  0.40000000000E+01  0.51109989000E-03 0. -1.
     -623   -1    0    0    0    0  0.00000000000E+00  0.00000000000E+00  0.12525980253E-10  0.17130000000E+03  0.17130000000E+03 0.  1.
       11    1    1    2    0    0 -0.25614078985E-01 -0.14015784291E-01  0.11614416096E+01  0.11618086749E+01  0.51109989000E-03 0. -1.
     -623    1    1    2    0    0  0.26834612870E-02  0.37772033751E-03  0.77435321236E-03  0.17130000002E+03  0.17130000000E+03 0.  1.
      622    1    1    2    0    0  0.22930617697E-01  0.13638063954E-01  0.28377840046E+01  0.28381913020E+01  0.40000000000E-01 0.  0.
</event>
<event>
 5   0  0.6200596E+07  0.9118800E+02  0.7818608E-02  0.1180000E+00
       11   -1    0    0    0    0  0.00000000000E+00  0.00000000000E+00  0.39999999673E+01  0.40000000000E+01  0.51109989000E-03 0. -1.
     -623   -1    0    0    0    0  0.00000000000E+00  0.00000000000E+00  0.12525980253E-10  0.17130000000E+03  0.17130000000E+03 0.  1.
       11    1    1    2    0    0 -0.47414988223E-02 -0.29640985655E-02  0.58421970790E+00  0.58424669106E+00  0.51109989000E-03 0. -1.
     -623    1    1    2    0    0 -0.17921341724E-02  0.15262926225E-02  0.26773569666E-03  0.17130000002E+03  0.17130000000E+03 0.  1.
      622    1    1    2    0    0  0.65336329947E-02  0.14378059430E-02  0.34155125238E+01  0.34157532926E+01  0.40000000000E-01 0. -1.
</event>
<event>
 5   0  0.6200596E+07  0.9118800E+02  0.7818608E-02  0.1180000E+00
       11   -1    0    0    0    0  0.00000000000E+00  0.00000000000E+00  0.39999999673E+01  0.40000000000E+01  0.51109989000E-03 0. -1.
     -623   -1    0    0    0    0  0.00000000000E+00  0.00000000000E+00  0.12525980253E-10  0.17130000000E+03  0.17130000000E+03 0. -1.
       11    1    1    2    0    0 -0.65011575561E-03  0.10184236127E-01  0.43087209750E+00  0.43099323306E+00  0.51109989000E-03 0. -1.
     -623    1    1    2    0    0 -0.10316071007E-01 -0.10876017138E-01  0.36283386460E-03  0.17130000066E+03  0.17130000000E+03 0. -1.
      622    1    1    2    0    0  0.10966186763E-01  0.69178101118E-03  0.35687650360E+01  0.35690061107E+01  0.40000000000E-01 0. -1.
</event>
<event>
 5   0  0.6200596E+07  0.9118800E+02  0.7818608E-02  0.1180000E+00
       11   -1    0    0    0    0  0.00000000000E+00  0.00000000000E+00  0.39999999673E+01  0.40000000000E+01  0.51109989000E-03 0.  1.
     -623   -1    0    0    0    0  0.00000000000E+00  0.00000000000E+00  0.12525980253E-10  0.17130000000E+03  0.17130000000E+03 0.  1.
       11    1    1    2    0    0 -0.75808658157E-02 -0.19248681232E-01  0.19646447333E+00  0.19755133955E+00  0.51109989000E-03 0.  1.
     -623    1    1    2    0    0 -0.12974160259E-02  0.56528819486E-04  0.13560434358E-02  0.17130000001E+03  0.17130000000E+03 0.  1.
      622    1    1    2    0    0  0.88782818416E-02  0.19192152413E-01  0.38021794506E+01  0.38024486502E+01  0.40000000000E-01 0.  1.
</event>
<event>
 5   0  0.6200596E+07  0.9118800E+02  0.7818608E-02  0.1180000E+00
       11   -1    0    0    0    0  0.00000000000E+00  0.00000000000E+00  0.39999999673E+01  0.40000000000E+01  0.51109989000E-03 0. -1.
     -623   -1    0    0    0    0  0.00000000000E+00  0.00000000000E+00  0.12525980253E-10  0.17130000000E+03  0.17130000000E+03 0.  1.
       11    1    1    2    0    0 -0.61007256954E-02 -0.51259136691E-02  0.20119069250E+00  0.20134907453E+00  0.51109989000E-03 0. -1.
     -623    1    1    2    0    0 -0.23292846533E-02  0.77132520840E-02  0.37938194972E-03  0.17130000019E+03  0.17130000000E+03 0.  1.
      622    1    1    2    0    0  0.84300103487E-02 -0.25873384149E-02  0.37984298929E+01  0.37986507356E+01  0.40000000000E-01 0. -1.
</event>
<event>
 5   0  0.6200596E+07  0.9118800E+02  0.7818608E-02  0.1180000E+00
       11   -1    0    0    0    0  0.00000000000E+00  0.00000000000E+00  0.39999999673E+01  0.40000000000E+01  0.51109989000E-03 0.  1.
     -623   -1    0    0    0    0  0.00000000000E+00  0.00000000000E+00  0.12525980253E-10  0.17130000000E+03  0.17130000000E+03 0. -1.
       11    1    1    2    0    0  0.65593230696E-02 -0.20320686576E-02  0.13618854165E+00  0.13636250995E+00  0.51109989000E-03 0.  1.
     -623    1    1    2    0    0 -0.11114396990E-01 -0.58185038546E-02  0.39212137894E-03  0.17130000046E+03  0.17130000000E+03 0. -1.
      622    1    1    2    0    0  0.45550739200E-02  0.78505725122E-02  0.38634193043E+01  0.38636370302E+01  0.40000000000E-01 0.  1.
</event>
<event>
 5   0  0.6200596E+07  0.9118800E+02  0.7818608E-02  0.1180000E+00
       11   -1    0    0    0    0  0.00000000000E+00  0.00000000000E+00  0.39999999673E+01  0.40000000000E+01  0.51109989000E-03 0. -1.
     -623   -1    0    0    0    0  0.00000000000E+00  0.00000000000E+00  0.12525980253E-10  0.17130000000E+03  0.17130000000E+03 0. -1.
       11    1    1    2    0    0  0.56248258458E-02 -0.41608735303E-02  0.42475933247E+00  0.42481725869E+00  0.51109989000E-03 0. -1.
     -623    1    1    2    0    0 -0.78454018176E-03  0.17209861182E-01  0.30962394964E-03  0.17130000087E+03  0.17130000000E+03 0. -1.
      622    1    1    2    0    0 -0.48402856640E-02 -0.13048987652E-01  0.35749310109E+01  0.35751818747E+01  0.40000000000E-01 0. -1.
</event>
<event>
 5   0  0.6200596E+07  0.9118800E+02  0.7818608E-02  0.1180000E+00
       11   -1    0    0    0    0  0.00000000000E+00  0.00000000000E+00  0.39999999673E+01  0.40000000000E+01  0.51109989000E-03 0.  1.
     -623   -1    0    0    0    0  0.00000000000E+00  0.00000000000E+00  0.12525980253E-10  0.17130000000E+03  0.17130000000E+03 0. -1.
       11    1    1    2    0    0 -0.11181512944E-02 -0.47177665615E-02  0.81017263122E-01  0.81163820316E-01  0.51109989000E-03 0.  1.
     -623    1    1    2    0    0 -0.11972460746E-01 -0.19352336332E-02  0.37861495825E-03  0.17130000043E+03  0.17130000000E+03 0. -1.
      622    1    1    2    0    0  0.13090612040E-01  0.66530001947E-02  0.39186040893E+01  0.39188357499E+01  0.40000000000E-01 0.  0.
</event>
<event>
 5   0  0.6200596E+07  0.9118800E+02  0.7818608E-02  0.1180000E+00
       11   -1    0    0    0    0  0.00000000000E+00  0.00000000000E+00  0.39999999673E+01  0.40000000000E+01  0.51109989000E-03 0. -1.
     -623   -1    0    0    0    0  0.00000000000E+00  0.00000000000E+00  0.12525980253E-10  0.17130000000E+03  0.17130000000E+03 0. -1.
       11    1    1    2    0    0  0.61609531199E-02 -0.14817724042E-02  0.74734646302E-01  0.75004543676E-01  0.51109989000E-03 0. -1.
     -623    1    1    2    0    0 -0.18265340392E-03 -0.26704197759E-02  0.48046301205E-03  0.17130000002E+03  0.17130000000E+03 0. -1.
      622    1    1    2    0    0 -0.59782997160E-02  0.41521921801E-02  0.39247848580E+01  0.39249954347E+01  0.40000000000E-01 0. -1.
</event>
<event>
 5   0  0.6200596E+07  0.9118800E+02  0.7818608E-02  0.1180000E+00
       11   -1    0    0    0    0  0.00000000000E+00  0.00000000000E+00  0.39999999673E+01  0.40000000000E+01  0.51109989000E-03 0. -1.
     -623   -1    0    0    0    0  0.00000000000E+00  0.00000000000E+00  0.12525980253E-10  0.17130000000E+03  0.17130000000E+03 0.  1.
       11    1    1    2    0    0  0.22403429248E-02 -0.19557499549E-02  0.46124949856E-03  0.30525509392E-02  0.51109989000E-03 0. -1.
     -623    1    1    2    0    0 -0.17300095249E-02  0.34792724226E-02  0.27918163375E-02  0.17130000007E+03  0.17130000000E+03 0.  1.
      622    1    1    2    0    0 -0.51033339988E-03 -0.15235224677E-02  0.39967469015E+01  0.39969473822E+01  0.40000000000E-01 0. -1.
</event>
<event>
 5   0  0.6200596E+07  0.9118800E+02  0.7818608E-02  0.1180000E+00
       11   -1    0    0    0    0  0.00000000000E+00  0.00000000000E+00  0.39999999673E+01  0.40000000000E+01  0.51109989000E-03 0. -1.
     -623   -1    0    0    0    0  0.00000000000E+00  0.00000000000E+00  0.12525980253E-10  0.17130000000E+03  0.17130000000E+03 0. -1.
       11    1    1    2    0    0  0.59973044072E-02  0.11452049217E-03  0.14863389377E-01  0.16036282010E-01  0.51109989000E-03 0. -1.
     -623    1    1    2    0    0 -0.54387224831E-02 -0.28411937353E-02  0.13747578106E-02  0.17130000012E+03  0.17130000000E+03 0. -1.
      622    1    1    2    0    0 -0.55858192408E-03  0.27266732431E-02  0.39837618202E+01  0.39839636026E+01  0.40000000000E-01 0. -1.
</event>
<event>
 5   0  0.6200596E+07  0.9118800E+02  0.7818608E-02  0.1180000E+00
       11   -1    0    0    0    0  0.00000000000E+00  0.00000000000E+00  0.39999999673E+01  0.40000000000E+01  0.51109989000E-03 0.  1.
     -623   -1    0    0    0    0  0.00000000000E+00  0.00000000000E+00  0.12525980253E-10  0.17130000000E+03  0.17130000000E+03 0.  1.
       11    1    1    2    0    0  0.54307171487E-03 -0.44222762928E-02  0.21667230537E+00  0.21671871306E+00  0.51109989000E-03 0.  1.
     -623    1    1    2    0    0  0.45279650165E-03 -0.82690453090E-03  0.26161322425E-03  0.17130000000E+03  0.17130000000E+03 0.  1.
      622    1    1    2    0    0 -0.99586821652E-03  0.52491808237E-02  0.37830660488E+01  0.37832812841E+01  0.40000000000E-01 0.  1.
</event>
<event>
 5   0  0.6200596E+07  0.9118800E+02  0.7818608E-02  0.1180000E+00
       11   -1    0    0    0    0  0.00000000000E+00  0.00000000000E+00  0.39999999673E+01  0.40000000000E+01  0.51109989000E-03 0. -1.
     -623   -1    0    0    0    0  0.00000000000E+00  0.00000000000E+00  0.12525980253E-10  0.17130000000E+03  0.17130000000E+03 0.  1.
       11    1    1    2    0    0 -0.34135864564E-02 -0.69068361462E-02  0.57271889719E+00  0.57277094320E+00  0.51109989000E-03 0. -1.
     -623    1    1    2    0    0 -0.67706079788E-02  0.12178408160E-01  0.30520008939E-03  0.17130000057E+03  0.17130000000E+03 0.  1.
      622    1    1    2    0    0  0.10184194435E-01 -0.52715720137E-02  0.34269758701E+01  0.34272284898E+01  0.40000000000E-01 0. -1.
</event>
<event>
 5   0  0.6200596E+07  0.9118800E+02  0.7818608E-02  0.1180000E+00
       11   -1    0    0    0    0  0.00000000000E+00  0.00000000000E+00  0.39999999673E+01  0.40000000000E+01  0.51109989000E-03 0. -1.
     -623   -1    0    0    0    0  0.00000000000E+00  0.00000000000E+00  0.12525980253E-10  0.17130000000E+03  0.17130000000E+03 0.  1.
       11    1    1    2    0    0  0.34641120311E-02  0.23462175665E-01  0.24791313351E+00  0.24904549132E+00  0.51109989000E-03 0. -1.
     -623    1    1    2    0    0  0.73238526943E-02  0.82063298968E-02  0.14951800389E-02  0.17130000036E+03  0.17130000000E+03 0.  1.
      622    1    1    2    0    0 -0.10787964725E-01 -0.31668505562E-01  0.37505916538E+01  0.37509541490E+01  0.40000000000E-01 0. -1.
</event>
<event>
 5   0  0.6200596E+07  0.9118800E+02  0.7818608E-02  0.1180000E+00
       11   -1    0    0    0    0  0.00000000000E+00  0.00000000000E+00  0.39999999673E+01  0.40000000000E+01  0.51109989000E-03 0.  1.
     -623   -1    0    0    0    0  0.00000000000E+00  0.00000000000E+00  0.12525980253E-10  0.17130000000E+03  0.17130000000E+03 0.  1.
       11    1    1    2    0    0 -0.98302221562E-04 -0.69713758754E-03  0.40935414603E-02  0.41849691739E-02  0.51109989000E-03 0.  1.
     -623    1    1    2    0    0 -0.13719677152E-02  0.11380151706E-02  0.29191391227E-03  0.17130000001E+03  0.17130000000E+03 0.  1.
      622    1    1    2    0    0  0.14702699367E-02 -0.44087758309E-03  0.39956145120E+01  0.39958150213E+01  0.40000000000E-01 0.  1.
</event>
<event>
 5   0  0.6200596E+07  0.9118800E+02  0.7818608E-02  0.1180000E+00
       11   -1    0    0    0    0  0.00000000000E+00  0.00000000000E+00  0.39999999673E+01  0.40000000000E+01  0.51109989000E-03 0.  1.
     -623   -1    0    0    0    0  0.00000000000E+00  0.00000000000E+00  0.12525980253E-10  0.17130000000E+03  0.17130000000E+03 0. -1.
       11    1    1    2    0    0 -0.12818391148E-02  0.14725412853E-01  0.21213747880E+00  0.21265242070E+00  0.51109989000E-03 0.  1.
     -623    1    1    2    0    0 -0.19353962879E-02 -0.48948949465E-02  0.74035268008E-03  0.17130000008E+03  0.17130000000E+03 0. -1.
      622    1    1    2    0    0  0.32172354028E-02 -0.98305179062E-02  0.37871221359E+01  0.37873474968E+01  0.40000000000E-01 0.  1.
</event>
<event>
 5   0  0.6200596E+07  0.9118800E+02  0.7818608E-02  0.1180000E+00
       11   -1    0    0    0    0  0.00000000000E+00  0.00000000000E+00  0.39999999673E+01  0.40000000000E+01  0.51109989000E-03 0. -1.
     -623   -1    0    0    0    0  0.00000000000E+00  0.00000000000E+00  0.12525980253E-10  0.17130000000E+03  0.17130000000E+03 0.  1.
       11    1    1    2    0    0 -0.29778062744E-02  0.58721783075E-02  0.10123256360E+01  0.10123471758E+01  0.51109989000E-03 0. -1.
     -623    1    1    2    0    0 -0.13178430242E-02 -0.62146243887E-03  0.29699717249E-03  0.17130000001E+03  0.17130000000E+03 0.  1.
      622    1    1    2    0    0  0.42956492986E-02 -0.52507158687E-02  0.29873773342E+01  0.29876528177E+01  0.40000000000E-01 0. -1.
</event>
<event>
 5   0  0.6200596E+07  0.9118800E+02  0.7818608E-02  0.1180000E+00
       11   -1    0    0    0    0  0.00000000000E+00  0.00000000000E+00  0.39999999673E+01  0.40000000000E+01  0.51109989000E-03 0. -1.
     -623   -1    0    0    0    0  0.00000000000E+00  0.00000000000E+00  0.12525980253E-10  0.17130000000E+03  0.17130000000E+03 0.  1.
       11    1    1    2    0    0 -0.25649565321E-02  0.41287066560E-02  0.65504692140E-01  0.65686765287E-01  0.51109989000E-03 0. -1.
     -623    1    1    2    0    0  0.36313479881E-02 -0.10430800658E-02  0.38678163891E-03  0.17130000004E+03  0.17130000000E+03 0.  1.
      622    1    1    2    0    0 -0.10663914560E-02 -0.30856265901E-02  0.39341084936E+01  0.39343131926E+01  0.40000000000E-01 0. -1.
</event>
<event>
 5   0  0.6200596E+07  0.9118800E+02  0.7818608E-02  0.1180000E+00
       11   -1    0    0    0    0  0.00000000000E+00  0.00000000000E+00  0.39999999673E+01  0.40000000000E+01  0.51109989000E-03 0. -1.
     -623   -1    0    0    0    0  0.00000000000E+00  0.00000000000E+00  0.12525980253E-10  0.17130000000E+03  0.17130000000E+03 0. -1.
       11    1    1    2    0    0  0.18866715140E-01 -0.34325567412E-02  0.82525955724E+00  0.82548248523E+00  0.51109989000E-03 0. -1.
     -623    1    1    2    0    0 -0.20190961452E-02  0.98072003527E-02  0.52631681683E-03  0.17130000029E+03  0.17130000000E+03 0. -1.
      622    1    1    2    0    0 -0.16847618995E-01 -0.63746436115E-02  0.31742140933E+01  0.31745172213E+01  0.40000000000E-01 0. -1.
</event>
<event>
 5   0  0.6200596E+07  0.9118800E+02  0.7818608E-02  0.1180000E+00
       11   -1    0    0    0    0  0.00000000000E+00  0.00000000000E+00  0.39999999673E+01  0.40000000000E+01  0.51109989000E-03 0. -1.
     -623   -1    0    0    0    0  0.00000000000E+00  0.00000000000E+00  0.12525980253E-10  0.17130000000E+03  0.17130000000E+03 0.  1.
       11    1    1    2    0    0 -0.79830728116E-03  0.74424373007E-02  0.98913840688E+00  0.98916685971E+00  0.51109989000E-03 0. -1.
     -623    1    1    2    0    0 -0.78933098499E-02 -0.26240316713E-02  0.31074383353E-03  0.17130000020E+03  0.17130000000E+03 0.  1.
      622    1    1    2    0    0  0.86916171310E-02 -0.48184056294E-02  0.30105508166E+01  0.30108329381E+01  0.40000000000E-01 0. -1.
</event>
<event>
 5   0  0.6200596E+07  0.9118800E+02  0.7818608E-02  0.1180000E+00
       11   -1    0    0    0    0  0.00000000000E+00  0.00000000000E+00  0.39999999673E+01  0.40000000000E+01  0.51109989000E-03 0. -1.
     -623   -1    0    0    0    0  0.00000000000E+00  0.00000000000E+00  0.12525980253E-10  0.17130000000E+03  0.17130000000E+03 0. -1.
       11    1    1    2    0    0  0.82855632441E-01 -0.34333834377E-01  0.22874554870E+01  0.22892131255E+01  0.51109989000E-03 0. -1.
     -623    1    1    2    0    0 -0.84254683751E-02 -0.55135181972E-02  0.43106348972E-02  0.17130000035E+03  0.17130000000E+03 0. -1.
      622    1    1    2    0    0 -0.74430164066E-01  0.39847352574E-01  0.17082338455E+01  0.17107865243E+01  0.40000000000E-01 0. -1.
</event>
<event>
 5   0  0.6200596E+07  0.9118800E+02  0.7818608E-02  0.1180000E+00
       11   -1    0    0    0    0  0.00000000000E+00  0.00000000000E+00  0.39999999673E+01  0.40000000000E+01  0.51109989000E-03 0.  1.
     -623   -1    0    0    0    0  0.00000000000E+00  0.00000000000E+00  0.12525980253E-10  0.17130000000E+03  0.17130000000E+03 0. -1.
       11    1    1    2    0    0  0.32878958614E-01  0.19467660673E-01  0.15202308109E+00  0.15675233375E+00  0.51109989000E-03 0.  1.
     -623    1    1    2    0    0 -0.66653114603E-02 -0.25743374876E-01  0.50340490343E-02  0.17130000214E+03  0.17130000000E+03 0. -1.
      622    1    1    2    0    0 -0.26213647154E-01  0.62757142036E-02  0.38429428372E+01  0.38432455282E+01  0.40000000000E-01 0.  1.
</event>
<event>
 5   0  0.6200596E+07  0.9118800E+02  0.7818608E-02  0.1180000E+00
       11   -1    0    0    0    0  0.00000000000E+00  0.00000000000E+00  0.39999999673E+01  0.40000000000E+01  0.51109989000E-03 0. -1.
     -623   -1    0    0    0    0  0.00000000000E+00  0.00000000000E+00  0.12525980253E-10  0.17130000000E+03  0.17130000000E+03 0. -1.
       11    1    1    2    0    0  0.78229283619E-03 -0.79268722817E-04  0.24999296813E-01  0.25016880861E-01  0.51109989000E-03 0. -1.
     -623    1    1    2    0    0 -0.10047112133E-02  0.26615418767E-02  0.21968401273E-03  0.17130000002E+03  0.17130000000E+03 0. -1.
      622    1    1    2    0    0  0.22241837714E-03 -0.25822731539E-02  0.39747809865E+01  0.39749830954E+01  0.40000000000E-01 0. -1.
</event>
<event>
 5   0  0.6200596E+07  0.9118800E+02  0.7818608E-02  0.1180000E+00
       11   -1    0    0    0    0  0.00000000000E+00  0.00000000000E+00  0.39999999673E+01  0.40000000000E+01  0.51109989000E-03 0.  1.
     -623   -1    0    0    0    0  0.00000000000E+00  0.00000000000E+00  0.12525980253E-10  0.17130000000E+03  0.17130000000E+03 0. -1.
       11    1    1    2    0    0  0.17188234916E-01 -0.15751459900E-01  0.42888718012E+00  0.42952068449E+00  0.51109989000E-03 0.  1.
     -623    1    1    2    0    0  0.56353811991E-02  0.30955536015E-02  0.95304676721E-03  0.17130000012E+03  0.17130000000E+03 0. -1.
      622    1    1    2    0    0 -0.22823616115E-01  0.12655906299E-01  0.35701597405E+01  0.35704791922E+01  0.40000000000E-01 0.  1.
</event>
<event>
 5   0  0.6200596E+07  0.9118800E+02  0.7818608E-02  0.1180000E+00
       11   -1    0    0    0    0  0.00000000000E+00  0.00000000000E+00  0.39999999673E+01  0.40000000000E+01  0.51109989000E-03 0.  1.
     -623   -1    0    0    0    0  0.00000000000E+00  0.00000000000E+00  0.12525980253E-10  0.17130000000E+03  0.17130000000E+03 0. -1.
       11    1    1    2    0    0 -0.65612901242E-03 -0.14150144343E-02  0.24620314079E-02  0.29589848626E-02  0.51109989000E-03 0.  1.
     -623    1    1    2    0    0 -0.22433469020E-03  0.83899807192E-03  0.69721599100E-03  0.17130000000E+03  0.17130000000E+03 0. -1.
      622    1    1    2    0    0  0.88046370263E-03  0.57601636240E-03  0.39968407200E+01  0.39970410115E+01  0.40000000000E-01 0.  1.
</event>
<event>
 5   0  0.6200596E+07  0.9118800E+02  0.7818608E-02  0.1180000E+00
       11   -1    0    0    0    0  0.00000000000E+00  0.00000000000E+00  0.39999999673E+01  0.40000000000E+01  0.51109989000E-03 0.  1.
     -623   -1    0    0    0    0  0.00000000000E+00  0.00000000000E+00  0.12525980253E-10  0.17130000000E+03  0.17130000000E+03 0. -1.
       11    1    1    2    0    0  0.13067809105E-01  0.64389355935E-02  0.66226584274E+00  0.66242624888E+00  0.51109989000E-03 0.  1.
     -623    1    1    2    0    0 -0.19074235612E-01  0.91495287003E-02  0.44319586198E-03  0.17130000131E+03  0.17130000000E+03 0. -1.
      622    1    1    2    0    0  0.60064265068E-02 -0.15588464294E-01  0.33372909288E+01  0.33375724442E+01  0.40000000000E-01 0.  1.
</event>
<event>
 5   0  0.6200596E+07  0.9118800E+02  0.7818608E-02  0.1180000E+00
       11   -1    0    0    0    0  0.00000000000E+00  0.00000000000E+00  0.39999999673E+01  0.40000000000E+01  0.51109989000E-03 0.  1.
     -623   -1    0    0    0    0  0.00000000000E+00  0.00000000000E+00  0.12525980253E-10  0.17130000000E+03  0.17130000000E+03 0.  1.
       11    1    1    2    0    0  0.19293565822E-01  0.49678321564E-02  0.15490341363E+00  0.15618018381E+00  0.51109989000E-03 0.  1.
     -623    1    1    2    0    0 -0.10925647712E-01  0.55459163708E-02  0.15088028653E-02  0.17130000044E+03  0.17130000000E+03 0.  1.
      622    1    1    2    0    0 -0.83679181103E-02 -0.10513748527E-01  0.38435877509E+01  0.38438193713E+01  0.40000000000E-01 0.  1.
</event>
<event>
 5   0  0.6200596E+07  0.9118800E+02  0.7818608E-02  0.1180000E+00
       11   -1    0    0    0    0  0.00000000000E+00  0.00000000000E+00  0.39999999673E+01  0.40000000000E+01  0.51109989000E-03 0.  1.
     -623   -1    0    0    0    0  0.00000000000E+00  0.00000000000E+00  0.12525980253E-10  0.17130000000E+03  0.17130000000E+03 0. -1.
       11    1    1    2    0    0 -0.51920210207E-02  0.27042878679E-02  0.11362607345E+01  0.11362759297E+01  0.51109989000E-03 0.  1.
     -623    1    1    2    0    0 -0.37657069024E-03  0.43400215826E-02  0.30866780514E-03  0.17130000006E+03  0.17130000000E+03 0. -1.
      622    1    1    2    0    0  0.55685917109E-02 -0.70443094505E-02  0.28634305650E+01  0.28637240147E+01  0.40000000000E-01 0.  1.
</event>
<event>
 5   0  0.6200596E+07  0.9118800E+02  0.7818608E-02  0.1180000E+00
       11   -1    0    0    0    0  0.00000000000E+00  0.00000000000E+00  0.39999999673E+01  0.40000000000E+01  0.51109989000E-03 0.  1.
     -623   -1    0    0    0    0  0.00000000000E+00  0.00000000000E+00  0.12525980253E-10  0.17130000000E+03  0.17130000000E+03 0. -1.
       11    1    1    2    0    0  0.11219281164E-01  0.27030741431E-01  0.46398305201E+00  0.46490543880E+00  0.51109989000E-03 0.  1.
     -623    1    1    2    0    0 -0.18673049158E-01 -0.14514247188E-01  0.11803189210E-02  0.17130000164E+03  0.17130000000E+03 0. -1.
      622    1    1    2    0    0  0.74537679940E-02 -0.12516494243E-01  0.35348365964E+01  0.35350929245E+01  0.40000000000E-01 0.  1.
</event>
<event>
 5   0  0.6200596E+07  0.9118800E+02  0.7818608E-02  0.1180000E+00
       11   -1    0    0    0    0  0.00000000000E+00  0.00000000000E+00  0.39999999673E+01  0.40000000000E+01  0.51109989000E-03 0.  1.
     -623   -1    0    0    0    0  0.00000000000E+00  0.00000000000E+00  0.12525980253E-10  0.17130000000E+03  0.17130000000E+03 0. -1.
       11    1    1    2    0    0 -0.22968898000E-02  0.30642143323E-02  0.25946886975E-02  0.46538955657E-02  0.51109989000E-03 0.  1.
     -623    1    1    2    0    0 -0.40006278340E-03 -0.56693204773E-02  0.22612810777E-02  0.17130000011E+03  0.17130000000E+03 0. -1.
      622    1    1    2    0    0  0.26969525834E-02  0.26051061450E-02  0.39951439976E+01  0.39953459952E+01  0.40000000000E-01 0.  1.
</event>
<event>
 5   0  0.6200596E+07  0.9118800E+02  0.7818608E-02  0.1180000E+00
       11   -1    0    0    0    0  0.00000000000E+00  0.00000000000E+00  0.39999999673E+01  0.40000000000E+01  0.51109989000E-03 0.  1.
     -623   -1    0    0    0    0  0.00000000000E+00  0.00000000000E+00  0.12525980253E-10  0.17130000000E+03  0.17130000000E+03 0.  1.
       11    1    1    2    0    0  0.13110897393E-02  0.12334747166E-02  0.30169403771E-01  0.30227380980E-01  0.51109989000E-03 0.  1.
     -623    1    1    2    0    0 -0.21962195667E-02  0.23772187342E-02  0.26124414963E-03  0.17130000003E+03  0.17130000000E+03 0.  1.
      622    1    1    2    0    0  0.88512982737E-03 -0.36106934508E-02  0.39695693194E+01  0.39697725882E+01  0.40000000000E-01 0.  1.
</event>
<event>
 5   0  0.6200596E+07  0.9118800E+02  0.7818608E-02  0.1180000E+00
       11   -1    0    0    0    0  0.00000000000E+00  0.00000000000E+00  0.39999999673E+01  0.40000000000E+01  0.51109989000E-03 0. -1.
     -623   -1    0    0    0    0  0.00000000000E+00  0.00000000000E+00  0.12525980253E-10  0.17130000000E+03  0.17130000000E+03 0. -1.
       11    1    1    2    0    0 -0.54212537833E-02  0.90708278717E-03  0.67104553702E+00  0.67106824301E+00  0.51109989000E-03 0. -1.
     -623    1    1    2    0    0 -0.65395418412E-03 -0.23069761869E-02  0.26885465896E-03  0.17130000002E+03  0.17130000000E+03 0. -1.
      622    1    1    2    0    0  0.60752079675E-02  0.13998933997E-02  0.33286855757E+01  0.33289317400E+01  0.40000000000E-01 0. -1.
</event>
<event>
 5   0  0.6200596E+07  0.9118800E+02  0.7818608E-02  0.1180000E+00
       11   -1    0    0    0    0  0.00000000000E+00  0.00000000000E+00  0.39999999673E+01  0.40000000000E+01  0.51109989000E-03 0. -1.
     -623   -1    0    0    0    0  0.00000000000E+00  0.00000000000E+00  0.12525980253E-10  0.17130000000E+03  0.17130000000E+03 0.  1.
       11    1    1    2    0    0 -0.80240376429E-03 -0.23343333593E-02  0.50072088424E-02  0.56059189271E-02  0.51109989000E-03 0. -1.
     -623    1    1    2    0    0  0.18021134373E-02  0.29041646543E-02  0.79916487522E-03  0.17130000004E+03  0.17130000000E+03 0.  1.
      622    1    1    2    0    0 -0.99970967300E-03 -0.56983129500E-03  0.39941935936E+01  0.39943940451E+01  0.40000000000E-01 0. -1.
</event>
<event>
 5   0  0.6200596E+07  0.9118800E+02  0.7818608E-02  0.1180000E+00
       11   -1    0    0    0    0  0.00000000000E+00  0.00000000000E+00  0.39999999673E+01  0.40000000000E+01  0.51109989000E-03 0.  1.
     -623   -1    0    0    0    0  0.00000000000E+00  0.00000000000E+00  0.12525980253E-10  0.17130000000E+03  0.17130000000E+03 0. -1.
       11    1    1    2    0    0 -0.11153139608E-02 -0.83468639150E-03  0.24561434752E-01  0.24606217201E-01  0.51109989000E-03 0.  1.
     -623    1    1    2    0    0 -0.51811709479E-03  0.98251394730E-03  0.24633494988E-03  0.17130000000E+03  0.17130000000E+03 0. -1.
      622    1    1    2    0    0  0.16334310556E-02 -0.14782755579E-03  0.39751921977E+01  0.39753937790E+01  0.40000000000E-01 0.  1.
</event>
<event>
 5   0  0.6200596E+07  0.9118800E+02  0.7818608E-02  0.1180000E+00
       11   -1    0    0    0    0  0.00000000000E+00  0.00000000000E+00  0.39999999673E+01  0.40000000000E+01  0.51109989000E-03 0.  1.
     -623   -1    0    0    0    0  0.00000000000E+00  0.00000000000E+00  0.12525980253E-10  0.17130000000E+03  0.17130000000E+03 0. -1.
       11    1    1    2    0    0 -0.21909817524E-03  0.39099715943E-02  0.41636066293E-01  0.41822949668E-01  0.51109989000E-03 0.  1.
     -623    1    1    2    0    0  0.10297398520E-02 -0.19430666630E-02  0.38955543564E-03  0.17130000001E+03  0.17130000000E+03 0. -1.
      622    1    1    2    0    0 -0.81064167679E-03 -0.19669049313E-02  0.39579743456E+01  0.39581770358E+01  0.40000000000E-01 0.  1.
</event>
<event>
 5   0  0.6200596E+07  0.9118800E+02  0.7818608E-02  0.1180000E+00
       11   -1    0    0    0    0  0.00000000000E+00  0.00000000000E+00  0.39999999673E+01  0.40000000000E+01  0.51109989000E-03 0. -1.
     -623   -1    0    0    0    0  0.00000000000E+00  0.00000000000E+00  0.12525980253E-10  0.17130000000E+03  0.17130000000E+03 0.  1.
       11    1    1    2    0    0 -0.10644700332E-02  0.10170816946E-01  0.11270067752E+00  0.11316484679E+00  0.51109989000E-03 0. -1.
     -623    1    1    2    0    0  0.13487182624E-01 -0.36204496882E-02  0.69590882867E-03  0.17130000057E+03  0.17130000000E+03 0.  1.
      622    1    1    2    0    0 -0.12422712591E-01 -0.65503672580E-02  0.38866033810E+01  0.38868345826E+01  0.40000000000E-01 0. -1.
</event>
<event>
 5   0  0.6200596E+07  0.9118800E+02  0.7818608E-02  0.1180000E+00
       11   -1    0    0    0    0  0.00000000000E+00  0.00000000000E+00  0.39999999673E+01  0.40000000000E+01  0.51109989000E-03 0. -1.
     -623   -1    0    0    0    0  0.00000000000E+00  0.00000000000E+00  0.12525980253E-10  0.17130000000E+03  0.17130000000E+03 0.  1.
       11    1    1    2    0    0  0.19675158560E-02 -0.10400109506E-01  0.88792652298E+00  0.88798975491E+00  0.51109989000E-03 0. -1.
     -623    1    1    2    0    0 -0.34606598905E-02 -0.99126705468E-03  0.34152548789E-03  0.17130000004E+03  0.17130000000E+03 0.  1.
      622    1    1    2    0    0  0.14931440346E-02  0.11391376561E-01  0.31117319189E+01  0.31120102069E+01  0.40000000000E-01 0. -1.
</event>
<event>
 5   0  0.6200596E+07  0.9118800E+02  0.7818608E-02  0.1180000E+00
       11   -1    0    0    0    0  0.00000000000E+00  0.00000000000E+00  0.39999999673E+01  0.40000000000E+01  0.51109989000E-03 0. -1.
     -623   -1    0    0    0    0  0.00000000000E+00  0.00000000000E+00  0.12525980253E-10  0.17130000000E+03  0.17130000000E+03 0.  1.
       11    1    1    2    0    0  0.25659048474E-02 -0.68109501127E-02  0.11881332827E-01  0.13942747221E-01  0.51109989000E-03 0. -1.
     -623    1    1    2    0    0  0.10126473283E-02  0.74745506373E-02  0.22639290954E-02  0.17130000018E+03  0.17130000000E+03 0.  1.
      622    1    1    2    0    0 -0.35785521757E-02 -0.66360052457E-03  0.39858547054E+01  0.39860570718E+01  0.40000000000E-01 0. -1.
</event>
<event>
 5   0  0.6200596E+07  0.9118800E+02  0.7818608E-02  0.1180000E+00
       11   -1    0    0    0    0  0.00000000000E+00  0.00000000000E+00  0.39999999673E+01  0.40000000000E+01  0.51109989000E-03 0. -1.
     -623   -1    0    0    0    0  0.00000000000E+00  0.00000000000E+00  0.12525980253E-10  0.17130000000E+03  0.17130000000E+03 0.  1.
       11    1    1    2    0    0 -0.22383039320E-02  0.30503803117E-01  0.11544123421E+01  0.11548175651E+01  0.51109989000E-03 0. -1.
     -623    1    1    2    0    0  0.11618359637E-01 -0.16171264570E-01  0.73910807163E-03  0.17130000116E+03  0.17130000000E+03 0.  1.
      622    1    1    2    0    0 -0.93800557052E-02 -0.14332538547E-01  0.28448485172E+01  0.28451812760E+01  0.40000000000E-01 0.  1.
</event>
<event>
 5   0  0.6200596E+07  0.9118800E+02  0.7818608E-02  0.1180000E+00
       11   -1    0    0    0    0  0.00000000000E+00  0.00000000000E+00  0.39999999673E+01  0.40000000000E+01  0.51109989000E-03 0.  1.
     -623   -1    0    0    0    0  0.00000000000E+00  0.00000000000E+00  0.12525980253E-10  0.17130000000E+03  0.17130000000E+03 0.  1.
       11    1    1    2    0    0  0.67896285714E-02  0.11060218995E-02  0.47679206432E+00  0.47684196140E+00  0.51109989000E-03 0.  1.
     -623    1    1    2    0    0  0.80001666873E-04 -0.16917544041E-03  0.28376349217E-03  0.17130000000E+03  0.17130000000E+03 0.  1.
      622    1    1    2    0    0 -0.68696302383E-02 -0.93684645914E-03  0.35229241396E+01  0.35231580383E+01  0.40000000000E-01 0.  1.
</event>
<event>
 5   0  0.6200596E+07  0.9118800E+02  0.7818608E-02  0.1180000E+00
       11   -1    0    0    0    0  0.00000000000E+00  0.00000000000E+00  0.39999999673E+01  0.40000000000E+01  0.51109989000E-03 0. -1.
     -623   -1    0    0    0    0  0.00000000000E+00  0.00000000000E+00  0.12525980253E-10  0.17130000000E+03  0.17130000000E+03 0. -1.
       11    1    1    2    0    0 -0.16458184322E-02  0.32855985402E-03  0.10582869681E+00  0.10584323766E+00  0.51109989000E-03 0. -1.
     -623    1    1    2    0    0  0.14650763746E-03  0.17559254107E-03  0.22027120997E-03  0.17130000000E+03  0.17130000000E+03 0. -1.
      622    1    1    2    0    0  0.14993107948E-02 -0.50415239509E-03  0.38939509993E+01  0.38941567620E+01  0.40000000000E-01 0. -1.
</event>
<event>
 5   0  0.6200596E+07  0.9118800E+02  0.7818608E-02  0.1180000E+00
       11   -1    0    0    0    0  0.00000000000E+00  0.00000000000E+00  0.39999999673E+01  0.40000000000E+01  0.51109989000E-03 0.  1.
     -623   -1    0    0    0    0  0.00000000000E+00  0.00000000000E+00  0.12525980253E-10  0.17130000000E+03  0.17130000000E+03 0.  1.
       11    1    1    2    0    0 -0.24836723008E-01  0.23384073737E-02  0.62682472021E+00  0.62732114746E+00  0.51109989000E-03 0.  1.
     -623    1    1    2    0    0 -0.21260598815E-03 -0.23907618042E-03  0.82728900215E-03  0.17130000000E+03  0.17130000000E+03 0.  1.
      622    1    1    2    0    0  0.25049328996E-01 -0.20993311933E-02  0.33723479581E+01  0.33726788502E+01  0.40000000000E-01 0.  1.
</event>
<event>
 5   0  0.6200596E+07  0.9118800E+02  0.7818608E-02  0.1180000E+00
       11   -1    0    0    0    0  0.00000000000E+00  0.00000000000E+00  0.39999999673E+01  0.40000000000E+01  0.51109989000E-03 0.  1.
     -623   -1    0    0    0    0  0.00000000000E+00  0.00000000000E+00  0.12525980253E-10  0.17130000000E+03  0.17130000000E+03 0.  1.
       11    1    1    2    0    0 -0.19673570955E-01  0.49858186836E-01  0.14527601301E+01  0.14537486526E+01  0.51109989000E-03 0.  1.
     -623    1    1    2    0    0 -0.60606295805E-03 -0.27456362166E-02  0.18194591509E-02  0.17130000003E+03  0.17130000000E+03 0.  1.
      622    1    1    2    0    0  0.20279633913E-01 -0.47112550620E-01  0.25454203781E+01  0.25462513146E+01  0.40000000000E-01 0. -1.
</event>
<event>
 5   0  0.6200596E+07  0.9118800E+02  0.7818608E-02  0.1180000E+00
       11   -1    0    0    0    0  0.00000000000E+00  0.00000000000E+00  0.39999999673E+01  0.40000000000E+01  0.51109989000E-03 0.  1.
     -623   -1    0    0    0    0  0.00000000000E+00  0.00000000000E+00  0.12525980253E-10  0.17130000000E+03  0.17130000000E+03 0.  1.
       11    1    1    2    0    0  0.43655100016E-03  0.16652252593E-02  0.27594432283E-02  0.32923092269E-02  0.51109989000E-03 0.  1.
     -623    1    1    2    0    0 -0.10537598938E-03  0.52647284707E-03  0.73362022358E-03  0.17130000000E+03  0.17130000000E+03 0.  1.
      622    1    1    2    0    0 -0.33117501078E-03 -0.21916981064E-02  0.39965069039E+01  0.39967076884E+01  0.40000000000E-01 0.  1.
</event>
<event>
 5   0  0.6200596E+07  0.9118800E+02  0.7818608E-02  0.1180000E+00
       11   -1    0    0    0    0  0.00000000000E+00  0.00000000000E+00  0.39999999673E+01  0.40000000000E+01  0.51109989000E-03 0. -1.
     -623   -1    0    0    0    0  0.00000000000E+00  0.00000000000E+00  0.12525980253E-10  0.17130000000E+03  0.17130000000E+03 0. -1.
       11    1    1    2    0    0  0.67637701474E-02 -0.24850392522E-02  0.29644023476E+00  0.29652824151E+00  0.51109989000E-03 0. -1.
     -623    1    1    2    0    0 -0.11079866641E-01  0.42930490640E-03  0.30743886295E-03  0.17130000036E+03  0.17130000000E+03 0. -1.
      622    1    1    2    0    0  0.43160964933E-02  0.20557343458E-02  0.37032522937E+01  0.37034713993E+01  0.40000000000E-01 0. -1.
</event>
<event>
 5   0  0.6200596E+07  0.9118800E+02  0.7818608E-02  0.1180000E+00
       11   -1    0    0    0    0  0.00000000000E+00  0.00000000000E+00  0.39999999673E+01  0.40000000000E+01  0.51109989000E-03 0. -1.
     -623   -1    0    0    0    0  0.00000000000E+00  0.00000000000E+00  0.12525980253E-10  0.17130000000E+03  0.17130000000E+03 0. -1.
       11    1    1    2    0    0  0.52569516540E-03  0.30891040901E-02  0.68368584523E-01  0.68442263917E-01  0.51109989000E-03 0. -1.
     -623    1    1    2    0    0  0.10873510906E-02  0.22600389328E-03  0.27886618313E-03  0.17130000000E+03  0.17130000000E+03 0. -1.
      622    1    1    2    0    0 -0.16130462560E-02 -0.33151079834E-02  0.39313525167E+01  0.39315577323E+01  0.40000000000E-01 0. -1.
</event>
<event>
 5   0  0.6200596E+07  0.9118800E+02  0.7818608E-02  0.1180000E+00
       11   -1    0    0    0    0  0.00000000000E+00  0.00000000000E+00  0.39999999673E+01  0.40000000000E+01  0.51109989000E-03 0. -1.
     -623   -1    0    0    0    0  0.00000000000E+00  0.00000000000E+00  0.12525980253E-10  0.17130000000E+03  0.17130000000E+03 0.  1.
       11    1    1    2    0    0 -0.53073724765E-03  0.11186080048E-01  0.10115127769E+00  0.10177058646E+00  0.51109989000E-03 0. -1.
     -623    1    1    2    0    0  0.11513785770E-02  0.85108815125E-03  0.84314591653E-03  0.17130000001E+03  0.17130000000E+03 0.  1.
      622    1    1    2    0    0 -0.62064132939E-03 -0.12037168200E-01  0.38980055438E+01  0.38982294055E+01  0.40000000000E-01 0. -1.
</event>
<event>
 5   0  0.6200596E+07  0.9118800E+02  0.7818608E-02  0.1180000E+00
       11   -1    0    0    0    0  0.00000000000E+00  0.00000000000E+00  0.39999999673E+01  0.40000000000E+01  0.51109989000E-03 0. -1.
     -623   -1    0    0    0    0  0.00000000000E+00  0.00000000000E+00  0.12525980253E-10  0.17130000000E+03  0.17130000000E+03 0. -1.
       11    1    1    2    0    0  0.15449878261E-02 -0.83209501755E-03  0.68306630562E-02  0.70709651469E-02  0.51109989000E-03 0. -1.
     -623    1    1    2    0    0 -0.28559575577E-03 -0.62103619419E-03  0.44109363272E-03  0.17130000000E+03  0.17130000000E+03 0. -1.
      622    1    1    2    0    0 -0.12593920704E-02  0.14531312117E-02  0.39927282107E+01  0.39929290329E+01  0.40000000000E-01 0. -1.
</event>
<event>
 5   0  0.6200596E+07  0.9118800E+02  0.7818608E-02  0.1180000E+00
       11   -1    0    0    0    0  0.00000000000E+00  0.00000000000E+00  0.39999999673E+01  0.40000000000E+01  0.51109989000E-03 0.  1.
     -623   -1    0    0    0    0  0.00000000000E+00  0.00000000000E+00  0.12525980253E-10  0.17130000000E+03  0.17130000000E+03 0. -1.
       11    1    1    2    0    0 -0.18633146132E-02 -0.21290754849E-02  0.13260529766E-01  0.13568631974E-01  0.51109989000E-03 0.  1.
     -623    1    1    2    0    0  0.10593296819E-02  0.76479879445E-04  0.50936895114E-03  0.17130000000E+03  0.17130000000E+03 0. -1.
      622    1    1    2    0    0  0.80398493131E-03  0.20525956054E-02  0.39862300686E+01  0.39864313640E+01  0.40000000000E-01 0.  1.
</event>
<event>
 5   0  0.6200596E+07  0.9118800E+02  0.7818608E-02  0.1180000E+00
       11   -1    0    0    0    0  0.00000000000E+00  0.00000000000E+00  0.39999999673E+01  0.40000000000E+01  0.51109989000E-03 0.  1.
     -623   -1    0    0    0    0  0.00000000000E+00  0.00000000000E+00  0.12525980253E-10  0.17130000000E+03  0.17130000000E+03 0. -1.
       11    1    1    2    0    0 -0.58718149113E-02  0.14579587367E-03  0.41147860791E-01  0.41568102386E-01  0.51109989000E-03 0.  1.
     -623    1    1    2    0    0  0.10185783221E-02  0.95633317795E-03  0.62544993298E-03  0.17130000001E+03  0.17130000000E+03 0. -1.
      622    1    1    2    0    0  0.48532365892E-02 -0.11021290516E-02  0.39582266566E+01  0.39584318908E+01  0.40000000000E-01 0.  1.
</event>
<event>
 5   0  0.6200596E+07  0.9118800E+02  0.7818608E-02  0.1180000E+00
       11   -1    0    0    0    0  0.00000000000E+00  0.00000000000E+00  0.39999999673E+01  0.40000000000E+01  0.51109989000E-03 0.  1.
     -623   -1    0    0    0    0  0.00000000000E+00  0.00000000000E+00  0.12525980253E-10  0.17130000000E+03  0.17130000000E+03 0.  1.
       11    1    1    2    0    0 -0.17881213138E-02  0.47398464615E-04  0.15174949115E-02  0.24007576468E-02  0.51109989000E-03 0.  1.
     -623    1    1    2    0    0  0.98064254807E-03 -0.11350699139E-02  0.10835947404E-02  0.17130000001E+03  0.17130000000E+03 0.  1.
      622    1    1    2    0    0  0.80747876571E-03  0.10876714493E-02  0.39973988777E+01  0.39975992324E+01  0.40000000000E-01 0.  1.
</event>
<event>
 5   0  0.6200596E+07  0.9118800E+02  0.7818608E-02  0.1180000E+00
       11   -1    0    0    0    0  0.00000000000E+00  0.00000000000E+00  0.39999999673E+01  0.40000000000E+01  0.51109989000E-03 0. -1.
     -623   -1    0    0    0    0  0.00000000000E+00  0.00000000000E+00  0.12525980253E-10  0.17130000000E+03  0.17130000000E+03 0.  1.
       11    1    1    2    0    0  0.26449615106E-02  0.22470349508E-02  0.68373135160E+00  0.68374035084E+00  0.51109989000E-03 0. -1.
     -623    1    1    2    0    0 -0.12763396844E-03  0.39039324467E-03  0.25221604603E-03  0.17130000000E+03  0.17130000000E+03 0.  1.
      622    1    1    2    0    0 -0.25173275422E-02 -0.26374281955E-02  0.33160163997E+01  0.33162596485E+01  0.40000000000E-01 0. -1.
</event>
<event>
 5   0  0.6200596E+07  0.9118800E+02  0.7818608E-02  0.1180000E+00
       11   -1    0    0    0    0  0.00000000000E+00  0.00000000000E+00  0.39999999673E+01  0.40000000000E+01  0.51109989000E-03 0.  1.
     -623   -1    0    0    0    0  0.00000000000E+00  0.00000000000E+00  0.12525980253E-10  0.17130000000E+03  0.17130000000E+03 0.  1.
       11    1    1    2    0    0 -0.31931725969E-03  0.29424918124E-02  0.59647796574E-01  0.59723371288E-01  0.51109989000E-03 0.  1.
     -623    1    1    2    0    0 -0.27470211977E-02 -0.22455044951E-02  0.27987053738E-03  0.17130000004E+03  0.17130000000E+03 0.  1.
      622    1    1    2    0    0  0.30663384574E-02 -0.69698731735E-03  0.39400723002E+01  0.39402765917E+01  0.40000000000E-01 0.  1.
</event>
<event>
 5   0  0.6200596E+07  0.9118800E+02  0.7818608E-02  0.1180000E+00
       11   -1    0    0    0    0  0.00000000000E+00  0.00000000000E+00  0.39999999673E+01  0.40000000000E+01  0.51109989000E-03 0. -1.
     -623   -1    0    0    0    0  0.00000000000E+00  0.00000000000E+00  0.12525980253E-10  0.17130000000E+03  0.17130000000E+03 0. -1.
       11    1    1    2    0    0  0.60002046947E-02 -0.59745228854E-02  0.39204076928E+00  0.39213253293E+00  0.51109989000E-03 0. -1.
     -623    1    1    2    0    0  0.10584086193E-02  0.17010807681E-02  0.32292388283E-03  0.17130000001E+03  0.17130000000E+03 0. -1.
      622    1    1    2    0    0 -0.70586133140E-02  0.42734421172E-02  0.36076362742E+01  0.36078674551E+01  0.40000000000E-01 0. -1.
</event>
<event>
 5   0  0.6200596E+07  0.9118800E+02  0.7818608E-02  0.1180000E+00
       11   -1    0    0    0    0  0.00000000000E+00  0.00000000000E+00  0.39999999673E+01  0.40000000000E+01  0.51109989000E-03 0.  1.
     -623   -1    0    0    0    0  0.00000000000E+00  0.00000000000E+00  0.12525980253E-10  0.17130000000E+03  0.17130000000E+03 0.  1.
       11    1    1    2    0    0  0.54237599662E-01  0.65971015745E-01  0.10951599611E+01  0.10984850904E+01  0.51109989000E-03 0.  1.
     -623    1    1    2    0    0 -0.28788500159E-02 -0.44397967335E-02  0.47082663192E-02  0.17130000015E+03  0.17130000000E+03 0.  1.
      622    1    1    2    0    0 -0.51358749646E-01 -0.61531219011E-01  0.29001317399E+01  0.29015147632E+01  0.40000000000E-01 0.  1.
</event>
<event>
 5   0  0.6200596E+07  0.9118800E+02  0.7818608E-02  0.1180000E+00
       11   -1    0    0    0    0  0.00000000000E+00  0.00000000000E+00  0.39999999673E+01  0.40000000000E+01  0.51109989000E-03 0. -1.
     -623   -1    0    0    0    0  0.00000000000E+00  0.00000000000E+00  0.12525980253E-10  0.17130000000E+03  0.17130000000E+03 0.  1.
       11    1    1    2    0    0  0.10797587186E-01  0.95159941764E-02  0.62470771774E+00  0.62487369593E+00  0.51109989000E-03 0. -1.
     -623    1    1    2    0    0  0.23236595480E-03 -0.37257794093E-03  0.43339345633E-03  0.17130000000E+03  0.17130000000E+03 0.  1.
      622    1    1    2    0    0 -0.11029953141E-01 -0.91434162355E-02  0.33748588562E+01  0.33751263030E+01  0.40000000000E-01 0. -1.
</event>
<event>
 5   0  0.6200596E+07  0.9118800E+02  0.7818608E-02  0.1180000E+00
       11   -1    0    0    0    0  0.00000000000E+00  0.00000000000E+00  0.39999999673E+01  0.40000000000E+01  0.51109989000E-03 0. -1.
     -623   -1    0    0    0    0  0.00000000000E+00  0.00000000000E+00  0.12525980253E-10  0.17130000000E+03  0.17130000000E+03 0.  1.
       11    1    1    2    0    0  0.18115842021E-01  0.50191610194E-02  0.27164597678E+00  0.27229611387E+00  0.51109989000E-03 0. -1.
     -623    1    1    2    0    0 -0.16598738578E-02  0.15974488033E-02  0.90693517573E-03  0.17130000002E+03  0.17130000000E+03 0.  1.
      622    1    1    2    0    0 -0.16455968163E-01 -0.66166098226E-02  0.37274470554E+01  0.37277038682E+01  0.40000000000E-01 0. -1.
</event>
<event>
 5   0  0.6200596E+07  0.9118800E+02  0.7818608E-02  0.1180000E+00
       11   -1    0    0    0    0  0.00000000000E+00  0.00000000000E+00  0.39999999673E+01  0.40000000000E+01  0.51109989000E-03 0.  1.
     -623   -1    0    0    0    0  0.00000000000E+00  0.00000000000E+00  0.12525980253E-10  0.17130000000E+03  0.17130000000E+03 0.  1.
       11    1    1    2    0    0  0.50020459357E-02 -0.81314783446E-03  0.16712421025E+00  0.16720180784E+00  0.51109989000E-03 0.  1.
     -623    1    1    2    0    0  0.13602366795E-01  0.93498598023E-02  0.34175417121E-03  0.17130000080E+03  0.17130000000E+03 0.  1.
      622    1    1    2    0    0 -0.18604412730E-01 -0.85367119678E-02  0.38325340029E+01  0.38327973966E+01  0.40000000000E-01 0.  0.
</event>
<event>
 5   0  0.6200596E+07  0.9118800E+02  0.7818608E-02  0.1180000E+00
       11   -1    0    0    0    0  0.00000000000E+00  0.00000000000E+00  0.39999999673E+01  0.40000000000E+01  0.51109989000E-03 0. -1.
     -623   -1    0    0    0    0  0.00000000000E+00  0.00000000000E+00  0.12525980253E-10  0.17130000000E+03  0.17130000000E+03 0. -1.
       11    1    1    2    0    0  0.69714863257E-03  0.80800554471E-04  0.80795085855E-02  0.81260214770E-02  0.51109989000E-03 0. -1.
     -623    1    1    2    0    0 -0.31007728156E-03 -0.62615950374E-03  0.24695003543E-03  0.17130000000E+03  0.17130000000E+03 0. -1.
      622    1    1    2    0    0 -0.38707135102E-03  0.54535894927E-03  0.39916735087E+01  0.39918739769E+01  0.40000000000E-01 0. -1.
</event>
<event>
 5   0  0.6200596E+07  0.9118800E+02  0.7818608E-02  0.1180000E+00
       11   -1    0    0    0    0  0.00000000000E+00  0.00000000000E+00  0.39999999673E+01  0.40000000000E+01  0.51109989000E-03 0. -1.
     -623   -1    0    0    0    0  0.00000000000E+00  0.00000000000E+00  0.12525980253E-10  0.17130000000E+03  0.17130000000E+03 0. -1.
       11    1    1    2    0    0  0.24923232003E-02 -0.43436281033E-02  0.14324541821E-01  0.15183296750E-01  0.51109989000E-03 0. -1.
     -623    1    1    2    0    0  0.13604350248E-02  0.21684717837E-02  0.10619681531E-02  0.17130000002E+03  0.17130000000E+03 0. -1.
      622    1    1    2    0    0 -0.38527582251E-02  0.21751563197E-02  0.39846134574E+01  0.39848166808E+01  0.40000000000E-01 0. -1.
</event>
<event>
 5   0  0.6200596E+07  0.9118800E+02  0.7818608E-02  0.1180000E+00
       11   -1    0    0    0    0  0.00000000000E+00  0.00000000000E+00  0.39999999673E+01  0.40000000000E+01  0.51109989000E-03 0.  1.
     -623   -1    0    0    0    0  0.00000000000E+00  0.00000000000E+00  0.12525980253E-10  0.17130000000E+03  0.17130000000E+03 0.  1.
       11    1    1    2    0    0 -0.79728905528E-03 -0.19526976095E-01  0.26962283757E+01  0.26962992515E+01  0.51109989000E-03 0.  1.
     -623    1    1    2    0    0  0.66181649730E-02 -0.84212442818E-03  0.85696879798E-03  0.17130000013E+03  0.17130000000E+03 0.  1.
      622    1    1    2    0    0 -0.58208759177E-02  0.20369100523E-01  0.13029146229E+01  0.13037006165E+01  0.40000000000E-01 0.  1.
</event>
<event>
 5   0  0.6200596E+07  0.9118800E+02  0.7818608E-02  0.1180000E+00
       11   -1    0    0    0    0  0.00000000000E+00  0.00000000000E+00  0.39999999673E+01  0.40000000000E+01  0.51109989000E-03 0. -1.
     -623   -1    0    0    0    0  0.00000000000E+00  0.00000000000E+00  0.12525980253E-10  0.17130000000E+03  0.17130000000E+03 0. -1.
       11    1    1    2    0    0 -0.71017405585E-03 -0.57389508455E-02  0.49249716640E-01  0.49590681721E-01  0.51109989000E-03 0. -1.
     -623    1    1    2    0    0  0.95191311375E-03  0.74026471777E-03  0.54662353573E-03  0.17130000001E+03  0.17130000000E+03 0. -1.
      622    1    1    2    0    0 -0.24173905789E-03  0.49986861277E-02  0.39502036272E+01  0.39504093132E+01  0.40000000000E-01 0. -1.
</event>
<event>
 5   0  0.6200596E+07  0.9118800E+02  0.7818608E-02  0.1180000E+00
       11   -1    0    0    0    0  0.00000000000E+00  0.00000000000E+00  0.39999999673E+01  0.40000000000E+01  0.51109989000E-03 0.  1.
     -623   -1    0    0    0    0  0.00000000000E+00  0.00000000000E+00  0.12525980253E-10  0.17130000000E+03  0.17130000000E+03 0.  1.
       11    1    1    2    0    0  0.14923550025E-02 -0.44826590283E-02  0.65775378943E+00  0.65777095564E+00  0.51109989000E-03 0.  1.
     -623    1    1    2    0    0  0.77401027757E-03  0.29453930521E-03  0.25989826187E-03  0.17130000000E+03  0.17130000000E+03 0.  1.
      622    1    1    2    0    0 -0.22663652801E-02  0.41881197231E-02  0.33419862797E+01  0.33422290422E+01  0.40000000000E-01 0.  1.
</event>
<event>
 5   0  0.6200596E+07  0.9118800E+02  0.7818608E-02  0.1180000E+00
       11   -1    0    0    0    0  0.00000000000E+00  0.00000000000E+00  0.39999999673E+01  0.40000000000E+01  0.51109989000E-03 0.  1.
     -623   -1    0    0    0    0  0.00000000000E+00  0.00000000000E+00  0.12525980253E-10  0.17130000000E+03  0.17130000000E+03 0.  1.
       11    1    1    2    0    0  0.64781451579E-02 -0.30850038251E-02  0.17251543675E+00  0.17266534323E+00  0.51109989000E-03 0.  1.
     -623    1    1    2    0    0  0.81085629311E-03  0.39644293063E-03  0.36679061110E-03  0.17130000000E+03  0.17130000000E+03 0.  1.
      622    1    1    2    0    0 -0.72890014510E-02  0.26885608944E-02  0.38271177400E+01  0.38273346540E+01  0.40000000000E-01 0.  1.
</event>
<event>
 5   0  0.6200596E+07  0.9118800E+02  0.7818608E-02  0.1180000E+00
       11   -1    0    0    0    0  0.00000000000E+00  0.00000000000E+00  0.39999999673E+01  0.40000000000E+01  0.51109989000E-03 0. -1.
     -623   -1    0    0    0    0  0.00000000000E+00  0.00000000000E+00  0.12525980253E-10  0.17130000000E+03  0.17130000000E+03 0. -1.
       11    1    1    2    0    0  0.33269799111E-01 -0.22762816994E-01  0.14471496651E+01  0.14477111037E+01  0.51109989000E-03 0. -1.
     -623    1    1    2    0    0 -0.30804574114E-02 -0.36144147889E-03  0.11582520417E-02  0.17130000003E+03  0.17130000000E+03 0. -1.
      622    1    1    2    0    0 -0.30189341699E-01  0.23124258473E-01  0.25516920502E+01  0.25522888643E+01  0.40000000000E-01 0.  0.
</event>
<event>
 5   0  0.6200596E+07  0.9118800E+02  0.7818608E-02  0.1180000E+00
       11   -1    0    0    0    0  0.00000000000E+00  0.00000000000E+00  0.39999999673E+01  0.40000000000E+01  0.51109989000E-03 0. -1.
     -623   -1    0    0    0    0  0.00000000000E+00  0.00000000000E+00  0.12525980253E-10  0.17130000000E+03  0.17130000000E+03 0.  1.
       11    1    1    2    0    0 -0.73388173704E-02  0.32630045276E-02  0.21626747074E+00  0.21641715635E+00  0.51109989000E-03 0. -1.
     -623    1    1    2    0    0  0.39095831119E-03 -0.50645538532E-02  0.36798291414E-03  0.17130000008E+03  0.17130000000E+03 0.  1.
      622    1    1    2    0    0  0.69478590592E-02  0.18015493256E-02  0.37833645137E+01  0.37835827679E+01  0.40000000000E-01 0. -1.
</event>
<event>
 5   0  0.6200596E+07  0.9118800E+02  0.7818608E-02  0.1180000E+00
       11   -1    0    0    0    0  0.00000000000E+00  0.00000000000E+00  0.39999999673E+01  0.40000000000E+01  0.51109989000E-03 0. -1.
     -623   -1    0    0    0    0  0.00000000000E+00  0.00000000000E+00  0.12525980253E-10  0.17130000000E+03  0.17130000000E+03 0.  1.
       11    1    1    2    0    0  0.79391307321E-02 -0.89212008123E-02  0.13806701784E+01  0.13807219200E+01  0.51109989000E-03 0. -1.
     -623    1    1    2    0    0 -0.88891395356E-03 -0.36432285852E-03  0.38310803795E-03  0.17130000000E+03  0.17130000000E+03 0.  1.
      622    1    1    2    0    0 -0.70502167785E-02  0.92855236708E-02  0.26189466809E+01  0.26192780769E+01  0.40000000000E-01 0. -1.
</event>
<event>
 5   0  0.6200596E+07  0.9118800E+02  0.7818608E-02  0.1180000E+00
       11   -1    0    0    0    0  0.00000000000E+00  0.00000000000E+00  0.39999999673E+01  0.40000000000E+01  0.51109989000E-03 0. -1.
     -623   -1    0    0    0    0  0.00000000000E+00  0.00000000000E+00  0.12525980253E-10  0.17130000000E+03  0.17130000000E+03 0.  1.
       11    1    1    2    0    0  0.15500833137E-01  0.30551686345E-01  0.17499696660E+01  0.17503050518E+01  0.51109989000E-03 0. -1.
     -623    1    1    2    0    0  0.39074208271E-01  0.19586548395E-01  0.19177721478E-02  0.17130000559E+03  0.17130000000E+03 0.  1.
      622    1    1    2    0    0 -0.54575041408E-01 -0.50138234739E-01  0.22481125292E+01  0.22496893612E+01  0.40000000000E-01 0.  0.
</event>
<event>
 5   0  0.6200596E+07  0.9118800E+02  0.7818608E-02  0.1180000E+00
       11   -1    0    0    0    0  0.00000000000E+00  0.00000000000E+00  0.39999999673E+01  0.40000000000E+01  0.51109989000E-03 0.  1.
     -623   -1    0    0    0    0  0.00000000000E+00  0.00000000000E+00  0.12525980253E-10  0.17130000000E+03  0.17130000000E+03 0.  1.
       11    1    1    2    0    0 -0.24317917176E-02  0.47260592011E-02  0.25434800547E-01  0.25989219834E-01  0.51109989000E-03 0.  1.
     -623    1    1    2    0    0 -0.20184113078E-03 -0.67545341498E-02  0.75722512023E-03  0.17130000013E+03  0.17130000000E+03 0.  1.
      622    1    1    2    0    0  0.26336328484E-02  0.20284749487E-02  0.39738079417E+01  0.39740106452E+01  0.40000000000E-01 0.  1.
</event>
<event>
 5   0  0.6200596E+07  0.9118800E+02  0.7818608E-02  0.1180000E+00
       11   -1    0    0    0    0  0.00000000000E+00  0.00000000000E+00  0.39999999673E+01  0.40000000000E+01  0.51109989000E-03 0. -1.
     -623   -1    0    0    0    0  0.00000000000E+00  0.00000000000E+00  0.12525980253E-10  0.17130000000E+03  0.17130000000E+03 0. -1.
       11    1    1    2    0    0 -0.14347312473E-03 -0.12765724443E-01  0.66379106033E+00  0.66391401349E+00  0.51109989000E-03 0. -1.
     -623    1    1    2    0    0  0.13257731559E-02 -0.21280193926E-03  0.38819371303E-03  0.17130000001E+03  0.17130000000E+03 0. -1.
      622    1    1    2    0    0 -0.11823000312E-02  0.12978526382E-01  0.33358207133E+01  0.33360859808E+01  0.40000000000E-01 0. -1.
</event>
<event>
 5   0  0.6200596E+07  0.9118800E+02  0.7818608E-02  0.1180000E+00
       11   -1    0    0    0    0  0.00000000000E+00  0.00000000000E+00  0.39999999673E+01  0.40000000000E+01  0.51109989000E-03 0. -1.
     -623   -1    0    0    0    0  0.00000000000E+00  0.00000000000E+00  0.12525980253E-10  0.17130000000E+03  0.17130000000E+03 0.  1.
       11    1    1    2    0    0 -0.11845921319E-02  0.29101531606E-02  0.67502080142E-01  0.67577098899E-01  0.51109989000E-03 0. -1.
     -623    1    1    2    0    0  0.69631112287E-02 -0.18070374585E-02  0.28298018174E-03  0.17130000015E+03  0.17130000000E+03 0.  1.
      622    1    1    2    0    0 -0.57785190968E-02 -0.11031157021E-02  0.39322149070E+01  0.39324227498E+01  0.40000000000E-01 0. -1.
</event>
<event>
 5   0  0.6200596E+07  0.9118800E+02  0.7818608E-02  0.1180000E+00
       11   -1    0    0    0    0  0.00000000000E+00  0.00000000000E+00  0.39999999673E+01  0.40000000000E+01  0.51109989000E-03 0.  1.
     -623   -1    0    0    0    0  0.00000000000E+00  0.00000000000E+00  0.12525980253E-10  0.17130000000E+03  0.17130000000E+03 0.  1.
       11    1    1    2    0    0 -0.43224923525E-02 -0.20707786522E-01  0.15648367130E+01  0.15649797749E+01  0.51109989000E-03 0.  1.
     -623    1    1    2    0    0  0.89222274760E-03  0.93536176525E-02  0.50074098025E-03  0.17130000026E+03  0.17130000000E+03 0.  1.
      622    1    1    2    0    0  0.34302696049E-02  0.11354168869E-01  0.24346625134E+01  0.24350199667E+01  0.40000000000E-01 0.  0.
</event>
<event>
 5   0  0.6200596E+07  0.9118800E+02  0.7818608E-02  0.1180000E+00
       11   -1    0    0    0    0  0.00000000000E+00  0.00000000000E+00  0.39999999673E+01  0.40000000000E+01  0.51109989000E-03 0.  1.
     -623   -1    0    0    0    0  0.00000000000E+00  0.00000000000E+00  0.12525980253E-10  0.17130000000E+03  0.17130000000E+03 0. -1.
       11    1    1    2    0    0 -0.76623917293E-02  0.10110400697E-01  0.24816144743E+00  0.24848601100E+00  0.51109989000E-03 0.  1.
     -623    1    1    2    0    0 -0.73128376016E-02 -0.87469518306E-03  0.57920355939E-03  0.17130000016E+03  0.17130000000E+03 0. -1.
      622    1    1    2    0    0  0.14975229331E-01 -0.92357055136E-02  0.37512593164E+01  0.37515138297E+01  0.40000000000E-01 0.  1.
</event>
<event>
 5   0  0.6200596E+07  0.9118800E+02  0.7818608E-02  0.1180000E+00
       11   -1    0    0    0    0  0.00000000000E+00  0.00000000000E+00  0.39999999673E+01  0.40000000000E+01  0.51109989000E-03 0.  1.
     -623   -1    0    0    0    0  0.00000000000E+00  0.00000000000E+00  0.12525980253E-10  0.17130000000E+03  0.17130000000E+03 0. -1.
       11    1    1    2    0    0  0.18936903876E-02 -0.38551411459E-03  0.12062330244E+00  0.12063986488E+00  0.51109989000E-03 0.  1.
     -623    1    1    2    0    0 -0.11048465926E-02 -0.73325315608E-03  0.22300166831E-03  0.17130000001E+03  0.17130000000E+03 0. -1.
      622    1    1    2    0    0 -0.78884379506E-03  0.11187672707E-02  0.38791536633E+01  0.38793601298E+01  0.40000000000E-01 0.  1.
</event>
<event>
 5   0  0.6200596E+07  0.9118800E+02  0.7818608E-02  0.1180000E+00
       11   -1    0    0    0    0  0.00000000000E+00  0.00000000000E+00  0.39999999673E+01  0.40000000000E+01  0.51109989000E-03 0.  1.
     -623   -1    0    0    0    0  0.00000000000E+00  0.00000000000E+00  0.12525980253E-10  0.17130000000E+03  0.17130000000E+03 0.  1.
       11    1    1    2    0    0 -0.93131593226E-03 -0.46564174213E-03  0.10324068526E+00  0.10324720087E+00  0.51109989000E-03 0.  1.
     -623    1    1    2    0    0  0.27100378696E-03 -0.12844827110E-02  0.21224166011E-03  0.17130000001E+03  0.17130000000E+03 0.  1.
      622    1    1    2    0    0  0.66031214530E-03  0.17501244531E-02  0.38965470404E+01  0.38967527940E+01  0.40000000000E-01 0.  1.
</event>
<event>
 5   0  0.6200596E+07  0.9118800E+02  0.7818608E-02  0.1180000E+00
       11   -1    0    0    0    0  0.00000000000E+00  0.00000000000E+00  0.39999999673E+01  0.40000000000E+01  0.51109989000E-03 0. -1.
     -623   -1    0    0    0    0  0.00000000000E+00  0.00000000000E+00  0.12525980253E-10  0.17130000000E+03  0.17130000000E+03 0.  1.
       11    1    1    2    0    0  0.88178662260E-03 -0.79533379731E-02  0.61767486857E+00  0.61772691184E+00  0.51109989000E-03 0. -1.
     -623    1    1    2    0    0  0.13354603390E-01  0.44891389937E-02  0.32086371467E-03  0.17130000058E+03  0.17130000000E+03 0.  1.
      622    1    1    2    0    0 -0.14236390012E-01  0.34641989794E-02  0.33820042351E+01  0.33822725085E+01  0.40000000000E-01 0. -1.
</event>
<event>
 5   0  0.6200596E+07  0.9118800E+02  0.7818608E-02  0.1180000E+00
       11   -1    0    0    0    0  0.00000000000E+00  0.00000000000E+00  0.39999999673E+01  0.40000000000E+01  0.51109989000E-03 0.  1.
     -623   -1    0    0    0    0  0.00000000000E+00  0.00000000000E+00  0.12525980253E-10  0.17130000000E+03  0.17130000000E+03 0. -1.
       11    1    1    2    0    0 -0.25823925057E-02 -0.11021118770E-01  0.10345337336E+00  0.10407206873E+00  0.51109989000E-03 0.  1.
     -623    1    1    2    0    0 -0.12744569172E-02  0.93054840384E-03  0.83899741895E-03  0.17130000001E+03  0.17130000000E+03 0. -1.
      622    1    1    2    0    0  0.38568494229E-02  0.10090570366E-01  0.38957075966E+01  0.38959279219E+01  0.40000000000E-01 0.  1.
</event>
<event>
 5   0  0.6200596E+07  0.9118800E+02  0.7818608E-02  0.1180000E+00
       11   -1    0    0    0    0  0.00000000000E+00  0.00000000000E+00  0.39999999673E+01  0.40000000000E+01  0.51109989000E-03 0.  1.
     -623   -1    0    0    0    0  0.00000000000E+00  0.00000000000E+00  0.12525980253E-10  0.17130000000E+03  0.17130000000E+03 0. -1.
       11    1    1    2    0    0 -0.59129427508E-03  0.21815812860E-03  0.77102424547E-02  0.77528241644E-02  0.51109989000E-03 0.  1.
     -623    1    1    2    0    0 -0.44976085558E-05 -0.38005151774E-03  0.24299082907E-03  0.17130000000E+03  0.17130000000E+03 0. -1.
      622    1    1    2    0    0  0.59579188364E-03  0.16189338915E-03  0.39920467341E+01  0.39922471752E+01  0.40000000000E-01 0.  1.
</event>
<event>
 5   0  0.6200596E+07  0.9118800E+02  0.7818608E-02  0.1180000E+00
       11   -1    0    0    0    0  0.00000000000E+00  0.00000000000E+00  0.39999999673E+01  0.40000000000E+01  0.51109989000E-03 0. -1.
     -623   -1    0    0    0    0  0.00000000000E+00  0.00000000000E+00  0.12525980253E-10  0.17130000000E+03  0.17130000000E+03 0.  1.
       11    1    1    2    0    0 -0.87273677324E-02 -0.78138051448E-02  0.75131148097E-01  0.76040601876E-01  0.51109989000E-03 0. -1.
     -623    1    1    2    0    0 -0.98244335846E-03  0.55406573178E-02  0.11260708003E-02  0.17130000010E+03  0.17130000000E+03 0.  1.
      622    1    1    2    0    0  0.97098110909E-02  0.22731478269E-02  0.39237427485E+01  0.39239593020E+01  0.40000000000E-01 0. -1.
</event>
<event>
 5   0  0.6200596E+07  0.9118800E+02  0.7818608E-02  0.1180000E+00
       11   -1    0    0    0    0  0.00000000000E+00  0.00000000000E+00  0.39999999673E+01  0.40000000000E+01  0.51109989000E-03 0. -1.
     -623   -1    0    0    0    0  0.00000000000E+00  0.00000000000E+00  0.12525980253E-10  0.17130000000E+03  0.17130000000E+03 0. -1.
       11    1    1    2    0    0 -0.14253019783E-01 -0.38498346875E-02  0.20300987546E+00  0.20354665449E+00  0.51109989000E-03 0. -1.
     -623    1    1    2    0    0 -0.10377639809E-02  0.13354007090E-02  0.77911287002E-03  0.17130000001E+03  0.17130000000E+03 0. -1.
      622    1    1    2    0    0  0.15290783764E-01  0.25144339785E-02  0.37962109790E+01  0.37964533354E+01  0.40000000000E-01 0. -1.
</event>
<event>
 5   0  0.6200596E+07  0.9118800E+02  0.7818608E-02  0.1180000E+00
       11   -1    0    0    0    0  0.00000000000E+00  0.00000000000E+00  0.39999999673E+01  0.40000000000E+01  0.51109989000E-03 0. -1.
     -623   -1    0    0    0    0  0.00000000000E+00  0.00000000000E+00  0.12525980253E-10  0.17130000000E+03  0.17130000000E+03 0.  1.
       11    1    1    2    0    0  0.55932361277E-02  0.28553428277E-02  0.28670844233E-01  0.29354996236E-01  0.51109989000E-03 0. -1.
     -623    1    1    2    0    0 -0.77161844883E-02  0.87348060870E-03  0.88809991247E-03  0.17130000018E+03  0.17130000000E+03 0.  1.
      622    1    1    2    0    0  0.21229483605E-02 -0.37288234364E-02  0.39704410232E+01  0.39706448254E+01  0.40000000000E-01 0. -1.
</event>
<event>
 5   0  0.6200596E+07  0.9118800E+02  0.7818608E-02  0.1180000E+00
       11   -1    0    0    0    0  0.00000000000E+00  0.00000000000E+00  0.39999999673E+01  0.40000000000E+01  0.51109989000E-03 0. -1.
     -623   -1    0    0    0    0  0.00000000000E+00  0.00000000000E+00  0.12525980253E-10  0.17130000000E+03  0.17130000000E+03 0. -1.
       11    1    1    2    0    0  0.19734683929E-02 -0.44568155358E-01  0.27212013945E+01  0.27215671047E+01  0.51109989000E-03 0. -1.
     -623    1    1    2    0    0  0.12502535237E-01  0.17954478926E-01  0.13521985970E-02  0.17130000140E+03  0.17130000000E+03 0. -1.
      622    1    1    2    0    0 -0.14476003630E-01  0.26613676431E-01  0.12774463743E+01  0.12784314928E+01  0.40000000000E-01 0. -1.
</event>
<event>
 5   0  0.6200596E+07  0.9118800E+02  0.7818608E-02  0.1180000E+00
       11   -1    0    0    0    0  0.00000000000E+00  0.00000000000E+00  0.39999999673E+01  0.40000000000E+01  0.51109989000E-03 0.  1.
     -623   -1    0    0    0    0  0.00000000000E+00  0.00000000000E+00  0.12525980253E-10  0.17130000000E+03  0.17130000000E+03 0. -1.
       11    1    1    2    0    0  0.21431248129E-05 -0.13410614993E-02  0.26129063723E-02  0.29810991543E-02  0.51109989000E-03 0.  1.
     -623    1    1    2    0    0 -0.14997377404E-02  0.19118944413E-02  0.56865383436E-03  0.17130000002E+03  0.17130000000E+03 0. -1.
      622    1    1    2    0    0  0.14975946156E-02 -0.57083294198E-03  0.39968184072E+01  0.39970188827E+01  0.40000000000E-01 0.  1.
</event>
<event>
 5   0  0.6200596E+07  0.9118800E+02  0.7818608E-02  0.1180000E+00
       11   -1    0    0    0    0  0.00000000000E+00  0.00000000000E+00  0.39999999673E+01  0.40000000000E+01  0.51109989000E-03 0. -1.
     -623   -1    0    0    0    0  0.00000000000E+00  0.00000000000E+00  0.12525980253E-10  0.17130000000E+03  0.17130000000E+03 0. -1.
       11    1    1    2    0    0 -0.23310691209E-01 -0.21071033449E-01  0.41669777969E+00  0.41788117640E+00  0.51109989000E-03 0. -1.
     -623    1    1    2    0    0 -0.65179409744E-02 -0.12925652275E-01  0.16928702863E-02  0.17130000062E+03  0.17130000000E+03 0. -1.
      622    1    1    2    0    0  0.29828632183E-01  0.33996685724E-01  0.35816093174E+01  0.35821182036E+01  0.40000000000E-01 0. -1.
</event>
<event>
 5   0  0.6200596E+07  0.9118800E+02  0.7818608E-02  0.1180000E+00
       11   -1    0    0    0    0  0.00000000000E+00  0.00000000000E+00  0.39999999673E+01  0.40000000000E+01  0.51109989000E-03 0.  1.
     -623   -1    0    0    0    0  0.00000000000E+00  0.00000000000E+00  0.12525980253E-10  0.17130000000E+03  0.17130000000E+03 0.  1.
       11    1    1    2    0    0  0.27246273926E-01  0.38866180660E-01  0.14645418673E+01  0.14653109164E+01  0.51109989000E-03 0.  1.
     -623    1    1    2    0    0  0.15639542512E-01  0.87468847837E-02  0.18958354292E-02  0.17130000095E+03  0.17130000000E+03 0.  1.
      622    1    1    2    0    0 -0.42885816438E-01 -0.47613065443E-01  0.25335622646E+01  0.25346881358E+01  0.40000000000E-01 0. -1.
</event>
<event>
 5   0  0.6200596E+07  0.9118800E+02  0.7818608E-02  0.1180000E+00
       11   -1    0    0    0    0  0.00000000000E+00  0.00000000000E+00  0.39999999673E+01  0.40000000000E+01  0.51109989000E-03 0.  1.
     -623   -1    0    0    0    0  0.00000000000E+00  0.00000000000E+00  0.12525980253E-10  0.17130000000E+03  0.17130000000E+03 0.  1.
       11    1    1    2    0    0  0.76510181841E-02  0.35217977768E-02  0.97880622860E+00  0.97884259996E+00  0.51109989000E-03 0.  1.
     -623    1    1    2    0    0 -0.11951311349E-02 -0.17220681549E-02  0.30859709872E-03  0.17130000001E+03  0.17130000000E+03 0.  1.
      622    1    1    2    0    0 -0.64558870492E-02 -0.17997296219E-02  0.30208851417E+01  0.30211573869E+01  0.40000000000E-01 0.  0.
</event>
<event>
 5   0  0.6200596E+07  0.9118800E+02  0.7818608E-02  0.1180000E+00
       11   -1    0    0    0    0  0.00000000000E+00  0.00000000000E+00  0.39999999673E+01  0.40000000000E+01  0.51109989000E-03 0.  1.
     -623   -1    0    0    0    0  0.00000000000E+00  0.00000000000E+00  0.12525980253E-10  0.17130000000E+03  0.17130000000E+03 0.  1.
       11    1    1    2    0    0 -0.43345369303E-01  0.22808812914E-02  0.85563015753E+00  0.85673055925E+00  0.51109989000E-03 0.  1.
     -623    1    1    2    0    0  0.32100978084E-03 -0.72233688440E-02  0.16534300130E-02  0.17130000016E+03  0.17130000000E+03 0.  1.
      622    1    1    2    0    0  0.43024359522E-01  0.49424875526E-02  0.31427163798E+01  0.31432692802E+01  0.40000000000E-01 0.  1.
</event>
<event>
 5   0  0.6200596E+07  0.9118800E+02  0.7818608E-02  0.1180000E+00
       11   -1    0    0    0    0  0.00000000000E+00  0.00000000000E+00  0.39999999673E+01  0.40000000000E+01  0.51109989000E-03 0. -1.
     -623   -1    0    0    0    0  0.00000000000E+00  0.00000000000E+00  0.12525980253E-10  0.17130000000E+03  0.17130000000E+03 0. -1.
       11    1    1    2    0    0 -0.30343936699E-02 -0.95767814996E-03  0.69150731066E-01  0.69225786521E-01  0.51109989000E-03 0. -1.
     -623    1    1    2    0    0  0.36357498085E-02  0.23599591862E-02  0.27890154296E-03  0.17130000006E+03  0.17130000000E+03 0. -1.
      622    1    1    2    0    0 -0.60135613864E-03 -0.14022810362E-02  0.39305703348E+01  0.39307741584E+01  0.40000000000E-01 0. -1.
</event>
<event>
 5   0  0.6200596E+07  0.9118800E+02  0.7818608E-02  0.1180000E+00
       11   -1    0    0    0    0  0.00000000000E+00  0.00000000000E+00  0.39999999673E+01  0.40000000000E+01  0.51109989000E-03 0. -1.
     -623   -1    0    0    0    0  0.00000000000E+00  0.00000000000E+00  0.12525980253E-10  0.17130000000E+03  0.17130000000E+03 0.  1.
       11    1    1    2    0    0 -0.32300787439E-03 -0.40969111210E-03  0.98573694941E-01  0.98576400498E-01  0.51109989000E-03 0. -1.
     -623    1    1    2    0    0 -0.37041698423E-03 -0.21369832827E-02  0.20863836677E-03  0.17130000001E+03  0.17130000000E+03 0.  1.
      622    1    1    2    0    0  0.69342485862E-03  0.25466743948E-02  0.39012176341E+01  0.39014235856E+01  0.40000000000E-01 0. -1.
</event>
<event>
 5   0  0.6200596E+07  0.9118800E+02  0.7818608E-02  0.1180000E+00
       11   -1    0    0    0    0  0.00000000000E+00  0.00000000000E+00  0.39999999673E+01  0.40000000000E+01  0.51109989000E-03 0. -1.
     -623   -1    0    0    0    0  0.00000000000E+00  0.00000000000E+00  0.12525980253E-10  0.17130000000E+03  0.17130000000E+03 0.  1.
       11    1    1    2    0    0 -0.39755838331E-02 -0.61371450376E-02  0.28678033437E+00  0.28687399885E+00  0.51109989000E-03 0. -1.
     -623    1    1    2    0    0  0.29747650585E-02 -0.19727731279E-02  0.31811939952E-03  0.17130000004E+03  0.17130000000E+03 0.  1.
      622    1    1    2    0    0  0.10008187746E-02  0.81099181656E-02  0.37129015136E+01  0.37131259637E+01  0.40000000000E-01 0. -1.
</event>
<event>
 5   0  0.6200596E+07  0.9118800E+02  0.7818608E-02  0.1180000E+00
       11   -1    0    0    0    0  0.00000000000E+00  0.00000000000E+00  0.39999999673E+01  0.40000000000E+01  0.51109989000E-03 0. -1.
     -623   -1    0    0    0    0  0.00000000000E+00  0.00000000000E+00  0.12525980253E-10  0.17130000000E+03  0.17130000000E+03 0. -1.
       11    1    1    2    0    0 -0.13484389302E-01  0.66627470568E-02  0.22373991366E+01  0.22374497489E+01  0.51109989000E-03 0. -1.
     -623    1    1    2    0    0  0.10064031974E-01  0.47191242062E-02  0.54496682042E-03  0.17130000036E+03  0.17130000000E+03 0. -1.
      622    1    1    2    0    0  0.34203573277E-02 -0.11381871263E-01  0.17620558639E+01  0.17625498896E+01  0.40000000000E-01 0. -1.
</event>
<event>
 5   0  0.6200596E+07  0.9118800E+02  0.7818608E-02  0.1180000E+00
       11   -1    0    0    0    0  0.00000000000E+00  0.00000000000E+00  0.39999999673E+01  0.40000000000E+01  0.51109989000E-03 0. -1.
     -623   -1    0    0    0    0  0.00000000000E+00  0.00000000000E+00  0.12525980253E-10  0.17130000000E+03  0.17130000000E+03 0. -1.
       11    1    1    2    0    0 -0.11391451782E-02 -0.66180857739E-02  0.50371389857E+00  0.50375892007E+00  0.51109989000E-03 0. -1.
     -623    1    1    2    0    0 -0.21335562147E-02 -0.89567355429E-03  0.28343564689E-03  0.17130000002E+03  0.17130000000E+03 0. -1.
      622    1    1    2    0    0  0.32727013929E-02  0.75137593282E-02  0.34960026331E+01  0.34962410641E+01  0.40000000000E-01 0. -1.
</event>
<event>
 5   0  0.6200596E+07  0.9118800E+02  0.7818608E-02  0.1180000E+00
       11   -1    0    0    0    0  0.00000000000E+00  0.00000000000E+00  0.39999999673E+01  0.40000000000E+01  0.51109989000E-03 0.  1.
     -623   -1    0    0    0    0  0.00000000000E+00  0.00000000000E+00  0.12525980253E-10  0.17130000000E+03  0.17130000000E+03 0.  1.
       11    1    1    2    0    0 -0.19327207974E-01 -0.26258316064E-01  0.66496512468E+00  0.66576416124E+00  0.51109989000E-03 0.  1.
     -623    1    1    2    0    0 -0.52365404660E-03  0.30749254783E-02  0.11786841568E-02  0.17130000003E+03  0.17130000000E+03 0.  1.
      622    1    1    2    0    0  0.19850862020E-01  0.23183390586E-01  0.33338561585E+01  0.33342358063E+01  0.40000000000E-01 0.  1.
</event>
<event>
 5   0  0.6200596E+07  0.9118800E+02  0.7818608E-02  0.1180000E+00
       11   -1    0    0    0    0  0.00000000000E+00  0.00000000000E+00  0.39999999673E+01  0.40000000000E+01  0.51109989000E-03 0. -1.
     -623   -1    0    0    0    0  0.00000000000E+00  0.00000000000E+00  0.12525980253E-10  0.17130000000E+03  0.17130000000E+03 0. -1.
       11    1    1    2    0    0 -0.51805874825E-03 -0.25750014738E-02  0.11435811979E+00  0.11438942171E+00  0.51109989000E-03 0. -1.
     -623    1    1    2    0    0  0.21302594099E-03 -0.64440518851E-03  0.23850985028E-03  0.17130000000E+03  0.17130000000E+03 0. -1.
      622    1    1    2    0    0  0.30503280726E-03  0.32194066623E-02  0.38854033377E+01  0.38856105768E+01  0.40000000000E-01 0. -1.
</event>
<event>
 5   0  0.6200596E+07  0.9118800E+02  0.7818608E-02  0.1180000E+00
       11   -1    0    0    0    0  0.00000000000E+00  0.00000000000E+00  0.39999999673E+01  0.40000000000E+01  0.51109989000E-03 0. -1.
     -623   -1    0    0    0    0  0.00000000000E+00  0.00000000000E+00  0.12525980253E-10  0.17130000000E+03  0.17130000000E+03 0.  1.
       11    1    1    2    0    0 -0.43902125115E-03  0.19388628974E-03  0.21438494922E-02  0.22555803856E-02  0.51109989000E-03 0. -1.
     -623    1    1    2    0    0 -0.55667001970E-03 -0.12235530581E-02  0.31207827303E-03  0.17130000001E+03  0.17130000000E+03 0.  1.
      622    1    1    2    0    0  0.99569127085E-03  0.10296667684E-02  0.39975440396E+01  0.39977444141E+01  0.40000000000E-01 0. -1.
</event>
<event>
 5   0  0.6200596E+07  0.9118800E+02  0.7818608E-02  0.1180000E+00
       11   -1    0    0    0    0  0.00000000000E+00  0.00000000000E+00  0.39999999673E+01  0.40000000000E+01  0.51109989000E-03 0.  1.
     -623   -1    0    0    0    0  0.00000000000E+00  0.00000000000E+00  0.12525980253E-10  0.17130000000E+03  0.17130000000E+03 0.  1.
       11    1    1    2    0    0 -0.22555941809E-04 -0.84236837698E-03  0.15858393653E-01  0.15888988761E-01  0.51109989000E-03 0.  1.
     -623    1    1    2    0    0 -0.79793713901E-03  0.87298180472E-03  0.23145399478E-03  0.17130000000E+03  0.17130000000E+03 0.  1.
      622    1    1    2    0    0  0.82049308082E-03 -0.30613427748E-04  0.39839101197E+01  0.39841110070E+01  0.40000000000E-01 0.  1.
</event>
<event>
 5   0  0.6200596E+07  0.9118800E+02  0.7818608E-02  0.1180000E+00
       11   -1    0    0    0    0  0.00000000000E+00  0.00000000000E+00  0.39999999673E+01  0.40000000000E+01  0.51109989000E-03 0.  1.
     -623   -1    0    0    0    0  0.00000000000E+00  0.00000000000E+00  0.12525980253E-10  0.17130000000E+03  0.17130000000E+03 0. -1.
       11    1    1    2    0    0  0.82321997182E-02  0.85538352359E-02  0.71498596481E-01  0.72479291731E-01  0.51109989000E-03 0.  1.
     -623    1    1    2    0    0 -0.55093285962E-02 -0.12237168349E-01  0.11875597262E-02  0.17130000053E+03  0.17130000000E+03 0. -1.
      622    1    1    2    0    0 -0.27228711220E-02  0.36833331136E-02  0.39273138112E+01  0.39275201785E+01  0.40000000000E-01 0.  1.
</event>
<event>
 5   0  0.6200596E+07  0.9118800E+02  0.7818608E-02  0.1180000E+00
       11   -1    0    0    0    0  0.00000000000E+00  0.00000000000E+00  0.39999999673E+01  0.40000000000E+01  0.51109989000E-03 0. -1.
     -623   -1    0    0    0    0  0.00000000000E+00  0.00000000000E+00  0.12525980253E-10  0.17130000000E+03  0.17130000000E+03 0. -1.
       11    1    1    2    0    0 -0.14065069598E-02  0.11947943285E-03  0.60018094986E-01  0.60036867705E-01  0.51109989000E-03 0. -1.
     -623    1    1    2    0    0 -0.26086436003E-03 -0.58013945538E-04  0.22214655787E-03  0.17130000000E+03  0.17130000000E+03 0. -1.
      622    1    1    2    0    0  0.16673713198E-02 -0.61465487308E-04  0.39397597258E+01  0.39399631319E+01  0.40000000000E-01 0. -1.
</event>
<event>
 5   0  0.6200596E+07  0.9118800E+02  0.7818608E-02  0.1180000E+00
       11   -1    0    0    0    0  0.00000000000E+00  0.00000000000E+00  0.39999999673E+01  0.40000000000E+01  0.51109989000E-03 0.  1.
     -623   -1    0    0    0    0  0.00000000000E+00  0.00000000000E+00  0.12525980253E-10  0.17130000000E+03  0.17130000000E+03 0. -1.
       11    1    1    2    0    0 -0.34844512561E-02  0.15885729482E-02  0.10500142982E-01  0.11188350565E-01  0.51109989000E-03 0.  1.
     -623    1    1    2    0    0  0.18101251476E-02 -0.20988879181E-02  0.88914977024E-03  0.17130000002E+03  0.17130000000E+03 0. -1.
      622    1    1    2    0    0  0.16743261086E-02  0.51031496985E-03  0.39886106746E+01  0.39888116247E+01  0.40000000000E-01 0.  1.
</event>
<event>
 5   0  0.6200596E+07  0.9118800E+02  0.7818608E-02  0.1180000E+00
       11   -1    0    0    0    0  0.00000000000E+00  0.00000000000E+00  0.39999999673E+01  0.40000000000E+01  0.51109989000E-03 0. -1.
     -623   -1    0    0    0    0  0.00000000000E+00  0.00000000000E+00  0.12525980253E-10  0.17130000000E+03  0.17130000000E+03 0. -1.
       11    1    1    2    0    0 -0.26094616323E-03  0.44833930549E-02  0.49590022884E-01  0.49795587138E-01  0.51109989000E-03 0. -1.
     -623    1    1    2    0    0  0.23752863994E-02 -0.33727762366E-03  0.41081712632E-03  0.17130000002E+03  0.17130000000E+03 0. -1.
      622    1    1    2    0    0 -0.21143402362E-02 -0.41461154312E-02  0.39499991273E+01  0.39502043956E+01  0.40000000000E-01 0. -1.
</event>
<event>
 5   0  0.6200596E+07  0.9118800E+02  0.7818608E-02  0.1180000E+00
       11   -1    0    0    0    0  0.00000000000E+00  0.00000000000E+00  0.39999999673E+01  0.40000000000E+01  0.51109989000E-03 0.  1.
     -623   -1    0    0    0    0  0.00000000000E+00  0.00000000000E+00  0.12525980253E-10  0.17130000000E+03  0.17130000000E+03 0. -1.
       11    1    1    2    0    0  0.67172648037E-03 -0.80466573158E-02  0.18967661239E-01  0.20621185831E-01  0.51109989000E-03 0.  1.
     -623    1    1    2    0    0 -0.76956104496E-03  0.12235110378E-01  0.18571877690E-02  0.17130000045E+03  0.17130000000E+03 0. -1.
      622    1    1    2    0    0  0.97834564589E-04 -0.41884530625E-02  0.39791751184E+01  0.39793783654E+01  0.40000000000E-01 0.  1.
</event>
<event>
 5   0  0.6200596E+07  0.9118800E+02  0.7818608E-02  0.1180000E+00
       11   -1    0    0    0    0  0.00000000000E+00  0.00000000000E+00  0.39999999673E+01  0.40000000000E+01  0.51109989000E-03 0.  1.
     -623   -1    0    0    0    0  0.00000000000E+00  0.00000000000E+00  0.12525980253E-10  0.17130000000E+03  0.17130000000E+03 0.  1.
       11    1    1    2    0    0 -0.26802548852E-02 -0.26573066235E-02  0.22234032306E+00  0.22237294243E+00  0.51109989000E-03 0.  1.
     -623    1    1    2    0    0 -0.34323111695E-02  0.95430615564E-02  0.25588782441E-03  0.17130000030E+03  0.17130000000E+03 0.  1.
      622    1    1    2    0    0  0.61125660547E-02 -0.68857549329E-02  0.37774037565E+01  0.37776267572E+01  0.40000000000E-01 0.  1.
</event>
<event>
 5   0  0.6200596E+07  0.9118800E+02  0.7818608E-02  0.1180000E+00
       11   -1    0    0    0    0  0.00000000000E+00  0.00000000000E+00  0.39999999673E+01  0.40000000000E+01  0.51109989000E-03 0.  1.
     -623   -1    0    0    0    0  0.00000000000E+00  0.00000000000E+00  0.12525980253E-10  0.17130000000E+03  0.17130000000E+03 0.  1.
       11    1    1    2    0    0 -0.40495896561E-02 -0.84198239074E-02  0.32896620488E-01  0.34201483478E-01  0.51109989000E-03 0.  1.
     -623    1    1    2    0    0  0.12818007760E-01  0.13687769714E-01  0.15207865870E-02  0.17130000103E+03  0.17130000000E+03 0.  1.
      622    1    1    2    0    0 -0.87684181043E-02 -0.52679458068E-02  0.39655825603E+01  0.39657974833E+01  0.40000000000E-01 0.  1.
</event>
<event>
 5   0  0.6200596E+07  0.9118800E+02  0.7818608E-02  0.1180000E+00
       11   -1    0    0    0    0  0.00000000000E+00  0.00000000000E+00  0.39999999673E+01  0.40000000000E+01  0.51109989000E-03 0.  1.
     -623   -1    0    0    0    0  0.00000000000E+00  0.00000000000E+00  0.12525980253E-10  0.17130000000E+03  0.17130000000E+03 0. -1.
       11    1    1    2    0    0  0.30156898228E-02 -0.16053385810E-01  0.42901203138E+00  0.42932317649E+00  0.51109989000E-03 0.  1.
     -623    1    1    2    0    0 -0.55700077346E-02 -0.28208682936E-02  0.58608237703E-03  0.17130000011E+03  0.17130000000E+03 0. -1.
      622    1    1    2    0    0  0.25543179118E-02  0.18874254104E-01  0.35704018536E+01  0.35706767087E+01  0.40000000000E-01 0.  1.
</event>
<event>
 5   0  0.6200596E+07  0.9118800E+02  0.7818608E-02  0.1180000E+00
       11   -1    0    0    0    0  0.00000000000E+00  0.00000000000E+00  0.39999999673E+01  0.40000000000E+01  0.51109989000E-03 0.  1.
     -623   -1    0    0    0    0  0.00000000000E+00  0.00000000000E+00  0.12525980253E-10  0.17130000000E+03  0.17130000000E+03 0.  1.
       11    1    1    2    0    0  0.91730813627E-02 -0.67685532897E-02  0.99100342262E-01  0.99755189307E-01  0.51109989000E-03 0.  1.
     -623    1    1    2    0    0 -0.16634998023E-02 -0.30954179855E-02  0.87967735242E-03  0.17130000004E+03  0.17130000000E+03 0.  1.
      622    1    1    2    0    0 -0.75095815604E-02  0.98639712752E-02  0.39000199477E+01  0.39002447724E+01  0.40000000000E-01 0.  1.
</event>
<event>
 5   0  0.6200596E+07  0.9118800E+02  0.7818608E-02  0.1180000E+00
       11   -1    0    0    0    0  0.00000000000E+00  0.00000000000E+00  0.39999999673E+01  0.40000000000E+01  0.51109989000E-03 0.  1.
     -623   -1    0    0    0    0  0.00000000000E+00  0.00000000000E+00  0.12525980253E-10  0.17130000000E+03  0.17130000000E+03 0. -1.
       11    1    1    2    0    0 -0.23195983690E-01 -0.10888036722E-02  0.21668022069E+01  0.21669266956E+01  0.51109989000E-03 0.  1.
     -623    1    1    2    0    0 -0.15213027734E-02 -0.98239757710E-03  0.72880729317E-03  0.17130000001E+03  0.17130000000E+03 0. -1.
      622    1    1    2    0    0  0.24717286464E-01  0.20712012493E-02  0.18324689532E+01  0.18330732933E+01  0.40000000000E-01 0.  1.
</event>
<event>
 5   0  0.6200596E+07  0.9118800E+02  0.7818608E-02  0.1180000E+00
       11   -1    0    0    0    0  0.00000000000E+00  0.00000000000E+00  0.39999999673E+01  0.40000000000E+01  0.51109989000E-03 0. -1.
     -623   -1    0    0    0    0  0.00000000000E+00  0.00000000000E+00  0.12525980253E-10  0.17130000000E+03  0.17130000000E+03 0.  1.
       11    1    1    2    0    0 -0.11158866853E-02  0.31269617864E-02  0.35126492565E+00  0.35128098768E+00  0.51109989000E-03 0. -1.
     -623    1    1    2    0    0  0.57570580020E-03  0.15059267707E-02  0.23828018807E-03  0.17130000001E+03  0.17130000000E+03 0.  1.
      622    1    1    2    0    0  0.54018088508E-03 -0.46328885571E-02  0.36484967615E+01  0.36487190046E+01  0.40000000000E-01 0. -1.
</event>
<event>
 5   0  0.6200596E+07  0.9118800E+02  0.7818608E-02  0.1180000E+00
       11   -1    0    0    0    0  0.00000000000E+00  0.00000000000E+00  0.39999999673E+01  0.40000000000E+01  0.51109989000E-03 0. -1.
     -623   -1    0    0    0    0  0.00000000000E+00  0.00000000000E+00  0.12525980253E-10  0.17130000000E+03  0.17130000000E+03 0.  1.
       11    1    1    2    0    0 -0.35939186565E-02 -0.29696906829E-01  0.90775742217E+00  0.90825030759E+00  0.51109989000E-03 0. -1.
     -623    1    1    2    0    0 -0.40157868871E-02  0.64926679782E-01  0.97407999530E-03  0.17130001235E+03  0.17130000000E+03 0.  1.
      622    1    1    2    0    0  0.76097055436E-02 -0.35229772953E-01  0.30912684652E+01  0.30917373382E+01  0.40000000000E-01 0. -1.
</event>
<event>
 5   0  0.6200596E+07  0.9118800E+02  0.7818608E-02  0.1180000E+00
       11   -1    0    0    0    0  0.00000000000E+00  0.00000000000E+00  0.39999999673E+01  0.40000000000E+01  0.51109989000E-03 0.  1.
     -623   -1    0    0    0    0  0.00000000000E+00  0.00000000000E+00  0.12525980253E-10  0.17130000000E+03  0.17130000000E+03 0.  1.
       11    1    1    2    0    0 -0.21044013421E-01  0.21170724969E-01  0.13302880469E+01  0.13306230116E+01  0.51109989000E-03 0.  1.
     -623    1    1    2    0    0 -0.27009089460E-02  0.14097615840E-01  0.97390345041E-03  0.17130000060E+03  0.17130000000E+03 0.  1.
      622    1    1    2    0    0  0.23744922367E-01 -0.35268340809E-01  0.26687380170E+01  0.26693763842E+01  0.40000000000E-01 0.  0.
</event>
<event>
 5   0  0.6200596E+07  0.9118800E+02  0.7818608E-02  0.1180000E+00
       11   -1    0    0    0    0  0.00000000000E+00  0.00000000000E+00  0.39999999673E+01  0.40000000000E+01  0.51109989000E-03 0.  1.
     -623   -1    0    0    0    0  0.00000000000E+00  0.00000000000E+00  0.12525980253E-10  0.17130000000E+03  0.17130000000E+03 0. -1.
       11    1    1    2    0    0  0.22225781587E-02 -0.56523985533E-01  0.17577064200E+01  0.17586165076E+01  0.51109989000E-03 0.  1.
     -623    1    1    2    0    0 -0.20014103462E-01  0.44594046698E-02  0.19437643905E-02  0.17130000124E+03  0.17130000000E+03 0. -1.
      622    1    1    2    0    0  0.17791525303E-01  0.52064580863E-01  0.22403497830E+01  0.22413822541E+01  0.40000000000E-01 0.  1.
</event>
<event>
 5   0  0.6200596E+07  0.9118800E+02  0.7818608E-02  0.1180000E+00
       11   -1    0    0    0    0  0.00000000000E+00  0.00000000000E+00  0.39999999673E+01  0.40000000000E+01  0.51109989000E-03 0. -1.
     -623   -1    0    0    0    0  0.00000000000E+00  0.00000000000E+00  0.12525980253E-10  0.17130000000E+03  0.17130000000E+03 0. -1.
       11    1    1    2    0    0  0.71771492009E-01  0.41170627107E-02  0.34187378047E+00  0.34935088416E+00  0.51109989000E-03 0. -1.
     -623    1    1    2    0    0 -0.10862603989E-01 -0.77342196517E-02  0.82069048181E-02  0.17130000072E+03  0.17130000000E+03 0. -1.
      622    1    1    2    0    0 -0.60908888020E-01  0.36171569410E-02  0.36499192821E+01  0.36506484002E+01  0.40000000000E-01 0. -1.
</event>
<event>
 5   0  0.6200596E+07  0.9118800E+02  0.7818608E-02  0.1180000E+00
       11   -1    0    0    0    0  0.00000000000E+00  0.00000000000E+00  0.39999999673E+01  0.40000000000E+01  0.51109989000E-03 0.  1.
     -623   -1    0    0    0    0  0.00000000000E+00  0.00000000000E+00  0.12525980253E-10  0.17130000000E+03  0.17130000000E+03 0.  1.
       11    1    1    2    0    0 -0.18695565958E-01 -0.14514556472E-01  0.46578554433E+00  0.46638678269E+00  0.51109989000E-03 0.  1.
     -623    1    1    2    0    0  0.19322556645E-01  0.15874079477E-01  0.82975473296E-03  0.17130000183E+03  0.17130000000E+03 0.  1.
      622    1    1    2    0    0 -0.62699068680E-03 -0.13595230053E-02  0.35333846683E+01  0.35336113900E+01  0.40000000000E-01 0.  0.
</event>
<event>
 5   0  0.6200596E+07  0.9118800E+02  0.7818608E-02  0.1180000E+00
       11   -1    0    0    0    0  0.00000000000E+00  0.00000000000E+00  0.39999999673E+01  0.40000000000E+01  0.51109989000E-03 0.  1.
     -623   -1    0    0    0    0  0.00000000000E+00  0.00000000000E+00  0.12525980253E-10  0.17130000000E+03  0.17130000000E+03 0.  1.
       11    1    1    2    0    0  0.46648402190E-02  0.37283154287E-02  0.33635581833E+00  0.33640921334E+00  0.51109989000E-03 0.  1.
     -623    1    1    2    0    0  0.15966205269E-02 -0.12316911331E-03  0.27886657853E-03  0.17130000001E+03  0.17130000000E+03 0.  1.
      622    1    1    2    0    0 -0.62614607460E-02 -0.36051463154E-02  0.36633652824E+01  0.36635907790E+01  0.40000000000E-01 0.  1.
</event>
<event>
 5   0  0.6200596E+07  0.9118800E+02  0.7818608E-02  0.1180000E+00
       11   -1    0    0    0    0  0.00000000000E+00  0.00000000000E+00  0.39999999673E+01  0.40000000000E+01  0.51109989000E-03 0. -1.
     -623   -1    0    0    0    0  0.00000000000E+00  0.00000000000E+00  0.12525980253E-10  0.17130000000E+03  0.17130000000E+03 0. -1.
       11    1    1    2    0    0  0.27058006262E-01  0.16910235867E-01  0.14257370672E+01  0.14260941546E+01  0.51109989000E-03 0. -1.
     -623    1    1    2    0    0  0.17169558209E-02 -0.47707562374E-02  0.85746412089E-03  0.17130000008E+03  0.17130000000E+03 0. -1.
      622    1    1    2    0    0 -0.28774962083E-01 -0.12139479630E-01  0.25734054360E+01  0.25739057682E+01  0.40000000000E-01 0. -1.
</event>
<event>
 5   0  0.6200596E+07  0.9118800E+02  0.7818608E-02  0.1180000E+00
       11   -1    0    0    0    0  0.00000000000E+00  0.00000000000E+00  0.39999999673E+01  0.40000000000E+01  0.51109989000E-03 0. -1.
     -623   -1    0    0    0    0  0.00000000000E+00  0.00000000000E+00  0.12525980253E-10  0.17130000000E+03  0.17130000000E+03 0. -1.
       11    1    1    2    0    0  0.39171631520E-02  0.15566610702E-01  0.24529912286E+01  0.24530438016E+01  0.51109989000E-03 0. -1.
     -623    1    1    2    0    0  0.39754038193E-02 -0.23570791455E-02  0.64639477166E-03  0.17130000006E+03  0.17130000000E+03 0. -1.
      622    1    1    2    0    0 -0.78925669713E-02 -0.13209531556E-01  0.15463623439E+01  0.15469561348E+01  0.40000000000E-01 0.  1.
</event>
<event>
 5   0  0.6200596E+07  0.9118800E+02  0.7818608E-02  0.1180000E+00
       11   -1    0    0    0    0  0.00000000000E+00  0.00000000000E+00  0.39999999673E+01  0.40000000000E+01  0.51109989000E-03 0.  1.
     -623   -1    0    0    0    0  0.00000000000E+00  0.00000000000E+00  0.12525980253E-10  0.17130000000E+03  0.17130000000E+03 0.  1.
       11    1    1    2    0    0  0.14451699433E-01  0.59579216240E-02  0.11069716563E+01  0.11070821368E+01  0.51109989000E-03 0.  1.
     -623    1    1    2    0    0 -0.12128505868E-02  0.58484958767E-02  0.44149315990E-03  0.17130000010E+03  0.17130000000E+03 0.  1.
      622    1    1    2    0    0 -0.13238848847E-01 -0.11806417501E-01  0.28925868179E+01  0.28929177585E+01  0.40000000000E-01 0.  1.
</event>
<event>
 5   0  0.6200596E+07  0.9118800E+02  0.7818608E-02  0.1180000E+00
       11   -1    0    0    0    0  0.00000000000E+00  0.00000000000E+00  0.39999999673E+01  0.40000000000E+01  0.51109989000E-03 0. -1.
     -623   -1    0    0    0    0  0.00000000000E+00  0.00000000000E+00  0.12525980253E-10  0.17130000000E+03  0.17130000000E+03 0. -1.
       11    1    1    2    0    0  0.11705412420E-01 -0.75012793345E-02  0.32187342809E+01  0.32187643464E+01  0.51109989000E-03 0. -1.
     -623    1    1    2    0    0 -0.61310138111E-03  0.23363532036E-03  0.11674361427E-02  0.17130000001E+03  0.17130000000E+03 0. -1.
      622    1    1    2    0    0 -0.11092311038E-01  0.72676440141E-02  0.78009825035E+00  0.78123564832E+00  0.40000000000E-01 0. -1.
</event>
<event>
 5   0  0.6200596E+07  0.9118800E+02  0.7818608E-02  0.1180000E+00
       11   -1    0    0    0    0  0.00000000000E+00  0.00000000000E+00  0.39999999673E+01  0.40000000000E+01  0.51109989000E-03 0.  1.
     -623   -1    0    0    0    0  0.00000000000E+00  0.00000000000E+00  0.12525980253E-10  0.17130000000E+03  0.17130000000E+03 0. -1.
       11    1    1    2    0    0 -0.25317067808E-01  0.14838505101E-01  0.14970643421E+01  0.14973520097E+01  0.51109989000E-03 0.  1.
     -623    1    1    2    0    0 -0.34836018538E-02  0.90585387684E-02  0.88745850700E-03  0.17130000028E+03  0.17130000000E+03 0. -1.
      622    1    1    2    0    0  0.28800669662E-01 -0.23897043870E-01  0.25020481667E+01  0.25026477131E+01  0.40000000000E-01 0.  0.
</event>
<event>
 5   0  0.6200596E+07  0.9118800E+02  0.7818608E-02  0.1180000E+00
       11   -1    0    0    0    0  0.00000000000E+00  0.00000000000E+00  0.39999999673E+01  0.40000000000E+01  0.51109989000E-03 0.  1.
     -623   -1    0    0    0    0  0.00000000000E+00  0.00000000000E+00  0.12525980253E-10  0.17130000000E+03  0.17130000000E+03 0.  1.
       11    1    1    2    0    0 -0.43302357668E-01  0.48997085273E-01  0.79973728737E+00  0.80240625532E+00  0.51109989000E-03 0.  1.
     -623    1    1    2    0    0 -0.50333500259E-02 -0.27891055181E-03  0.36558491474E-02  0.17130000011E+03  0.17130000000E+03 0.  1.
      622    1    1    2    0    0  0.48335707694E-01 -0.48718174721E-01  0.31966068308E+01  0.31975936315E+01  0.40000000000E-01 0.  1.
</event>
<event>
 5   0  0.6200596E+07  0.9118800E+02  0.7818608E-02  0.1180000E+00
       11   -1    0    0    0    0  0.00000000000E+00  0.00000000000E+00  0.39999999673E+01  0.40000000000E+01  0.51109989000E-03 0.  1.
     -623   -1    0    0    0    0  0.00000000000E+00  0.00000000000E+00  0.12525980253E-10  0.17130000000E+03  0.17130000000E+03 0. -1.
       11    1    1    2    0    0 -0.82761283364E-02 -0.31424443458E-02  0.36453221109E+01  0.36453328960E+01  0.51109989000E-03 0.  1.
     -623    1    1    2    0    0  0.52679992648E-03 -0.63818865855E-03  0.23791249236E-02  0.17130000002E+03  0.17130000000E+03 0. -1.
      622    1    1    2    0    0  0.77493284099E-02  0.37806330043E-02  0.35229873152E+00  0.35466708546E+00  0.40000000000E-01 0. -1.
</event>
<event>
 5   0  0.6200596E+07  0.9118800E+02  0.7818608E-02  0.1180000E+00
       11   -1    0    0    0    0  0.00000000000E+00  0.00000000000E+00  0.39999999673E+01  0.40000000000E+01  0.51109989000E-03 0.  1.
     -623   -1    0    0    0    0  0.00000000000E+00  0.00000000000E+00  0.12525980253E-10  0.17130000000E+03  0.17130000000E+03 0. -1.
       11    1    1    2    0    0 -0.12049290644E-01 -0.35650346088E-01  0.22127553255E+01  0.22130753544E+01  0.51109989000E-03 0.  1.
     -623    1    1    2    0    0  0.64789096001E-02 -0.77826538119E-02  0.13047921193E-02  0.17130000030E+03  0.17130000000E+03 0. -1.
      622    1    1    2    0    0  0.55703810440E-02  0.43432999900E-01  0.17859398498E+01  0.17869243413E+01  0.40000000000E-01 0.  1.
</event>
<event>
 5   0  0.6200596E+07  0.9118800E+02  0.7818608E-02  0.1180000E+00
       11   -1    0    0    0    0  0.00000000000E+00  0.00000000000E+00  0.39999999673E+01  0.40000000000E+01  0.51109989000E-03 0.  1.
     -623   -1    0    0    0    0  0.00000000000E+00  0.00000000000E+00  0.12525980253E-10  0.17130000000E+03  0.17130000000E+03 0.  1.
       11    1    1    2    0    0  0.15497400152E-02  0.21246624933E-02  0.18045662008E-01  0.18243437834E-01  0.51109989000E-03 0.  1.
     -623    1    1    2    0    0 -0.10683947983E-02 -0.15350175447E-02  0.39874803770E-03  0.17130000001E+03  0.17130000000E+03 0.  1.
      622    1    1    2    0    0 -0.48134521690E-03 -0.58964494851E-03  0.39815555573E+01  0.39817565515E+01  0.40000000000E-01 0.  1.
</event>
<event>
 5   0  0.6200596E+07  0.9118800E+02  0.7818608E-02  0.1180000E+00
       11   -1    0    0    0    0  0.00000000000E+00  0.00000000000E+00  0.39999999673E+01  0.40000000000E+01  0.51109989000E-03 0.  1.
     -623   -1    0    0    0    0  0.00000000000E+00  0.00000000000E+00  0.12525980253E-10  0.17130000000E+03  0.17130000000E+03 0.  1.
       11    1    1    2    0    0  0.43775430126E-02 -0.61570521570E-02  0.23931532227E+00  0.23943507861E+00  0.51109989000E-03 0.  1.
     -623    1    1    2    0    0  0.35041075641E-04 -0.56664716206E-03  0.34106513359E-03  0.17130000000E+03  0.17130000000E+03 0.  1.
      622    1    1    2    0    0 -0.44125840883E-02  0.67236993191E-02  0.37603435800E+01  0.37605649201E+01  0.40000000000E-01 0.  1.
</event>
<event>
 5   0  0.6200596E+07  0.9118800E+02  0.7818608E-02  0.1180000E+00
       11   -1    0    0    0    0  0.00000000000E+00  0.00000000000E+00  0.39999999673E+01  0.40000000000E+01  0.51109989000E-03 0.  1.
     -623   -1    0    0    0    0  0.00000000000E+00  0.00000000000E+00  0.12525980253E-10  0.17130000000E+03  0.17130000000E+03 0. -1.
       11    1    1    2    0    0 -0.61541378389E-02  0.20809577820E-03  0.10952105544E+00  0.10969521194E+00  0.51109989000E-03 0.  1.
     -623    1    1    2    0    0  0.35164171476E-04 -0.83662727456E-03  0.38463441708E-03  0.17130000000E+03  0.17130000000E+03 0. -1.
      622    1    1    2    0    0  0.61189736674E-02  0.62853149636E-03  0.38900942775E+01  0.38903047856E+01  0.40000000000E-01 0.  1.
</event>
<event>
 5   0  0.6200596E+07  0.9118800E+02  0.7818608E-02  0.1180000E+00
       11   -1    0    0    0    0  0.00000000000E+00  0.00000000000E+00  0.39999999673E+01  0.40000000000E+01  0.51109989000E-03 0.  1.
     -623   -1    0    0    0    0  0.00000000000E+00  0.00000000000E+00  0.12525980253E-10  0.17130000000E+03  0.17130000000E+03 0. -1.
       11    1    1    2    0    0  0.14185923286E-02  0.13646124240E-01  0.32379614164E+00  0.32408707421E+00  0.51109989000E-03 0.  1.
     -623    1    1    2    0    0  0.21361971207E-02 -0.65725795044E-04  0.53535998021E-03  0.17130000001E+03  0.17130000000E+03 0. -1.
      622    1    1    2    0    0 -0.35547894493E-02 -0.13580398445E-01  0.36756684657E+01  0.36759129116E+01  0.40000000000E-01 0.  1.
</event>
<event>
 5   0  0.6200596E+07  0.9118800E+02  0.7818608E-02  0.1180000E+00
       11   -1    0    0    0    0  0.00000000000E+00  0.00000000000E+00  0.39999999673E+01  0.40000000000E+01  0.51109989000E-03 0. -1.
     -623   -1    0    0    0    0  0.00000000000E+00  0.00000000000E+00  0.12525980253E-10  0.17130000000E+03  0.17130000000E+03 0.  1.
       11    1    1    2    0    0 -0.52234521220E-05 -0.53980786050E-03  0.49282369734E-01  0.49287976294E-01  0.51109989000E-03 0. -1.
     -623    1    1    2    0    0 -0.14377549106E-03  0.13457664885E-04  0.20811231485E-03  0.17130000000E+03  0.17130000000E+03 0.  1.
      622    1    1    2    0    0  0.14899894318E-03  0.52635019562E-03  0.39505094853E+01  0.39507120235E+01  0.40000000000E-01 0. -1.
</event>
<event>
 5   0  0.6200596E+07  0.9118800E+02  0.7818608E-02  0.1180000E+00
       11   -1    0    0    0    0  0.00000000000E+00  0.00000000000E+00  0.39999999673E+01  0.40000000000E+01  0.51109989000E-03 0.  1.
     -623   -1    0    0    0    0  0.00000000000E+00  0.00000000000E+00  0.12525980253E-10  0.17130000000E+03  0.17130000000E+03 0.  1.
       11    1    1    2    0    0  0.31734860270E-02 -0.27024459423E-02  0.17526177225E-01  0.18022273379E-01  0.51109989000E-03 0.  1.
     -623    1    1    2    0    0  0.11232752064E-02  0.56168679886E-04  0.70017658492E-03  0.17130000001E+03  0.17130000000E+03 0.  1.
      622    1    1    2    0    0 -0.42967612334E-02  0.26462772624E-02  0.39817736136E+01  0.39819777215E+01  0.40000000000E-01 0.  1.
</event>
<event>
 5   0  0.6200596E+07  0.9118800E+02  0.7818608E-02  0.1180000E+00
       11   -1    0    0    0    0  0.00000000000E+00  0.00000000000E+00  0.39999999673E+01  0.40000000000E+01  0.51109989000E-03 0.  1.
     -623   -1    0    0    0    0  0.00000000000E+00  0.00000000000E+00  0.12525980253E-10  0.17130000000E+03  0.17130000000E+03 0.  1.
       11    1    1    2    0    0 -0.64183859918E-03  0.19199209160E-02  0.36823070252E-01  0.36882214903E-01  0.51109989000E-03 0.  1.
     -623    1    1    2    0    0  0.56855341305E-03 -0.12284704407E-02  0.26104497247E-03  0.17130000001E+03  0.17130000000E+03 0.  1.
      622    1    1    2    0    0  0.73285186135E-04 -0.69145047525E-03  0.39629158521E+01  0.39631177795E+01  0.40000000000E-01 0.  1.
</event>
<event>
 5   0  0.6200596E+07  0.9118800E+02  0.7818608E-02  0.1180000E+00
       11   -1    0    0    0    0  0.00000000000E+00  0.00000000000E+00  0.39999999673E+01  0.40000000000E+01  0.51109989000E-03 0. -1.
     -623   -1    0    0    0    0  0.00000000000E+00  0.00000000000E+00  0.12525980253E-10  0.17130000000E+03  0.17130000000E+03 0.  1.
       11    1    1    2    0    0  0.40253918080E-03  0.13655442179E-03  0.16950564668E+00  0.16950695019E+00  0.51109989000E-03 0. -1.
     -623    1    1    2    0    0  0.34812153666E-03  0.18526649134E-02  0.21072756679E-03  0.17130000001E+03  0.17130000000E+03 0.  1.
      622    1    1    2    0    0 -0.75066071746E-03 -0.19892193351E-02  0.38302835931E+01  0.38304930393E+01  0.40000000000E-01 0. -1.
</event>
<event>
 5   0  0.6200596E+07  0.9118800E+02  0.7818608E-02  0.1180000E+00
       11   -1    0    0    0    0  0.00000000000E+00  0.00000000000E+00  0.39999999673E+01  0.40000000000E+01  0.51109989000E-03 0. -1.
     -623   -1    0    0    0    0  0.00000000000E+00  0.00000000000E+00  0.12525980253E-10  0.17130000000E+03  0.17130000000E+03 0. -1.
       11    1    1    2    0    0 -0.10160636866E-02  0.43990619520E-03  0.14086358172E-01  0.14139045600E-01  0.51109989000E-03 0. -1.
     -623    1    1    2    0    0  0.26676523957E-03  0.37874511049E-03  0.25352462485E-03  0.17130000000E+03  0.17130000000E+03 0. -1.
      622    1    1    2    0    0  0.74929844704E-03 -0.81865130569E-03  0.39856600846E+01  0.39858609536E+01  0.40000000000E-01 0. -1.
</event>
<event>
 5   0  0.6200596E+07  0.9118800E+02  0.7818608E-02  0.1180000E+00
       11   -1    0    0    0    0  0.00000000000E+00  0.00000000000E+00  0.39999999673E+01  0.40000000000E+01  0.51109989000E-03 0.  1.
     -623   -1    0    0    0    0  0.00000000000E+00  0.00000000000E+00  0.12525980253E-10  0.17130000000E+03  0.17130000000E+03 0.  1.
       11    1    1    2    0    0 -0.32140442540E-02  0.51585677236E-02  0.28024768656E+00  0.28031405235E+00  0.51109989000E-03 0.  1.
     -623    1    1    2    0    0  0.30724342023E-03 -0.15557388406E-02  0.28429963322E-03  0.17130000001E+03  0.17130000000E+03 0.  1.
      622    1    1    2    0    0  0.29068008337E-02 -0.36028288830E-02  0.37194679812E+01  0.37196859401E+01  0.40000000000E-01 0.  1.
</event>
<event>
 5   0  0.6200596E+07  0.9118800E+02  0.7818608E-02  0.1180000E+00
       11   -1    0    0    0    0  0.00000000000E+00  0.00000000000E+00  0.39999999673E+01  0.40000000000E+01  0.51109989000E-03 0. -1.
     -623   -1    0    0    0    0  0.00000000000E+00  0.00000000000E+00  0.12525980253E-10  0.17130000000E+03  0.17130000000E+03 0. -1.
       11    1    1    2    0    0  0.19561503801E-01  0.19667172984E-01  0.12327218639E+00  0.12635562229E+00  0.51109989000E-03 0. -1.
     -623    1    1    2    0    0 -0.19818160387E-01 -0.13024059284E-01  0.32973110953E-02  0.17130000167E+03  0.17130000000E+03 0. -1.
      622    1    1    2    0    0  0.25665658568E-03 -0.66431137001E-02  0.38734304699E+01  0.38736427045E+01  0.40000000000E-01 0. -1.
</event>
<event>
 5   0  0.6200596E+07  0.9118800E+02  0.7818608E-02  0.1180000E+00
       11   -1    0    0    0    0  0.00000000000E+00  0.00000000000E+00  0.39999999673E+01  0.40000000000E+01  0.51109989000E-03 0.  1.
     -623   -1    0    0    0    0  0.00000000000E+00  0.00000000000E+00  0.12525980253E-10  0.17130000000E+03  0.17130000000E+03 0.  1.
       11    1    1    2    0    0  0.84565082196E-03 -0.40159301476E-02  0.94451321981E-01  0.94541822838E-01  0.51109989000E-03 0.  1.
     -623    1    1    2    0    0  0.41548593156E-02 -0.39452260928E-02  0.30672740933E-03  0.17130000010E+03  0.17130000000E+03 0.  1.
      622    1    1    2    0    0 -0.50005101376E-02  0.79611562404E-02  0.39052419180E+01  0.39054580811E+01  0.40000000000E-01 0.  1.
</event>
<event>
 5   0  0.6200596E+07  0.9118800E+02  0.7818608E-02  0.1180000E+00
       11   -1    0    0    0    0  0.00000000000E+00  0.00000000000E+00  0.39999999673E+01  0.40000000000E+01  0.51109989000E-03 0. -1.
     -623   -1    0    0    0    0  0.00000000000E+00  0.00000000000E+00  0.12525980253E-10  0.17130000000E+03  0.17130000000E+03 0. -1.
       11    1    1    2    0    0  0.94233800117E-02  0.99943302013E-03  0.10517318452E+00  0.10560046838E+00  0.51109989000E-03 0. -1.
     -623    1    1    2    0    0  0.20657008241E-03  0.83078404404E-03  0.64502024279E-03  0.17130000000E+03  0.17130000000E+03 0. -1.
      622    1    1    2    0    0 -0.96299500941E-02 -0.18302170642E-02  0.38941817626E+01  0.38943995283E+01  0.40000000000E-01 0. -1.
</event>
<event>
 5   0  0.6200596E+07  0.9118800E+02  0.7818608E-02  0.1180000E+00
       11   -1    0    0    0    0  0.00000000000E+00  0.00000000000E+00  0.39999999673E+01  0.40000000000E+01  0.51109989000E-03 0.  1.
     -623   -1    0    0    0    0  0.00000000000E+00  0.00000000000E+00  0.12525980253E-10  0.17130000000E+03  0.17130000000E+03 0.  1.
       11    1    1    2    0    0 -0.13116876919E-01  0.20177177630E-01  0.12900788345E+00  0.13123439402E+00  0.51109989000E-03 0.  1.
     -623    1    1    2    0    0 -0.19728146865E-02 -0.10033138970E-02  0.25102466406E-02  0.17130000003E+03  0.17130000000E+03 0.  1.
      622    1    1    2    0    0  0.15089691606E-01 -0.19173863733E-01  0.38684818373E+01  0.38687655733E+01  0.40000000000E-01 0.  1.
</event>
<event>
 5   0  0.6200596E+07  0.9118800E+02  0.7818608E-02  0.1180000E+00
       11   -1    0    0    0    0  0.00000000000E+00  0.00000000000E+00  0.39999999673E+01  0.40000000000E+01  0.51109989000E-03 0.  1.
     -623   -1    0    0    0    0  0.00000000000E+00  0.00000000000E+00  0.12525980253E-10  0.17130000000E+03  0.17130000000E+03 0. -1.
       11    1    1    2    0    0  0.27598107950E-01  0.19265216786E-03  0.68574283516E+00  0.68629817854E+00  0.51109989000E-03 0.  1.
     -623    1    1    2    0    0 -0.96515961998E-02 -0.84227020710E-02  0.85604539892E-03  0.17130000048E+03  0.17130000000E+03 0. -1.
      622    1    1    2    0    0 -0.17946511751E-01  0.82300499031E-02  0.33134010868E+01  0.33137013404E+01  0.40000000000E-01 0.  0.
</event>
<event>
 5   0  0.6200596E+07  0.9118800E+02  0.7818608E-02  0.1180000E+00
       11   -1    0    0    0    0  0.00000000000E+00  0.00000000000E+00  0.39999999673E+01  0.40000000000E+01  0.51109989000E-03 0.  1.
     -623   -1    0    0    0    0  0.00000000000E+00  0.00000000000E+00  0.12525980253E-10  0.17130000000E+03  0.17130000000E+03 0.  1.
       11    1    1    2    0    0 -0.94664739136E-02 -0.89296945251E-02  0.88260026938E+00  0.88269635227E+00  0.51109989000E-03 0.  1.
     -623    1    1    2    0    0 -0.13593748340E-02  0.67690312982E-02  0.37238101031E-03  0.17130000014E+03  0.17130000000E+03 0.  1.
      622    1    1    2    0    0  0.10825848748E-01  0.21606632269E-02  0.31170273170E+01  0.31173035082E+01  0.40000000000E-01 0.  1.
</event>
<event>
 5   0  0.6200596E+07  0.9118800E+02  0.7818608E-02  0.1180000E+00
       11   -1    0    0    0    0  0.00000000000E+00  0.00000000000E+00  0.39999999673E+01  0.40000000000E+01  0.51109989000E-03 0.  1.
     -623   -1    0    0    0    0  0.00000000000E+00  0.00000000000E+00  0.12525980253E-10  0.17130000000E+03  0.17130000000E+03 0.  1.
       11    1    1    2    0    0 -0.45804747961E-03  0.22994034006E-02  0.12751349778E+00  0.12753607490E+00  0.51109989000E-03 0.  1.
     -623    1    1    2    0    0  0.23366291426E-03 -0.14128464310E-03  0.22974507153E-03  0.17130000000E+03  0.17130000000E+03 0.  1.
      622    1    1    2    0    0  0.22438456535E-03 -0.21581187575E-02  0.38722567245E+01  0.38724639247E+01  0.40000000000E-01 0.  1.
</event>
<event>
 5   0  0.6200596E+07  0.9118800E+02  0.7818608E-02  0.1180000E+00
       11   -1    0    0    0    0  0.00000000000E+00  0.00000000000E+00  0.39999999673E+01  0.40000000000E+01  0.51109989000E-03 0. -1.
     -623   -1    0    0    0    0  0.00000000000E+00  0.00000000000E+00  0.12525980253E-10  0.17130000000E+03  0.17130000000E+03 0. -1.
       11    1    1    2    0    0  0.82936993264E-02 -0.29334566769E-01  0.46894389253E+00  0.46993397176E+00  0.51109989000E-03 0. -1.
     -623    1    1    2    0    0  0.17208324469E-02 -0.78668856120E-04  0.13534477623E-02  0.17130000001E+03  0.17130000000E+03 0. -1.
      622    1    1    2    0    0 -0.10014531773E-01  0.29413235626E-01  0.35297026271E+01  0.35300660142E+01  0.40000000000E-01 0. -1.
</event>
<event>
 5   0  0.6200596E+07  0.9118800E+02  0.7818608E-02  0.1180000E+00
       11   -1    0    0    0    0  0.00000000000E+00  0.00000000000E+00  0.39999999673E+01  0.40000000000E+01  0.51109989000E-03 0. -1.
     -623   -1    0    0    0    0  0.00000000000E+00  0.00000000000E+00  0.12525980253E-10  0.17130000000E+03  0.17130000000E+03 0.  1.
       11    1    1    2    0    0 -0.20958274579E-03 -0.10424072263E-03  0.65335227509E-02  0.65576620245E-02  0.51109989000E-03 0. -1.
     -623    1    1    2    0    0 -0.16930237959E-03  0.53026662338E-04  0.22445862196E-03  0.17130000000E+03  0.17130000000E+03 0.  1.
      622    1    1    2    0    0  0.37888512538E-03  0.51214060294E-04  0.39932419860E+01  0.39934423377E+01  0.40000000000E-01 0. -1.
</event>
<event>
 5   0  0.6200596E+07  0.9118800E+02  0.7818608E-02  0.1180000E+00
       11   -1    0    0    0    0  0.00000000000E+00  0.00000000000E+00  0.39999999673E+01  0.40000000000E+01  0.51109989000E-03 0. -1.
     -623   -1    0    0    0    0  0.00000000000E+00  0.00000000000E+00  0.12525980253E-10  0.17130000000E+03  0.17130000000E+03 0. -1.
       11    1    1    2    0    0  0.17674512562E-01 -0.21037774377E-01  0.10554124666E+01  0.10557701986E+01  0.51109989000E-03 0. -1.
     -623    1    1    2    0    0 -0.26421859891E-02 -0.23985078665E-03  0.74472560169E-03  0.17130000002E+03  0.17130000000E+03 0. -1.
      622    1    1    2    0    0 -0.15032326573E-01  0.21277625163E-01  0.29438427752E+01  0.29442297792E+01  0.40000000000E-01 0. -1.
</event>
<event>
 5   0  0.6200596E+07  0.9118800E+02  0.7818608E-02  0.1180000E+00
       11   -1    0    0    0    0  0.00000000000E+00  0.00000000000E+00  0.39999999673E+01  0.40000000000E+01  0.51109989000E-03 0. -1.
     -623   -1    0    0    0    0  0.00000000000E+00  0.00000000000E+00  0.12525980253E-10  0.17130000000E+03  0.17130000000E+03 0. -1.
       11    1    1    2    0    0 -0.52665963260E-02  0.78391213982E-01  0.13307385531E+01  0.13330559919E+01  0.51109989000E-03 0. -1.
     -623    1    1    2    0    0  0.73289550065E-02 -0.39661254824E-02  0.36572226906E-02  0.17130000024E+03  0.17130000000E+03 0. -1.
      622    1    1    2    0    0 -0.20623586805E-02 -0.74425088500E-01  0.26656041915E+01  0.26669437664E+01  0.40000000000E-01 0.  0.
</event>
<event>
 5   0  0.6200596E+07  0.9118800E+02  0.7818608E-02  0.1180000E+00
       11   -1    0    0    0    0  0.00000000000E+00  0.00000000000E+00  0.39999999673E+01  0.40000000000E+01  0.51109989000E-03 0. -1.
     -623   -1    0    0    0    0  0.00000000000E+00  0.00000000000E+00  0.12525980253E-10  0.17130000000E+03  0.17130000000E+03 0. -1.
       11    1    1    2    0    0 -0.21743148191E-02 -0.12120144039E-01  0.46387246965E-01  0.47996494045E-01  0.51109989000E-03 0. -1.
     -623    1    1    2    0    0 -0.39978623066E-02  0.78032796496E-02  0.18190605332E-02  0.17130000023E+03  0.17130000000E+03 0. -1.
      622    1    1    2    0    0  0.61721771257E-02  0.43168643897E-02  0.39517936599E+01  0.39520032719E+01  0.40000000000E-01 0. -1.
</event>
<event>
 5   0  0.6200596E+07  0.9118800E+02  0.7818608E-02  0.1180000E+00
       11   -1    0    0    0    0  0.00000000000E+00  0.00000000000E+00  0.39999999673E+01  0.40000000000E+01  0.51109989000E-03 0. -1.
     -623   -1    0    0    0    0  0.00000000000E+00  0.00000000000E+00  0.12525980253E-10  0.17130000000E+03  0.17130000000E+03 0. -1.
       11    1    1    2    0    0 -0.81501742721E-03 -0.36737629071E-02  0.66427763000E-01  0.66536228524E-01  0.51109989000E-03 0. -1.
     -623    1    1    2    0    0 -0.14853791713E-02  0.19311921706E-02  0.31289755280E-03  0.17130000002E+03  0.17130000000E+03 0. -1.
      622    1    1    2    0    0  0.23003965985E-02  0.17425707365E-02  0.39332593068E+01  0.39334637539E+01  0.40000000000E-01 0. -1.
</event>
<event>
 5   0  0.6200596E+07  0.9118800E+02  0.7818608E-02  0.1180000E+00
       11   -1    0    0    0    0  0.00000000000E+00  0.00000000000E+00  0.39999999673E+01  0.40000000000E+01  0.51109989000E-03 0. -1.
     -623   -1    0    0    0    0  0.00000000000E+00  0.00000000000E+00  0.12525980253E-10  0.17130000000E+03  0.17130000000E+03 0. -1.
       11    1    1    2    0    0  0.28781688260E-02 -0.28278749497E-03  0.16266177976E+00  0.16268828980E+00  0.51109989000E-03 0. -1.
     -623    1    1    2    0    0 -0.12353656706E-02 -0.36857134033E-02  0.23741049826E-03  0.17130000004E+03  0.17130000000E+03 0. -1.
      622    1    1    2    0    0 -0.16428031554E-02  0.39685008983E-02  0.38371007771E+01  0.38373116659E+01  0.40000000000E-01 0. -1.
</event>
<event>
 5   0  0.6200596E+07  0.9118800E+02  0.7818608E-02  0.1180000E+00
       11   -1    0    0    0    0  0.00000000000E+00  0.00000000000E+00  0.39999999673E+01  0.40000000000E+01  0.51109989000E-03 0.  1.
     -623   -1    0    0    0    0  0.00000000000E+00  0.00000000000E+00  0.12525980253E-10  0.17130000000E+03  0.17130000000E+03 0. -1.
       11    1    1    2    0    0  0.10599582878E-04 -0.46090028174E-03  0.14260194752E+00  0.14260360865E+00  0.51109989000E-03 0.  1.
     -623    1    1    2    0    0 -0.40399108803E-03  0.11214685896E-03  0.20906430901E-03  0.17130000000E+03  0.17130000000E+03 0. -1.
      622    1    1    2    0    0  0.39339150515E-03  0.34875342278E-03  0.38571889555E+01  0.38573963907E+01  0.40000000000E-01 0.  1.
</event>
<event>
 5   0  0.6200596E+07  0.9118800E+02  0.7818608E-02  0.1180000E+00
       11   -1    0    0    0    0  0.00000000000E+00  0.00000000000E+00  0.39999999673E+01  0.40000000000E+01  0.51109989000E-03 0. -1.
     -623   -1    0    0    0    0  0.00000000000E+00  0.00000000000E+00  0.12525980253E-10  0.17130000000E+03  0.17130000000E+03 0. -1.
       11    1    1    2    0    0 -0.15681566450E-03 -0.10207003383E-02  0.17869224725E+00  0.17869596210E+00  0.51109989000E-03 0. -1.
     -623    1    1    2    0    0  0.21838656198E-02 -0.13652109350E-03  0.21376756487E-03  0.17130000001E+03  0.17130000000E+03 0. -1.
      622    1    1    2    0    0 -0.20270499553E-02  0.11572214318E-02  0.38210939525E+01  0.38213040238E+01  0.40000000000E-01 0. -1.
</event>
<event>
 5   0  0.6200596E+07  0.9118800E+02  0.7818608E-02  0.1180000E+00
       11   -1    0    0    0    0  0.00000000000E+00  0.00000000000E+00  0.39999999673E+01  0.40000000000E+01  0.51109989000E-03 0. -1.
     -623   -1    0    0    0    0  0.00000000000E+00  0.00000000000E+00  0.12525980253E-10  0.17130000000E+03  0.17130000000E+03 0.  1.
       11    1    1    2    0    0 -0.34658359188E-02 -0.28035583525E-02  0.12934983626E+00  0.12942763739E+00  0.51109989000E-03 0. -1.
     -623    1    1    2    0    0 -0.10960285909E-02  0.89843719493E-03  0.28762522698E-03  0.17130000001E+03  0.17130000000E+03 0.  1.
      622    1    1    2    0    0  0.45618645097E-02  0.19051211576E-02  0.38703625059E+01  0.38705723565E+01  0.40000000000E-01 0. -1.
</event>
<event>
 5   0  0.6200596E+07  0.9118800E+02  0.7818608E-02  0.1180000E+00
       11   -1    0    0    0    0  0.00000000000E+00  0.00000000000E+00  0.39999999673E+01  0.40000000000E+01  0.51109989000E-03 0. -1.
     -623   -1    0    0    0    0  0.00000000000E+00  0.00000000000E+00  0.12525980253E-10  0.17130000000E+03  0.17130000000E+03 0.  1.
       11    1    1    2    0    0  0.13397471521E-03  0.19737085551E-03  0.33050883880E-01  0.33055696184E-01  0.51109989000E-03 0. -1.
     -623    1    1    2    0    0 -0.97683978641E-03 -0.21504915062E-02  0.20703813747E-03  0.17130000002E+03  0.17130000000E+03 0.  1.
      622    1    1    2    0    0  0.84286507120E-03  0.19531206507E-02  0.39667420453E+01  0.39669442874E+01  0.40000000000E-01 0. -1.
</event>
<event>
 5   0  0.6200596E+07  0.9118800E+02  0.7818608E-02  0.1180000E+00
       11   -1    0    0    0    0  0.00000000000E+00  0.00000000000E+00  0.39999999673E+01  0.40000000000E+01  0.51109989000E-03 0.  1.
     -623   -1    0    0    0    0  0.00000000000E+00  0.00000000000E+00  0.12525980253E-10  0.17130000000E+03  0.17130000000E+03 0.  1.
       11    1    1    2    0    0 -0.13938621135E-02  0.48535256546E-02  0.13733609719E-01  0.14641476024E-01  0.51109989000E-03 0.  1.
     -623    1    1    2    0    0  0.19960999463E-02 -0.10930987907E-01  0.11136171619E-02  0.17130000036E+03  0.17130000000E+03 0.  1.
      622    1    1    2    0    0 -0.60223783274E-03  0.60774622521E-02  0.39851527405E+01  0.39853581600E+01  0.40000000000E-01 0.  1.
</event>
<event>
 5   0  0.6200596E+07  0.9118800E+02  0.7818608E-02  0.1180000E+00
       11   -1    0    0    0    0  0.00000000000E+00  0.00000000000E+00  0.39999999673E+01  0.40000000000E+01  0.51109989000E-03 0.  1.
     -623   -1    0    0    0    0  0.00000000000E+00  0.00000000000E+00  0.12525980253E-10  0.17130000000E+03  0.17130000000E+03 0. -1.
       11    1    1    2    0    0 -0.47540701754E-03 -0.16216513051E-03  0.15168969547E+00  0.15169138817E+00  0.51109989000E-03 0.  1.
     -623    1    1    2    0    0  0.68253348539E-02  0.22021151653E-02  0.21547934255E-03  0.17130000015E+03  0.17130000000E+03 0. -1.
      622    1    1    2    0    0 -0.63499278364E-02 -0.20399500348E-02  0.38480947925E+01  0.38483084616E+01  0.40000000000E-01 0.  1.
</event>
<event>
 5   0  0.6200596E+07  0.9118800E+02  0.7818608E-02  0.1180000E+00
       11   -1    0    0    0    0  0.00000000000E+00  0.00000000000E+00  0.39999999673E+01  0.40000000000E+01  0.51109989000E-03 0.  1.
     -623   -1    0    0    0    0  0.00000000000E+00  0.00000000000E+00  0.12525980253E-10  0.17130000000E+03  0.17130000000E+03 0. -1.
       11    1    1    2    0    0 -0.75893538739E-02  0.65533852738E-02  0.91454132038E-01  0.92003612105E-01  0.51109989000E-03 0.  1.
     -623    1    1    2    0    0  0.19141917730E-03  0.97859967002E-03  0.76842720185E-03  0.17130000000E+03  0.17130000000E+03 0. -1.
      622    1    1    2    0    0  0.73979346966E-02 -0.75319849438E-02  0.39077774081E+01  0.39079963833E+01  0.40000000000E-01 0.  1.
</event>
<event>
 5   0  0.6200596E+07  0.9118800E+02  0.7818608E-02  0.1180000E+00
       11   -1    0    0    0    0  0.00000000000E+00  0.00000000000E+00  0.39999999673E+01  0.40000000000E+01  0.51109989000E-03 0. -1.
     -623   -1    0    0    0    0  0.00000000000E+00  0.00000000000E+00  0.12525980253E-10  0.17130000000E+03  0.17130000000E+03 0.  1.
       11    1    1    2    0    0 -0.12252100476E-02  0.13370408100E-02  0.93065956197E-01  0.93085026956E-01  0.51109989000E-03 0. -1.
     -623    1    1    2    0    0  0.16045248490E-03 -0.46741993991E-03  0.22405137214E-03  0.17130000000E+03  0.17130000000E+03 0.  1.
      622    1    1    2    0    0  0.10647575627E-02 -0.86962087014E-03  0.39067099598E+01  0.39069149722E+01  0.40000000000E-01 0. -1.
</event>
<event>
 5   0  0.6200596E+07  0.9118800E+02  0.7818608E-02  0.1180000E+00
       11   -1    0    0    0    0  0.00000000000E+00  0.00000000000E+00  0.39999999673E+01  0.40000000000E+01  0.51109989000E-03 0.  1.
     -623   -1    0    0    0    0  0.00000000000E+00  0.00000000000E+00  0.12525980253E-10  0.17130000000E+03  0.17130000000E+03 0. -1.
       11    1    1    2    0    0 -0.37038995728E-02 -0.76349318657E-02  0.11194539248E-01  0.14056670567E-01  0.51109989000E-03 0.  1.
     -623    1    1    2    0    0  0.54067870614E-02  0.10023514624E-01  0.30642945523E-02  0.17130000041E+03  0.17130000000E+03 0. -1.
      622    1    1    2    0    0 -0.17028874887E-02 -0.23885827578E-02  0.39857411336E+01  0.39859429234E+01  0.40000000000E-01 0.  1.
</event>
<event>
 5   0  0.6200596E+07  0.9118800E+02  0.7818608E-02  0.1180000E+00
       11   -1    0    0    0    0  0.00000000000E+00  0.00000000000E+00  0.39999999673E+01  0.40000000000E+01  0.51109989000E-03 0.  1.
     -623   -1    0    0    0    0  0.00000000000E+00  0.00000000000E+00  0.12525980253E-10  0.17130000000E+03  0.17130000000E+03 0.  1.
       11    1    1    2    0    0 -0.27001066182E-01  0.59721017056E-01  0.16917145951E+01  0.16929838127E+01  0.51109989000E-03 0.  1.
     -623    1    1    2    0    0 -0.39176710117E-03 -0.35188611339E-02  0.24635256270E-02  0.17130000005E+03  0.17130000000E+03 0.  1.
      622    1    1    2    0    0  0.27392833283E-01 -0.56202155922E-01  0.23058218466E+01  0.23070161330E+01  0.40000000000E-01 0.  1.
</event>
<event>
 5   0  0.6200596E+07  0.9118800E+02  0.7818608E-02  0.1180000E+00
       11   -1    0    0    0    0  0.00000000000E+00  0.00000000000E+00  0.39999999673E+01  0.40000000000E+01  0.51109989000E-03 0.  1.
     -623   -1    0    0    0    0  0.00000000000E+00  0.00000000000E+00  0.12525980253E-10  0.17130000000E+03  0.17130000000E+03 0. -1.
       11    1    1    2    0    0  0.25159217241E-02 -0.16624592940E-03  0.54765952942E-01  0.54826346975E-01  0.51109989000E-03 0.  1.
     -623    1    1    2    0    0 -0.18610695962E-03 -0.40981767936E-03  0.26387684215E-03  0.17130000000E+03  0.17130000000E+03 0. -1.
      622    1    1    2    0    0 -0.23298147645E-02  0.57606360877E-03  0.39449701376E+01  0.39451736522E+01  0.40000000000E-01 0.  1.
</event>
<event>
 5   0  0.6200596E+07  0.9118800E+02  0.7818608E-02  0.1180000E+00
       11   -1    0    0    0    0  0.00000000000E+00  0.00000000000E+00  0.39999999673E+01  0.40000000000E+01  0.51109989000E-03 0.  1.
     -623   -1    0    0    0    0  0.00000000000E+00  0.00000000000E+00  0.12525980253E-10  0.17130000000E+03  0.17130000000E+03 0.  1.
       11    1    1    2    0    0 -0.16536714702E-02  0.15118502340E-02  0.52621211193E-01  0.52671371816E-01  0.51109989000E-03 0.  1.
     -623    1    1    2    0    0  0.34694140115E-02 -0.34369540710E-02  0.25375879497E-03  0.17130000007E+03  0.17130000000E+03 0.  1.
      622    1    1    2    0    0 -0.18157425413E-02  0.19251038369E-02  0.39471249974E+01  0.39473285584E+01  0.40000000000E-01 0.  1.
</event>
<event>
 5   0  0.6200596E+07  0.9118800E+02  0.7818608E-02  0.1180000E+00
       11   -1    0    0    0    0  0.00000000000E+00  0.00000000000E+00  0.39999999673E+01  0.40000000000E+01  0.51109989000E-03 0.  1.
     -623   -1    0    0    0    0  0.00000000000E+00  0.00000000000E+00  0.12525980253E-10  0.17130000000E+03  0.17130000000E+03 0. -1.
       11    1    1    2    0    0  0.40801198186E-02 -0.11827856084E-01  0.66497213001E+00  0.66509002434E+00  0.51109989000E-03 0.  1.
     -623    1    1    2    0    0 -0.17828892942E-02 -0.79590335700E-03  0.38245407988E-03  0.17130000001E+03  0.17130000000E+03 0. -1.
      622    1    1    2    0    0 -0.22972305244E-02  0.12623759441E-01  0.33346453833E+01  0.33349099641E+01  0.40000000000E-01 0.  1.
</event>
<event>
 5   0  0.6200596E+07  0.9118800E+02  0.7818608E-02  0.1180000E+00
       11   -1    0    0    0    0  0.00000000000E+00  0.00000000000E+00  0.39999999673E+01  0.40000000000E+01  0.51109989000E-03 0. -1.
     -623   -1    0    0    0    0  0.00000000000E+00  0.00000000000E+00  0.12525980253E-10  0.17130000000E+03  0.17130000000E+03 0.  1.
       11    1    1    2    0    0 -0.36952122875E-01 -0.20808333958E-03  0.24488466575E+01  0.24491255002E+01  0.51109989000E-03 0. -1.
     -623    1    1    2    0    0  0.45951024451E-01  0.75889845456E-02  0.84475614391E-03  0.17130000633E+03  0.17130000000E+03 0.  1.
      622    1    1    2    0    0 -0.89989015752E-02 -0.73809012061E-02  0.15503085537E+01  0.15508681664E+01  0.40000000000E-01 0. -1.
</event>
<event>
 5   0  0.6200596E+07  0.9118800E+02  0.7818608E-02  0.1180000E+00
       11   -1    0    0    0    0  0.00000000000E+00  0.00000000000E+00  0.39999999673E+01  0.40000000000E+01  0.51109989000E-03 0. -1.
     -623   -1    0    0    0    0  0.00000000000E+00  0.00000000000E+00  0.12525980253E-10  0.17130000000E+03  0.17130000000E+03 0. -1.
       11    1    1    2    0    0  0.20663702980E-03  0.48539217792E-03  0.13879078150E-01  0.13898501237E-01  0.51109989000E-03 0. -1.
     -623    1    1    2    0    0 -0.74288105482E-03  0.17718037641E-03  0.22018583243E-03  0.17130000000E+03  0.17130000000E+03 0. -1.
      622    1    1    2    0    0  0.53624402503E-03 -0.66257255433E-03  0.39859007034E+01  0.39861014969E+01  0.40000000000E-01 0. -1.
</event>
<event>
 5   0  0.6200596E+07  0.9118800E+02  0.7818608E-02  0.1180000E+00
       11   -1    0    0    0    0  0.00000000000E+00  0.00000000000E+00  0.39999999673E+01  0.40000000000E+01  0.51109989000E-03 0.  1.
     -623   -1    0    0    0    0  0.00000000000E+00  0.00000000000E+00  0.12525980253E-10  0.17130000000E+03  0.17130000000E+03 0.  1.
       11    1    1    2    0    0 -0.14386455046E+00  0.91571053402E-01  0.10416664344E+01  0.10555337458E+01  0.51109989000E-03 0.  1.
     -623    1    1    2    0    0 -0.26780165066E-01 -0.17810109773E-01  0.20018274428E-01  0.17130000419E+03  0.17130000000E+03 0.  1.
      622    1    1    2    0    0  0.17064471552E+00 -0.73760943629E-01  0.29383152585E+01  0.29444620653E+01  0.40000000000E-01 0.  1.
</event>
<event>
 5   0  0.6200596E+07  0.9118800E+02  0.7818608E-02  0.1180000E+00
       11   -1    0    0    0    0  0.00000000000E+00  0.00000000000E+00  0.39999999673E+01  0.40000000000E+01  0.51109989000E-03 0. -1.
     -623   -1    0    0    0    0  0.00000000000E+00  0.00000000000E+00  0.12525980253E-10  0.17130000000E+03  0.17130000000E+03 0.  1.
       11    1    1    2    0    0  0.17465637461E-02  0.33716400607E-02  0.13014591279E+00  0.13020229752E+00  0.51109989000E-03 0. -1.
     -623    1    1    2    0    0  0.20210487455E-03 -0.14688037586E-03  0.26492150211E-03  0.17130000000E+03  0.17130000000E+03 0.  1.
      622    1    1    2    0    0 -0.19486686207E-02 -0.32247596848E-02  0.38695891331E+01  0.38697977021E+01  0.40000000000E-01 0. -1.
</event>
<event>
 5   0  0.6200596E+07  0.9118800E+02  0.7818608E-02  0.1180000E+00
       11   -1    0    0    0    0  0.00000000000E+00  0.00000000000E+00  0.39999999673E+01  0.40000000000E+01  0.51109989000E-03 0.  1.
     -623   -1    0    0    0    0  0.00000000000E+00  0.00000000000E+00  0.12525980253E-10  0.17130000000E+03  0.17130000000E+03 0. -1.
       11    1    1    2    0    0 -0.11735344590E-02 -0.21878428619E-02  0.10396031286E-01  0.10700585337E-01  0.51109989000E-03 0.  1.
     -623    1    1    2    0    0  0.87773110361E-03  0.47854934326E-03  0.50544375439E-03  0.17130000000E+03  0.17130000000E+03 0. -1.
      622    1    1    2    0    0  0.29580335538E-03  0.17092935187E-02  0.39890984923E+01  0.39892994110E+01  0.40000000000E-01 0.  1.
</event>
<event>
 5   0  0.6200596E+07  0.9118800E+02  0.7818608E-02  0.1180000E+00
       11   -1    0    0    0    0  0.00000000000E+00  0.00000000000E+00  0.39999999673E+01  0.40000000000E+01  0.51109989000E-03 0. -1.
     -623   -1    0    0    0    0  0.00000000000E+00  0.00000000000E+00  0.12525980253E-10  0.17130000000E+03  0.17130000000E+03 0.  1.
       11    1    1    2    0    0  0.51138297843E-02 -0.67825253031E-02  0.14088054739E-01  0.16458688059E-01  0.51109989000E-03 0. -1.
     -623    1    1    2    0    0  0.11581487886E-02  0.23384114957E-02  0.25788882468E-02  0.17130000004E+03  0.17130000000E+03 0.  1.
      622    1    1    2    0    0 -0.62719785729E-02  0.44441138074E-02  0.39833330244E+01  0.39835412727E+01  0.40000000000E-01 0. -1.
</event>
<event>
 5   0  0.6200596E+07  0.9118800E+02  0.7818608E-02  0.1180000E+00
       11   -1    0    0    0    0  0.00000000000E+00  0.00000000000E+00  0.39999999673E+01  0.40000000000E+01  0.51109989000E-03 0.  1.
     -623   -1    0    0    0    0  0.00000000000E+00  0.00000000000E+00  0.12525980253E-10  0.17130000000E+03  0.17130000000E+03 0. -1.
       11    1    1    2    0    0  0.65036501477E-02 -0.14920480290E-02  0.26363068248E+01  0.26363153186E+01  0.51109989000E-03 0.  1.
     -623    1    1    2    0    0 -0.34225592927E-02 -0.82204351038E-03  0.60071704811E-03  0.17130000004E+03  0.17130000000E+03 0. -1.
      622    1    1    2    0    0 -0.30810908550E-02  0.23140915394E-02  0.13630924255E+01  0.13636846442E+01  0.40000000000E-01 0. -1.
</event>
<event>
 5   0  0.6200596E+07  0.9118800E+02  0.7818608E-02  0.1180000E+00
       11   -1    0    0    0    0  0.00000000000E+00  0.00000000000E+00  0.39999999673E+01  0.40000000000E+01  0.51109989000E-03 0.  1.
     -623   -1    0    0    0    0  0.00000000000E+00  0.00000000000E+00  0.12525980253E-10  0.17130000000E+03  0.17130000000E+03 0. -1.
       11    1    1    2    0    0 -0.20767712944E-01 -0.66693925783E-02  0.64116081449E+00  0.64153193993E+00  0.51109989000E-03 0.  1.
     -623    1    1    2    0    0 -0.71324083075E-02 -0.45471345197E-03  0.73291141868E-03  0.17130000015E+03  0.17130000000E+03 0. -1.
      622    1    1    2    0    0  0.27900121252E-01  0.71241060303E-02  0.33581062415E+01  0.33584679094E+01  0.40000000000E-01 0.  1.
</event>
<event>
 5   0  0.6200596E+07  0.9118800E+02  0.7818608E-02  0.1180000E+00
       11   -1    0    0    0    0  0.00000000000E+00  0.00000000000E+00  0.39999999673E+01  0.40000000000E+01  0.51109989000E-03 0. -1.
     -623   -1    0    0    0    0  0.00000000000E+00  0.00000000000E+00  0.12525980253E-10  0.17130000000E+03  0.17130000000E+03 0. -1.
       11    1    1    2    0    0 -0.20390011349E-01  0.10978602048E-01  0.10406881861E+01  0.10409459372E+01  0.51109989000E-03 0. -1.
     -623    1    1    2    0    0  0.13180078237E-01  0.14066072647E-01  0.64395569708E-03  0.17130000109E+03  0.17130000000E+03 0. -1.
      622    1    1    2    0    0  0.72099331129E-02 -0.25044674695E-01  0.29586678255E+01  0.29590529770E+01  0.40000000000E-01 0. -1.
</event>
<event>
 5   0  0.6200596E+07  0.9118800E+02  0.7818608E-02  0.1180000E+00
       11   -1    0    0    0    0  0.00000000000E+00  0.00000000000E+00  0.39999999673E+01  0.40000000000E+01  0.51109989000E-03 0.  1.
     -623   -1    0    0    0    0  0.00000000000E+00  0.00000000000E+00  0.12525980253E-10  0.17130000000E+03  0.17130000000E+03 0. -1.
       11    1    1    2    0    0 -0.47423349477E-02 -0.10312856174E-02  0.35724611976E-01  0.36056378254E-01  0.51109989000E-03 0.  1.
     -623    1    1    2    0    0  0.69760882483E-03 -0.41724563853E-03  0.53588912284E-03  0.17130000000E+03  0.17130000000E+03 0. -1.
      622    1    1    2    0    0  0.40447261229E-02  0.14485312559E-02  0.39637394663E+01  0.39639436190E+01  0.40000000000E-01 0.  1.
</event>
<event>
 5   0  0.6200596E+07  0.9118800E+02  0.7818608E-02  0.1180000E+00
       11   -1    0    0    0    0  0.00000000000E+00  0.00000000000E+00  0.39999999673E+01  0.40000000000E+01  0.51109989000E-03 0. -1.
     -623   -1    0    0    0    0  0.00000000000E+00  0.00000000000E+00  0.12525980253E-10  0.17130000000E+03  0.17130000000E+03 0. -1.
       11    1    1    2    0    0  0.11627374211E-01  0.10983320220E-01  0.26915975798E+01  0.26916451516E+01  0.51109989000E-03 0. -1.
     -623    1    1    2    0    0 -0.15274920252E-02  0.14526741982E-02  0.75728680837E-03  0.17130000001E+03  0.17130000000E+03 0. -1.
      622    1    1    2    0    0 -0.10099882186E-01 -0.12435994418E-01  0.13076451008E+01  0.13083548338E+01  0.40000000000E-01 0.  1.
</event>
<event>
 5   0  0.6200596E+07  0.9118800E+02  0.7818608E-02  0.1180000E+00
       11   -1    0    0    0    0  0.00000000000E+00  0.00000000000E+00  0.39999999673E+01  0.40000000000E+01  0.51109989000E-03 0. -1.
     -623   -1    0    0    0    0  0.00000000000E+00  0.00000000000E+00  0.12525980253E-10  0.17130000000E+03  0.17130000000E+03 0.  1.
       11    1    1    2    0    0 -0.14781300946E-03 -0.19661316170E-02  0.33107397880E-01  0.33169994550E-01  0.51109989000E-03 0. -1.
     -623    1    1    2    0    0  0.34072851935E-03  0.18364452230E-03  0.26464735608E-03  0.17130000000E+03  0.17130000000E+03 0.  1.
      622    1    1    2    0    0 -0.19291550989E-03  0.17824870947E-02  0.39666279221E+01  0.39668300048E+01  0.40000000000E-01 0. -1.
</event>
<event>
 5   0  0.6200596E+07  0.9118800E+02  0.7818608E-02  0.1180000E+00
       11   -1    0    0    0    0  0.00000000000E+00  0.00000000000E+00  0.39999999673E+01  0.40000000000E+01  0.51109989000E-03 0. -1.
     -623   -1    0    0    0    0  0.00000000000E+00  0.00000000000E+00  0.12525980253E-10  0.17130000000E+03  0.17130000000E+03 0.  1.
       11    1    1    2    0    0  0.81983005421E-04  0.90832614165E-02  0.91772575072E+00  0.91777084673E+00  0.51109989000E-03 0. -1.
     -623    1    1    2    0    0 -0.49474523668E-02  0.66855934189E-02  0.34901040842E-03  0.17130000020E+03  0.17130000000E+03 0.  1.
      622    1    1    2    0    0  0.48654693613E-02 -0.15768854835E-01  0.30819252062E+01  0.30822289510E+01  0.40000000000E-01 0. -1.
</event>
<event>
 5   0  0.6200596E+07  0.9118800E+02  0.7818608E-02  0.1180000E+00
       11   -1    0    0    0    0  0.00000000000E+00  0.00000000000E+00  0.39999999673E+01  0.40000000000E+01  0.51109989000E-03 0. -1.
     -623   -1    0    0    0    0  0.00000000000E+00  0.00000000000E+00  0.12525980253E-10  0.17130000000E+03  0.17130000000E+03 0. -1.
       11    1    1    2    0    0 -0.32583298563E-02  0.17936391586E-02  0.11827421815E+01  0.11827481401E+01  0.51109989000E-03 0. -1.
     -623    1    1    2    0    0  0.91395673736E-02 -0.26261183537E-02  0.29643161216E-03  0.17130000026E+03  0.17130000000E+03 0. -1.
      622    1    1    2    0    0 -0.58812375173E-02  0.83247919510E-03  0.28169613543E+01  0.28172515957E+01  0.40000000000E-01 0. -1.
</event>
<event>
 5   0  0.6200596E+07  0.9118800E+02  0.7818608E-02  0.1180000E+00
       11   -1    0    0    0    0  0.00000000000E+00  0.00000000000E+00  0.39999999673E+01  0.40000000000E+01  0.51109989000E-03 0.  1.
     -623   -1    0    0    0    0  0.00000000000E+00  0.00000000000E+00  0.12525980253E-10  0.17130000000E+03  0.17130000000E+03 0.  1.
       11    1    1    2    0    0 -0.25823189571E-04 -0.20109131573E-02  0.30930630165E-01  0.31000153913E-01  0.51109989000E-03 0. -1.
     -623    1    1    2    0    0 -0.69830836225E-03 -0.94864087601E-03  0.27223214526E-03  0.17130000000E+03  0.17130000000E+03 0.  1.
      622    1    1    2    0    0  0.72413155182E-03  0.29595540333E-02  0.39687971050E+01  0.39689998418E+01  0.40000000000E-01 0.  1.
</event>
<event>
 5   0  0.6200596E+07  0.9118800E+02  0.7818608E-02  0.1180000E+00
       11   -1    0    0    0    0  0.00000000000E+00  0.00000000000E+00  0.39999999673E+01  0.40000000000E+01  0.51109989000E-03 0. -1.
     -623   -1    0    0    0    0  0.00000000000E+00  0.00000000000E+00  0.12525980253E-10  0.17130000000E+03  0.17130000000E+03 0. -1.
       11    1    1    2    0    0  0.25252693108E-02  0.14477413112E-02  0.12321400263E+00  0.12324944059E+00  0.51109989000E-03 0. -1.
     -623    1    1    2    0    0 -0.94395816840E-02 -0.29599705179E-02  0.24851630107E-03  0.17130000029E+03  0.17130000000E+03 0. -1.
      622    1    1    2    0    0  0.69143123732E-02  0.15122292068E-02  0.38765374484E+01  0.38767502736E+01  0.40000000000E-01 0. -1.
</event>
<event>
 5   0  0.6200596E+07  0.9118800E+02  0.7818608E-02  0.1180000E+00
       11   -1    0    0    0    0  0.00000000000E+00  0.00000000000E+00  0.39999999673E+01  0.40000000000E+01  0.51109989000E-03 0.  1.
     -623   -1    0    0    0    0  0.00000000000E+00  0.00000000000E+00  0.12525980253E-10  0.17130000000E+03  0.17130000000E+03 0.  1.
       11    1    1    2    0    0 -0.55086833776E-04 -0.13562973160E-02  0.71512496621E-02  0.72968601833E-02  0.51109989000E-03 0.  1.
     -623    1    1    2    0    0  0.14077786784E-03  0.51499857949E-04  0.34616296534E-03  0.17130000000E+03  0.17130000000E+03 0.  1.
      622    1    1    2    0    0 -0.85691034064E-04  0.13047974581E-02  0.39925025547E+01  0.39927031394E+01  0.40000000000E-01 0.  1.
</event>
<event>
 5   0  0.6200596E+07  0.9118800E+02  0.7818608E-02  0.1180000E+00
       11   -1    0    0    0    0  0.00000000000E+00  0.00000000000E+00  0.39999999673E+01  0.40000000000E+01  0.51109989000E-03 0.  1.
     -623   -1    0    0    0    0  0.00000000000E+00  0.00000000000E+00  0.12525980253E-10  0.17130000000E+03  0.17130000000E+03 0. -1.
       11    1    1    2    0    0  0.23129914898E-02  0.46804184658E-02  0.40592175046E-01  0.40929721999E-01  0.51109989000E-03 0.  1.
     -623    1    1    2    0    0  0.14770012883E-02  0.30649977262E-02  0.54901280050E-03  0.17130000003E+03  0.17130000000E+03 0. -1.
      622    1    1    2    0    0 -0.37899927781E-02 -0.77454161920E-02  0.39588587795E+01  0.39590702433E+01  0.40000000000E-01 0.  1.
</event>
<event>
 5   0  0.6200596E+07  0.9118800E+02  0.7818608E-02  0.1180000E+00
       11   -1    0    0    0    0  0.00000000000E+00  0.00000000000E+00  0.39999999673E+01  0.40000000000E+01  0.51109989000E-03 0. -1.
     -623   -1    0    0    0    0  0.00000000000E+00  0.00000000000E+00  0.12525980253E-10  0.17130000000E+03  0.17130000000E+03 0.  1.
       11    1    1    2    0    0  0.85077091272E-02 -0.57212138449E-01  0.11946265071E+01  0.11960260710E+01  0.51109989000E-03 0. -1.
     -623    1    1    2    0    0 -0.68728533129E-03  0.39578589923E-02  0.22016364969E-02  0.17130000006E+03  0.17130000000E+03 0.  1.
      622    1    1    2    0    0 -0.78204237959E-02  0.53254279457E-01  0.28031718238E+01  0.28039738678E+01  0.40000000000E-01 0.  0.
</event>
<event>
 5   0  0.6200596E+07  0.9118800E+02  0.7818608E-02  0.1180000E+00
       11   -1    0    0    0    0  0.00000000000E+00  0.00000000000E+00  0.39999999673E+01  0.40000000000E+01  0.51109989000E-03 0.  1.
     -623   -1    0    0    0    0  0.00000000000E+00  0.00000000000E+00  0.12525980253E-10  0.17130000000E+03  0.17130000000E+03 0.  1.
       11    1    1    2    0    0  0.28884808326E-03 -0.14380309378E-02  0.74211190356E-02  0.75819256301E-02  0.51109989000E-03 0.  1.
     -623    1    1    2    0    0 -0.56225691360E-03 -0.35716840869E-03  0.36157346631E-03  0.17130000000E+03  0.17130000000E+03 0.  1.
      622    1    1    2    0    0  0.27340883034E-03  0.17951993465E-02  0.39922172749E+01  0.39924180727E+01  0.40000000000E-01 0.  1.
</event>
<event>
 5   0  0.6200596E+07  0.9118800E+02  0.7818608E-02  0.1180000E+00
       11   -1    0    0    0    0  0.00000000000E+00  0.00000000000E+00  0.39999999673E+01  0.40000000000E+01  0.51109989000E-03 0. -1.
     -623   -1    0    0    0    0  0.00000000000E+00  0.00000000000E+00  0.12525980253E-10  0.17130000000E+03  0.17130000000E+03 0. -1.
       11    1    1    2    0    0  0.53897646421E-03 -0.33989266533E-03  0.67646669922E-02  0.68138069108E-02  0.51109989000E-03 0. -1.
     -623    1    1    2    0    0  0.14984790490E-03  0.22770843755E-03  0.24951496458E-03  0.17130000000E+03  0.17130000000E+03 0. -1.
      622    1    1    2    0    0 -0.68882436911E-03  0.11218422778E-03  0.39929857854E+01  0.39931861927E+01  0.40000000000E-01 0. -1.
</event>
<event>
 5   0  0.6200596E+07  0.9118800E+02  0.7818608E-02  0.1180000E+00
       11   -1    0    0    0    0  0.00000000000E+00  0.00000000000E+00  0.39999999673E+01  0.40000000000E+01  0.51109989000E-03 0. -1.
     -623   -1    0    0    0    0  0.00000000000E+00  0.00000000000E+00  0.12525980253E-10  0.17130000000E+03  0.17130000000E+03 0.  1.
       11    1    1    2    0    0 -0.34543138934E-02  0.20528412058E-01  0.16707159891E+01  0.16708457516E+01  0.51109989000E-03 0. -1.
     -623    1    1    2    0    0  0.94653646019E-02 -0.98150475209E-02  0.50617162692E-03  0.17130000054E+03  0.17130000000E+03 0.  1.
      622    1    1    2    0    0 -0.60110507085E-02 -0.10713364537E-01  0.23287778066E+01  0.23291537050E+01  0.40000000000E-01 0.  0.
</event>
<event>
 5   0  0.6200596E+07  0.9118800E+02  0.7818608E-02  0.1180000E+00
       11   -1    0    0    0    0  0.00000000000E+00  0.00000000000E+00  0.39999999673E+01  0.40000000000E+01  0.51109989000E-03 0. -1.
     -623   -1    0    0    0    0  0.00000000000E+00  0.00000000000E+00  0.12525980253E-10  0.17130000000E+03  0.17130000000E+03 0.  1.
       11    1    1    2    0    0 -0.12596459164E-02 -0.20768634900E-01  0.30704724439E+00  0.30775183901E+00  0.51109989000E-03 0. -1.
     -623    1    1    2    0    0 -0.30539732687E-02 -0.68661845988E-03  0.98613116504E-03  0.17130000003E+03  0.17130000000E+03 0.  1.
      622    1    1    2    0    0  0.43136191851E-02  0.21455253360E-01  0.36919665918E+01  0.36922481296E+01  0.40000000000E-01 0. -1.
</event>
<event>
 5   0  0.6200596E+07  0.9118800E+02  0.7818608E-02  0.1180000E+00
       11   -1    0    0    0    0  0.00000000000E+00  0.00000000000E+00  0.39999999673E+01  0.40000000000E+01  0.51109989000E-03 0.  1.
     -623   -1    0    0    0    0  0.00000000000E+00  0.00000000000E+00  0.12525980253E-10  0.17130000000E+03  0.17130000000E+03 0.  1.
       11    1    1    2    0    0 -0.13624615359E-02  0.24972496276E-03  0.10294425956E-01  0.10399763964E-01  0.51109989000E-03 0.  1.
     -623    1    1    2    0    0  0.91187436405E-03  0.27830075689E-02  0.30703524543E-03  0.17130000003E+03  0.17130000000E+03 0.  1.
      622    1    1    2    0    0  0.45058717187E-03 -0.30327325316E-02  0.39893985062E+01  0.39896002107E+01  0.40000000000E-01 0.  1.
</event>
<event>
 5   0  0.6200596E+07  0.9118800E+02  0.7818608E-02  0.1180000E+00
       11   -1    0    0    0    0  0.00000000000E+00  0.00000000000E+00  0.39999999673E+01  0.40000000000E+01  0.51109989000E-03 0.  1.
     -623   -1    0    0    0    0  0.00000000000E+00  0.00000000000E+00  0.12525980253E-10  0.17130000000E+03  0.17130000000E+03 0.  1.
       11    1    1    2    0    0  0.90163710938E-02 -0.35230182934E-01  0.27148333237E+00  0.27390860103E+00  0.51109989000E-03 0.  1.
     -623    1    1    2    0    0  0.11644543592E-01  0.85033751412E-02  0.27937218035E-02  0.17130000063E+03  0.17130000000E+03 0.  1.
      622    1    1    2    0    0 -0.20660914686E-01  0.26726807793E-01  0.37257229132E+01  0.37260907694E+01  0.40000000000E-01 0.  1.
</event>
<event>
 5   0  0.6200596E+07  0.9118800E+02  0.7818608E-02  0.1180000E+00
       11   -1    0    0    0    0  0.00000000000E+00  0.00000000000E+00  0.39999999673E+01  0.40000000000E+01  0.51109989000E-03 0. -1.
     -623   -1    0    0    0    0  0.00000000000E+00  0.00000000000E+00  0.12525980253E-10  0.17130000000E+03  0.17130000000E+03 0. -1.
       11    1    1    2    0    0  0.12974988280E-01 -0.48741212504E-02  0.90937048939E+00  0.90947625344E+00  0.51109989000E-03 0. -1.
     -623    1    1    2    0    0  0.30399223697E-03  0.47422376939E-03  0.39626200311E-03  0.17130000000E+03  0.17130000000E+03 0. -1.
      622    1    1    2    0    0 -0.13278980517E-01  0.43998974810E-02  0.30902332160E+01  0.30905237452E+01  0.40000000000E-01 0. -1.
</event>
<event>
 5   0  0.6200596E+07  0.9118800E+02  0.7818608E-02  0.1180000E+00
       11   -1    0    0    0    0  0.00000000000E+00  0.00000000000E+00  0.39999999673E+01  0.40000000000E+01  0.51109989000E-03 0. -1.
     -623   -1    0    0    0    0  0.00000000000E+00  0.00000000000E+00  0.12525980253E-10  0.17130000000E+03  0.17130000000E+03 0.  1.
       11    1    1    2    0    0 -0.51560638889E-02 -0.68768854735E-04  0.11210668398E+00  0.11222637630E+00  0.51109989000E-03 0. -1.
     -623    1    1    2    0    0  0.43399314669E-04  0.12170166921E-02  0.32897456297E-03  0.17130000000E+03  0.17130000000E+03 0.  1.
      622    1    1    2    0    0  0.51126645742E-02 -0.11482478374E-02  0.38875643088E+01  0.38877736191E+01  0.40000000000E-01 0. -1.
</event>
<event>
 5   0  0.6200596E+07  0.9118800E+02  0.7818608E-02  0.1180000E+00
       11   -1    0    0    0    0  0.00000000000E+00  0.00000000000E+00  0.39999999673E+01  0.40000000000E+01  0.51109989000E-03 0. -1.
     -623   -1    0    0    0    0  0.00000000000E+00  0.00000000000E+00  0.12525980253E-10  0.17130000000E+03  0.17130000000E+03 0. -1.
       11    1    1    2    0    0  0.27213322479E-02  0.11492846089E-01  0.21985126049E+00  0.22016886501E+00  0.51109989000E-03 0. -1.
     -623    1    1    2    0    0  0.51688212904E-02 -0.76309246036E-02  0.53968486445E-03  0.17130000025E+03  0.17130000000E+03 0. -1.
      622    1    1    2    0    0 -0.78901535383E-02 -0.38619214856E-02  0.37796090220E+01  0.37798308862E+01  0.40000000000E-01 0. -1.
</event>
<event>
 5   0  0.6200596E+07  0.9118800E+02  0.7818608E-02  0.1180000E+00
       11   -1    0    0    0    0  0.00000000000E+00  0.00000000000E+00  0.39999999673E+01  0.40000000000E+01  0.51109989000E-03 0.  1.
     -623   -1    0    0    0    0  0.00000000000E+00  0.00000000000E+00  0.12525980253E-10  0.17130000000E+03  0.17130000000E+03 0.  1.
       11    1    1    2    0    0  0.34646238902E-02 -0.35308733775E-02  0.11071204773E+01  0.11071316467E+01  0.51109989000E-03 0.  1.
     -623    1    1    2    0    0  0.10837560903E-01  0.16034812053E-01  0.35117027363E-03  0.17130000109E+03  0.17130000000E+03 0.  1.
      622    1    1    2    0    0 -0.14302184793E-01 -0.12503938675E-01  0.28925283198E+01  0.28928672596E+01  0.40000000000E-01 0.  1.
</event>
<event>
 5   0  0.6200596E+07  0.9118800E+02  0.7818608E-02  0.1180000E+00
       11   -1    0    0    0    0  0.00000000000E+00  0.00000000000E+00  0.39999999673E+01  0.40000000000E+01  0.51109989000E-03 0.  1.
     -623   -1    0    0    0    0  0.00000000000E+00  0.00000000000E+00  0.12525980253E-10  0.17130000000E+03  0.17130000000E+03 0.  1.
       11    1    1    2    0    0  0.16169449331E-02 -0.59141106710E-02  0.40645459250E+00  0.40650115399E+00  0.51109989000E-03 0.  1.
     -623    1    1    2    0    0  0.20335972496E-02  0.51175921408E-02  0.27119138466E-03  0.17130000009E+03  0.17130000000E+03 0.  1.
      622    1    1    2    0    0 -0.36505421827E-02  0.79651853023E-03  0.35932741835E+01  0.35934987573E+01  0.40000000000E-01 0.  1.
</event>
<event>
 5   0  0.6200596E+07  0.9118800E+02  0.7818608E-02  0.1180000E+00
       11   -1    0    0    0    0  0.00000000000E+00  0.00000000000E+00  0.39999999673E+01  0.40000000000E+01  0.51109989000E-03 0.  1.
     -623   -1    0    0    0    0  0.00000000000E+00  0.00000000000E+00  0.12525980253E-10  0.17130000000E+03  0.17130000000E+03 0.  1.
       11    1    1    2    0    0  0.34061150310E-01  0.48640268967E-02  0.15550435865E+01  0.15554242630E+01  0.51109989000E-03 0.  1.
     -623    1    1    2    0    0 -0.17537584390E-02 -0.12759690364E-02  0.92409526958E-03  0.17130000002E+03  0.17130000000E+03 0.  1.
      622    1    1    2    0    0 -0.32307391871E-01 -0.35880578603E-02  0.24440322856E+01  0.24445757208E+01  0.40000000000E-01 0.  0.
</event>
<event>
 5   0  0.6200596E+07  0.9118800E+02  0.7818608E-02  0.1180000E+00
       11   -1    0    0    0    0  0.00000000000E+00  0.00000000000E+00  0.39999999673E+01  0.40000000000E+01  0.51109989000E-03 0.  1.
     -623   -1    0    0    0    0  0.00000000000E+00  0.00000000000E+00  0.12525980253E-10  0.17130000000E+03  0.17130000000E+03 0. -1.
       11    1    1    2    0    0 -0.22736888320E-02  0.19186883680E-02  0.35851490349E-02  0.46867410520E-02  0.51109989000E-03 0.  1.
     -623    1    1    2    0    0  0.29243716671E-02 -0.45481924106E-02  0.13028076392E-02  0.17130000009E+03  0.17130000000E+03 0. -1.
      622    1    1    2    0    0 -0.65068283506E-03  0.26295040426E-02  0.39951120107E+01  0.39953131687E+01  0.40000000000E-01 0.  1.
</event>
<event>
 5   0  0.6200596E+07  0.9118800E+02  0.7818608E-02  0.1180000E+00
       11   -1    0    0    0    0  0.00000000000E+00  0.00000000000E+00  0.39999999673E+01  0.40000000000E+01  0.51109989000E-03 0. -1.
     -623   -1    0    0    0    0  0.00000000000E+00  0.00000000000E+00  0.12525980253E-10  0.17130000000E+03  0.17130000000E+03 0.  1.
       11    1    1    2    0    0 -0.36212399788E-02 -0.36382570550E-01  0.10811440498E+01  0.10817622301E+01  0.51109989000E-03 0. -1.
     -623    1    1    2    0    0 -0.55192375134E-01  0.55792942173E-02  0.16566910657E-02  0.17130000899E+03  0.17130000000E+03 0.  1.
      622    1    1    2    0    0  0.58813615113E-01  0.30803276332E-01  0.29171992265E+01  0.29182287796E+01  0.40000000000E-01 0. -1.
</event>
<event>
 5   0  0.6200596E+07  0.9118800E+02  0.7818608E-02  0.1180000E+00
       11   -1    0    0    0    0  0.00000000000E+00  0.00000000000E+00  0.39999999673E+01  0.40000000000E+01  0.51109989000E-03 0.  1.
     -623   -1    0    0    0    0  0.00000000000E+00  0.00000000000E+00  0.12525980253E-10  0.17130000000E+03  0.17130000000E+03 0. -1.
       11    1    1    2    0    0 -0.38059112492E-02 -0.16300091144E-01  0.86271315306E+00  0.86287567100E+00  0.51109989000E-03 0.  1.
     -623    1    1    2    0    0 -0.52455673677E-02  0.25098490091E-01  0.44482424900E-03  0.17130000192E+03  0.17130000000E+03 0. -1.
      622    1    1    2    0    0  0.90514786168E-02 -0.87983989472E-02  0.31368419901E+01  0.31371224094E+01  0.40000000000E-01 0.  1.
</event>
<event>
 5   0  0.6200596E+07  0.9118800E+02  0.7818608E-02  0.1180000E+00
       11   -1    0    0    0    0  0.00000000000E+00  0.00000000000E+00  0.39999999673E+01  0.40000000000E+01  0.51109989000E-03 0. -1.
     -623   -1    0    0    0    0  0.00000000000E+00  0.00000000000E+00  0.12525980253E-10  0.17130000000E+03  0.17130000000E+03 0. -1.
       11    1    1    2    0    0  0.41215301048E-03 -0.55825938074E-02  0.24994726165E+00  0.25001045988E+00  0.51109989000E-03 0. -1.
     -623    1    1    2    0    0 -0.84439986371E-02 -0.12208594151E-02  0.29149223602E-03  0.17130000021E+03  0.17130000000E+03 0. -1.
      622    1    1    2    0    0  0.80318456267E-02  0.68034532225E-02  0.37497612135E+01  0.37499893274E+01  0.40000000000E-01 0. -1.
</event>
<event>
 5   0  0.6200596E+07  0.9118800E+02  0.7818608E-02  0.1180000E+00
       11   -1    0    0    0    0  0.00000000000E+00  0.00000000000E+00  0.39999999673E+01  0.40000000000E+01  0.51109989000E-03 0. -1.
     -623   -1    0    0    0    0  0.00000000000E+00  0.00000000000E+00  0.12525980253E-10  0.17130000000E+03  0.17130000000E+03 0. -1.
       11    1    1    2    0    0 -0.21905996442E-01 -0.70347600779E-02  0.10812616787E+01  0.10815065601E+01  0.51109989000E-03 0. -1.
     -623    1    1    2    0    0  0.25033476224E-02 -0.36469105463E-02  0.60308647871E-03  0.17130000006E+03  0.17130000000E+03 0. -1.
      622    1    1    2    0    0  0.19402648819E-01  0.10681670624E-01  0.29181352022E+01  0.29184933817E+01  0.40000000000E-01 0. -1.
</event>
<event>
 5   0  0.6200596E+07  0.9118800E+02  0.7818608E-02  0.1180000E+00
       11   -1    0    0    0    0  0.00000000000E+00  0.00000000000E+00  0.39999999673E+01  0.40000000000E+01  0.51109989000E-03 0.  1.
     -623   -1    0    0    0    0  0.00000000000E+00  0.00000000000E+00  0.12525980253E-10  0.17130000000E+03  0.17130000000E+03 0.  1.
       11    1    1    2    0    0  0.20920052304E-02  0.73693128524E-03  0.24212586626E-01  0.24319336466E-01  0.51109989000E-03 0.  1.
     -623    1    1    2    0    0  0.12299671250E-03 -0.10094359544E-03  0.30861398235E-03  0.17130000000E+03  0.17130000000E+03 0.  1.
      622    1    1    2    0    0 -0.22150019429E-02 -0.63598768979E-03  0.39754787668E+01  0.39756806632E+01  0.40000000000E-01 0.  1.
</event>
<event>
 5   0  0.6200596E+07  0.9118800E+02  0.7818608E-02  0.1180000E+00
       11   -1    0    0    0    0  0.00000000000E+00  0.00000000000E+00  0.39999999673E+01  0.40000000000E+01  0.51109989000E-03 0.  1.
     -623   -1    0    0    0    0  0.00000000000E+00  0.00000000000E+00  0.12525980253E-10  0.17130000000E+03  0.17130000000E+03 0. -1.
       11    1    1    2    0    0  0.36251004545E-02  0.10350809442E-01  0.74594405003E+00  0.74602484383E+00  0.51109989000E-03 0.  1.
     -623    1    1    2    0    0 -0.71457642120E-03  0.84630575764E-03  0.34719575388E-03  0.17130000000E+03  0.17130000000E+03 0. -1.
      622    1    1    2    0    0 -0.29105240333E-02 -0.11197115200E-01  0.32537087216E+01  0.32539751522E+01  0.40000000000E-01 0.  1.
</event>
<event>
 5   0  0.6200596E+07  0.9118800E+02  0.7818608E-02  0.1180000E+00
       11   -1    0    0    0    0  0.00000000000E+00  0.00000000000E+00  0.39999999673E+01  0.40000000000E+01  0.51109989000E-03 0.  1.
     -623   -1    0    0    0    0  0.00000000000E+00  0.00000000000E+00  0.12525980253E-10  0.17130000000E+03  0.17130000000E+03 0. -1.
       11    1    1    2    0    0  0.49616576576E-02 -0.81423753728E-02  0.17965970671E+00  0.17991327844E+00  0.51109989000E-03 0.  1.
     -623    1    1    2    0    0 -0.56251688357E-02 -0.17528527748E-02  0.47594038632E-03  0.17130000010E+03  0.17130000000E+03 0. -1.
      622    1    1    2    0    0  0.66351117813E-03  0.98952281475E-02  0.38198643203E+01  0.38200866196E+01  0.40000000000E-01 0.  1.
</event>
<event>
 5   0  0.6200596E+07  0.9118800E+02  0.7818608E-02  0.1180000E+00
       11   -1    0    0    0    0  0.00000000000E+00  0.00000000000E+00  0.39999999673E+01  0.40000000000E+01  0.51109989000E-03 0. -1.
     -623   -1    0    0    0    0  0.00000000000E+00  0.00000000000E+00  0.12525980253E-10  0.17130000000E+03  0.17130000000E+03 0.  1.
       11    1    1    2    0    0 -0.76098242616E-03  0.67267011430E-02  0.98364979371E+00  0.98367322089E+00  0.51109989000E-03 0. -1.
     -623    1    1    2    0    0 -0.42043124609E-02  0.58612117028E-02  0.31913754834E-03  0.17130000015E+03  0.17130000000E+03 0.  1.
      622    1    1    2    0    0  0.49652948870E-02 -0.12587912846E-01  0.30160310361E+01  0.30163266269E+01  0.40000000000E-01 0.  0.
</event>
<event>
 5   0  0.6200596E+07  0.9118800E+02  0.7818608E-02  0.1180000E+00
       11   -1    0    0    0    0  0.00000000000E+00  0.00000000000E+00  0.39999999673E+01  0.40000000000E+01  0.51109989000E-03 0.  1.
     -623   -1    0    0    0    0  0.00000000000E+00  0.00000000000E+00  0.12525980253E-10  0.17130000000E+03  0.17130000000E+03 0. -1.
       11    1    1    2    0    0  0.61128901774E-02  0.13315799349E-02  0.29491622206E-01  0.30152239267E-01  0.51109989000E-03 0.  1.
     -623    1    1    2    0    0 -0.13202411447E-02 -0.37184703167E-02  0.86576697882E-03  0.17130000005E+03  0.17130000000E+03 0. -1.
      622    1    1    2    0    0 -0.47926490327E-02  0.23868903818E-02  0.39696425782E+01  0.39698477131E+01  0.40000000000E-01 0.  1.
</event>
<event>
 5   0  0.6200596E+07  0.9118800E+02  0.7818608E-02  0.1180000E+00
       11   -1    0    0    0    0  0.00000000000E+00  0.00000000000E+00  0.39999999673E+01  0.40000000000E+01  0.51109989000E-03 0.  1.
     -623   -1    0    0    0    0  0.00000000000E+00  0.00000000000E+00  0.12525980253E-10  0.17130000000E+03  0.17130000000E+03 0. -1.
       11    1    1    2    0    0  0.93614691809E-03 -0.13095449030E-01  0.92425466358E-01  0.93354674272E-01  0.51109989000E-03 0.  1.
     -623    1    1    2    0    0  0.35641445574E-02  0.18683388622E-01  0.11416085682E-02  0.17130000106E+03  0.17130000000E+03 0. -1.
      622    1    1    2    0    0 -0.45002914755E-02 -0.55879395916E-02  0.39064328924E+01  0.39066442660E+01  0.40000000000E-01 0.  1.
</event>
<event>
 5   0  0.6200596E+07  0.9118800E+02  0.7818608E-02  0.1180000E+00
       11   -1    0    0    0    0  0.00000000000E+00  0.00000000000E+00  0.39999999673E+01  0.40000000000E+01  0.51109989000E-03 0. -1.
     -623   -1    0    0    0    0  0.00000000000E+00  0.00000000000E+00  0.12525980253E-10  0.17130000000E+03  0.17130000000E+03 0. -1.
       11    1    1    2    0    0 -0.22418491361E-02 -0.12862083221E-01  0.46880684985E+00  0.46898889407E+00  0.51109989000E-03 0. -1.
     -623    1    1    2    0    0  0.87323715999E-02  0.26333918081E-02  0.42960820741E-03  0.17130000024E+03  0.17130000000E+03 0. -1.
      622    1    1    2    0    0 -0.64905224639E-02  0.10228691413E-01  0.35307635093E+01  0.35310108626E+01  0.40000000000E-01 0. -1.
</event>
<event>
 5   0  0.6200596E+07  0.9118800E+02  0.7818608E-02  0.1180000E+00
       11   -1    0    0    0    0  0.00000000000E+00  0.00000000000E+00  0.39999999673E+01  0.40000000000E+01  0.51109989000E-03 0. -1.
     -623   -1    0    0    0    0  0.00000000000E+00  0.00000000000E+00  0.12525980253E-10  0.17130000000E+03  0.17130000000E+03 0. -1.
       11    1    1    2    0    0 -0.14211995895E-02 -0.69970008844E-02  0.70723742924E-01  0.71085067795E-01  0.51109989000E-03 0. -1.
     -623    1    1    2    0    0  0.27040029395E-02 -0.21156068906E-02  0.57572919023E-03  0.17130000004E+03  0.17130000000E+03 0. -1.
      622    1    1    2    0    0 -0.12828033500E-02  0.91126077749E-02  0.39287004952E+01  0.39289148968E+01  0.40000000000E-01 0. -1.
</event>
<event>
 5   0  0.6200596E+07  0.9118800E+02  0.7818608E-02  0.1180000E+00
       11   -1    0    0    0    0  0.00000000000E+00  0.00000000000E+00  0.39999999673E+01  0.40000000000E+01  0.51109989000E-03 0. -1.
     -623   -1    0    0    0    0  0.00000000000E+00  0.00000000000E+00  0.12525980253E-10  0.17130000000E+03  0.17130000000E+03 0.  1.
       11    1    1    2    0    0  0.96136381824E-02  0.52535067527E-02  0.53930638281E-01  0.55034501355E-01  0.51109989000E-03 0. -1.
     -623    1    1    2    0    0  0.50801122208E-03  0.27315696256E-02  0.13277205713E-02  0.17130000003E+03  0.17130000000E+03 0.  1.
      622    1    1    2    0    0 -0.10121649405E-01 -0.79850763782E-02  0.39447416085E+01  0.39449654710E+01  0.40000000000E-01 0. -1.
</event>
<event>
 5   0  0.6200596E+07  0.9118800E+02  0.7818608E-02  0.1180000E+00
       11   -1    0    0    0    0  0.00000000000E+00  0.00000000000E+00  0.39999999673E+01  0.40000000000E+01  0.51109989000E-03 0.  1.
     -623   -1    0    0    0    0  0.00000000000E+00  0.00000000000E+00  0.12525980253E-10  0.17130000000E+03  0.17130000000E+03 0. -1.
       11    1    1    2    0    0  0.75329991456E-02 -0.61587658727E-02  0.35396939937E-01  0.36713499564E-01  0.51109989000E-03 0.  1.
     -623    1    1    2    0    0 -0.22974088701E-04  0.79148440782E-02  0.15260792709E-02  0.17130000019E+03  0.17130000000E+03 0. -1.
      622    1    1    2    0    0 -0.75100250569E-02 -0.17560782055E-02  0.39630769482E+01  0.39632863108E+01  0.40000000000E-01 0.  1.
</event>
<event>
 5   0  0.6200596E+07  0.9118800E+02  0.7818608E-02  0.1180000E+00
       11   -1    0    0    0    0  0.00000000000E+00  0.00000000000E+00  0.39999999673E+01  0.40000000000E+01  0.51109989000E-03 0.  1.
     -623   -1    0    0    0    0  0.00000000000E+00  0.00000000000E+00  0.12525980253E-10  0.17130000000E+03  0.17130000000E+03 0.  1.
       11    1    1    2    0    0 -0.27490978839E-02  0.57882672391E-03  0.48119838750E-02  0.55954437151E-02  0.51109989000E-03 0.  1.
     -623    1    1    2    0    0  0.30726389136E-02 -0.29882950172E-02  0.98450868864E-03  0.17130000006E+03  0.17130000000E+03 0.  1.
      622    1    1    2    0    0 -0.32354102973E-03  0.24094682933E-02  0.39942034748E+01  0.39944044998E+01  0.40000000000E-01 0.  1.
</event>
<event>
 5   0  0.6200596E+07  0.9118800E+02  0.7818608E-02  0.1180000E+00
       11   -1    0    0    0    0  0.00000000000E+00  0.00000000000E+00  0.39999999673E+01  0.40000000000E+01  0.51109989000E-03 0. -1.
     -623   -1    0    0    0    0  0.00000000000E+00  0.00000000000E+00  0.12525980253E-10  0.17130000000E+03  0.17130000000E+03 0. -1.
       11    1    1    2    0    0  0.19407452578E-02 -0.23556581326E-02  0.17924147680E+00  0.17926818972E+00  0.51109989000E-03 0. -1.
     -623    1    1    2    0    0  0.12386245475E-02  0.82883055737E-02  0.24220428955E-03  0.17130000021E+03  0.17130000000E+03 0. -1.
      622    1    1    2    0    0 -0.31793698053E-02 -0.59326474411E-02  0.38205162863E+01  0.38207316051E+01  0.40000000000E-01 0. -1.
</event>
<event>
 5   0  0.6200596E+07  0.9118800E+02  0.7818608E-02  0.1180000E+00
       11   -1    0    0    0    0  0.00000000000E+00  0.00000000000E+00  0.39999999673E+01  0.40000000000E+01  0.51109989000E-03 0.  1.
     -623   -1    0    0    0    0  0.00000000000E+00  0.00000000000E+00  0.12525980253E-10  0.17130000000E+03  0.17130000000E+03 0.  1.
       11    1    1    2    0    0  0.19590056772E-02  0.36308225042E-02  0.91651098929E-01  0.91745330840E-01  0.51109989000E-03 0.  1.
     -623    1    1    2    0    0  0.27238604764E-02 -0.59429054593E-02  0.30251419035E-03  0.17130000013E+03  0.17130000000E+03 0.  1.
      622    1    1    2    0    0 -0.46828661536E-02  0.23120829552E-02  0.39080463542E+01  0.39082545441E+01  0.40000000000E-01 0.  1.
</event>
<event>
 5   0  0.6200596E+07  0.9118800E+02  0.7818608E-02  0.1180000E+00
       11   -1    0    0    0    0  0.00000000000E+00  0.00000000000E+00  0.39999999673E+01  0.40000000000E+01  0.51109989000E-03 0.  1.
     -623   -1    0    0    0    0  0.00000000000E+00  0.00000000000E+00  0.12525980253E-10  0.17130000000E+03  0.17130000000E+03 0.  1.
       11    1    1    2    0    0 -0.44059832105E-02 -0.12807925732E-02  0.56530059080E+00  0.56531944270E+00  0.51109989000E-03 0.  1.
     -623    1    1    2    0    0  0.30444880132E-03 -0.57097473491E-03  0.25469519462E-03  0.17130000000E+03  0.17130000000E+03 0.  1.
      622    1    1    2    0    0  0.41015344091E-02  0.18517673081E-02  0.34344446814E+01  0.34346805559E+01  0.40000000000E-01 0.  1.
</event>
<event>
 5   0  0.6200596E+07  0.9118800E+02  0.7818608E-02  0.1180000E+00
       11   -1    0    0    0    0  0.00000000000E+00  0.00000000000E+00  0.39999999673E+01  0.40000000000E+01  0.51109989000E-03 0.  1.
     -623   -1    0    0    0    0  0.00000000000E+00  0.00000000000E+00  0.12525980253E-10  0.17130000000E+03  0.17130000000E+03 0.  1.
       11    1    1    2    0    0 -0.65757519198E-04  0.46441424957E-03  0.69954925588E-02  0.70298037550E-02  0.51109989000E-03 0.  1.
     -623    1    1    2    0    0 -0.37030541583E-03  0.69742004027E-04  0.23469580909E-03  0.17130000000E+03  0.17130000000E+03 0.  1.
      622    1    1    2    0    0  0.43606293503E-03 -0.53415625360E-03  0.39927697790E+01  0.39929701957E+01  0.40000000000E-01 0.  1.
</event>
<event>
 5   0  0.6200596E+07  0.9118800E+02  0.7818608E-02  0.1180000E+00
       11   -1    0    0    0    0  0.00000000000E+00  0.00000000000E+00  0.39999999673E+01  0.40000000000E+01  0.51109989000E-03 0. -1.
     -623   -1    0    0    0    0  0.00000000000E+00  0.00000000000E+00  0.12525980253E-10  0.17130000000E+03  0.17130000000E+03 0.  1.
       11    1    1    2    0    0  0.24185009705E-03 -0.47143602387E-03  0.45223844172E-02  0.45819129646E-02  0.51109989000E-03 0. -1.
     -623    1    1    2    0    0  0.17139767286E-03 -0.26665754091E-03  0.25982032493E-03  0.17130000000E+03  0.17130000000E+03 0.  1.
      622    1    1    2    0    0 -0.41324776990E-03  0.73809356478E-03  0.39952177626E+01  0.39954180865E+01  0.40000000000E-01 0. -1.
</event>
<event>
 5   0  0.6200596E+07  0.9118800E+02  0.7818608E-02  0.1180000E+00
       11   -1    0    0    0    0  0.00000000000E+00  0.00000000000E+00  0.39999999673E+01  0.40000000000E+01  0.51109989000E-03 0. -1.
     -623   -1    0    0    0    0  0.00000000000E+00  0.00000000000E+00  0.12525980253E-10  0.17130000000E+03  0.17130000000E+03 0. -1.
       11    1    1    2    0    0  0.12662959371E-02  0.51896840791E-02  0.11822474625E+00  0.11834647512E+00  0.51109989000E-03 0. -1.
     -623    1    1    2    0    0 -0.10587190524E-01 -0.35240391200E-02  0.33971219980E-03  0.17130000036E+03  0.17130000000E+03 0. -1.
      622    1    1    2    0    0  0.93208945866E-02 -0.16656449591E-02  0.38814355089E+01  0.38816531611E+01  0.40000000000E-01 0. -1.
</event>
<event>
 5   0  0.6200596E+07  0.9118800E+02  0.7818608E-02  0.1180000E+00
       11   -1    0    0    0    0  0.00000000000E+00  0.00000000000E+00  0.39999999673E+01  0.40000000000E+01  0.51109989000E-03 0.  1.
     -623   -1    0    0    0    0  0.00000000000E+00  0.00000000000E+00  0.12525980253E-10  0.17130000000E+03  0.17130000000E+03 0.  1.
       11    1    1    2    0    0  0.71754693821E-03 -0.82435346470E-03 -0.53520421650E-03  0.13198857635E-02  0.51109989000E-03 0.  1.
     -623    1    1    2    0    0 -0.55767791624E-02  0.25388461479E-02  0.20585705445E-02  0.17130000012E+03  0.17130000000E+03 0.  1.
      622    1    1    2    0    0  0.48592322242E-02 -0.17144926832E-02  0.39984766010E+01  0.39986799923E+01  0.40000000000E-01 0.  1.
</event>
<event>
 5   0  0.6200596E+07  0.9118800E+02  0.7818608E-02  0.1180000E+00
       11   -1    0    0    0    0  0.00000000000E+00  0.00000000000E+00  0.39999999673E+01  0.40000000000E+01  0.51109989000E-03 0. -1.
     -623   -1    0    0    0    0  0.00000000000E+00  0.00000000000E+00  0.12525980253E-10  0.17130000000E+03  0.17130000000E+03 0.  1.
       11    1    1    2    0    0 -0.19248241087E-02 -0.89328317863E-03  0.34722649495E-01  0.34791184407E-01  0.51109989000E-03 0. -1.
     -623    1    1    2    0    0  0.46237095875E-02 -0.15366168183E-02  0.27199483868E-03  0.17130000007E+03  0.17130000000E+03 0.  1.
      622    1    1    2    0    0 -0.26988854788E-02  0.24298999969E-02  0.39650053230E+01  0.39652087461E+01  0.40000000000E-01 0. -1.
</event>
<event>
 5   0  0.6200596E+07  0.9118800E+02  0.7818608E-02  0.1180000E+00
       11   -1    0    0    0    0  0.00000000000E+00  0.00000000000E+00  0.39999999673E+01  0.40000000000E+01  0.51109989000E-03 0.  1.
     -623   -1    0    0    0    0  0.00000000000E+00  0.00000000000E+00  0.12525980253E-10  0.17130000000E+03  0.17130000000E+03 0.  1.
       11    1    1    2    0    0  0.33731549632E-02  0.79997925645E-02  0.63260673271E-01  0.63855687765E-01  0.51109989000E-03 0.  1.
     -623    1    1    2    0    0 -0.56214833328E-02 -0.16537551175E-02  0.80409191185E-03  0.17130000010E+03  0.17130000000E+03 0.  1.
      622    1    1    2    0    0  0.22483283696E-02 -0.63460374470E-02  0.39359352022E+01  0.39361442101E+01  0.40000000000E-01 0.  1.
</event>
<event>
 5   0  0.6200596E+07  0.9118800E+02  0.7818608E-02  0.1180000E+00
       11   -1    0    0    0    0  0.00000000000E+00  0.00000000000E+00  0.39999999673E+01  0.40000000000E+01  0.51109989000E-03 0. -1.
     -623   -1    0    0    0    0  0.00000000000E+00  0.00000000000E+00  0.12525980253E-10  0.17130000000E+03  0.17130000000E+03 0. -1.
       11    1    1    2    0    0 -0.13231203890E-01 -0.17936934708E-01  0.17243366232E+01  0.17244807479E+01  0.51109989000E-03 0. -1.
     -623    1    1    2    0    0 -0.34768524276E-02  0.12446789632E-01  0.56414999668E-03  0.17130000049E+03  0.17130000000E+03 0. -1.
      622    1    1    2    0    0  0.16708056317E-01  0.54901450761E-02  0.22750991941E+01  0.22755187637E+01  0.40000000000E-01 0. -1.
</event>
<event>
 5   0  0.6200596E+07  0.9118800E+02  0.7818608E-02  0.1180000E+00
       11   -1    0    0    0    0  0.00000000000E+00  0.00000000000E+00  0.39999999673E+01  0.40000000000E+01  0.51109989000E-03 0.  1.
     -623   -1    0    0    0    0  0.00000000000E+00  0.00000000000E+00  0.12525980253E-10  0.17130000000E+03  0.17130000000E+03 0.  1.
       11    1    1    2    0    0 -0.14658803525E-03 -0.69096411236E-03  0.12365175959E-02  0.15129821868E-02  0.51109989000E-03 0.  1.
     -623    1    1    2    0    0  0.61466162270E-03 -0.61775627118E-03  0.47675709879E-03  0.17130000000E+03  0.17130000000E+03 0.  1.
      622    1    1    2    0    0 -0.46807358745E-03  0.13087203835E-02  0.39982866927E+01  0.39984870149E+01  0.40000000000E-01 0.  1.
</event>
<event>
 5   0  0.6200596E+07  0.9118800E+02  0.7818608E-02  0.1180000E+00
       11   -1    0    0    0    0  0.00000000000E+00  0.00000000000E+00  0.39999999673E+01  0.40000000000E+01  0.51109989000E-03 0. -1.
     -623   -1    0    0    0    0  0.00000000000E+00  0.00000000000E+00  0.12525980253E-10  0.17130000000E+03  0.17130000000E+03 0. -1.
       11    1    1    2    0    0  0.74784378728E-03  0.87978062513E-03  0.90075493985E-02  0.90956281404E-02  0.51109989000E-03 0. -1.
     -623    1    1    2    0    0 -0.62289957886E-03 -0.13782909520E-02  0.28854696738E-03  0.17130000001E+03  0.17130000000E+03 0. -1.
      622    1    1    2    0    0 -0.12494420842E-03  0.49851032687E-03  0.39907038710E+01  0.39909043649E+01  0.40000000000E-01 0. -1.
</event>
<event>
 5   0  0.6200596E+07  0.9118800E+02  0.7818608E-02  0.1180000E+00
       11   -1    0    0    0    0  0.00000000000E+00  0.00000000000E+00  0.39999999673E+01  0.40000000000E+01  0.51109989000E-03 0.  1.
     -623   -1    0    0    0    0  0.00000000000E+00  0.00000000000E+00  0.12525980253E-10  0.17130000000E+03  0.17130000000E+03 0. -1.
       11    1    1    2    0    0  0.61632546598E-02  0.82373045310E-02  0.27911162592E+00  0.27930162878E+00  0.51109989000E-03 0.  1.
     -623    1    1    2    0    0 -0.75877966454E-02 -0.85052673171E-03  0.41276621393E-03  0.17130000017E+03  0.17130000000E+03 0. -1.
      622    1    1    2    0    0  0.14245419856E-02 -0.73867777993E-02  0.37204755752E+01  0.37206982006E+01  0.40000000000E-01 0.  1.
</event>
<event>
 5   0  0.6200596E+07  0.9118800E+02  0.7818608E-02  0.1180000E+00
       11   -1    0    0    0    0  0.00000000000E+00  0.00000000000E+00  0.39999999673E+01  0.40000000000E+01  0.51109989000E-03 0. -1.
     -623   -1    0    0    0    0  0.00000000000E+00  0.00000000000E+00  0.12525980253E-10  0.17130000000E+03  0.17130000000E+03 0. -1.
       11    1    1    2    0    0  0.51256437099E-03 -0.15062185904E-02  0.64040230897E-02  0.66184704308E-02  0.51109989000E-03 0. -1.
     -623    1    1    2    0    0  0.92567673103E-03  0.39517466714E-02  0.41580764935E-03  0.17130000005E+03  0.17130000000E+03 0. -1.
      622    1    1    2    0    0 -0.14382411020E-02 -0.24455280810E-02  0.39931801366E+01  0.39933814810E+01  0.40000000000E-01 0. -1.
</event>
<event>
 5   0  0.6200596E+07  0.9118800E+02  0.7818608E-02  0.1180000E+00
       11   -1    0    0    0    0  0.00000000000E+00  0.00000000000E+00  0.39999999673E+01  0.40000000000E+01  0.51109989000E-03 0.  1.
     -623   -1    0    0    0    0  0.00000000000E+00  0.00000000000E+00  0.12525980253E-10  0.17130000000E+03  0.17130000000E+03 0. -1.
       11    1    1    2    0    0 -0.26143033428E-02 -0.41732411502E-02  0.84380090593E-02  0.97832377799E-02  0.51109989000E-03 0.  1.
     -623    1    1    2    0    0  0.41053143106E-02  0.15024722219E-02  0.15469266907E-02  0.17130000006E+03  0.17130000000E+03 0. -1.
      622    1    1    2    0    0 -0.14910109678E-02  0.26707689283E-02  0.39900150316E+01  0.39902166995E+01  0.40000000000E-01 0.  1.
</event>
<event>
 5   0  0.6200596E+07  0.9118800E+02  0.7818608E-02  0.1180000E+00
       11   -1    0    0    0    0  0.00000000000E+00  0.00000000000E+00  0.39999999673E+01  0.40000000000E+01  0.51109989000E-03 0. -1.
     -623   -1    0    0    0    0  0.00000000000E+00  0.00000000000E+00  0.12525980253E-10  0.17130000000E+03  0.17130000000E+03 0. -1.
       11    1    1    2    0    0 -0.50354777877E-02  0.29141395743E-02  0.45518669314E-01  0.45891815446E-01  0.51109989000E-03 0. -1.
     -623    1    1    2    0    0 -0.41478582584E-03 -0.67740737821E-02  0.58121588852E-03  0.17130000014E+03  0.17130000000E+03 0. -1.
      622    1    1    2    0    0  0.54502636135E-02  0.38599342078E-02  0.39539000822E+01  0.39541080491E+01  0.40000000000E-01 0. -1.
</event>
<event>
 5   0  0.6200596E+07  0.9118800E+02  0.7818608E-02  0.1180000E+00
       11   -1    0    0    0    0  0.00000000000E+00  0.00000000000E+00  0.39999999673E+01  0.40000000000E+01  0.51109989000E-03 0. -1.
     -623   -1    0    0    0    0  0.00000000000E+00  0.00000000000E+00  0.12525980253E-10  0.17130000000E+03  0.17130000000E+03 0. -1.
       11    1    1    2    0    0 -0.69923284747E-02  0.75918068708E-02  0.19197491702E-01  0.21802135158E-01  0.51109989000E-03 0. -1.
     -623    1    1    2    0    0  0.79325534345E-02  0.14349137644E-02  0.28162774966E-02  0.17130000021E+03  0.17130000000E+03 0. -1.
      622    1    1    2    0    0 -0.94022495974E-03 -0.90267206352E-02  0.39779861982E+01  0.39781976520E+01  0.40000000000E-01 0. -1.
</event>
<event>
 5   0  0.6200596E+07  0.9118800E+02  0.7818608E-02  0.1180000E+00
       11   -1    0    0    0    0  0.00000000000E+00  0.00000000000E+00  0.39999999673E+01  0.40000000000E+01  0.51109989000E-03 0.  1.
     -623   -1    0    0    0    0  0.00000000000E+00  0.00000000000E+00  0.12525980253E-10  0.17130000000E+03  0.17130000000E+03 0.  1.
       11    1    1    2    0    0  0.10327791090E-01  0.41160843349E-02  0.71739800360E-01  0.72597972403E-01  0.51109989000E-03 0.  1.
     -623    1    1    2    0    0 -0.57984997852E-02 -0.44772181407E-02  0.10646301009E-02  0.17130000016E+03  0.17130000000E+03 0.  1.
      622    1    1    2    0    0 -0.45292913044E-02  0.36113380587E-03  0.39271955369E+01  0.39274018676E+01  0.40000000000E-01 0.  1.
</event>
<event>
 5   0  0.6200596E+07  0.9118800E+02  0.7818608E-02  0.1180000E+00
       11   -1    0    0    0    0  0.00000000000E+00  0.00000000000E+00  0.39999999673E+01  0.40000000000E+01  0.51109989000E-03 0. -1.
     -623   -1    0    0    0    0  0.00000000000E+00  0.00000000000E+00  0.12525980253E-10  0.17130000000E+03  0.17130000000E+03 0. -1.
       11    1    1    2    0    0 -0.11681517943E-02  0.51451020927E-02  0.32561390869E-01  0.32990029584E-01  0.51109989000E-03 0. -1.
     -623    1    1    2    0    0  0.11652966542E-02  0.49922755395E-02  0.64330565236E-03  0.17130000008E+03  0.17130000000E+03 0. -1.
      622    1    1    2    0    0  0.28551401782E-05 -0.10137377632E-01  0.39667952708E+01  0.39670098925E+01  0.40000000000E-01 0. -1.
</event>
<event>
 5   0  0.6200596E+07  0.9118800E+02  0.7818608E-02  0.1180000E+00
       11   -1    0    0    0    0  0.00000000000E+00  0.00000000000E+00  0.39999999673E+01  0.40000000000E+01  0.51109989000E-03 0. -1.
     -623   -1    0    0    0    0  0.00000000000E+00  0.00000000000E+00  0.12525980253E-10  0.17130000000E+03  0.17130000000E+03 0. -1.
       11    1    1    2    0    0 -0.96224185440E-02  0.89526889808E-02  0.15619080268E+01  0.15619634077E+01  0.51109989000E-03 0. -1.
     -623    1    1    2    0    0  0.11561735243E-01  0.64291748358E-02  0.43331613284E-03  0.17130000051E+03  0.17130000000E+03 0. -1.
      622    1    1    2    0    0 -0.19393166990E-02 -0.15381863817E-01  0.24376586244E+01  0.24380360809E+01  0.40000000000E-01 0. -1.
</event>
<event>
 5   0  0.6200596E+07  0.9118800E+02  0.7818608E-02  0.1180000E+00
       11   -1    0    0    0    0  0.00000000000E+00  0.00000000000E+00  0.39999999673E+01  0.40000000000E+01  0.51109989000E-03 0.  1.
     -623   -1    0    0    0    0  0.00000000000E+00  0.00000000000E+00  0.12525980253E-10  0.17130000000E+03  0.17130000000E+03 0. -1.
       11    1    1    2    0    0 -0.39203834963E-02 -0.15502971011E-03  0.26964815659E-02  0.47880764241E-02  0.51109989000E-03 0.  1.
     -623    1    1    2    0    0  0.37024868294E-02  0.21294348455E-02  0.22923693526E-02  0.17130000007E+03  0.17130000000E+03 0. -1.
      622    1    1    2    0    0  0.21789666692E-03 -0.19744051353E-02  0.39950111164E+01  0.39952118550E+01  0.40000000000E-01 0.  1.
</event>
<event>
 5   0  0.6200596E+07  0.9118800E+02  0.7818608E-02  0.1180000E+00
       11   -1    0    0    0    0  0.00000000000E+00  0.00000000000E+00  0.39999999673E+01  0.40000000000E+01  0.51109989000E-03 0.  1.
     -623   -1    0    0    0    0  0.00000000000E+00  0.00000000000E+00  0.12525980253E-10  0.17130000000E+03  0.17130000000E+03 0.  1.
       11    1    1    2    0    0 -0.95115078715E-02 -0.11564853368E-01  0.16189571211E+01  0.16190264469E+01  0.51109989000E-03 0.  1.
     -623    1    1    2    0    0 -0.20072397111E-03  0.61487438689E-04  0.45291891629E-03  0.17130000000E+03  0.17130000000E+03 0.  1.
      622    1    1    2    0    0  0.97122318426E-02  0.11503365929E-01  0.23805899273E+01  0.23809735524E+01  0.40000000000E-01 0.  1.
</event>
<event>
 5   0  0.6200596E+07  0.9118800E+02  0.7818608E-02  0.1180000E+00
       11   -1    0    0    0    0  0.00000000000E+00  0.00000000000E+00  0.39999999673E+01  0.40000000000E+01  0.51109989000E-03 0. -1.
     -623   -1    0    0    0    0  0.00000000000E+00  0.00000000000E+00  0.12525980253E-10  0.17130000000E+03  0.17130000000E+03 0.  1.
       11    1    1    2    0    0  0.59075863941E-02  0.32350506557E-02  0.34983647289E+00  0.34990167778E+00  0.51109989000E-03 0. -1.
     -623    1    1    2    0    0 -0.38138079714E-02 -0.19815797587E-01  0.32380242785E-03  0.17130000119E+03  0.17130000000E+03 0.  1.
      622    1    1    2    0    0 -0.20937784227E-02  0.16580746931E-01  0.36498396920E+01  0.36500971333E+01  0.40000000000E-01 0. -1.
</event>
<event>
 5   0  0.6200596E+07  0.9118800E+02  0.7818608E-02  0.1180000E+00
       11   -1    0    0    0    0  0.00000000000E+00  0.00000000000E+00  0.39999999673E+01  0.40000000000E+01  0.51109989000E-03 0. -1.
     -623   -1    0    0    0    0  0.00000000000E+00  0.00000000000E+00  0.12525980253E-10  0.17130000000E+03  0.17130000000E+03 0.  1.
       11    1    1    2    0    0  0.12125824311E-01 -0.12960763870E-02  0.26940150763E-01  0.29576145355E-01  0.51109989000E-03 0. -1.
     -623    1    1    2    0    0 -0.35889573565E-03  0.43740420028E-02  0.28561674705E-02  0.17130000008E+03  0.17130000000E+03 0.  1.
      622    1    1    2    0    0 -0.11766928575E-01 -0.30779656158E-02  0.39702036491E+01  0.39704237746E+01  0.40000000000E-01 0. -1.
</event>
<event>
 5   0  0.6200596E+07  0.9118800E+02  0.7818608E-02  0.1180000E+00
       11   -1    0    0    0    0  0.00000000000E+00  0.00000000000E+00  0.39999999673E+01  0.40000000000E+01  0.51109989000E-03 0. -1.
     -623   -1    0    0    0    0  0.00000000000E+00  0.00000000000E+00  0.12525980253E-10  0.17130000000E+03  0.17130000000E+03 0.  1.
       11    1    1    2    0    0 -0.67409513980E-02  0.10941057705E-01  0.53244974873E+00  0.53260505378E+00  0.51109989000E-03 0. -1.
     -623    1    1    2    0    0  0.10864733889E-02 -0.13898587717E-01  0.39244087289E-03  0.17130000057E+03  0.17130000000E+03 0.  1.
      622    1    1    2    0    0  0.56544780091E-02  0.29575300116E-02  0.34671577778E+01  0.34673943785E+01  0.40000000000E-01 0. -1.
</event>
<event>
 5   0  0.6200596E+07  0.9118800E+02  0.7818608E-02  0.1180000E+00
       11   -1    0    0    0    0  0.00000000000E+00  0.00000000000E+00  0.39999999673E+01  0.40000000000E+01  0.51109989000E-03 0. -1.
     -623   -1    0    0    0    0  0.00000000000E+00  0.00000000000E+00  0.12525980253E-10  0.17130000000E+03  0.17130000000E+03 0.  1.
       11    1    1    2    0    0 -0.11938499319E-01 -0.23447494643E-01  0.12677955979E+01  0.12680687095E+01  0.51109989000E-03 0. -1.
     -623    1    1    2    0    0 -0.28277881669E-02  0.26673635596E-02  0.68492593329E-03  0.17130000005E+03  0.17130000000E+03 0.  1.
      622    1    1    2    0    0  0.14766287486E-01  0.20780131084E-01  0.27315194435E+01  0.27319312450E+01  0.40000000000E-01 0. -1.
</event>
<event>
 5   0  0.6200596E+07  0.9118800E+02  0.7818608E-02  0.1180000E+00
       11   -1    0    0    0    0  0.00000000000E+00  0.00000000000E+00  0.39999999673E+01  0.40000000000E+01  0.51109989000E-03 0. -1.
     -623   -1    0    0    0    0  0.00000000000E+00  0.00000000000E+00  0.12525980253E-10  0.17130000000E+03  0.17130000000E+03 0.  1.
       11    1    1    2    0    0  0.20748377880E-01  0.11276965232E-01  0.27238891512E+00  0.27341113260E+00  0.51109989000E-03 0. -1.
     -623    1    1    2    0    0 -0.14350649640E-01  0.41493111953E-02  0.12749434631E-02  0.17130000066E+03  0.17130000000E+03 0.  1.
      622    1    1    2    0    0 -0.63977282401E-02 -0.15426276427E-01  0.37263361088E+01  0.37265882113E+01  0.40000000000E-01 0. -1.
</event>
<event>
 5   0  0.6200596E+07  0.9118800E+02  0.7818608E-02  0.1180000E+00
       11   -1    0    0    0    0  0.00000000000E+00  0.00000000000E+00  0.39999999673E+01  0.40000000000E+01  0.51109989000E-03 0. -1.
     -623   -1    0    0    0    0  0.00000000000E+00  0.00000000000E+00  0.12525980253E-10  0.17130000000E+03  0.17130000000E+03 0. -1.
       11    1    1    2    0    0  0.20184236827E-01 -0.37609411155E-02  0.60118699610E+00  0.60153770754E+00  0.51109989000E-03 0. -1.
     -623    1    1    2    0    0 -0.19266786438E-01 -0.19412330592E-01  0.66740912010E-03  0.17130000218E+03  0.17130000000E+03 0. -1.
      622    1    1    2    0    0 -0.91745038919E-03  0.23173271707E-01  0.33981455621E+01  0.33984601077E+01  0.40000000000E-01 0. -1.
</event>
<event>
 5   0  0.6200596E+07  0.9118800E+02  0.7818608E-02  0.1180000E+00
       11   -1    0    0    0    0  0.00000000000E+00  0.00000000000E+00  0.39999999673E+01  0.40000000000E+01  0.51109989000E-03 0. -1.
     -623   -1    0    0    0    0  0.00000000000E+00  0.00000000000E+00  0.12525980253E-10  0.17130000000E+03  0.17130000000E+03 0. -1.
       11    1    1    2    0    0  0.52237939058E-02 -0.31026393970E-02  0.78098189304E-01  0.78335833362E-01  0.51109989000E-03 0. -1.
     -623    1    1    2    0    0  0.27287601166E-05 -0.73038780958E-03  0.44697014762E-03  0.17130000000E+03  0.17130000000E+03 0. -1.
      622    1    1    2    0    0 -0.52265226659E-02  0.38330272066E-02  0.39214548079E+01  0.39216641645E+01  0.40000000000E-01 0. -1.
</event>
<event>
 5   0  0.6200596E+07  0.9118800E+02  0.7818608E-02  0.1180000E+00
       11   -1    0    0    0    0  0.00000000000E+00  0.00000000000E+00  0.39999999673E+01  0.40000000000E+01  0.51109989000E-03 0. -1.
     -623   -1    0    0    0    0  0.00000000000E+00  0.00000000000E+00  0.12525980253E-10  0.17130000000E+03  0.17130000000E+03 0. -1.
       11    1    1    2    0    0  0.10512778704E-02  0.23234824442E-02  0.90499062720E-01  0.90536430959E-01  0.51109989000E-03 0. -1.
     -623    1    1    2    0    0  0.20730944372E-03  0.11068340607E-03  0.24293338128E-03  0.17130000000E+03  0.17130000000E+03 0. -1.
      622    1    1    2    0    0 -0.12585873141E-02 -0.24341658503E-02  0.39092579713E+01  0.39094635687E+01  0.40000000000E-01 0. -1.
</event>
<event>
 5   0  0.6200596E+07  0.9118800E+02  0.7818608E-02  0.1180000E+00
       11   -1    0    0    0    0  0.00000000000E+00  0.00000000000E+00  0.39999999673E+01  0.40000000000E+01  0.51109989000E-03 0.  1.
     -623   -1    0    0    0    0  0.00000000000E+00  0.00000000000E+00  0.12525980253E-10  0.17130000000E+03  0.17130000000E+03 0. -1.
       11    1    1    2    0    0  0.24303827468E-02 -0.11616869215E-01  0.30714370843E+00  0.30737335157E+00  0.51109989000E-03 0.  1.
     -623    1    1    2    0    0  0.10464478536E-02 -0.28236958164E-02  0.47616663046E-03  0.17130000003E+03  0.17130000000E+03 0. -1.
      622    1    1    2    0    0 -0.34768306004E-02  0.14440565032E-01  0.36923800923E+01  0.36926266213E+01  0.40000000000E-01 0.  0.
</event>
<event>
 5   0  0.6200596E+07  0.9118800E+02  0.7818608E-02  0.1180000E+00
       11   -1    0    0    0    0  0.00000000000E+00  0.00000000000E+00  0.39999999673E+01  0.40000000000E+01  0.51109989000E-03 0.  1.
     -623   -1    0    0    0    0  0.00000000000E+00  0.00000000000E+00  0.12525980253E-10  0.17130000000E+03  0.17130000000E+03 0.  1.
       11    1    1    2    0    0  0.12691092344E-02 -0.69441328971E-03  0.73686591426E-01  0.73702563229E-01  0.51109989000E-03 0.  1.
     -623    1    1    2    0    0  0.81322937666E-03 -0.81110134857E-03  0.22054362113E-03  0.17130000000E+03  0.17130000000E+03 0.  1.
      622    1    1    2    0    0 -0.20823386111E-02  0.15055146383E-02  0.39260928323E+01  0.39262974328E+01  0.40000000000E-01 0.  1.
</event>
<event>
 5   0  0.6200596E+07  0.9118800E+02  0.7818608E-02  0.1180000E+00
       11   -1    0    0    0    0  0.00000000000E+00  0.00000000000E+00  0.39999999673E+01  0.40000000000E+01  0.51109989000E-03 0.  1.
     -623   -1    0    0    0    0  0.00000000000E+00  0.00000000000E+00  0.12525980253E-10  0.17130000000E+03  0.17130000000E+03 0. -1.
       11    1    1    2    0    0  0.14973160801E-02  0.45605219799E-02  0.17280544118E+01  0.17280611539E+01  0.51109989000E-03 0.  1.
     -623    1    1    2    0    0 -0.34494169668E-03 -0.14694259598E-03  0.36343970476E-03  0.17130000000E+03  0.17130000000E+03 0. -1.
      622    1    1    2    0    0 -0.11523743834E-02 -0.44135793839E-02  0.22715821159E+01  0.22719388453E+01  0.40000000000E-01 0.  1.
</event>
<event>
 5   0  0.6200596E+07  0.9118800E+02  0.7818608E-02  0.1180000E+00
       11   -1    0    0    0    0  0.00000000000E+00  0.00000000000E+00  0.39999999673E+01  0.40000000000E+01  0.51109989000E-03 0.  1.
     -623   -1    0    0    0    0  0.00000000000E+00  0.00000000000E+00  0.12525980253E-10  0.17130000000E+03  0.17130000000E+03 0.  1.
       11    1    1    2    0    0  0.12840733001E-01 -0.19586422675E-01  0.16296163152E+01  0.16297846816E+01  0.51109989000E-03 0.  1.
     -623    1    1    2    0    0 -0.25656828692E-02 -0.11445302406E-03  0.61006423528E-03  0.17130000002E+03  0.17130000000E+03 0.  1.
      622    1    1    2    0    0 -0.10275050132E-01  0.19700875699E-01  0.23697735880E+01  0.23702152981E+01  0.40000000000E-01 0.  0.
</event>
<event>
 5   0  0.6200596E+07  0.9118800E+02  0.7818608E-02  0.1180000E+00
       11   -1    0    0    0    0  0.00000000000E+00  0.00000000000E+00  0.39999999673E+01  0.40000000000E+01  0.51109989000E-03 0.  1.
     -623   -1    0    0    0    0  0.00000000000E+00  0.00000000000E+00  0.12525980253E-10  0.17130000000E+03  0.17130000000E+03 0. -1.
       11    1    1    2    0    0  0.14070357413E-02  0.26422635545E-02  0.14007726019E+00  0.14011017575E+00  0.51109989000E-03 0.  1.
     -623    1    1    2    0    0 -0.53559173766E-02 -0.17258741194E-02  0.24236975496E-03  0.17130000009E+03  0.17130000000E+03 0. -1.
      622    1    1    2    0    0  0.39488816352E-02 -0.91638943511E-03  0.38596803374E+01  0.38598897317E+01  0.40000000000E-01 0.  1.
</event>
<event>
 5   0  0.6200596E+07  0.9118800E+02  0.7818608E-02  0.1180000E+00
       11   -1    0    0    0    0  0.00000000000E+00  0.00000000000E+00  0.39999999673E+01  0.40000000000E+01  0.51109989000E-03 0.  1.
     -623   -1    0    0    0    0  0.00000000000E+00  0.00000000000E+00  0.12525980253E-10  0.17130000000E+03  0.17130000000E+03 0.  1.
       11    1    1    2    0    0 -0.14856771698E-02  0.34215855085E-03  0.33371686043E-01  0.33410401978E-01  0.51109989000E-03 0.  1.
     -623    1    1    2    0    0 -0.32608624464E-03 -0.13213052561E-02  0.24091323328E-03  0.17130000001E+03  0.17130000000E+03 0.  1.
      622    1    1    2    0    0  0.18117634144E-02  0.97914670521E-03  0.39663873681E+01  0.39665895924E+01  0.40000000000E-01 0.  1.
</event>
<event>
 5   0  0.6200596E+07  0.9118800E+02  0.7818608E-02  0.1180000E+00
       11   -1    0    0    0    0  0.00000000000E+00  0.00000000000E+00  0.39999999673E+01  0.40000000000E+01  0.51109989000E-03 0.  1.
     -623   -1    0    0    0    0  0.00000000000E+00  0.00000000000E+00  0.12525980253E-10  0.17130000000E+03  0.17130000000E+03 0. -1.
       11    1    1    2    0    0 -0.52255282943E-02  0.43694307954E-01  0.60121311310E+00  0.60282167121E+00  0.51109989000E-03 0.  1.
     -623    1    1    2    0    0  0.73957222433E-02  0.88658263540E-02  0.22517703807E-02  0.17130000040E+03  0.17130000000E+03 0. -1.
      622    1    1    2    0    0 -0.21701939490E-02 -0.52560134308E-01  0.33965350839E+01  0.33971779249E+01  0.40000000000E-01 0.  1.
</event>
<event>
 5   0  0.6200596E+07  0.9118800E+02  0.7818608E-02  0.1180000E+00
       11   -1    0    0    0    0  0.00000000000E+00  0.00000000000E+00  0.39999999673E+01  0.40000000000E+01  0.51109989000E-03 0.  1.
     -623   -1    0    0    0    0  0.00000000000E+00  0.00000000000E+00  0.12525980253E-10  0.17130000000E+03  0.17130000000E+03 0.  1.
       11    1    1    2    0    0  0.12845328428E-01 -0.45142705277E-02  0.31187067926E+00  0.31216816447E+00  0.51109989000E-03 0.  1.
     -623    1    1    2    0    0  0.12990562369E-02  0.11520733371E-01  0.54856452932E-03  0.17130000039E+03  0.17130000000E+03 0.  1.
      622    1    1    2    0    0 -0.14144384665E-01 -0.70064628429E-02  0.36875807236E+01  0.36878314423E+01  0.40000000000E-01 0.  1.
</event>
<event>
 5   0  0.6200596E+07  0.9118800E+02  0.7818608E-02  0.1180000E+00
       11   -1    0    0    0    0  0.00000000000E+00  0.00000000000E+00  0.39999999673E+01  0.40000000000E+01  0.51109989000E-03 0.  1.
     -623   -1    0    0    0    0  0.00000000000E+00  0.00000000000E+00  0.12525980253E-10  0.17130000000E+03  0.17130000000E+03 0. -1.
       11    1    1    2    0    0 -0.57724741224E-03  0.13011115608E-01  0.24677762022E+00  0.24712158425E+00  0.51109989000E-03 0.  1.
     -623    1    1    2    0    0 -0.34777740773E-02 -0.12348117637E-01  0.55983790026E-03  0.17130000048E+03  0.17130000000E+03 0. -1.
      622    1    1    2    0    0  0.40550214895E-02 -0.66299797033E-03  0.37526625092E+01  0.37528779345E+01  0.40000000000E-01 0.  1.
</event>
<event>
 5   0  0.6200596E+07  0.9118800E+02  0.7818608E-02  0.1180000E+00
       11   -1    0    0    0    0  0.00000000000E+00  0.00000000000E+00  0.39999999673E+01  0.40000000000E+01  0.51109989000E-03 0.  1.
     -623   -1    0    0    0    0  0.00000000000E+00  0.00000000000E+00  0.12525980253E-10  0.17130000000E+03  0.17130000000E+03 0.  1.
       11    1    1    2    0    0  0.11394504452E-02 -0.11035406478E-02  0.78585715364E-02  0.80333379155E-02  0.51109989000E-03 0.  1.
     -623    1    1    2    0    0 -0.17339613776E-03  0.27105729196E-02  0.37560357382E-03  0.17130000002E+03  0.17130000000E+03 0.  1.
      622    1    1    2    0    0 -0.96605430741E-03 -0.16070322718E-02  0.39917657922E+01  0.39919666401E+01  0.40000000000E-01 0.  1.
</event>
<event>
 5   0  0.6200596E+07  0.9118800E+02  0.7818608E-02  0.1180000E+00
       11   -1    0    0    0    0  0.00000000000E+00  0.00000000000E+00  0.39999999673E+01  0.40000000000E+01  0.51109989000E-03 0. -1.
     -623   -1    0    0    0    0  0.00000000000E+00  0.00000000000E+00  0.12525980253E-10  0.17130000000E+03  0.17130000000E+03 0. -1.
       11    1    1    2    0    0  0.31432144949E-02  0.20179005699E-02  0.22245162072E-01  0.22562361949E-01  0.51109989000E-03 0. -1.
     -623    1    1    2    0    0  0.11657633892E-02 -0.16268508990E-02  0.52067274453E-03  0.17130000001E+03  0.17130000000E+03 0. -1.
      622    1    1    2    0    0 -0.43089778842E-02 -0.39104967095E-03  0.39772341325E+01  0.39774376256E+01  0.40000000000E-01 0. -1.
</event>
<event>
 5   0  0.6200596E+07  0.9118800E+02  0.7818608E-02  0.1180000E+00
       11   -1    0    0    0    0  0.00000000000E+00  0.00000000000E+00  0.39999999673E+01  0.40000000000E+01  0.51109989000E-03 0.  1.
     -623   -1    0    0    0    0  0.00000000000E+00  0.00000000000E+00  0.12525980253E-10  0.17130000000E+03  0.17130000000E+03 0.  1.
       11    1    1    2    0    0  0.58570793379E-03  0.87598034456E-03  0.30591616162E+00  0.30591840343E+00  0.51109989000E-03 0.  1.
     -623    1    1    2    0    0 -0.69585308938E-04  0.38311350041E-03  0.21902936845E-03  0.17130000000E+03  0.17130000000E+03 0.  1.
      622    1    1    2    0    0 -0.51612262485E-03 -0.12590938450E-02  0.36938647764E+01  0.36940815960E+01  0.40000000000E-01 0.  1.
</event>
<event>
 5   0  0.6200596E+07  0.9118800E+02  0.7818608E-02  0.1180000E+00
       11   -1    0    0    0    0  0.00000000000E+00  0.00000000000E+00  0.39999999673E+01  0.40000000000E+01  0.51109989000E-03 0.  1.
     -623   -1    0    0    0    0  0.00000000000E+00  0.00000000000E+00  0.12525980253E-10  0.17130000000E+03  0.17130000000E+03 0.  1.
       11    1    1    2    0    0  0.17573699214E-02  0.34790565499E-02  0.11675286258E-01  0.12319322813E-01  0.51109989000E-03 0.  1.
     -623    1    1    2    0    0  0.41859372205E-03 -0.32697397839E-02  0.84525983976E-03  0.17130000003E+03  0.17130000000E+03 0.  1.
      622    1    1    2    0    0 -0.21759636435E-02 -0.20931676603E-03  0.39874794213E+01  0.39876806434E+01  0.40000000000E-01 0.  1.
</event>
<event>
 5   0  0.6200596E+07  0.9118800E+02  0.7818608E-02  0.1180000E+00
       11   -1    0    0    0    0  0.00000000000E+00  0.00000000000E+00  0.39999999673E+01  0.40000000000E+01  0.51109989000E-03 0.  1.
     -623   -1    0    0    0    0  0.00000000000E+00  0.00000000000E+00  0.12525980253E-10  0.17130000000E+03  0.17130000000E+03 0. -1.
       11    1    1    2    0    0  0.82994136996E-03 -0.78844492780E-02  0.37449223266E+00  0.37457649003E+00  0.51109989000E-03 0.  1.
     -623    1    1    2    0    0  0.32083101995E-02  0.61007663716E-02  0.30772228247E-03  0.17130000014E+03  0.17130000000E+03 0. -1.
      622    1    1    2    0    0 -0.40382515695E-02  0.17836829064E-02  0.36252000124E+01  0.36254233710E+01  0.40000000000E-01 0.  1.
</event>
<event>
 5   0  0.6200596E+07  0.9118800E+02  0.7818608E-02  0.1180000E+00
       11   -1    0    0    0    0  0.00000000000E+00  0.00000000000E+00  0.39999999673E+01  0.40000000000E+01  0.51109989000E-03 0. -1.
     -623   -1    0    0    0    0  0.00000000000E+00  0.00000000000E+00  0.12525980253E-10  0.17130000000E+03  0.17130000000E+03 0.  1.
       11    1    1    2    0    0  0.23653069730E-03 -0.17040106863E-02  0.48116740793E-01  0.48150197970E-01  0.51109989000E-03 0. -1.
     -623    1    1    2    0    0  0.31705565239E-03 -0.68091717892E-04  0.23630315782E-03  0.17130000000E+03  0.17130000000E+03 0.  1.
      622    1    1    2    0    0 -0.55358634970E-03  0.17721024042E-02  0.39516469234E+01  0.39518498016E+01  0.40000000000E-01 0. -1.
</event>
<event>
 5   0  0.6200596E+07  0.9118800E+02  0.7818608E-02  0.1180000E+00
       11   -1    0    0    0    0  0.00000000000E+00  0.00000000000E+00  0.39999999673E+01  0.40000000000E+01  0.51109989000E-03 0.  1.
     -623   -1    0    0    0    0  0.00000000000E+00  0.00000000000E+00  0.12525980253E-10  0.17130000000E+03  0.17130000000E+03 0. -1.
       11    1    1    2    0    0  0.30510850202E-01  0.17214467435E-01  0.36684678396E+00  0.36851604306E+00  0.51109989000E-03 0.  1.
     -623    1    1    2    0    0 -0.18723830121E-01  0.25934039419E-01  0.21680261817E-02  0.17130000300E+03  0.17130000000E+03 0. -1.
      622    1    1    2    0    0 -0.11787020082E-01 -0.43148506855E-01  0.36309851572E+01  0.36314809568E+01  0.40000000000E-01 0.  1.
</event>
<event>
 5   0  0.6200596E+07  0.9118800E+02  0.7818608E-02  0.1180000E+00
       11   -1    0    0    0    0  0.00000000000E+00  0.00000000000E+00  0.39999999673E+01  0.40000000000E+01  0.51109989000E-03 0.  1.
     -623   -1    0    0    0    0  0.00000000000E+00  0.00000000000E+00  0.12525980253E-10  0.17130000000E+03  0.17130000000E+03 0.  1.
       11    1    1    2    0    0  0.35388432435E-02  0.11627493208E-01  0.22589705815E+01  0.22590033359E+01  0.51109989000E-03 0.  1.
     -623    1    1    2    0    0 -0.27684637830E-01  0.60533976915E-02  0.75194145305E-03  0.17130000235E+03  0.17130000000E+03 0.  1.
      622    1    1    2    0    0  0.24145794586E-01 -0.17680890900E-01  0.17402774444E+01  0.17409943184E+01  0.40000000000E-01 0.  1.
</event>
<event>
 5   0  0.6200596E+07  0.9118800E+02  0.7818608E-02  0.1180000E+00
       11   -1    0    0    0    0  0.00000000000E+00  0.00000000000E+00  0.39999999673E+01  0.40000000000E+01  0.51109989000E-03 0. -1.
     -623   -1    0    0    0    0  0.00000000000E+00  0.00000000000E+00  0.12525980253E-10  0.17130000000E+03  0.17130000000E+03 0. -1.
       11    1    1    2    0    0 -0.65679856728E-03 -0.48335290402E-03  0.49532780950E-02  0.50459091323E-02  0.51109989000E-03 0. -1.
     -623    1    1    2    0    0  0.21934289421E-03 -0.74078061773E-03  0.29306953475E-03  0.17130000000E+03  0.17130000000E+03 0. -1.
      622    1    1    2    0    0  0.43745567308E-03  0.12241335218E-02  0.39947536197E+01  0.39949540889E+01  0.40000000000E-01 0. -1.
</event>
<event>
 5   0  0.6200596E+07  0.9118800E+02  0.7818608E-02  0.1180000E+00
       11   -1    0    0    0    0  0.00000000000E+00  0.00000000000E+00  0.39999999673E+01  0.40000000000E+01  0.51109989000E-03 0.  1.
     -623   -1    0    0    0    0  0.00000000000E+00  0.00000000000E+00  0.12525980253E-10  0.17130000000E+03  0.17130000000E+03 0.  1.
       11    1    1    2    0    0  0.18151249562E-02 -0.61971795712E-03  0.89754313466E-02  0.91922966917E-02  0.51109989000E-03 0.  1.
     -623    1    1    2    0    0 -0.89793860634E-04 -0.12535441523E-02  0.41811617717E-03  0.17130000001E+03  0.17130000000E+03 0.  1.
      622    1    1    2    0    0 -0.17253310955E-02  0.18732621094E-02  0.39906064198E+01  0.39908076982E+01  0.40000000000E-01 0.  1.
</event>
<event>
 5   0  0.6200596E+07  0.9118800E+02  0.7818608E-02  0.1180000E+00
       11   -1    0    0    0    0  0.00000000000E+00  0.00000000000E+00  0.39999999673E+01  0.40000000000E+01  0.51109989000E-03 0.  1.
     -623   -1    0    0    0    0  0.00000000000E+00  0.00000000000E+00  0.12525980253E-10  0.17130000000E+03  0.17130000000E+03 0. -1.
       11    1    1    2    0    0  0.69764593038E-02 -0.31589952641E-02  0.45652614055E-01  0.46293332428E-01  0.51109989000E-03 0.  1.
     -623    1    1    2    0    0  0.56225735388E-02 -0.20691623165E-01  0.93639643703E-03  0.17130000134E+03  0.17130000000E+03 0. -1.
      622    1    1    2    0    0 -0.12599032843E-01  0.23850618429E-01  0.39534109569E+01  0.39537053230E+01  0.40000000000E-01 0.  1.
</event>
<event>
 5   0  0.6200596E+07  0.9118800E+02  0.7818608E-02  0.1180000E+00
       11   -1    0    0    0    0  0.00000000000E+00  0.00000000000E+00  0.39999999673E+01  0.40000000000E+01  0.51109989000E-03 0. -1.
     -623   -1    0    0    0    0  0.00000000000E+00  0.00000000000E+00  0.12525980253E-10  0.17130000000E+03  0.17130000000E+03 0. -1.
       11    1    1    2    0    0  0.18628349225E-02  0.10747049674E-01  0.57981148368E-01  0.59000373042E-01  0.51109989000E-03 0. -1.
     -623    1    1    2    0    0  0.16559195558E-02 -0.27681863771E-02  0.12318745483E-02  0.17130000003E+03  0.17130000000E+03 0. -1.
      622    1    1    2    0    0 -0.35187544783E-02 -0.79788632968E-02  0.39407869444E+01  0.39409995922E+01  0.40000000000E-01 0. -1.
</event>
<event>
 5   0  0.6200596E+07  0.9118800E+02  0.7818608E-02  0.1180000E+00
       11   -1    0    0    0    0  0.00000000000E+00  0.00000000000E+00  0.39999999673E+01  0.40000000000E+01  0.51109989000E-03 0.  1.
     -623   -1    0    0    0    0  0.00000000000E+00  0.00000000000E+00  0.12525980253E-10  0.17130000000E+03  0.17130000000E+03 0.  1.
       11    1    1    2    0    0  0.39271583666E-02  0.28372551793E-02  0.99490378686E-01  0.99609584190E-01  0.51109989000E-03 0.  1.
     -623    1    1    2    0    0  0.31691895973E-03  0.31722616809E-03  0.32787165413E-03  0.17130000000E+03  0.17130000000E+03 0.  1.
      622    1    1    2    0    0 -0.42440773263E-02 -0.31544813474E-02  0.39001817170E+01  0.39003904149E+01  0.40000000000E-01 0.  0.
</event>
<event>
 5   0  0.6200596E+07  0.9118800E+02  0.7818608E-02  0.1180000E+00
       11   -1    0    0    0    0  0.00000000000E+00  0.00000000000E+00  0.39999999673E+01  0.40000000000E+01  0.51109989000E-03 0. -1.
     -623   -1    0    0    0    0  0.00000000000E+00  0.00000000000E+00  0.12525980253E-10  0.17130000000E+03  0.17130000000E+03 0.  1.
       11    1    1    2    0    0  0.26067147210E-01 -0.68287011971E-01  0.33636090196E+01  0.33644031433E+01  0.51109989000E-03 0. -1.
     -623    1    1    2    0    0  0.21593712895E-01  0.88297198853E-02  0.66493708277E-02  0.17130000172E+03  0.17130000000E+03 0.  1.
      622    1    1    2    0    0 -0.47660860106E-01  0.59457292086E-01  0.62974157688E+00  0.63559513908E+00  0.40000000000E-01 0. -1.
</event>
<event>
 5   0  0.6200596E+07  0.9118800E+02  0.7818608E-02  0.1180000E+00
       11   -1    0    0    0    0  0.00000000000E+00  0.00000000000E+00  0.39999999673E+01  0.40000000000E+01  0.51109989000E-03 0. -1.
     -623   -1    0    0    0    0  0.00000000000E+00  0.00000000000E+00  0.12525980253E-10  0.17130000000E+03  0.17130000000E+03 0.  1.
       11    1    1    2    0    0 -0.15219990122E-02  0.10504611998E-02  0.13725516315E-01  0.13858967137E-01  0.51109989000E-03 0. -1.
     -623    1    1    2    0    0  0.13955771211E-02  0.10661802267E-02  0.33469192412E-03  0.17130000001E+03  0.17130000000E+03 0.  1.
      622    1    1    2    0    0  0.12642189106E-03 -0.21166414265E-02  0.39859397591E+01  0.39861410235E+01  0.40000000000E-01 0. -1.
</event>
<event>
 5   0  0.6200596E+07  0.9118800E+02  0.7818608E-02  0.1180000E+00
       11   -1    0    0    0    0  0.00000000000E+00  0.00000000000E+00  0.39999999673E+01  0.40000000000E+01  0.51109989000E-03 0.  1.
     -623   -1    0    0    0    0  0.00000000000E+00  0.00000000000E+00  0.12525980253E-10  0.17130000000E+03  0.17130000000E+03 0. -1.
       11    1    1    2    0    0  0.65480264605E-04 -0.14065976860E-03  0.78515943483E-02  0.78697412977E-02  0.51109989000E-03 0.  1.
     -623    1    1    2    0    0  0.28912224152E-02 -0.24204419195E-03  0.21965162969E-03  0.17130000002E+03  0.17130000000E+03 0. -1.
      622    1    1    2    0    0 -0.29567026798E-02  0.38270396055E-03  0.39919287214E+01  0.39921302340E+01  0.40000000000E-01 0.  1.
</event>
<event>
 5   0  0.6200596E+07  0.9118800E+02  0.7818608E-02  0.1180000E+00
       11   -1    0    0    0    0  0.00000000000E+00  0.00000000000E+00  0.39999999673E+01  0.40000000000E+01  0.51109989000E-03 0.  1.
     -623   -1    0    0    0    0  0.00000000000E+00  0.00000000000E+00  0.12525980253E-10  0.17130000000E+03  0.17130000000E+03 0.  1.
       11    1    1    2    0    0 -0.28448411414E-02 -0.28132319848E-01  0.23041161021E+01  0.23042896506E+01  0.51109989000E-03 0.  1.
     -623    1    1    2    0    0  0.19315107354E-01  0.13489566013E-01  0.79023696553E-03  0.17130000162E+03  0.17130000000E+03 0.  1.
      622    1    1    2    0    0 -0.16470266212E-01  0.14642753835E-01  0.16950936283E+01  0.16957087275E+01  0.40000000000E-01 0.  1.
</event>
<event>
 5   0  0.6200596E+07  0.9118800E+02  0.7818608E-02  0.1180000E+00
       11   -1    0    0    0    0  0.00000000000E+00  0.00000000000E+00  0.39999999673E+01  0.40000000000E+01  0.51109989000E-03 0.  1.
     -623   -1    0    0    0    0  0.00000000000E+00  0.00000000000E+00  0.12525980253E-10  0.17130000000E+03  0.17130000000E+03 0.  1.
       11    1    1    2    0    0  0.16661361527E-01 -0.61354774138E-03  0.18722281083E+01  0.18723024136E+01  0.51109989000E-03 0.  1.
     -623    1    1    2    0    0  0.19441836460E-01  0.50614154540E-01  0.13530432830E-02  0.17130000859E+03  0.17130000000E+03 0.  1.
      622    1    1    2    0    0 -0.36103197986E-01 -0.50000606799E-01  0.21264188158E+01  0.21276890003E+01  0.40000000000E-01 0.  0.
</event>
<event>
 5   0  0.6200596E+07  0.9118800E+02  0.7818608E-02  0.1180000E+00
       11   -1    0    0    0    0  0.00000000000E+00  0.00000000000E+00  0.39999999673E+01  0.40000000000E+01  0.51109989000E-03 0. -1.
     -623   -1    0    0    0    0  0.00000000000E+00  0.00000000000E+00  0.12525980253E-10  0.17130000000E+03  0.17130000000E+03 0.  1.
       11    1    1    2    0    0  0.68655750131E-03  0.42021462053E-03  0.36652126309E-01  0.36664526794E-01  0.51109989000E-03 0. -1.
     -623    1    1    2    0    0 -0.41862423533E-03  0.68706961140E-03  0.21438893673E-03  0.17130000000E+03  0.17130000000E+03 0.  1.
      622    1    1    2    0    0 -0.26793326599E-03 -0.11072842319E-02  0.39631334521E+01  0.39633354712E+01  0.40000000000E-01 0. -1.
</event>
<event>
 5   0  0.6200596E+07  0.9118800E+02  0.7818608E-02  0.1180000E+00
       11   -1    0    0    0    0  0.00000000000E+00  0.00000000000E+00  0.39999999673E+01  0.40000000000E+01  0.51109989000E-03 0.  1.
     -623   -1    0    0    0    0  0.00000000000E+00  0.00000000000E+00  0.12525980253E-10  0.17130000000E+03  0.17130000000E+03 0. -1.
       11    1    1    2    0    0  0.62266252207E-02  0.52003969510E-02  0.36171282877E+00  0.36180415518E+00  0.51109989000E-03 0.  1.
     -623    1    1    2    0    0  0.32486830705E-03 -0.84303885387E-02  0.31873074672E-03  0.17130000021E+03  0.17130000000E+03 0. -1.
      622    1    1    2    0    0 -0.65514935278E-02  0.32299915877E-02  0.36379684078E+01  0.36381956368E+01  0.40000000000E-01 0.  1.
</event>
<event>
 5   0  0.6200596E+07  0.9118800E+02  0.7818608E-02  0.1180000E+00
       11   -1    0    0    0    0  0.00000000000E+00  0.00000000000E+00  0.39999999673E+01  0.40000000000E+01  0.51109989000E-03 0.  1.
     -623   -1    0    0    0    0  0.00000000000E+00  0.00000000000E+00  0.12525980253E-10  0.17130000000E+03  0.17130000000E+03 0.  1.
       11    1    1    2    0    0  0.11320118177E-01 -0.15691068686E-01  0.80479699176E+00  0.80502969751E+00  0.51109989000E-03 0.  1.
     -623    1    1    2    0    0  0.50113086391E-02 -0.79011677812E-03  0.56740909923E-03  0.17130000008E+03  0.17130000000E+03 0.  1.
      622    1    1    2    0    0 -0.16331426816E-01  0.16481185464E-01  0.31946355665E+01  0.31949702264E+01  0.40000000000E-01 0.  0.
</event>
<event>
 5   0  0.6200596E+07  0.9118800E+02  0.7818608E-02  0.1180000E+00
       11   -1    0    0    0    0  0.00000000000E+00  0.00000000000E+00  0.39999999673E+01  0.40000000000E+01  0.51109989000E-03 0.  1.
     -623   -1    0    0    0    0  0.00000000000E+00  0.00000000000E+00  0.12525980253E-10  0.17130000000E+03  0.17130000000E+03 0.  1.
       11    1    1    2    0    0  0.85601718571E-02  0.74122665290E-02  0.38145607924E-01  0.39794055617E-01  0.51109989000E-03 0.  1.
     -623    1    1    2    0    0 -0.21066429479E-02 -0.36938294411E-02  0.18574971498E-02  0.17130000006E+03  0.17130000000E+03 0.  1.
      622    1    1    2    0    0 -0.64535289092E-02 -0.37184370880E-02  0.39599968623E+01  0.39602058815E+01  0.40000000000E-01 0.  1.
</event>
<event>
 5   0  0.6200596E+07  0.9118800E+02  0.7818608E-02  0.1180000E+00
       11   -1    0    0    0    0  0.00000000000E+00  0.00000000000E+00  0.39999999673E+01  0.40000000000E+01  0.51109989000E-03 0. -1.
     -623   -1    0    0    0    0  0.00000000000E+00  0.00000000000E+00  0.12525980253E-10  0.17130000000E+03  0.17130000000E+03 0. -1.
       11    1    1    2    0    0 -0.81441412297E-02  0.10978177482E-01  0.29299811779E-01  0.32335547133E-01  0.51109989000E-03 0. -1.
     -623    1    1    2    0    0  0.54797950682E-02  0.10966633520E-01  0.32993939005E-02  0.17130000047E+03  0.17130000000E+03 0. -1.
      622    1    1    2    0    0  0.26643461614E-02 -0.21944811002E-01  0.39674007617E+01  0.39676639824E+01  0.40000000000E-01 0. -1.
</event>
<event>
 5   0  0.6200596E+07  0.9118800E+02  0.7818608E-02  0.1180000E+00
       11   -1    0    0    0    0  0.00000000000E+00  0.00000000000E+00  0.39999999673E+01  0.40000000000E+01  0.51109989000E-03 0. -1.
     -623   -1    0    0    0    0  0.00000000000E+00  0.00000000000E+00  0.12525980253E-10  0.17130000000E+03  0.17130000000E+03 0. -1.
       11    1    1    2    0    0  0.57335696328E-03  0.95315853108E-03  0.11183774346E-01  0.11250567958E-01  0.51109989000E-03 0. -1.
     -623    1    1    2    0    0  0.63507369968E-03 -0.17346593332E-03  0.26759087409E-03  0.17130000000E+03  0.17130000000E+03 0. -1.
      622    1    1    2    0    0 -0.12084306630E-02 -0.77969259776E-03  0.39885486021E+01  0.39887494306E+01  0.40000000000E-01 0. -1.
</event>
<event>
 5   0  0.6200596E+07  0.9118800E+02  0.7818608E-02  0.1180000E+00
       11   -1    0    0    0    0  0.00000000000E+00  0.00000000000E+00  0.39999999673E+01  0.40000000000E+01  0.51109989000E-03 0.  1.
     -623   -1    0    0    0    0  0.00000000000E+00  0.00000000000E+00  0.12525980253E-10  0.17130000000E+03  0.17130000000E+03 0. -1.
       11    1    1    2    0    0  0.32672163795E-02 -0.81852630343E-02  0.26027924764E-01  0.27484310475E-01  0.51109989000E-03 0.  1.
     -623    1    1    2    0    0  0.10472797535E-02 -0.21120421317E-02  0.16734560933E-02  0.17130000002E+03  0.17130000000E+03 0. -1.
      622    1    1    2    0    0 -0.43144961330E-02  0.10297305166E-01  0.39722985865E+01  0.39725156651E+01  0.40000000000E-01 0.  1.
</event>
<event>
 5   0  0.6200596E+07  0.9118800E+02  0.7818608E-02  0.1180000E+00
       11   -1    0    0    0    0  0.00000000000E+00  0.00000000000E+00  0.39999999673E+01  0.40000000000E+01  0.51109989000E-03 0.  1.
     -623   -1    0    0    0    0  0.00000000000E+00  0.00000000000E+00  0.12525980253E-10  0.17130000000E+03  0.17130000000E+03 0. -1.
       11    1    1    2    0    0 -0.35872452806E-02 -0.43235096443E-02  0.44650100998E-01  0.45005041987E-01  0.51109989000E-03 0.  1.
     -623    1    1    2    0    0  0.48929786232E-02 -0.17809877644E-02  0.56219636125E-03  0.17130000008E+03  0.17130000000E+03 0. -1.
      622    1    1    2    0    0 -0.13057333426E-02  0.61044974087E-02  0.39547876700E+01  0.39549948780E+01  0.40000000000E-01 0.  1.
</event>
<event>
 5   0  0.6200596E+07  0.9118800E+02  0.7818608E-02  0.1180000E+00
       11   -1    0    0    0    0  0.00000000000E+00  0.00000000000E+00  0.39999999673E+01  0.40000000000E+01  0.51109989000E-03 0. -1.
     -623   -1    0    0    0    0  0.00000000000E+00  0.00000000000E+00  0.12525980253E-10  0.17130000000E+03  0.17130000000E+03 0.  1.
       11    1    1    2    0    0  0.14860534931E-01  0.13476127814E-01  0.12899491847E+00  0.13054651176E+00  0.51109989000E-03 0. -1.
     -623    1    1    2    0    0 -0.36341264557E-03 -0.62064911593E-02  0.17924238408E-02  0.17130000012E+03  0.17130000000E+03 0.  1.
      622    1    1    2    0    0 -0.14497122285E-01 -0.72696366550E-02  0.38692126250E+01  0.38694533660E+01  0.40000000000E-01 0. -1.
</event>
<event>
 5   0  0.6200596E+07  0.9118800E+02  0.7818608E-02  0.1180000E+00
       11   -1    0    0    0    0  0.00000000000E+00  0.00000000000E+00  0.39999999673E+01  0.40000000000E+01  0.51109989000E-03 0. -1.
     -623   -1    0    0    0    0  0.00000000000E+00  0.00000000000E+00  0.12525980253E-10  0.17130000000E+03  0.17130000000E+03 0.  1.
       11    1    1    2    0    0  0.12762118652E-02 -0.70698682838E-03  0.17654037201E+00  0.17654714021E+00  0.51109989000E-03 0. -1.
     -623    1    1    2    0    0 -0.50559235876E-02  0.23559088373E-02  0.21829112507E-03  0.17130000009E+03  0.17130000000E+03 0.  1.
      622    1    1    2    0    0  0.37797117224E-02 -0.16489220089E-02  0.38232413042E+01  0.38234527688E+01  0.40000000000E-01 0. -1.
</event>
<event>
 5   0  0.6200596E+07  0.9118800E+02  0.7818608E-02  0.1180000E+00
       11   -1    0    0    0    0  0.00000000000E+00  0.00000000000E+00  0.39999999673E+01  0.40000000000E+01  0.51109989000E-03 0.  1.
     -623   -1    0    0    0    0  0.00000000000E+00  0.00000000000E+00  0.12525980253E-10  0.17130000000E+03  0.17130000000E+03 0.  1.
       11    1    1    2    0    0 -0.11828146387E-02 -0.13666173114E-02  0.21214814463E-01  0.21297799617E-01  0.51109989000E-03 0.  1.
     -623    1    1    2    0    0  0.28742131450E-02  0.14239081346E-02  0.28441840218E-03  0.17130000003E+03  0.17130000000E+03 0.  1.
      622    1    1    2    0    0 -0.16913985063E-02 -0.57290823195E-04  0.39785007345E+01  0.39787021701E+01  0.40000000000E-01 0.  1.
</event>
<event>
 5   0  0.6200596E+07  0.9118800E+02  0.7818608E-02  0.1180000E+00
       11   -1    0    0    0    0  0.00000000000E+00  0.00000000000E+00  0.39999999673E+01  0.40000000000E+01  0.51109989000E-03 0.  1.
     -623   -1    0    0    0    0  0.00000000000E+00  0.00000000000E+00  0.12525980253E-10  0.17130000000E+03  0.17130000000E+03 0.  1.
       11    1    1    2    0    0  0.24459494022E-03 -0.23331650547E-02  0.82004823890E-02  0.85447421514E-02  0.51109989000E-03 0.  1.
     -623    1    1    2    0    0 -0.63663573264E-03  0.48249212810E-02  0.54552737299E-03  0.17130000007E+03  0.17130000000E+03 0.  1.
      622    1    1    2    0    0  0.39204079243E-03 -0.24917562262E-02  0.39912539576E+01  0.39914551878E+01  0.40000000000E-01 0.  1.
</event>
<event>
 5   0  0.6200596E+07  0.9118800E+02  0.7818608E-02  0.1180000E+00
       11   -1    0    0    0    0  0.00000000000E+00  0.00000000000E+00  0.39999999673E+01  0.40000000000E+01  0.51109989000E-03 0.  1.
     -623   -1    0    0    0    0  0.00000000000E+00  0.00000000000E+00  0.12525980253E-10  0.17130000000E+03  0.17130000000E+03 0. -1.
       11    1    1    2    0    0 -0.25095333387E-02 -0.15498550815E-02  0.18526220639E+00  0.18528638953E+00  0.51109989000E-03 0.  1.
     -623    1    1    2    0    0  0.11908481540E-02 -0.61885902103E-04  0.23444332145E-03  0.17130000000E+03  0.17130000000E+03 0. -1.
      622    1    1    2    0    0  0.13186851847E-02  0.16117409836E-02  0.38145033177E+01  0.38147136062E+01  0.40000000000E-01 0.  1.
</event>
<event>
 5   0  0.6200596E+07  0.9118800E+02  0.7818608E-02  0.1180000E+00
       11   -1    0    0    0    0  0.00000000000E+00  0.00000000000E+00  0.39999999673E+01  0.40000000000E+01  0.51109989000E-03 0. -1.
     -623   -1    0    0    0    0  0.00000000000E+00  0.00000000000E+00  0.12525980253E-10  0.17130000000E+03  0.17130000000E+03 0. -1.
       11    1    1    2    0    0 -0.35901071887E-02 -0.48216613570E-02  0.18650966226E+01  0.18651063804E+01  0.51109989000E-03 0. -1.
     -623    1    1    2    0    0 -0.44982910135E-02  0.92992414652E-02  0.40481718739E-03  0.17130000031E+03  0.17130000000E+03 0. -1.
      622    1    1    2    0    0  0.80883982022E-02 -0.44775801082E-02  0.21344985275E+01  0.21348933076E+01  0.40000000000E-01 0.  0.
</event>
<event>
 5   0  0.6200596E+07  0.9118800E+02  0.7818608E-02  0.1180000E+00
       11   -1    0    0    0    0  0.00000000000E+00  0.00000000000E+00  0.39999999673E+01  0.40000000000E+01  0.51109989000E-03 0.  1.
     -623   -1    0    0    0    0  0.00000000000E+00  0.00000000000E+00  0.12525980253E-10  0.17130000000E+03  0.17130000000E+03 0.  1.
       11    1    1    2    0    0 -0.57738404550E-02 -0.90967215414E-03  0.35225893485E-01  0.35711196147E-01  0.51109989000E-03 0.  1.
     -623    1    1    2    0    0  0.83127627502E-03  0.20741846284E-02  0.69034509925E-03  0.17130000002E+03  0.17130000000E+03 0.  1.
      622    1    1    2    0    0  0.49425641800E-02 -0.11645124743E-02  0.39640837288E+01  0.39642887879E+01  0.40000000000E-01 0.  1.
</event>
<event>
 5   0  0.6200596E+07  0.9118800E+02  0.7818608E-02  0.1180000E+00
       11   -1    0    0    0    0  0.00000000000E+00  0.00000000000E+00  0.39999999673E+01  0.40000000000E+01  0.51109989000E-03 0. -1.
     -623   -1    0    0    0    0  0.00000000000E+00  0.00000000000E+00  0.12525980253E-10  0.17130000000E+03  0.17130000000E+03 0. -1.
       11    1    1    2    0    0 -0.21185842372E-02 -0.16593965723E-02  0.14362755067E+00  0.14365366869E+00  0.51109989000E-03 0. -1.
     -623    1    1    2    0    0  0.42520881318E-02  0.25482827373E-02  0.23430576026E-03  0.17130000007E+03  0.17130000000E+03 0. -1.
      622    1    1    2    0    0 -0.21335038946E-02 -0.88888616502E-03  0.38561381109E+01  0.38563462594E+01  0.40000000000E-01 0. -1.
</event>
<event>
 5   0  0.6200596E+07  0.9118800E+02  0.7818608E-02  0.1180000E+00
       11   -1    0    0    0    0  0.00000000000E+00  0.00000000000E+00  0.39999999673E+01  0.40000000000E+01  0.51109989000E-03 0.  1.
     -623   -1    0    0    0    0  0.00000000000E+00  0.00000000000E+00  0.12525980253E-10  0.17130000000E+03  0.17130000000E+03 0.  1.
       11    1    1    2    0    0 -0.80699582847E-03 -0.51653912378E-02  0.27081462109E+00  0.27086556209E+00  0.51109989000E-03 0.  1.
     -623    1    1    2    0    0  0.72217850183E-03  0.42713187601E-03  0.26845515808E-03  0.17130000000E+03  0.17130000000E+03 0.  1.
      622    1    1    2    0    0  0.84817326639E-04  0.47382593618E-02  0.37289168911E+01  0.37291344356E+01  0.40000000000E-01 0.  1.
</event>
<event>
 5   0  0.6200596E+07  0.9118800E+02  0.7818608E-02  0.1180000E+00
       11   -1    0    0    0    0  0.00000000000E+00  0.00000000000E+00  0.39999999673E+01  0.40000000000E+01  0.51109989000E-03 0.  1.
     -623   -1    0    0    0    0  0.00000000000E+00  0.00000000000E+00  0.12525980253E-10  0.17130000000E+03  0.17130000000E+03 0.  1.
       11    1    1    2    0    0 -0.10149278920E-01 -0.40746145900E-02  0.16347972737E+00  0.16384594236E+00  0.51109989000E-03 0.  1.
     -623    1    1    2    0    0  0.54131115829E-02 -0.10975086852E-02  0.58123095139E-03  0.17130000009E+03  0.17130000000E+03 0.  1.
      622    1    1    2    0    0  0.47361673374E-02  0.51721232752E-02  0.38359390090E+01  0.38361539676E+01  0.40000000000E-01 0.  1.
</event>
<event>
 5   0  0.6200596E+07  0.9118800E+02  0.7818608E-02  0.1180000E+00
       11   -1    0    0    0    0  0.00000000000E+00  0.00000000000E+00  0.39999999673E+01  0.40000000000E+01  0.51109989000E-03 0.  1.
     -623   -1    0    0    0    0  0.00000000000E+00  0.00000000000E+00  0.12525980253E-10  0.17130000000E+03  0.17130000000E+03 0. -1.
       11    1    1    2    0    0 -0.18784859346E-01 -0.39767203988E-01  0.22056145898E+01  0.22060531003E+01  0.51109989000E-03 0.  1.
     -623    1    1    2    0    0  0.27806275476E-01  0.21472984600E-01  0.10040801507E-02  0.17130000361E+03  0.17130000000E+03 0. -1.
      622    1    1    2    0    0 -0.90214161306E-02  0.18294219388E-01  0.17933812974E+01  0.17939432940E+01  0.40000000000E-01 0.  0.
</event>
<event>
 5   0  0.6200596E+07  0.9118800E+02  0.7818608E-02  0.1180000E+00
       11   -1    0    0    0    0  0.00000000000E+00  0.00000000000E+00  0.39999999673E+01  0.40000000000E+01  0.51109989000E-03 0. -1.
     -623   -1    0    0    0    0  0.00000000000E+00  0.00000000000E+00  0.12525980253E-10  0.17130000000E+03  0.17130000000E+03 0. -1.
       11    1    1    2    0    0 -0.14752656153E-01 -0.33377111399E-02  0.97370783361E+00  0.97382544003E+00  0.51109989000E-03 0. -1.
     -623    1    1    2    0    0  0.32174506328E-02  0.12943574885E-01  0.41969952462E-03  0.17130000052E+03  0.17130000000E+03 0. -1.
      622    1    1    2    0    0  0.11535205521E-01 -0.96058637454E-02  0.30258724342E+01  0.30261740402E+01  0.40000000000E-01 0. -1.
</event>
<event>
 5   0  0.6200596E+07  0.9118800E+02  0.7818608E-02  0.1180000E+00
       11   -1    0    0    0    0  0.00000000000E+00  0.00000000000E+00  0.39999999673E+01  0.40000000000E+01  0.51109989000E-03 0.  1.
     -623   -1    0    0    0    0  0.00000000000E+00  0.00000000000E+00  0.12525980253E-10  0.17130000000E+03  0.17130000000E+03 0. -1.
       11    1    1    2    0    0  0.65403339448E-02 -0.34000236443E-03  0.91313859181E+00  0.91316222033E+00  0.51109989000E-03 0.  1.
     -623    1    1    2    0    0  0.87307623500E-03  0.67950123626E-03  0.29169701015E-03  0.17130000000E+03  0.17130000000E+03 0. -1.
      622    1    1    2    0    0 -0.74134101798E-02 -0.33949887182E-03  0.30865696785E+01  0.30868377759E+01  0.40000000000E-01 0.  1.
</event>
<event>
 5   0  0.6200596E+07  0.9118800E+02  0.7818608E-02  0.1180000E+00
       11   -1    0    0    0    0  0.00000000000E+00  0.00000000000E+00  0.39999999673E+01  0.40000000000E+01  0.51109989000E-03 0. -1.
     -623   -1    0    0    0    0  0.00000000000E+00  0.00000000000E+00  0.12525980253E-10  0.17130000000E+03  0.17130000000E+03 0.  1.
       11    1    1    2    0    0  0.11868628952E-01 -0.64916067653E-02  0.83159466994E+00  0.83170485246E+00  0.51109989000E-03 0. -1.
     -623    1    1    2    0    0 -0.10732770697E-01  0.47711261777E-02  0.36373555919E-03  0.17130000040E+03  0.17130000000E+03 0.  1.
      622    1    1    2    0    0 -0.11358582547E-02  0.17204805875E-02  0.31680415619E+01  0.31682947445E+01  0.40000000000E-01 0.  0.
</event>
<event>
 5   0  0.6200596E+07  0.9118800E+02  0.7818608E-02  0.1180000E+00
       11   -1    0    0    0    0  0.00000000000E+00  0.00000000000E+00  0.39999999673E+01  0.40000000000E+01  0.51109989000E-03 0.  1.
     -623   -1    0    0    0    0  0.00000000000E+00  0.00000000000E+00  0.12525980253E-10  0.17130000000E+03  0.17130000000E+03 0.  1.
       11    1    1    2    0    0 -0.86201762496E-03  0.45726451060E-04  0.36742123422E-02  0.38087037315E-02  0.51109989000E-03 0.  1.
     -623    1    1    2    0    0  0.19183275846E-02 -0.81949133231E-03  0.33488193780E-03  0.17130000001E+03  0.17130000000E+03 0.  1.
      622    1    1    2    0    0 -0.10563099597E-02  0.77376488125E-03  0.39959908731E+01  0.39961912832E+01  0.40000000000E-01 0.  1.
</event>
<event>
 5   0  0.6200596E+07  0.9118800E+02  0.7818608E-02  0.1180000E+00
       11   -1    0    0    0    0  0.00000000000E+00  0.00000000000E+00  0.39999999673E+01  0.40000000000E+01  0.51109989000E-03 0.  1.
     -623   -1    0    0    0    0  0.00000000000E+00  0.00000000000E+00  0.12525980253E-10  0.17130000000E+03  0.17130000000E+03 0.  1.
       11    1    1    2    0    0 -0.78246807416E-02 -0.33095058650E-02  0.97746777728E-01  0.98116625687E-01  0.51109989000E-03 0.  1.
     -623    1    1    2    0    0  0.42485455667E-03 -0.83288491596E-03  0.58406959822E-03  0.17130000000E+03  0.17130000000E+03 0.  1.
      622    1    1    2    0    0  0.73998261849E-02  0.41423907809E-02  0.39016691200E+01  0.39018833708E+01  0.40000000000E-01 0.  1.
</event>
<event>
 5   0  0.6200596E+07  0.9118800E+02  0.7818608E-02  0.1180000E+00
       11   -1    0    0    0    0  0.00000000000E+00  0.00000000000E+00  0.39999999673E+01  0.40000000000E+01  0.51109989000E-03 0. -1.
     -623   -1    0    0    0    0  0.00000000000E+00  0.00000000000E+00  0.12525980253E-10  0.17130000000E+03  0.17130000000E+03 0.  1.
       11    1    1    2    0    0  0.73936384648E-04 -0.14938641012E-02  0.20896979545E-01  0.20956671272E-01  0.51109989000E-03 0. -1.
     -623    1    1    2    0    0 -0.57907238589E-03  0.95372590679E-05  0.26102762954E-03  0.17130000000E+03  0.17130000000E+03 0.  1.
      622    1    1    2    0    0  0.50513600125E-03  0.14843268421E-02  0.39788419602E+01  0.39790433276E+01  0.40000000000E-01 0. -1.
</event>
<event>
 5   0  0.6200596E+07  0.9118800E+02  0.7818608E-02  0.1180000E+00
       11   -1    0    0    0    0  0.00000000000E+00  0.00000000000E+00  0.39999999673E+01  0.40000000000E+01  0.51109989000E-03 0.  1.
     -623   -1    0    0    0    0  0.00000000000E+00  0.00000000000E+00  0.12525980253E-10  0.17130000000E+03  0.17130000000E+03 0.  1.
       11    1    1    2    0    0  0.13439054525E-01  0.14841221297E-02  0.33636957070E+01  0.33637229199E+01  0.51109989000E-03 0.  1.
     -623    1    1    2    0    0  0.15460508500E-02  0.77070616971E-02  0.15292976178E-02  0.17130000019E+03  0.17130000000E+03 0.  1.
      622    1    1    2    0    0 -0.14985105375E-01 -0.91911838268E-02  0.63477496269E+00  0.63627689295E+00  0.40000000000E-01 0.  0.
</event>
<event>
 5   0  0.6200596E+07  0.9118800E+02  0.7818608E-02  0.1180000E+00
       11   -1    0    0    0    0  0.00000000000E+00  0.00000000000E+00  0.39999999673E+01  0.40000000000E+01  0.51109989000E-03 0.  1.
     -623   -1    0    0    0    0  0.00000000000E+00  0.00000000000E+00  0.12525980253E-10  0.17130000000E+03  0.17130000000E+03 0. -1.
       11    1    1    2    0    0 -0.19417563724E-01 -0.20563746421E-01  0.12933136495E+01  0.12936229615E+01  0.51109989000E-03 0.  1.
     -623    1    1    2    0    0  0.39729243877E-02 -0.57246319427E-03  0.73156306503E-03  0.17130000005E+03  0.17130000000E+03 0. -1.
      622    1    1    2    0    0  0.15444639337E-01  0.21136209615E-01  0.27059547548E+01  0.27063769899E+01  0.40000000000E-01 0.  1.
</event>
<event>
 5   0  0.6200596E+07  0.9118800E+02  0.7818608E-02  0.1180000E+00
       11   -1    0    0    0    0  0.00000000000E+00  0.00000000000E+00  0.39999999673E+01  0.40000000000E+01  0.51109989000E-03 0.  1.
     -623   -1    0    0    0    0  0.00000000000E+00  0.00000000000E+00  0.12525980253E-10  0.17130000000E+03  0.17130000000E+03 0.  1.
       11    1    1    2    0    0 -0.16692253187E-02  0.17866939698E-02  0.11342820294E+00  0.11345570515E+00  0.51109989000E-03 0.  1.
     -623    1    1    2    0    0 -0.44637779752E-03  0.89873850556E-04  0.23434307655E-03  0.17130000000E+03  0.17130000000E+03 0.  1.
      622    1    1    2    0    0  0.21156031162E-02 -0.18765678204E-02  0.38863374213E+01  0.38865442941E+01  0.40000000000E-01 0.  1.
</event>
<event>
 5   0  0.6200596E+07  0.9118800E+02  0.7818608E-02  0.1180000E+00
       11   -1    0    0    0    0  0.00000000000E+00  0.00000000000E+00  0.39999999673E+01  0.40000000000E+01  0.51109989000E-03 0. -1.
     -623   -1    0    0    0    0  0.00000000000E+00  0.00000000000E+00  0.12525980253E-10  0.17130000000E+03  0.17130000000E+03 0.  1.
       11    1    1    2    0    0 -0.15989338114E-01  0.11009586949E-01  0.46858088918E+00  0.46898313495E+00  0.51109989000E-03 0. -1.
     -623    1    1    2    0    0 -0.21598589493E-01 -0.59197242233E-01  0.11693249434E-02  0.17130001159E+03  0.17130000000E+03 0.  1.
      622    1    1    2    0    0  0.37587927607E-01  0.48187655284E-01  0.35302497532E+01  0.35310052708E+01  0.40000000000E-01 0. -1.
</event>
<event>
 5   0  0.6200596E+07  0.9118800E+02  0.7818608E-02  0.1180000E+00
       11   -1    0    0    0    0  0.00000000000E+00  0.00000000000E+00  0.39999999673E+01  0.40000000000E+01  0.51109989000E-03 0. -1.
     -623   -1    0    0    0    0  0.00000000000E+00  0.00000000000E+00  0.12525980253E-10  0.17130000000E+03  0.17130000000E+03 0. -1.
       11    1    1    2    0    0 -0.12852962669E-02 -0.11044315901E-02  0.10872354332E+00  0.10873795036E+00  0.51109989000E-03 0. -1.
     -623    1    1    2    0    0 -0.15099547423E-02  0.24833832206E-02  0.22124182174E-03  0.17130000002E+03  0.17130000000E+03 0. -1.
      622    1    1    2    0    0  0.27952510091E-02 -0.13789516305E-02  0.38910551822E+01  0.38912620248E+01  0.40000000000E-01 0. -1.
</event>
<event>
 5   0  0.6200596E+07  0.9118800E+02  0.7818608E-02  0.1180000E+00
       11   -1    0    0    0    0  0.00000000000E+00  0.00000000000E+00  0.39999999673E+01  0.40000000000E+01  0.51109989000E-03 0.  1.
     -623   -1    0    0    0    0  0.00000000000E+00  0.00000000000E+00  0.12525980253E-10  0.17130000000E+03  0.17130000000E+03 0.  1.
       11    1    1    2    0    0 -0.26084180997E-03 -0.15598419033E-02  0.62654667586E-01  0.62676708090E-01  0.51109989000E-03 0.  1.
     -623    1    1    2    0    0 -0.15647067009E-02  0.27789642728E-02  0.22583864772E-03  0.17130000003E+03  0.17130000000E+03 0.  1.
      622    1    1    2    0    0  0.18255485108E-02 -0.12191223695E-02  0.39371194611E+01  0.39373232621E+01  0.40000000000E-01 0.  1.
</event>
<event>
 5   0  0.6200596E+07  0.9118800E+02  0.7818608E-02  0.1180000E+00
       11   -1    0    0    0    0  0.00000000000E+00  0.00000000000E+00  0.39999999673E+01  0.40000000000E+01  0.51109989000E-03 0. -1.
     -623   -1    0    0    0    0  0.00000000000E+00  0.00000000000E+00  0.12525980253E-10  0.17130000000E+03  0.17130000000E+03 0.  1.
       11    1    1    2    0    0  0.34854767076E-01 -0.36608442079E-01  0.80611499725E+00  0.80769838605E+00  0.51109989000E-03 0. -1.
     -623    1    1    2    0    0 -0.93512893326E-02  0.17261280119E-02  0.21267365102E-02  0.17130000028E+03  0.17130000000E+03 0.  1.
      622    1    1    2    0    0 -0.25503477743E-01  0.34882314067E-01  0.31917582336E+01  0.31923013368E+01  0.40000000000E-01 0.  1.
</event>
<event>
 5   0  0.6200596E+07  0.9118800E+02  0.7818608E-02  0.1180000E+00
       11   -1    0    0    0    0  0.00000000000E+00  0.00000000000E+00  0.39999999673E+01  0.40000000000E+01  0.51109989000E-03 0. -1.
     -623   -1    0    0    0    0  0.00000000000E+00  0.00000000000E+00  0.12525980253E-10  0.17130000000E+03  0.17130000000E+03 0.  1.
       11    1    1    2    0    0  0.39094970581E-02  0.26425098530E-03  0.81108516272E-01  0.81204720480E-01  0.51109989000E-03 0. -1.
     -623    1    1    2    0    0  0.18586864656E-02  0.71384484566E-03  0.30470056696E-03  0.17130000001E+03  0.17130000000E+03 0.  1.
      622    1    1    2    0    0 -0.57681835237E-02 -0.97809583096E-03  0.39185867505E+01  0.39187952677E+01  0.40000000000E-01 0. -1.
</event>
<event>
 5   0  0.6200596E+07  0.9118800E+02  0.7818608E-02  0.1180000E+00
       11   -1    0    0    0    0  0.00000000000E+00  0.00000000000E+00  0.39999999673E+01  0.40000000000E+01  0.51109989000E-03 0. -1.
     -623   -1    0    0    0    0  0.00000000000E+00  0.00000000000E+00  0.12525980253E-10  0.17130000000E+03  0.17130000000E+03 0. -1.
       11    1    1    2    0    0  0.11477220840E-01 -0.20805067805E-01  0.27413026866E+00  0.27515857766E+00  0.51109989000E-03 0. -1.
     -623    1    1    2    0    0 -0.23019293750E-02  0.94314994107E-03  0.13073394299E-02  0.17130000002E+03  0.17130000000E+03 0. -1.
      622    1    1    2    0    0 -0.91752914649E-02  0.19861917864E-01  0.37245623593E+01  0.37248413993E+01  0.40000000000E-01 0. -1.
</event>
<event>
 5   0  0.6200596E+07  0.9118800E+02  0.7818608E-02  0.1180000E+00
       11   -1    0    0    0    0  0.00000000000E+00  0.00000000000E+00  0.39999999673E+01  0.40000000000E+01  0.51109989000E-03 0. -1.
     -623   -1    0    0    0    0  0.00000000000E+00  0.00000000000E+00  0.12525980253E-10  0.17130000000E+03  0.17130000000E+03 0. -1.
       11    1    1    2    0    0  0.21779691000E-02 -0.12197817307E-02  0.31994732464E-02  0.40901427574E-02  0.51109989000E-03 0. -1.
     -623    1    1    2    0    0 -0.16339262967E-02 -0.34177156185E-03  0.10912003837E-02  0.17130000001E+03  0.17130000000E+03 0. -1.
      622    1    1    2    0    0 -0.54404280335E-03  0.15615532926E-02  0.39957092937E+01  0.39959098456E+01  0.40000000000E-01 0. -1.
</event>
<event>
 5   0  0.6200596E+07  0.9118800E+02  0.7818608E-02  0.1180000E+00
       11   -1    0    0    0    0  0.00000000000E+00  0.00000000000E+00  0.39999999673E+01  0.40000000000E+01  0.51109989000E-03 0. -1.
     -623   -1    0    0    0    0  0.00000000000E+00  0.00000000000E+00  0.12525980253E-10  0.17130000000E+03  0.17130000000E+03 0.  1.
       11    1    1    2    0    0  0.16315152063E-01  0.69129403654E-02  0.17999762270E+01  0.18000635133E+01  0.51109989000E-03 0. -1.
     -623    1    1    2    0    0 -0.29631039760E-02  0.31181660056E-02  0.51438502600E-03  0.17130000005E+03  0.17130000000E+03 0.  1.
      622    1    1    2    0    0 -0.13352048087E-01 -0.10031106371E-01  0.21995093553E+01  0.21999364319E+01  0.40000000000E-01 0. -1.
</event>
<event>
 5   0  0.6200596E+07  0.9118800E+02  0.7818608E-02  0.1180000E+00
       11   -1    0    0    0    0  0.00000000000E+00  0.00000000000E+00  0.39999999673E+01  0.40000000000E+01  0.51109989000E-03 0.  1.
     -623   -1    0    0    0    0  0.00000000000E+00  0.00000000000E+00  0.12525980253E-10  0.17130000000E+03  0.17130000000E+03 0. -1.
       11    1    1    2    0    0  0.11918981327E-02 -0.14591621105E-02  0.16620207303E-01  0.16734464073E-01  0.51109989000E-03 0.  1.
     -623    1    1    2    0    0  0.40884801710E-03 -0.11380498049E-03  0.31570250216E-03  0.17130000000E+03  0.17130000000E+03 0. -1.
      622    1    1    2    0    0 -0.16007461498E-02  0.15729670910E-02  0.39830640576E+01  0.39832655351E+01  0.40000000000E-01 0.  1.
</event>
<event>
 5   0  0.6200596E+07  0.9118800E+02  0.7818608E-02  0.1180000E+00
       11   -1    0    0    0    0  0.00000000000E+00  0.00000000000E+00  0.39999999673E+01  0.40000000000E+01  0.51109989000E-03 0. -1.
     -623   -1    0    0    0    0  0.00000000000E+00  0.00000000000E+00  0.12525980253E-10  0.17130000000E+03  0.17130000000E+03 0. -1.
       11    1    1    2    0    0 -0.26822858357E-02 -0.16398986504E-01  0.95591198920E+00  0.95605654317E+00  0.51109989000E-03 0. -1.
     -623    1    1    2    0    0 -0.14328531506E-02  0.24426106431E-02  0.44215322916E-03  0.17130000002E+03  0.17130000000E+03 0. -1.
      622    1    1    2    0    0  0.41151389863E-02  0.13956375861E-01  0.30436458249E+01  0.30439434329E+01  0.40000000000E-01 0. -1.
</event>
<event>
 5   0  0.6200596E+07  0.9118800E+02  0.7818608E-02  0.1180000E+00
       11   -1    0    0    0    0  0.00000000000E+00  0.00000000000E+00  0.39999999673E+01  0.40000000000E+01  0.51109989000E-03 0.  1.
     -623   -1    0    0    0    0  0.00000000000E+00  0.00000000000E+00  0.12525980253E-10  0.17130000000E+03  0.17130000000E+03 0.  1.
       11    1    1    2    0    0  0.13774443520E-01 -0.18818473842E-01  0.17570321259E+01  0.17571869630E+01  0.51109989000E-03 0.  1.
     -623    1    1    2    0    0  0.65026590346E-02 -0.38550882585E-02  0.71800865890E-03  0.17130000017E+03  0.17130000000E+03 0.  1.
      622    1    1    2    0    0 -0.20277102554E-01  0.22673562101E-01  0.22422498328E+01  0.22428128687E+01  0.40000000000E-01 0.  0.
</event>
<event>
 5   0  0.6200596E+07  0.9118800E+02  0.7818608E-02  0.1180000E+00
       11   -1    0    0    0    0  0.00000000000E+00  0.00000000000E+00  0.39999999673E+01  0.40000000000E+01  0.51109989000E-03 0.  1.
     -623   -1    0    0    0    0  0.00000000000E+00  0.00000000000E+00  0.12525980253E-10  0.17130000000E+03  0.17130000000E+03 0.  1.
       11    1    1    2    0    0  0.93157659080E-02  0.25866128649E-02  0.40008073502E+00  0.40019786333E+00  0.51109989000E-03 0.  1.
     -623    1    1    2    0    0  0.55184468809E-02 -0.18977278285E-02  0.37006942986E-03  0.17130000010E+03  0.17130000000E+03 0.  1.
      622    1    1    2    0    0 -0.14834212789E-01 -0.68888503640E-03  0.35995491629E+01  0.35998020369E+01  0.40000000000E-01 0.  1.
</event>
<event>
 5   0  0.6200596E+07  0.9118800E+02  0.7818608E-02  0.1180000E+00
       11   -1    0    0    0    0  0.00000000000E+00  0.00000000000E+00  0.39999999673E+01  0.40000000000E+01  0.51109989000E-03 0. -1.
     -623   -1    0    0    0    0  0.00000000000E+00  0.00000000000E+00  0.12525980253E-10  0.17130000000E+03  0.17130000000E+03 0. -1.
       11    1    1    2    0    0 -0.42587932622E-03 -0.21952524411E-03  0.10978004516E+00  0.10978228044E+00  0.51109989000E-03 0. -1.
     -623    1    1    2    0    0 -0.14287270917E-02 -0.10537289490E-02  0.20851190584E-03  0.17130000001E+03  0.17130000000E+03 0. -1.
      622    1    1    2    0    0  0.18546064179E-02  0.12732541931E-02  0.38900114103E+01  0.38902177102E+01  0.40000000000E-01 0. -1.
</event>
<event>
 5   0  0.6200596E+07  0.9118800E+02  0.7818608E-02  0.1180000E+00
       11   -1    0    0    0    0  0.00000000000E+00  0.00000000000E+00  0.39999999673E+01  0.40000000000E+01  0.51109989000E-03 0.  1.
     -623   -1    0    0    0    0  0.00000000000E+00  0.00000000000E+00  0.12525980253E-10  0.17130000000E+03  0.17130000000E+03 0. -1.
       11    1    1    2    0    0  0.61347408825E-04 -0.57561844827E-03  0.23407482060E-01  0.23420216430E-01  0.51109989000E-03 0.  1.
     -623    1    1    2    0    0  0.47617200800E-05 -0.62808509772E-03  0.21406875068E-03  0.17130000000E+03  0.17130000000E+03 0. -1.
      622    1    1    2    0    0 -0.66109128905E-04  0.12037035460E-02  0.39763784165E+01  0.39765797823E+01  0.40000000000E-01 0.  1.
</event>
<event>
 5   0  0.6200596E+07  0.9118800E+02  0.7818608E-02  0.1180000E+00
       11   -1    0    0    0    0  0.00000000000E+00  0.00000000000E+00  0.39999999673E+01  0.40000000000E+01  0.51109989000E-03 0.  1.
     -623   -1    0    0    0    0  0.00000000000E+00  0.00000000000E+00  0.12525980253E-10  0.17130000000E+03  0.17130000000E+03 0. -1.
       11    1    1    2    0    0 -0.11820009868E-01  0.84980936266E-03  0.15969022774E+00  0.16013014977E+00  0.51109989000E-03 0.  1.
     -623    1    1    2    0    0  0.11916741958E-01 -0.65119523761E-02  0.65295103930E-03  0.17130000054E+03  0.17130000000E+03 0. -1.
      622    1    1    2    0    0 -0.96732089373E-04  0.56621430134E-02  0.38396567886E+01  0.38398693107E+01  0.40000000000E-01 0.  1.
</event>
<event>
 5   0  0.6200596E+07  0.9118800E+02  0.7818608E-02  0.1180000E+00
       11   -1    0    0    0    0  0.00000000000E+00  0.00000000000E+00  0.39999999673E+01  0.40000000000E+01  0.51109989000E-03 0.  1.
     -623   -1    0    0    0    0  0.00000000000E+00  0.00000000000E+00  0.12525980253E-10  0.17130000000E+03  0.17130000000E+03 0. -1.
       11    1    1    2    0    0  0.22801461094E-01  0.22330954565E-01  0.53956251074E+00  0.54050582085E+00  0.51109989000E-03 0.  1.
     -623    1    1    2    0    0 -0.47004805723E-01 -0.67146862624E-02  0.13010412587E-02  0.17130000659E+03  0.17130000000E+03 0. -1.
      622    1    1    2    0    0  0.24203344629E-01 -0.15616268303E-01  0.34591364154E+01  0.34594875935E+01  0.40000000000E-01 0.  1.
</event>
<event>
 5   0  0.6200596E+07  0.9118800E+02  0.7818608E-02  0.1180000E+00
       11   -1    0    0    0    0  0.00000000000E+00  0.00000000000E+00  0.39999999673E+01  0.40000000000E+01  0.51109989000E-03 0. -1.
     -623   -1    0    0    0    0  0.00000000000E+00  0.00000000000E+00  0.12525980253E-10  0.17130000000E+03  0.17130000000E+03 0. -1.
       11    1    1    2    0    0  0.12633168559E-01 -0.12357078392E-01  0.14798426517E+01  0.14799482523E+01  0.51109989000E-03 0. -1.
     -623    1    1    2    0    0  0.58178882091E-03  0.18847460116E-03  0.48708082463E-03  0.17130000000E+03  0.17130000000E+03 0. -1.
      622    1    1    2    0    0 -0.13214957380E-01  0.12168603791E-01  0.25196702348E+01  0.25200517459E+01  0.40000000000E-01 0. -1.
</event>
<event>
 5   0  0.6200596E+07  0.9118800E+02  0.7818608E-02  0.1180000E+00
       11   -1    0    0    0    0  0.00000000000E+00  0.00000000000E+00  0.39999999673E+01  0.40000000000E+01  0.51109989000E-03 0.  1.
     -623   -1    0    0    0    0  0.00000000000E+00  0.00000000000E+00  0.12525980253E-10  0.17130000000E+03  0.17130000000E+03 0.  1.
       11    1    1    2    0    0  0.74010639994E-04  0.74272414160E-03  0.38596087417E-01  0.38606687281E-01  0.51109989000E-03 0.  1.
     -623    1    1    2    0    0 -0.41105649169E-03  0.45482211415E-04  0.21261490876E-03  0.17130000000E+03  0.17130000000E+03 0.  1.
      622    1    1    2    0    0  0.33704585170E-03 -0.78820635301E-03  0.39611912650E+01  0.39613933121E+01  0.40000000000E-01 0.  1.
</event>
<event>
 5   0  0.6200596E+07  0.9118800E+02  0.7818608E-02  0.1180000E+00
       11   -1    0    0    0    0  0.00000000000E+00  0.00000000000E+00  0.39999999673E+01  0.40000000000E+01  0.51109989000E-03 0. -1.
     -623   -1    0    0    0    0  0.00000000000E+00  0.00000000000E+00  0.12525980253E-10  0.17130000000E+03  0.17130000000E+03 0. -1.
       11    1    1    2    0    0  0.70676267326E-03 -0.78368572969E-03  0.19129213122E-01  0.19165116544E-01  0.51109989000E-03 0. -1.
     -623    1    1    2    0    0 -0.18467566522E-03 -0.59087093166E-03  0.23711156905E-03  0.17130000000E+03  0.17130000000E+03 0. -1.
      622    1    1    2    0    0 -0.52208700805E-03  0.13745566613E-02  0.39806336427E+01  0.39808348822E+01  0.40000000000E-01 0. -1.
</event>
<event>
 5   0  0.6200596E+07  0.9118800E+02  0.7818608E-02  0.1180000E+00
       11   -1    0    0    0    0  0.00000000000E+00  0.00000000000E+00  0.39999999673E+01  0.40000000000E+01  0.51109989000E-03 0. -1.
     -623   -1    0    0    0    0  0.00000000000E+00  0.00000000000E+00  0.12525980253E-10  0.17130000000E+03  0.17130000000E+03 0. -1.
       11    1    1    2    0    0  0.53232990972E-02  0.95258823935E-02  0.39676895202E-01  0.41153337461E-01  0.51109989000E-03 0. -1.
     -623    1    1    2    0    0  0.21291086917E-02 -0.50991317631E-02  0.16880812211E-02  0.17130000010E+03  0.17130000000E+03 0. -1.
      622    1    1    2    0    0 -0.74524077889E-02 -0.44267506305E-02  0.39586349909E+01  0.39588465651E+01  0.40000000000E-01 0. -1.
</event>
<event>
 5   0  0.6200596E+07  0.9118800E+02  0.7818608E-02  0.1180000E+00
       11   -1    0    0    0    0  0.00000000000E+00  0.00000000000E+00  0.39999999673E+01  0.40000000000E+01  0.51109989000E-03 0.  1.
     -623   -1    0    0    0    0  0.00000000000E+00  0.00000000000E+00  0.12525980253E-10  0.17130000000E+03  0.17130000000E+03 0.  1.
       11    1    1    2    0    0 -0.93866150130E-03  0.13207998130E-01  0.11328314309E+01  0.11329089303E+01  0.51109989000E-03 0.  1.
     -623    1    1    2    0    0  0.38324614587E-03  0.12034158684E-02  0.39279090023E-03  0.17130000001E+03  0.17130000000E+03 0.  1.
      622    1    1    2    0    0  0.55541535542E-03 -0.14411413998E-01  0.28667757455E+01  0.28670910646E+01  0.40000000000E-01 0.  0.
</event>
<event>
 5   0  0.6200596E+07  0.9118800E+02  0.7818608E-02  0.1180000E+00
       11   -1    0    0    0    0  0.00000000000E+00  0.00000000000E+00  0.39999999673E+01  0.40000000000E+01  0.51109989000E-03 0.  1.
     -623   -1    0    0    0    0  0.00000000000E+00  0.00000000000E+00  0.12525980253E-10  0.17130000000E+03  0.17130000000E+03 0. -1.
       11    1    1    2    0    0 -0.48891710056E-02  0.57901334998E-02  0.29111249837E+00  0.29121156839E+00  0.51109989000E-03 0.  1.
     -623    1    1    2    0    0  0.23693228269E-03  0.34205668289E-03  0.32273619785E-03  0.17130000000E+03  0.17130000000E+03 0. -1.
      622    1    1    2    0    0  0.46522387229E-02 -0.61321901827E-02  0.37085647328E+01  0.37087884308E+01  0.40000000000E-01 0.  1.
</event>
<event>
 5   0  0.6200596E+07  0.9118800E+02  0.7818608E-02  0.1180000E+00
       11   -1    0    0    0    0  0.00000000000E+00  0.00000000000E+00  0.39999999673E+01  0.40000000000E+01  0.51109989000E-03 0.  1.
     -623   -1    0    0    0    0  0.00000000000E+00  0.00000000000E+00  0.12525980253E-10  0.17130000000E+03  0.17130000000E+03 0.  1.
       11    1    1    2    0    0  0.67873239020E-02 -0.17191786731E-01  0.55157151558E+00  0.55188134895E+00  0.51109989000E-03 0.  1.
     -623    1    1    2    0    0 -0.10047414596E-02 -0.13753537964E-01  0.68609729194E-03  0.17130000056E+03  0.17130000000E+03 0.  1.
      622    1    1    2    0    0 -0.57825824424E-02  0.30945324694E-01  0.34477423545E+01  0.34481180946E+01  0.40000000000E-01 0.  0.
</event>
<event>
 5   0  0.6200596E+07  0.9118800E+02  0.7818608E-02  0.1180000E+00
       11   -1    0    0    0    0  0.00000000000E+00  0.00000000000E+00  0.39999999673E+01  0.40000000000E+01  0.51109989000E-03 0.  1.
     -623   -1    0    0    0    0  0.00000000000E+00  0.00000000000E+00  0.12525980253E-10  0.17130000000E+03  0.17130000000E+03 0. -1.
       11    1    1    2    0    0  0.90927016142E-03 -0.11751277007E-02  0.15065141544E-01  0.15146861312E-01  0.51109989000E-03 0.  1.
     -623    1    1    2    0    0  0.65621899402E-04  0.52996843064E-03  0.28262496121E-03  0.17130000000E+03  0.17130000000E+03 0. -1.
      622    1    1    2    0    0 -0.97489206083E-03  0.64515927009E-03  0.39846522009E+01  0.39848531376E+01  0.40000000000E-01 0.  1.
</event>
<event>
 5   0  0.6200596E+07  0.9118800E+02  0.7818608E-02  0.1180000E+00
       11   -1    0    0    0    0  0.00000000000E+00  0.00000000000E+00  0.39999999673E+01  0.40000000000E+01  0.51109989000E-03 0.  1.
     -623   -1    0    0    0    0  0.00000000000E+00  0.00000000000E+00  0.12525980253E-10  0.17130000000E+03  0.17130000000E+03 0. -1.
       11    1    1    2    0    0 -0.23226486060E-02  0.97195916710E-03  0.51733274867E-02  0.57761526832E-02  0.51109989000E-03 0.  1.
     -623    1    1    2    0    0  0.12059176840E-02  0.95533419380E-03  0.80371671976E-03  0.17130000001E+03  0.17130000000E+03 0. -1.
      622    1    1    2    0    0  0.11167309219E-02 -0.19272933609E-02  0.39940229232E+01  0.39942238385E+01  0.40000000000E-01 0.  1.
</event>
<event>
 5   0  0.6200596E+07  0.9118800E+02  0.7818608E-02  0.1180000E+00
       11   -1    0    0    0    0  0.00000000000E+00  0.00000000000E+00  0.39999999673E+01  0.40000000000E+01  0.51109989000E-03 0. -1.
     -623   -1    0    0    0    0  0.00000000000E+00  0.00000000000E+00  0.12525980253E-10  0.17130000000E+03  0.17130000000E+03 0.  1.
       11    1    1    2    0    0  0.15464346485E-02  0.63254662280E-02  0.71307958893E-01  0.71606488583E-01  0.51109989000E-03 0. -1.
     -623    1    1    2    0    0 -0.12198685218E-02  0.12925505976E-03  0.50746977030E-03  0.17130000001E+03  0.17130000000E+03 0.  1.
      622    1    1    2    0    0 -0.32656612668E-03 -0.64547212878E-02  0.39281845387E+01  0.39283935063E+01  0.40000000000E-01 0. -1.
</event>
<event>
 5   0  0.6200596E+07  0.9118800E+02  0.7818608E-02  0.1180000E+00
       11   -1    0    0    0    0  0.00000000000E+00  0.00000000000E+00  0.39999999673E+01  0.40000000000E+01  0.51109989000E-03 0.  1.
     -623   -1    0    0    0    0  0.00000000000E+00  0.00000000000E+00  0.12525980253E-10  0.17130000000E+03  0.17130000000E+03 0.  1.
       11    1    1    2    0    0 -0.36562052644E-03 -0.36899491235E-02  0.18245063536E+00  0.18248902698E+00  0.51109989000E-03 0.  1.
     -623    1    1    2    0    0  0.18678588511E-03 -0.67387375283E-04  0.24977900719E-03  0.17130000000E+03  0.17130000000E+03 0.  1.
      622    1    1    2    0    0  0.17883464134E-03  0.37573364988E-02  0.38172995530E+01  0.38175109727E+01  0.40000000000E-01 0.  1.
</event>
<event>
 5   0  0.6200596E+07  0.9118800E+02  0.7818608E-02  0.1180000E+00
       11   -1    0    0    0    0  0.00000000000E+00  0.00000000000E+00  0.39999999673E+01  0.40000000000E+01  0.51109989000E-03 0. -1.
     -623   -1    0    0    0    0  0.00000000000E+00  0.00000000000E+00  0.12525980253E-10  0.17130000000E+03  0.17130000000E+03 0.  1.
       11    1    1    2    0    0  0.12776888727E-01  0.10223114108E-01  0.90669712871E-01  0.92135872502E-01  0.51109989000E-03 0. -1.
     -623    1    1    2    0    0 -0.52622906906E-02  0.55418865511E-03  0.16930252387E-02  0.17130000009E+03  0.17130000000E+03 0.  1.
      622    1    1    2    0    0 -0.75145980362E-02 -0.10777302763E-01  0.39076372292E+01  0.39078640374E+01  0.40000000000E-01 0. -1.
</event>
<event>
 5   0  0.6200596E+07  0.9118800E+02  0.7818608E-02  0.1180000E+00
       11   -1    0    0    0    0  0.00000000000E+00  0.00000000000E+00  0.39999999673E+01  0.40000000000E+01  0.51109989000E-03 0. -1.
     -623   -1    0    0    0    0  0.00000000000E+00  0.00000000000E+00  0.12525980253E-10  0.17130000000E+03  0.17130000000E+03 0. -1.
       11    1    1    2    0    0 -0.43292217233E-03  0.65931315808E-03  0.46050215843E-01  0.46059805868E-01  0.51109989000E-03 0. -1.
     -623    1    1    2    0    0 -0.41828032774E-03  0.78137520546E-03  0.21224891596E-03  0.17130000000E+03  0.17130000000E+03 0. -1.
      622    1    1    2    0    0  0.85120250007E-03 -0.14406883635E-02  0.39537375026E+01  0.39539401917E+01  0.40000000000E-01 0. -1.
</event>
<event>
 5   0  0.6200596E+07  0.9118800E+02  0.7818608E-02  0.1180000E+00
       11   -1    0    0    0    0  0.00000000000E+00  0.00000000000E+00  0.39999999673E+01  0.40000000000E+01  0.51109989000E-03 0.  1.
     -623   -1    0    0    0    0  0.00000000000E+00  0.00000000000E+00  0.12525980253E-10  0.17130000000E+03  0.17130000000E+03 0.  1.
       11    1    1    2    0    0  0.18719676832E-01 -0.14997250388E-01  0.23043677326E+01  0.23044926236E+01  0.51109989000E-03 0.  1.
     -623    1    1    2    0    0  0.91921814319E-02 -0.30904176179E-02  0.92338405467E-03  0.17130000028E+03  0.17130000000E+03 0.  1.
      622    1    1    2    0    0 -0.27911858264E-01  0.18087668006E-01  0.16947088507E+01  0.16955070995E+01  0.40000000000E-01 0.  0.
</event>
<event>
 5   0  0.6200596E+07  0.9118800E+02  0.7818608E-02  0.1180000E+00
       11   -1    0    0    0    0  0.00000000000E+00  0.00000000000E+00  0.39999999673E+01  0.40000000000E+01  0.51109989000E-03 0. -1.
     -623   -1    0    0    0    0  0.00000000000E+00  0.00000000000E+00  0.12525980253E-10  0.17130000000E+03  0.17130000000E+03 0.  1.
       11    1    1    2    0    0  0.11435141865E-01 -0.36104424689E-02  0.12425147475E+01  0.12425727169E+01  0.51109989000E-03 0. -1.
     -623    1    1    2    0    0  0.11844898370E-02  0.91678598049E-02  0.38280903168E-03  0.17130000025E+03  0.17130000000E+03 0.  1.
      622    1    1    2    0    0 -0.12619631702E-01 -0.55574173359E-02  0.27571024108E+01  0.27574270332E+01  0.40000000000E-01 0. -1.
</event>
<event>
 5   0  0.6200596E+07  0.9118800E+02  0.7818608E-02  0.1180000E+00
       11   -1    0    0    0    0  0.00000000000E+00  0.00000000000E+00  0.39999999673E+01  0.40000000000E+01  0.51109989000E-03 0. -1.
     -623   -1    0    0    0    0  0.00000000000E+00  0.00000000000E+00  0.12525980253E-10  0.17130000000E+03  0.17130000000E+03 0.  1.
       11    1    1    2    0    0 -0.26359067789E-01  0.42881247985E-01  0.48551788537E+00  0.48812035414E+00  0.51109989000E-03 0. -1.
     -623    1    1    2    0    0  0.89270008967E-03 -0.41885331740E-01  0.29278733646E-02  0.17130000515E+03  0.17130000000E+03 0.  1.
      622    1    1    2    0    0  0.25466367699E-01 -0.99591624436E-03  0.35115542086E+01  0.35118744977E+01  0.40000000000E-01 0. -1.
</event>
<event>
 5   0  0.6200596E+07  0.9118800E+02  0.7818608E-02  0.1180000E+00
       11   -1    0    0    0    0  0.00000000000E+00  0.00000000000E+00  0.39999999673E+01  0.40000000000E+01  0.51109989000E-03 0.  1.
     -623   -1    0    0    0    0  0.00000000000E+00  0.00000000000E+00  0.12525980253E-10  0.17130000000E+03  0.17130000000E+03 0. -1.
       11    1    1    2    0    0  0.22441425248E-01  0.35896856553E-02  0.29290942735E+01  0.29291824845E+01  0.51109989000E-03 0.  1.
     -623    1    1    2    0    0 -0.47371935026E-03  0.13244079068E-02  0.10723407331E-02  0.17130000001E+03  0.17130000000E+03 0. -1.
      622    1    1    2    0    0 -0.21967705898E-01 -0.49140935621E-02  0.10698333531E+01  0.10708175063E+01  0.40000000000E-01 0.  1.
</event>
<event>
 5   0  0.6200596E+07  0.9118800E+02  0.7818608E-02  0.1180000E+00
       11   -1    0    0    0    0  0.00000000000E+00  0.00000000000E+00  0.39999999673E+01  0.40000000000E+01  0.51109989000E-03 0.  1.
     -623   -1    0    0    0    0  0.00000000000E+00  0.00000000000E+00  0.12525980253E-10  0.17130000000E+03  0.17130000000E+03 0. -1.
       11    1    1    2    0    0  0.43597552298E-02  0.63715891089E-02  0.27070676633E+00  0.27081731697E+00  0.51109989000E-03 0.  1.
     -623    1    1    2    0    0 -0.78510173649E-04 -0.59658640713E-03  0.33197926891E-03  0.17130000000E+03  0.17130000000E+03 0. -1.
      622    1    1    2    0    0 -0.42812450562E-02 -0.57750027018E-02  0.37289612218E+01  0.37291826817E+01  0.40000000000E-01 0.  1.
</event>
<event>
 5   0  0.6200596E+07  0.9118800E+02  0.7818608E-02  0.1180000E+00
       11   -1    0    0    0    0  0.00000000000E+00  0.00000000000E+00  0.39999999673E+01  0.40000000000E+01  0.51109989000E-03 0. -1.
     -623   -1    0    0    0    0  0.00000000000E+00  0.00000000000E+00  0.12525980253E-10  0.17130000000E+03  0.17130000000E+03 0.  1.
       11    1    1    2    0    0  0.35334982179E-01 -0.49891101237E-02  0.13903520628E+01  0.13908100416E+01  0.51109989000E-03 0. -1.
     -623    1    1    2    0    0 -0.33433101377E-02  0.95783993933E-03  0.96388341399E-03  0.17130000004E+03  0.17130000000E+03 0.  1.
      622    1    1    2    0    0 -0.31991672042E-01  0.40312701844E-02  0.26086840212E+01  0.26091899204E+01  0.40000000000E-01 0.  0.
</event>
<event>
 5   0  0.6200596E+07  0.9118800E+02  0.7818608E-02  0.1180000E+00
       11   -1    0    0    0    0  0.00000000000E+00  0.00000000000E+00  0.39999999673E+01  0.40000000000E+01  0.51109989000E-03 0. -1.
     -623   -1    0    0    0    0  0.00000000000E+00  0.00000000000E+00  0.12525980253E-10  0.17130000000E+03  0.17130000000E+03 0.  1.
       11    1    1    2    0    0  0.58148698677E-01 -0.10437128042E-01  0.16011439740E+01  0.16022335946E+01  0.51109989000E-03 0. -1.
     -623    1    1    2    0    0 -0.52528892503E-01  0.13747163961E-01  0.14407395348E-02  0.17130000861E+03  0.17130000000E+03 0.  1.
      622    1    1    2    0    0 -0.56198061743E-02 -0.33100359186E-02  0.23974152538E+01  0.23977577938E+01  0.40000000000E-01 0.  0.
</event>
<event>
 5   0  0.6200596E+07  0.9118800E+02  0.7818608E-02  0.1180000E+00
       11   -1    0    0    0    0  0.00000000000E+00  0.00000000000E+00  0.39999999673E+01  0.40000000000E+01  0.51109989000E-03 0. -1.
     -623   -1    0    0    0    0  0.00000000000E+00  0.00000000000E+00  0.12525980253E-10  0.17130000000E+03  0.17130000000E+03 0.  1.
       11    1    1    2    0    0 -0.74854343920E-03 -0.69662343887E-01  0.23030908871E+00  0.24061575185E+00  0.51109989000E-03 0. -1.
     -623    1    1    2    0    0 -0.34682281105E-01  0.52174553665E-01  0.10738885268E-01  0.17130001179E+03  0.17130000000E+03 0.  1.
      622    1    1    2    0    0  0.35430824544E-01  0.17487790221E-01  0.37589519934E+01  0.37593724549E+01  0.40000000000E-01 0. -1.
</event>
<event>
 5   0  0.6200596E+07  0.9118800E+02  0.7818608E-02  0.1180000E+00
       11   -1    0    0    0    0  0.00000000000E+00  0.00000000000E+00  0.39999999673E+01  0.40000000000E+01  0.51109989000E-03 0. -1.
     -623   -1    0    0    0    0  0.00000000000E+00  0.00000000000E+00  0.12525980253E-10  0.17130000000E+03  0.17130000000E+03 0. -1.
       11    1    1    2    0    0  0.47080378308E-02  0.10607717220E-01  0.61986621168E+00  0.61997505667E+00  0.51109989000E-03 0. -1.
     -623    1    1    2    0    0 -0.37780551913E-02  0.21806761133E-02  0.36988352696E-03  0.17130000006E+03  0.17130000000E+03 0. -1.
      622    1    1    2    0    0 -0.92998263951E-03 -0.12788393333E-01  0.33797638722E+01  0.33800248874E+01  0.40000000000E-01 0. -1.
</event>
<event>
 5   0  0.6200596E+07  0.9118800E+02  0.7818608E-02  0.1180000E+00
       11   -1    0    0    0    0  0.00000000000E+00  0.00000000000E+00  0.39999999673E+01  0.40000000000E+01  0.51109989000E-03 0.  1.
     -623   -1    0    0    0    0  0.00000000000E+00  0.00000000000E+00  0.12525980253E-10  0.17130000000E+03  0.17130000000E+03 0. -1.
       11    1    1    2    0    0 -0.43126392895E-02  0.78026657307E-02  0.33297535048E-01  0.34474157177E-01  0.51109989000E-03 0.  1.
     -623    1    1    2    0    0 -0.42352716528E-02 -0.49900375371E-02  0.13886747236E-02  0.17130000013E+03  0.17130000000E+03 0. -1.
      622    1    1    2    0    0  0.85479109423E-02 -0.28126281936E-02  0.39653137576E+01  0.39655257122E+01  0.40000000000E-01 0.  1.
</event>
<event>
 5   0  0.6200596E+07  0.9118800E+02  0.7818608E-02  0.1180000E+00
       11   -1    0    0    0    0  0.00000000000E+00  0.00000000000E+00  0.39999999673E+01  0.40000000000E+01  0.51109989000E-03 0. -1.
     -623   -1    0    0    0    0  0.00000000000E+00  0.00000000000E+00  0.12525980253E-10  0.17130000000E+03  0.17130000000E+03 0.  1.
       11    1    1    2    0    0 -0.82638266063E-02  0.32692703180E-02  0.14021411556E+01  0.14021694122E+01  0.51109989000E-03 0. -1.
     -623    1    1    2    0    0  0.14525205009E-01 -0.10701564667E-02  0.34528853285E-03  0.17130000062E+03  0.17130000000E+03 0.  1.
      622    1    1    2    0    0 -0.62613784031E-02 -0.21991138512E-02  0.25975135232E+01  0.25978299683E+01  0.40000000000E-01 0. -1.
</event>
<event>
 5   0  0.6200596E+07  0.9118800E+02  0.7818608E-02  0.1180000E+00
       11   -1    0    0    0    0  0.00000000000E+00  0.00000000000E+00  0.39999999673E+01  0.40000000000E+01  0.51109989000E-03 0. -1.
     -623   -1    0    0    0    0  0.00000000000E+00  0.00000000000E+00  0.12525980253E-10  0.17130000000E+03  0.17130000000E+03 0.  1.
       11    1    1    2    0    0 -0.20715937243E-01 -0.52210895688E-02  0.58053517329E+00  0.58092835916E+00  0.51109989000E-03 0. -1.
     -623    1    1    2    0    0  0.11400637340E-02 -0.24180336246E-02  0.69174486696E-03  0.17130000002E+03  0.17130000000E+03 0.  1.
      622    1    1    2    0    0  0.19575873509E-01  0.76391231934E-02  0.34187730492E+01  0.34190716186E+01  0.40000000000E-01 0. -1.
</event>
<event>
 5   0  0.6200596E+07  0.9118800E+02  0.7818608E-02  0.1180000E+00
       11   -1    0    0    0    0  0.00000000000E+00  0.00000000000E+00  0.39999999673E+01  0.40000000000E+01  0.51109989000E-03 0. -1.
     -623   -1    0    0    0    0  0.00000000000E+00  0.00000000000E+00  0.12525980253E-10  0.17130000000E+03  0.17130000000E+03 0. -1.
       11    1    1    2    0    0  0.95620566189E-03  0.17288906411E-02  0.42364780344E-01  0.42413903700E-01  0.51109989000E-03 0. -1.
     -623    1    1    2    0    0  0.20425442619E-02 -0.10036597596E-02  0.25245722672E-03  0.17130000002E+03  0.17130000000E+03 0. -1.
      622    1    1    2    0    0 -0.29987499238E-02 -0.72523088155E-03  0.39573827298E+01  0.39575860810E+01  0.40000000000E-01 0. -1.
</event>
<event>
 5   0  0.6200596E+07  0.9118800E+02  0.7818608E-02  0.1180000E+00
       11   -1    0    0    0    0  0.00000000000E+00  0.00000000000E+00  0.39999999673E+01  0.40000000000E+01  0.51109989000E-03 0. -1.
     -623   -1    0    0    0    0  0.00000000000E+00  0.00000000000E+00  0.12525980253E-10  0.17130000000E+03  0.17130000000E+03 0. -1.
       11    1    1    2    0    0 -0.65149983527E-02  0.89071112247E-03  0.10778662450E+01  0.10778864235E+01  0.51109989000E-03 0. -1.
     -623    1    1    2    0    0  0.53871696148E-04  0.28108486211E-03  0.30131239343E-03  0.17130000000E+03  0.17130000000E+03 0. -1.
      622    1    1    2    0    0  0.64611266566E-02 -0.11717959846E-02  0.29218324099E+01  0.29221135760E+01  0.40000000000E-01 0. -1.
</event>
<event>
 5   0  0.6200596E+07  0.9118800E+02  0.7818608E-02  0.1180000E+00
       11   -1    0    0    0    0  0.00000000000E+00  0.00000000000E+00  0.39999999673E+01  0.40000000000E+01  0.51109989000E-03 0. -1.
     -623   -1    0    0    0    0  0.00000000000E+00  0.00000000000E+00  0.12525980253E-10  0.17130000000E+03  0.17130000000E+03 0. -1.
       11    1    1    2    0    0  0.85089844717E-02  0.57287894657E-02  0.13715451516E+01  0.13715836052E+01  0.51109989000E-03 0. -1.
     -623    1    1    2    0    0  0.31750749139E-02 -0.10074683423E-01  0.37269634079E-03  0.17130000033E+03  0.17130000000E+03 0. -1.
      622    1    1    2    0    0 -0.11684059386E-01  0.43458939576E-02  0.26280821194E+01  0.26284160688E+01  0.40000000000E-01 0. -1.
</event>
<event>
 5   0  0.6200596E+07  0.9118800E+02  0.7818608E-02  0.1180000E+00
       11   -1    0    0    0    0  0.00000000000E+00  0.00000000000E+00  0.39999999673E+01  0.40000000000E+01  0.51109989000E-03 0. -1.
     -623   -1    0    0    0    0  0.00000000000E+00  0.00000000000E+00  0.12525980253E-10  0.17130000000E+03  0.17130000000E+03 0.  1.
       11    1    1    2    0    0  0.13816098572E-01  0.34589097708E-01  0.30330658988E+01  0.30332946276E+01  0.51109989000E-03 0. -1.
     -623    1    1    2    0    0 -0.14640257543E-01 -0.36440740692E-02  0.15534673837E-02  0.17130000067E+03  0.17130000000E+03 0.  1.
      622    1    1    2    0    0  0.82415897103E-03 -0.30945023639E-01  0.96538060115E+00  0.96670470093E+00  0.40000000000E-01 0. -1.
</event>
<event>
 5   0  0.6200596E+07  0.9118800E+02  0.7818608E-02  0.1180000E+00
       11   -1    0    0    0    0  0.00000000000E+00  0.00000000000E+00  0.39999999673E+01  0.40000000000E+01  0.51109989000E-03 0. -1.
     -623   -1    0    0    0    0  0.00000000000E+00  0.00000000000E+00  0.12525980253E-10  0.17130000000E+03  0.17130000000E+03 0. -1.
       11    1    1    2    0    0  0.13274679004E-01 -0.18663977448E-02  0.17744501367E+01  0.17745008451E+01  0.51109989000E-03 0. -1.
     -623    1    1    2    0    0 -0.14410041608E-01 -0.72159035060E-02  0.42975874770E-03  0.17130000076E+03  0.17130000000E+03 0. -1.
      622    1    1    2    0    0  0.11353626038E-02  0.90823012507E-02  0.22251200719E+01  0.22254983962E+01  0.40000000000E-01 0. -1.
</event>
<event>
 5   0  0.6200596E+07  0.9118800E+02  0.7818608E-02  0.1180000E+00
       11   -1    0    0    0    0  0.00000000000E+00  0.00000000000E+00  0.39999999673E+01  0.40000000000E+01  0.51109989000E-03 0.  1.
     -623   -1    0    0    0    0  0.00000000000E+00  0.00000000000E+00  0.12525980253E-10  0.17130000000E+03  0.17130000000E+03 0. -1.
       11    1    1    2    0    0 -0.19476377201E-02 -0.26146538957E-03  0.65339849289E+00  0.65340164783E+00  0.51109989000E-03 0.  1.
     -623    1    1    2    0    0 -0.25410686886E-02  0.88756750030E-02  0.25652644467E-03  0.17130000025E+03  0.17130000000E+03 0. -1.
      622    1    1    2    0    0  0.44887064087E-02 -0.86142096134E-02  0.33463449480E+01  0.33465981032E+01  0.40000000000E-01 0.  1.
</event>
<event>
 5   0  0.6200596E+07  0.9118800E+02  0.7818608E-02  0.1180000E+00
       11   -1    0    0    0    0  0.00000000000E+00  0.00000000000E+00  0.39999999673E+01  0.40000000000E+01  0.51109989000E-03 0. -1.
     -623   -1    0    0    0    0  0.00000000000E+00  0.00000000000E+00  0.12525980253E-10  0.17130000000E+03  0.17130000000E+03 0.  1.
       11    1    1    2    0    0 -0.29332069183E-03  0.11468215834E-02  0.65466542701E-02  0.66724164580E-02  0.51109989000E-03 0. -1.
     -623    1    1    2    0    0 -0.16955183869E-03 -0.19848298823E-03  0.32620870008E-03  0.17130000000E+03  0.17130000000E+03 0.  1.
      622    1    1    2    0    0  0.46287253052E-03 -0.94833859515E-03  0.39931271044E+01  0.39933275830E+01  0.40000000000E-01 0. -1.
</event>
<event>
 5   0  0.6200596E+07  0.9118800E+02  0.7818608E-02  0.1180000E+00
       11   -1    0    0    0    0  0.00000000000E+00  0.00000000000E+00  0.39999999673E+01  0.40000000000E+01  0.51109989000E-03 0. -1.
     -623   -1    0    0    0    0  0.00000000000E+00  0.00000000000E+00  0.12525980253E-10  0.17130000000E+03  0.17130000000E+03 0. -1.
       11    1    1    2    0    0  0.34633868860E-04  0.32471422967E-02  0.35478750611E+00  0.35480273512E+00  0.51109989000E-03 0. -1.
     -623    1    1    2    0    0 -0.87688072288E-03 -0.12785214164E-03  0.23610430669E-03  0.17130000000E+03  0.17130000000E+03 0. -1.
      622    1    1    2    0    0  0.84224685402E-03 -0.31192901550E-02  0.36449763569E+01  0.36451972624E+01  0.40000000000E-01 0. -1.
</event>
<event>
 5   0  0.6200596E+07  0.9118800E+02  0.7818608E-02  0.1180000E+00
       11   -1    0    0    0    0  0.00000000000E+00  0.00000000000E+00  0.39999999673E+01  0.40000000000E+01  0.51109989000E-03 0.  1.
     -623   -1    0    0    0    0  0.00000000000E+00  0.00000000000E+00  0.12525980253E-10  0.17130000000E+03  0.17130000000E+03 0.  1.
       11    1    1    2    0    0 -0.48051606196E-03  0.26945226519E-02  0.95649626556E-01  0.95690143853E-01  0.51109989000E-03 0.  1.
     -623    1    1    2    0    0  0.60166654194E-03 -0.18821512415E-02  0.24548977699E-03  0.17130000001E+03  0.17130000000E+03 0.  1.
      622    1    1    2    0    0 -0.12115047998E-03 -0.81237141036E-03  0.39041048510E+01  0.39043098446E+01  0.40000000000E-01 0.  1.
</event>
<event>
 5   0  0.6200596E+07  0.9118800E+02  0.7818608E-02  0.1180000E+00
       11   -1    0    0    0    0  0.00000000000E+00  0.00000000000E+00  0.39999999673E+01  0.40000000000E+01  0.51109989000E-03 0. -1.
     -623   -1    0    0    0    0  0.00000000000E+00  0.00000000000E+00  0.12525980253E-10  0.17130000000E+03  0.17130000000E+03 0.  1.
       11    1    1    2    0    0  0.47601460094E-02 -0.42585494576E-02  0.66864926036E+00  0.66867995995E+00  0.51109989000E-03 0. -1.
     -623    1    1    2    0    0  0.28497803918E-02  0.84401625835E-02  0.28236973260E-03  0.17130000023E+03  0.17130000000E+03 0.  1.
      622    1    1    2    0    0 -0.76099264012E-02 -0.41816131258E-02  0.33310683373E+01  0.33313198082E+01  0.40000000000E-01 0. -1.
</event>
<event>
 5   0  0.6200596E+07  0.9118800E+02  0.7818608E-02  0.1180000E+00
       11   -1    0    0    0    0  0.00000000000E+00  0.00000000000E+00  0.39999999673E+01  0.40000000000E+01  0.51109989000E-03 0. -1.
     -623   -1    0    0    0    0  0.00000000000E+00  0.00000000000E+00  0.12525980253E-10  0.17130000000E+03  0.17130000000E+03 0. -1.
       11    1    1    2    0    0  0.11123590059E-02  0.20441208596E-03  0.36985415408E-01  0.37006233269E-01  0.51109989000E-03 0. -1.
     -623    1    1    2    0    0 -0.58781234661E-03 -0.20228501797E-02  0.22312298779E-03  0.17130000001E+03  0.17130000000E+03 0. -1.
      622    1    1    2    0    0 -0.52454665929E-03  0.18184380938E-02  0.39627914290E+01  0.39629937536E+01  0.40000000000E-01 0. -1.
</event>
<event>
 5   0  0.6200596E+07  0.9118800E+02  0.7818608E-02  0.1180000E+00
       11   -1    0    0    0    0  0.00000000000E+00  0.00000000000E+00  0.39999999673E+01  0.40000000000E+01  0.51109989000E-03 0. -1.
     -623   -1    0    0    0    0  0.00000000000E+00  0.00000000000E+00  0.12525980253E-10  0.17130000000E+03  0.17130000000E+03 0. -1.
       11    1    1    2    0    0  0.85201659944E-02  0.37432309602E-02  0.23231460979E+00  0.23250149279E+00  0.51109989000E-03 0. -1.
     -623    1    1    2    0    0 -0.25045281029E-02 -0.47708866202E-02  0.40422714034E-03  0.17130000009E+03  0.17130000000E+03 0. -1.
      622    1    1    2    0    0 -0.60156378915E-02  0.10276556600E-02  0.37672811304E+01  0.37674984220E+01  0.40000000000E-01 0. -1.
</event>
<event>
 5   0  0.6200596E+07  0.9118800E+02  0.7818608E-02  0.1180000E+00
       11   -1    0    0    0    0  0.00000000000E+00  0.00000000000E+00  0.39999999673E+01  0.40000000000E+01  0.51109989000E-03 0.  1.
     -623   -1    0    0    0    0  0.00000000000E+00  0.00000000000E+00  0.12525980253E-10  0.17130000000E+03  0.17130000000E+03 0. -1.
       11    1    1    2    0    0  0.21828382416E-01 -0.75772723173E-02  0.11208965592E+01  0.11211348050E+01  0.51109989000E-03 0.  1.
     -623    1    1    2    0    0 -0.38241306513E-02 -0.47497516384E-02  0.59892293885E-03  0.17130000011E+03  0.17130000000E+03 0. -1.
      622    1    1    2    0    0 -0.18004251764E-01  0.12327023956E-01  0.28785044852E+01  0.28788650854E+01  0.40000000000E-01 0.  1.
</event>
<event>
 5   0  0.6200596E+07  0.9118800E+02  0.7818608E-02  0.1180000E+00
       11   -1    0    0    0    0  0.00000000000E+00  0.00000000000E+00  0.39999999673E+01  0.40000000000E+01  0.51109989000E-03 0. -1.
     -623   -1    0    0    0    0  0.00000000000E+00  0.00000000000E+00  0.12525980253E-10  0.17130000000E+03  0.17130000000E+03 0.  1.
       11    1    1    2    0    0 -0.51641327189E-02  0.13071457210E-03  0.62684981846E-01  0.62899551063E-01  0.51109989000E-03 0. -1.
     -623    1    1    2    0    0  0.34279706329E-02 -0.25846040596E-02  0.41893893887E-03  0.17130000005E+03  0.17130000000E+03 0.  1.
      622    1    1    2    0    0  0.17361620861E-02  0.24538894875E-02  0.39368960466E+01  0.39371003946E+01  0.40000000000E-01 0. -1.
</event>
<event>
 5   0  0.6200596E+07  0.9118800E+02  0.7818608E-02  0.1180000E+00
       11   -1    0    0    0    0  0.00000000000E+00  0.00000000000E+00  0.39999999673E+01  0.40000000000E+01  0.51109989000E-03 0.  1.
     -623   -1    0    0    0    0  0.00000000000E+00  0.00000000000E+00  0.12525980253E-10  0.17130000000E+03  0.17130000000E+03 0.  1.
       11    1    1    2    0    0  0.16629276187E-02 -0.37522119279E-02  0.10753450397E+00  0.10761401018E+00  0.51109989000E-03 0.  1.
     -623    1    1    2    0    0 -0.73382090355E-02  0.32194128674E-02  0.28937024580E-03  0.17130000019E+03  0.17130000000E+03 0.  1.
      622    1    1    2    0    0  0.56752814168E-02  0.53279906050E-03  0.38921760931E+01  0.38923858021E+01  0.40000000000E-01 0.  1.
</event>
<event>
 5   0  0.6200596E+07  0.9118800E+02  0.7818608E-02  0.1180000E+00
       11   -1    0    0    0    0  0.00000000000E+00  0.00000000000E+00  0.39999999673E+01  0.40000000000E+01  0.51109989000E-03 0.  1.
     -623   -1    0    0    0    0  0.00000000000E+00  0.00000000000E+00  0.12525980253E-10  0.17130000000E+03  0.17130000000E+03 0.  1.
       11    1    1    2    0    0 -0.47962286733E-02  0.29143680947E-01  0.90696611695E+00  0.90744705436E+00  0.51109989000E-03 0.  1.
     -623    1    1    2    0    0 -0.14491342368E-02  0.59796248544E-02  0.94549933457E-03  0.17130000011E+03  0.17130000000E+03 0.  1.
      622    1    1    2    0    0  0.62453629101E-02 -0.35123305802E-01  0.30920883511E+01  0.30925528325E+01  0.40000000000E-01 0.  0.
</event>
<event>
 5   0  0.6200596E+07  0.9118800E+02  0.7818608E-02  0.1180000E+00
       11   -1    0    0    0    0  0.00000000000E+00  0.00000000000E+00  0.39999999673E+01  0.40000000000E+01  0.51109989000E-03 0. -1.
     -623   -1    0    0    0    0  0.00000000000E+00  0.00000000000E+00  0.12525980253E-10  0.17130000000E+03  0.17130000000E+03 0.  1.
       11    1    1    2    0    0 -0.14424074194E-01  0.11919871935E-01  0.20444460615E+00  0.20529976978E+00  0.51109989000E-03 0. -1.
     -623    1    1    2    0    0 -0.21782536963E-02  0.42629148266E-02  0.11368575264E-02  0.17130000007E+03  0.17130000000E+03 0.  1.
      622    1    1    2    0    0  0.16602327890E-01 -0.16182786762E-01  0.37944185037E+01  0.37947001596E+01  0.40000000000E-01 0. -1.
</event>
<event>
 5   0  0.6200596E+07  0.9118800E+02  0.7818608E-02  0.1180000E+00
       11   -1    0    0    0    0  0.00000000000E+00  0.00000000000E+00  0.39999999673E+01  0.40000000000E+01  0.51109989000E-03 0.  1.
     -623   -1    0    0    0    0  0.00000000000E+00  0.00000000000E+00  0.12525980253E-10  0.17130000000E+03  0.17130000000E+03 0. -1.
       11    1    1    2    0    0  0.82608337226E-01  0.44487953459E-01  0.17009874080E+01  0.17035732267E+01  0.51109989000E-03 0.  1.
     -623    1    1    2    0    0 -0.23726072765E-01 -0.91616253849E-02  0.39631106035E-02  0.17130000193E+03  0.17130000000E+03 0. -1.
      622    1    1    2    0    0 -0.58882264462E-01 -0.35326328074E-01  0.22950494488E+01  0.22964248394E+01  0.40000000000E-01 0.  1.
</event>
<event>
 5   0  0.6200596E+07  0.9118800E+02  0.7818608E-02  0.1180000E+00
       11   -1    0    0    0    0  0.00000000000E+00  0.00000000000E+00  0.39999999673E+01  0.40000000000E+01  0.51109989000E-03 0. -1.
     -623   -1    0    0    0    0  0.00000000000E+00  0.00000000000E+00  0.12525980253E-10  0.17130000000E+03  0.17130000000E+03 0.  1.
       11    1    1    2    0    0 -0.10379598042E-01  0.98712738554E-02  0.70334804071E+00  0.70349406941E+00  0.51109989000E-03 0. -1.
     -623    1    1    2    0    0  0.80321562955E-02 -0.49859101734E-02  0.39340368157E-03  0.17130000026E+03  0.17130000000E+03 0.  1.
      622    1    1    2    0    0  0.23474417462E-02 -0.48853636820E-02  0.32962585230E+01  0.32965056693E+01  0.40000000000E-01 0. -1.
</event>
<event>
 5   0  0.6200596E+07  0.9118800E+02  0.7818608E-02  0.1180000E+00
       11   -1    0    0    0    0  0.00000000000E+00  0.00000000000E+00  0.39999999673E+01  0.40000000000E+01  0.51109989000E-03 0.  1.
     -623   -1    0    0    0    0  0.00000000000E+00  0.00000000000E+00  0.12525980253E-10  0.17130000000E+03  0.17130000000E+03 0. -1.
       11    1    1    2    0    0 -0.36389172669E-02  0.21734841872E-02  0.15563131682E-01  0.16138092910E-01  0.51109989000E-03 0.  1.
     -623    1    1    2    0    0  0.67218000095E-03  0.43418491181E-03  0.77770564008E-03  0.17130000000E+03  0.17130000000E+03 0. -1.
      622    1    1    2    0    0  0.29667372659E-02 -0.26076690990E-02  0.39836591300E+01  0.39838619035E+01  0.40000000000E-01 0.  1.
</event>
<event>
 5   0  0.6200596E+07  0.9118800E+02  0.7818608E-02  0.1180000E+00
       11   -1    0    0    0    0  0.00000000000E+00  0.00000000000E+00  0.39999999673E+01  0.40000000000E+01  0.51109989000E-03 0.  1.
     -623   -1    0    0    0    0  0.00000000000E+00  0.00000000000E+00  0.12525980253E-10  0.17130000000E+03  0.17130000000E+03 0. -1.
       11    1    1    2    0    0  0.90967325449E-02  0.54100990575E-02  0.15745777310E-01  0.18979210733E-01  0.51109989000E-03 0.  1.
     -623    1    1    2    0    0 -0.49139709498E-03 -0.67786478625E-02  0.34440651256E-02  0.17130000017E+03  0.17130000000E+03 0. -1.
      622    1    1    2    0    0 -0.86053354499E-02  0.13685488050E-02  0.39808101249E+01  0.39810206198E+01  0.40000000000E-01 0.  1.
</event>
<event>
 5   0  0.6200596E+07  0.9118800E+02  0.7818608E-02  0.1180000E+00
       11   -1    0    0    0    0  0.00000000000E+00  0.00000000000E+00  0.39999999673E+01  0.40000000000E+01  0.51109989000E-03 0. -1.
     -623   -1    0    0    0    0  0.00000000000E+00  0.00000000000E+00  0.12525980253E-10  0.17130000000E+03  0.17130000000E+03 0.  1.
       11    1    1    2    0    0  0.78500446396E-04  0.10472751623E-01  0.30730261372E+00  0.30748145036E+00  0.51109989000E-03 0. -1.
     -623    1    1    2    0    0  0.27141909431E-01 -0.26982591427E-01  0.53699228398E-03  0.17130000428E+03  0.17130000000E+03 0.  1.
      622    1    1    2    0    0 -0.27220409877E-01  0.16509839805E-01  0.36921603614E+01  0.36925142734E+01  0.40000000000E-01 0.  0.
</event>
<event>
 5   0  0.6200596E+07  0.9118800E+02  0.7818608E-02  0.1180000E+00
       11   -1    0    0    0    0  0.00000000000E+00  0.00000000000E+00  0.39999999673E+01  0.40000000000E+01  0.51109989000E-03 0. -1.
     -623   -1    0    0    0    0  0.00000000000E+00  0.00000000000E+00  0.12525980253E-10  0.17130000000E+03  0.17130000000E+03 0. -1.
       11    1    1    2    0    0 -0.15074210223E-01  0.13598411331E-02  0.87491164721E-01  0.88792151159E-01  0.51109989000E-03 0. -1.
     -623    1    1    2    0    0  0.52468967253E-02 -0.78087116546E-02  0.15234282076E-02  0.17130000027E+03  0.17130000000E+03 0. -1.
      622    1    1    2    0    0  0.98273134979E-02  0.64488705215E-02  0.39109853744E+01  0.39112075837E+01  0.40000000000E-01 0. -1.
</event>
<event>
 5   0  0.6200596E+07  0.9118800E+02  0.7818608E-02  0.1180000E+00
       11   -1    0    0    0    0  0.00000000000E+00  0.00000000000E+00  0.39999999673E+01  0.40000000000E+01  0.51109989000E-03 0. -1.
     -623   -1    0    0    0    0  0.00000000000E+00  0.00000000000E+00  0.12525980253E-10  0.17130000000E+03  0.17130000000E+03 0.  1.
       11    1    1    2    0    0 -0.61242975901E-02 -0.19463566448E-01  0.15297326265E+01  0.15298687876E+01  0.51109989000E-03 0. -1.
     -623    1    1    2    0    0 -0.11413463655E-01 -0.11570182296E-01  0.71804521154E-03  0.17130000077E+03  0.17130000000E+03 0.  1.
      622    1    1    2    0    0  0.17537761245E-01  0.31033748744E-01  0.24695492956E+01  0.24701304399E+01  0.40000000000E-01 0.  0.
</event>
<event>
 5   0  0.6200596E+07  0.9118800E+02  0.7818608E-02  0.1180000E+00
       11   -1    0    0    0    0  0.00000000000E+00  0.00000000000E+00  0.39999999673E+01  0.40000000000E+01  0.51109989000E-03 0.  1.
     -623   -1    0    0    0    0  0.00000000000E+00  0.00000000000E+00  0.12525980253E-10  0.17130000000E+03  0.17130000000E+03 0.  1.
       11    1    1    2    0    0 -0.15402609560E-02 -0.33084874929E-02  0.26811727473E+00  0.26814259774E+00  0.51109989000E-03 0.  1.
     -623    1    1    2    0    0 -0.41089891167E-02  0.85715670507E-02  0.24791857101E-03  0.17130000026E+03  0.17130000000E+03 0.  1.
      622    1    1    2    0    0  0.56492500727E-02 -0.52630795578E-02  0.37316347741E+01  0.37318571383E+01  0.40000000000E-01 0.  1.
</event>
<event>
 5   0  0.6200596E+07  0.9118800E+02  0.7818608E-02  0.1180000E+00
       11   -1    0    0    0    0  0.00000000000E+00  0.00000000000E+00  0.39999999673E+01  0.40000000000E+01  0.51109989000E-03 0. -1.
     -623   -1    0    0    0    0  0.00000000000E+00  0.00000000000E+00  0.12525980253E-10  0.17130000000E+03  0.17130000000E+03 0.  1.
       11    1    1    2    0    0 -0.54916762927E-01  0.31942108774E-02  0.10602773274E+01  0.10617035019E+01  0.51109989000E-03 0. -1.
     -623    1    1    2    0    0  0.55427330516E-01 -0.42030150330E-01  0.19692883318E-02  0.17130001413E+03  0.17130000000E+03 0.  1.
      622    1    1    2    0    0 -0.51056758883E-03  0.38835939453E-01  0.29377533517E+01  0.29382823632E+01  0.40000000000E-01 0. -1.
</event>
<event>
 5   0  0.6200596E+07  0.9118800E+02  0.7818608E-02  0.1180000E+00
       11   -1    0    0    0    0  0.00000000000E+00  0.00000000000E+00  0.39999999673E+01  0.40000000000E+01  0.51109989000E-03 0. -1.
     -623   -1    0    0    0    0  0.00000000000E+00  0.00000000000E+00  0.12525980253E-10  0.17130000000E+03  0.17130000000E+03 0.  1.
       11    1    1    2    0    0  0.25090281621E-02  0.98509533407E-03  0.10399177159E-01  0.10754986834E-01  0.51109989000E-03 0. -1.
     -623    1    1    2    0    0 -0.37850148555E-02 -0.48811981324E-03  0.55659972813E-03  0.17130000004E+03  0.17130000000E+03 0.  1.
      622    1    1    2    0    0  0.12759866933E-02 -0.49697552083E-03  0.39890441905E+01  0.39892449697E+01  0.40000000000E-01 0. -1.
</event>
<event>
 5   0  0.6200596E+07  0.9118800E+02  0.7818608E-02  0.1180000E+00
       11   -1    0    0    0    0  0.00000000000E+00  0.00000000000E+00  0.39999999673E+01  0.40000000000E+01  0.51109989000E-03 0.  1.
     -623   -1    0    0    0    0  0.00000000000E+00  0.00000000000E+00  0.12525980253E-10  0.17130000000E+03  0.17130000000E+03 0. -1.
       11    1    1    2    0    0  0.17148952958E-01 -0.61787743814E-01  0.18138118165E+01  0.18149450071E+01  0.51109989000E-03 0.  1.
     -623    1    1    2    0    0  0.65731095273E-02 -0.11558409924E-01  0.28602854409E-02  0.17130000054E+03  0.17130000000E+03 0. -1.
      622    1    1    2    0    0 -0.23722062486E-01  0.73346153738E-01  0.21833278654E+01  0.21850544530E+01  0.40000000000E-01 0.  1.
</event>
<event>
 5   0  0.6200596E+07  0.9118800E+02  0.7818608E-02  0.1180000E+00
       11   -1    0    0    0    0  0.00000000000E+00  0.00000000000E+00  0.39999999673E+01  0.40000000000E+01  0.51109989000E-03 0. -1.
     -623   -1    0    0    0    0  0.00000000000E+00  0.00000000000E+00  0.12525980253E-10  0.17130000000E+03  0.17130000000E+03 0. -1.
       11    1    1    2    0    0 -0.11175904061E-02  0.17468115740E-02  0.65479512891E+00  0.65479861211E+00  0.51109989000E-03 0. -1.
     -623    1    1    2    0    0  0.59773628124E-03  0.78975681252E-04  0.24314755928E-03  0.17130000000E+03  0.17130000000E+03 0. -1.
      622    1    1    2    0    0  0.51985412487E-03 -0.18257872552E-02  0.33449616909E+01  0.33452013867E+01  0.40000000000E-01 0. -1.
</event>
<event>
 5   0  0.6200596E+07  0.9118800E+02  0.7818608E-02  0.1180000E+00
       11   -1    0    0    0    0  0.00000000000E+00  0.00000000000E+00  0.39999999673E+01  0.40000000000E+01  0.51109989000E-03 0.  1.
     -623   -1    0    0    0    0  0.00000000000E+00  0.00000000000E+00  0.12525980253E-10  0.17130000000E+03  0.17130000000E+03 0.  1.
       11    1    1    2    0    0 -0.12373691970E-02 -0.17727445590E-01  0.97378090337E+00  0.97394317206E+00  0.51109989000E-03 0.  1.
     -623    1    1    2    0    0  0.31913667241E-02  0.72571282569E-02  0.44554858962E-03  0.17130000018E+03  0.17130000000E+03 0.  1.
      622    1    1    2    0    0 -0.19539975270E-02  0.10470317333E-01  0.30257735154E+01  0.30260566439E+01  0.40000000000E-01 0.  0.
</event>
<event>
 5   0  0.6200596E+07  0.9118800E+02  0.7818608E-02  0.1180000E+00
       11   -1    0    0    0    0  0.00000000000E+00  0.00000000000E+00  0.39999999673E+01  0.40000000000E+01  0.51109989000E-03 0.  1.
     -623   -1    0    0    0    0  0.00000000000E+00  0.00000000000E+00  0.12525980253E-10  0.17130000000E+03  0.17130000000E+03 0.  1.
       11    1    1    2    0    0  0.83945123941E-01 -0.48901382975E-01  0.36340180673E+00  0.37616387845E+00  0.51109989000E-03 0.  1.
     -623    1    1    2    0    0  0.23893404659E-01 -0.22792584082E-02  0.14951751442E-01  0.17130000233E+03  0.17130000000E+03 0.  1.
      622    1    1    2    0    0 -0.10783852860E+00  0.51180641383E-01  0.36216464092E+01  0.36238337875E+01  0.40000000000E-01 0.  1.
</event>
<event>
 5   0  0.6200596E+07  0.9118800E+02  0.7818608E-02  0.1180000E+00
       11   -1    0    0    0    0  0.00000000000E+00  0.00000000000E+00  0.39999999673E+01  0.40000000000E+01  0.51109989000E-03 0. -1.
     -623   -1    0    0    0    0  0.00000000000E+00  0.00000000000E+00  0.12525980253E-10  0.17130000000E+03  0.17130000000E+03 0. -1.
       11    1    1    2    0    0 -0.30429248154E-02 -0.11671492397E-02  0.34791707175E-01  0.34947757267E-01  0.51109989000E-03 0. -1.
     -623    1    1    2    0    0  0.10666548669E-02 -0.32372322389E-02  0.36075851925E-03  0.17130000003E+03  0.17130000000E+03 0. -1.
      622    1    1    2    0    0  0.19762699485E-02  0.44043814786E-02  0.39648475017E+01  0.39650522084E+01  0.40000000000E-01 0. -1.
</event>
<event>
 5   0  0.6200596E+07  0.9118800E+02  0.7818608E-02  0.1180000E+00
       11   -1    0    0    0    0  0.00000000000E+00  0.00000000000E+00  0.39999999673E+01  0.40000000000E+01  0.51109989000E-03 0.  1.
     -623   -1    0    0    0    0  0.00000000000E+00  0.00000000000E+00  0.12525980253E-10  0.17130000000E+03  0.17130000000E+03 0.  1.
       11    1    1    2    0    0 -0.82983234684E-02  0.58087000353E-02  0.13701425934E-01  0.17046802123E-01  0.51109989000E-03 0.  1.
     -623    1    1    2    0    0  0.11821870410E-01  0.50093737125E-02  0.35629737275E-02  0.17130000052E+03  0.17130000000E+03 0.  1.
      622    1    1    2    0    0 -0.35235469414E-02 -0.10818073748E-01  0.39827355677E+01  0.39829526796E+01  0.40000000000E-01 0.  1.
</event>
<event>
 5   0  0.6200596E+07  0.9118800E+02  0.7818608E-02  0.1180000E+00
       11   -1    0    0    0    0  0.00000000000E+00  0.00000000000E+00  0.39999999673E+01  0.40000000000E+01  0.51109989000E-03 0. -1.
     -623   -1    0    0    0    0  0.00000000000E+00  0.00000000000E+00  0.12525980253E-10  0.17130000000E+03  0.17130000000E+03 0.  1.
       11    1    1    2    0    0 -0.20930035780E-02  0.70217747702E-03  0.72812930418E-01  0.72848183047E-01  0.51109989000E-03 0. -1.
     -623    1    1    2    0    0  0.10732574695E-02 -0.11623354348E-02  0.23910208448E-03  0.17130000001E+03  0.17130000000E+03 0.  1.
      622    1    1    2    0    0  0.10197461085E-02  0.46015795782E-03  0.39269479349E+01  0.39271518095E+01  0.40000000000E-01 0. -1.
</event>
<event>
 5   0  0.6200596E+07  0.9118800E+02  0.7818608E-02  0.1180000E+00
       11   -1    0    0    0    0  0.00000000000E+00  0.00000000000E+00  0.39999999673E+01  0.40000000000E+01  0.51109989000E-03 0. -1.
     -623   -1    0    0    0    0  0.00000000000E+00  0.00000000000E+00  0.12525980253E-10  0.17130000000E+03  0.17130000000E+03 0. -1.
       11    1    1    2    0    0  0.30150129364E-03  0.18657334606E-02  0.19138410684E-01  0.19238291230E-01  0.51109989000E-03 0. -1.
     -623    1    1    2    0    0  0.74818541471E-03 -0.43744192301E-02  0.30180623148E-03  0.17130000006E+03  0.17130000000E+03 0. -1.
      622    1    1    2    0    0 -0.10496867083E-02  0.25086857695E-02  0.39805597504E+01  0.39807616510E+01  0.40000000000E-01 0. -1.
</event>
<event>
 5   0  0.6200596E+07  0.9118800E+02  0.7818608E-02  0.1180000E+00
       11   -1    0    0    0    0  0.00000000000E+00  0.00000000000E+00  0.39999999673E+01  0.40000000000E+01  0.51109989000E-03 0. -1.
     -623   -1    0    0    0    0  0.00000000000E+00  0.00000000000E+00  0.12525980253E-10  0.17130000000E+03  0.17130000000E+03 0. -1.
       11    1    1    2    0    0 -0.43437216189E-02 -0.11842248439E-02  0.13025517293E+01  0.13025596105E+01  0.51109989000E-03 0. -1.
     -623    1    1    2    0    0 -0.31179075699E-02 -0.23979909306E-02  0.31718798977E-03  0.17130000005E+03  0.17130000000E+03 0. -1.
      622    1    1    2    0    0  0.74616291888E-02  0.35822157745E-02  0.26971310501E+01  0.26974403440E+01  0.40000000000E-01 0. -1.
</event>
<event>
 5   0  0.6200596E+07  0.9118800E+02  0.7818608E-02  0.1180000E+00
       11   -1    0    0    0    0  0.00000000000E+00  0.00000000000E+00  0.39999999673E+01  0.40000000000E+01  0.51109989000E-03 0. -1.
     -623   -1    0    0    0    0  0.00000000000E+00  0.00000000000E+00  0.12525980253E-10  0.17130000000E+03  0.17130000000E+03 0. -1.
       11    1    1    2    0    0 -0.24291531442E-01  0.17334115709E-01  0.33089602210E+01  0.33090948242E+01  0.51109989000E-03 0. -1.
     -623    1    1    2    0    0 -0.76677723619E-02 -0.11618224570E-01  0.20585457462E-02  0.17130000058E+03  0.17130000000E+03 0. -1.
      622    1    1    2    0    0  0.31959303804E-01 -0.57158911392E-02  0.68898120060E+00  0.69090459782E+00  0.40000000000E-01 0. -1.
</event>
<event>
 5   0  0.6200596E+07  0.9118800E+02  0.7818608E-02  0.1180000E+00
       11   -1    0    0    0    0  0.00000000000E+00  0.00000000000E+00  0.39999999673E+01  0.40000000000E+01  0.51109989000E-03 0.  1.
     -623   -1    0    0    0    0  0.00000000000E+00  0.00000000000E+00  0.12525980253E-10  0.17130000000E+03  0.17130000000E+03 0.  1.
       11    1    1    2    0    0 -0.39167258690E-02  0.24867886097E-02  0.10642122289E+00  0.10652353150E+00  0.51109989000E-03 0.  1.
     -623    1    1    2    0    0 -0.24464553966E-03 -0.12864193591E-02  0.31016759214E-03  0.17130000001E+03  0.17130000000E+03 0.  1.
      622    1    1    2    0    0  0.41613714087E-02 -0.12003692506E-02  0.38932685769E+01  0.38934764632E+01  0.40000000000E-01 0.  1.
</event>
<event>
 5   0  0.6200596E+07  0.9118800E+02  0.7818608E-02  0.1180000E+00
       11   -1    0    0    0    0  0.00000000000E+00  0.00000000000E+00  0.39999999673E+01  0.40000000000E+01  0.51109989000E-03 0. -1.
     -623   -1    0    0    0    0  0.00000000000E+00  0.00000000000E+00  0.12525980253E-10  0.17130000000E+03  0.17130000000E+03 0.  1.
       11    1    1    2    0    0 -0.31590829747E-02  0.78600460384E-02  0.27515746048E+00  0.27528830235E+00  0.51109989000E-03 0. -1.
     -623    1    1    2    0    0 -0.12531793388E-02 -0.19462177926E-02  0.35292171363E-03  0.17130000002E+03  0.17130000000E+03 0.  1.
      622    1    1    2    0    0  0.44122623136E-02 -0.59138282458E-02  0.37244895852E+01  0.37247116817E+01  0.40000000000E-01 0. -1.
</event>
<event>
 5   0  0.6200596E+07  0.9118800E+02  0.7818608E-02  0.1180000E+00
       11   -1    0    0    0    0  0.00000000000E+00  0.00000000000E+00  0.39999999673E+01  0.40000000000E+01  0.51109989000E-03 0. -1.
     -623   -1    0    0    0    0  0.00000000000E+00  0.00000000000E+00  0.12525980253E-10  0.17130000000E+03  0.17130000000E+03 0. -1.
       11    1    1    2    0    0  0.19635272935E-02  0.10747091425E-02  0.33545990300E-01  0.33624472128E-01  0.51109989000E-03 0. -1.
     -623    1    1    2    0    0 -0.59040957875E-03  0.51739332003E-03  0.28070906404E-03  0.17130000000E+03  0.17130000000E+03 0. -1.
      622    1    1    2    0    0 -0.13731177147E-02 -0.15921024626E-02  0.39661732680E+01  0.39663755258E+01  0.40000000000E-01 0. -1.
</event>
<event>
 5   0  0.6200596E+07  0.9118800E+02  0.7818608E-02  0.1180000E+00
       11   -1    0    0    0    0  0.00000000000E+00  0.00000000000E+00  0.39999999673E+01  0.40000000000E+01  0.51109989000E-03 0.  1.
     -623   -1    0    0    0    0  0.00000000000E+00  0.00000000000E+00  0.12525980253E-10  0.17130000000E+03  0.17130000000E+03 0. -1.
       11    1    1    2    0    0  0.57823885497E-03  0.12728104317E-02  0.20046751576E+01  0.20046757102E+01  0.51109989000E-03 0.  1.
     -623    1    1    2    0    0  0.13563642343E-02 -0.23493995682E-03  0.40271163668E-03  0.17130000001E+03  0.17130000000E+03 0. -1.
      622    1    1    2    0    0 -0.19346030893E-02 -0.10378704749E-02  0.19949220981E+01  0.19953242838E+01  0.40000000000E-01 0.  1.
</event>
<event>
 5   0  0.6200596E+07  0.9118800E+02  0.7818608E-02  0.1180000E+00
       11   -1    0    0    0    0  0.00000000000E+00  0.00000000000E+00  0.39999999673E+01  0.40000000000E+01  0.51109989000E-03 0.  1.
     -623   -1    0    0    0    0  0.00000000000E+00  0.00000000000E+00  0.12525980253E-10  0.17130000000E+03  0.17130000000E+03 0. -1.
       11    1    1    2    0    0 -0.18402481003E-01 -0.33422600619E-02  0.12679752764E+01  0.12681133170E+01  0.51109989000E-03 0.  1.
     -623    1    1    2    0    0  0.11371115271E-02 -0.21997513889E-03  0.48775345105E-03  0.17130000000E+03  0.17130000000E+03 0. -1.
      622    1    1    2    0    0  0.17265369476E-01  0.35622352008E-02  0.27315369375E+01  0.27318866784E+01  0.40000000000E-01 0.  0.
</event>
<event>
 5   0  0.6200596E+07  0.9118800E+02  0.7818608E-02  0.1180000E+00
       11   -1    0    0    0    0  0.00000000000E+00  0.00000000000E+00  0.39999999673E+01  0.40000000000E+01  0.51109989000E-03 0.  1.
     -623   -1    0    0    0    0  0.00000000000E+00  0.00000000000E+00  0.12525980253E-10  0.17130000000E+03  0.17130000000E+03 0.  1.
       11    1    1    2    0    0 -0.25874154070E-02 -0.10871301766E-03  0.73983043383E-02  0.78551044580E-02  0.51109989000E-03 0.  1.
     -623    1    1    2    0    0  0.24515467222E-03 -0.84803875960E-03  0.65797138577E-03  0.17130000000E+03  0.17130000000E+03 0.  1.
      622    1    1    2    0    0  0.23422607348E-02  0.95675177726E-03  0.39919436916E+01  0.39921448920E+01  0.40000000000E-01 0.  1.
</event>
<event>
 5   0  0.6200596E+07  0.9118800E+02  0.7818608E-02  0.1180000E+00
       11   -1    0    0    0    0  0.00000000000E+00  0.00000000000E+00  0.39999999673E+01  0.40000000000E+01  0.51109989000E-03 0.  1.
     -623   -1    0    0    0    0  0.00000000000E+00  0.00000000000E+00  0.12525980253E-10  0.17130000000E+03  0.17130000000E+03 0.  1.
       11    1    1    2    0    0  0.55674674146E-02 -0.12644684246E-01  0.69822279619E+00  0.69835966312E+00  0.51109989000E-03 0.  1.
     -623    1    1    2    0    0  0.18432062973E-02 -0.13540526515E-03  0.41221160764E-03  0.17130000001E+03  0.17130000000E+03 0.  1.
      622    1    1    2    0    0 -0.74106737119E-02  0.12780089511E-01  0.33013649596E+01  0.33016403264E+01  0.40000000000E-01 0.  0.
</event>
<event>
 5   0  0.6200596E+07  0.9118800E+02  0.7818608E-02  0.1180000E+00
       11   -1    0    0    0    0  0.00000000000E+00  0.00000000000E+00  0.39999999673E+01  0.40000000000E+01  0.51109989000E-03 0.  1.
     -623   -1    0    0    0    0  0.00000000000E+00  0.00000000000E+00  0.12525980253E-10  0.17130000000E+03  0.17130000000E+03 0. -1.
       11    1    1    2    0    0 -0.44416220513E-02 -0.20264448892E-02  0.37071908686E-01  0.37395482630E-01  0.51109989000E-03 0.  1.
     -623    1    1    2    0    0  0.37376991697E-02  0.47881578903E-02  0.52656733366E-03  0.17130000011E+03  0.17130000000E+03 0. -1.
      622    1    1    2    0    0  0.70392288152E-03 -0.27617130011E-02  0.39624014913E+01  0.39626044089E+01  0.40000000000E-01 0.  1.
</event>
<event>
 5   0  0.6200596E+07  0.9118800E+02  0.7818608E-02  0.1180000E+00
       11   -1    0    0    0    0  0.00000000000E+00  0.00000000000E+00  0.39999999673E+01  0.40000000000E+01  0.51109989000E-03 0. -1.
     -623   -1    0    0    0    0  0.00000000000E+00  0.00000000000E+00  0.12525980253E-10  0.17130000000E+03  0.17130000000E+03 0.  1.
       11    1    1    2    0    0 -0.14841151686E-02 -0.46379188498E-02  0.45274095302E+00  0.45276742887E+00  0.51109989000E-03 0. -1.
     -623    1    1    2    0    0  0.57962577018E-03  0.15558146136E-03  0.25492703262E-03  0.17130000000E+03  0.17130000000E+03 0.  1.
      622    1    1    2    0    0  0.90448939841E-03  0.44823373884E-02  0.35470040873E+01  0.35472325699E+01  0.40000000000E-01 0. -1.
</event>
<event>
 5   0  0.6200596E+07  0.9118800E+02  0.7818608E-02  0.1180000E+00
       11   -1    0    0    0    0  0.00000000000E+00  0.00000000000E+00  0.39999999673E+01  0.40000000000E+01  0.51109989000E-03 0.  1.
     -623   -1    0    0    0    0  0.00000000000E+00  0.00000000000E+00  0.12525980253E-10  0.17130000000E+03  0.17130000000E+03 0. -1.
       11    1    1    2    0    0 -0.11472397357E-01  0.35561054228E-01  0.11701151982E+01  0.11707117676E+01  0.51109989000E-03 0.  1.
     -623    1    1    2    0    0  0.13854282576E-03  0.12001527386E-01  0.13022903661E-02  0.17130000043E+03  0.17130000000E+03 0. -1.
      622    1    1    2    0    0  0.11333854531E-01 -0.47562581615E-01  0.28285824788E+01  0.28292878070E+01  0.40000000000E-01 0.  1.
</event>
<event>
 5   0  0.6200596E+07  0.9118800E+02  0.7818608E-02  0.1180000E+00
       11   -1    0    0    0    0  0.00000000000E+00  0.00000000000E+00  0.39999999673E+01  0.40000000000E+01  0.51109989000E-03 0.  1.
     -623   -1    0    0    0    0  0.00000000000E+00  0.00000000000E+00  0.12525980253E-10  0.17130000000E+03  0.17130000000E+03 0. -1.
       11    1    1    2    0    0  0.53663632097E-04  0.76820798743E-02  0.23436975244E+00  0.23449618187E+00  0.51109989000E-03 0.  1.
     -623    1    1    2    0    0 -0.31039234872E-02 -0.34529293228E-02  0.34253160623E-03  0.17130000006E+03  0.17130000000E+03 0. -1.
      622    1    1    2    0    0  0.30502598551E-02 -0.42291505515E-02  0.37652876833E+01  0.37655037549E+01  0.40000000000E-01 0.  1.
</event>
<event>
 5   0  0.6200596E+07  0.9118800E+02  0.7818608E-02  0.1180000E+00
       11   -1    0    0    0    0  0.00000000000E+00  0.00000000000E+00  0.39999999673E+01  0.40000000000E+01  0.51109989000E-03 0. -1.
     -623   -1    0    0    0    0  0.00000000000E+00  0.00000000000E+00  0.12525980253E-10  0.17130000000E+03  0.17130000000E+03 0. -1.
       11    1    1    2    0    0  0.52428957723E-01 -0.34546927284E-01  0.10186815875E+01  0.10206148753E+01  0.51109989000E-03 0. -1.
     -623    1    1    2    0    0 -0.18868039899E-03 -0.45732022283E-02  0.29168324352E-02  0.17130000009E+03  0.17130000000E+03 0. -1.
      622    1    1    2    0    0 -0.52240277324E-01  0.39120129513E-01  0.29784015474E+01  0.29793850387E+01  0.40000000000E-01 0. -1.
</event>
<event>
 5   0  0.6200596E+07  0.9118800E+02  0.7818608E-02  0.1180000E+00
       11   -1    0    0    0    0  0.00000000000E+00  0.00000000000E+00  0.39999999673E+01  0.40000000000E+01  0.51109989000E-03 0.  1.
     -623   -1    0    0    0    0  0.00000000000E+00  0.00000000000E+00  0.12525980253E-10  0.17130000000E+03  0.17130000000E+03 0.  1.
       11    1    1    2    0    0 -0.49161017739E-03  0.11366381936E-02  0.52926366096E-02  0.54595651711E-02  0.51109989000E-03 0.  1.
     -623    1    1    2    0    0  0.86441586249E-03 -0.17216649985E-02  0.36724576078E-03  0.17130000001E+03  0.17130000000E+03 0.  1.
      622    1    1    2    0    0 -0.37280568511E-03  0.58502680488E-03  0.39943400850E+01  0.39945404236E+01  0.40000000000E-01 0.  1.
</event>
<event>
 5   0  0.6200596E+07  0.9118800E+02  0.7818608E-02  0.1180000E+00
       11   -1    0    0    0    0  0.00000000000E+00  0.00000000000E+00  0.39999999673E+01  0.40000000000E+01  0.51109989000E-03 0. -1.
     -623   -1    0    0    0    0  0.00000000000E+00  0.00000000000E+00  0.12525980253E-10  0.17130000000E+03  0.17130000000E+03 0. -1.
       11    1    1    2    0    0 -0.13419771265E-01 -0.25472928390E-01  0.30811303840E-01  0.42172953512E-01  0.51109989000E-03 0. -1.
     -623    1    1    2    0    0  0.18185866916E-01  0.17265039812E-01  0.11577361282E-01  0.17130000223E+03  0.17130000000E+03 0. -1.
      622    1    1    2    0    0 -0.47660956515E-02  0.82078885785E-02  0.39576113022E+01  0.39578248199E+01  0.40000000000E-01 0. -1.
</event>
<event>
 5   0  0.6200596E+07  0.9118800E+02  0.7818608E-02  0.1180000E+00
       11   -1    0    0    0    0  0.00000000000E+00  0.00000000000E+00  0.39999999673E+01  0.40000000000E+01  0.51109989000E-03 0. -1.
     -623   -1    0    0    0    0  0.00000000000E+00  0.00000000000E+00  0.12525980253E-10  0.17130000000E+03  0.17130000000E+03 0.  1.
       11    1    1    2    0    0 -0.25180070379E-01  0.85431253298E-02  0.10892916986E+00  0.11212870374E+00  0.51109989000E-03 0. -1.
     -623    1    1    2    0    0  0.28653342390E-02  0.63922569715E-03  0.34802219935E-02  0.17130000006E+03  0.17130000000E+03 0.  1.
      622    1    1    2    0    0  0.22314736140E-01 -0.91823510270E-02  0.38875905755E+01  0.38878712358E+01  0.40000000000E-01 0. -1.
</event>
<event>
 5   0  0.6200596E+07  0.9118800E+02  0.7818608E-02  0.1180000E+00
       11   -1    0    0    0    0  0.00000000000E+00  0.00000000000E+00  0.39999999673E+01  0.40000000000E+01  0.51109989000E-03 0.  1.
     -623   -1    0    0    0    0  0.00000000000E+00  0.00000000000E+00  0.12525980253E-10  0.17130000000E+03  0.17130000000E+03 0. -1.
       11    1    1    2    0    0 -0.82378601059E-02 -0.11532313533E-01  0.71325259481E+00  0.71339356727E+00  0.51109989000E-03 0.  1.
     -623    1    1    2    0    0  0.11673454844E-01  0.45168503134E-02  0.39410262963E-03  0.17130000046E+03  0.17130000000E+03 0. -1.
      622    1    1    2    0    0 -0.34355947380E-02  0.70154632201E-02  0.32863532699E+01  0.32866059750E+01  0.40000000000E-01 0.  1.
</event>
<event>
 5   0  0.6200596E+07  0.9118800E+02  0.7818608E-02  0.1180000E+00
       11   -1    0    0    0    0  0.00000000000E+00  0.00000000000E+00  0.39999999673E+01  0.40000000000E+01  0.51109989000E-03 0.  1.
     -623   -1    0    0    0    0  0.00000000000E+00  0.00000000000E+00  0.12525980253E-10  0.17130000000E+03  0.17130000000E+03 0. -1.
       11    1    1    2    0    0 -0.23003286616E-02 -0.10280337391E-01  0.36811684142E-01  0.38292795128E-01  0.51109989000E-03 0.  1.
     -623    1    1    2    0    0  0.13340024152E-02  0.46098395720E-02  0.16872684083E-02  0.17130000008E+03  0.17130000000E+03 0. -1.
      622    1    1    2    0    0  0.96632624645E-03  0.56704978186E-02  0.39615010148E+01  0.39617071293E+01  0.40000000000E-01 0.  1.
</event>
<event>
 5   0  0.6200596E+07  0.9118800E+02  0.7818608E-02  0.1180000E+00
       11   -1    0    0    0    0  0.00000000000E+00  0.00000000000E+00  0.39999999673E+01  0.40000000000E+01  0.51109989000E-03 0. -1.
     -623   -1    0    0    0    0  0.00000000000E+00  0.00000000000E+00  0.12525980253E-10  0.17130000000E+03  0.17130000000E+03 0.  1.
       11    1    1    2    0    0 -0.12760247430E-02  0.24936247939E-02  0.66392361343E-01  0.66453391713E-01  0.51109989000E-03 0. -1.
     -623    1    1    2    0    0 -0.52950801912E-02 -0.40411768930E-02  0.27030485527E-03  0.17130000013E+03  0.17130000000E+03 0.  1.
      622    1    1    2    0    0  0.65711049342E-02  0.15475520991E-02  0.39333373012E+01  0.39335464786E+01  0.40000000000E-01 0. -1.
</event>
<event>
 5   0  0.6200596E+07  0.9118800E+02  0.7818608E-02  0.1180000E+00
       11   -1    0    0    0    0  0.00000000000E+00  0.00000000000E+00  0.39999999673E+01  0.40000000000E+01  0.51109989000E-03 0.  1.
     -623   -1    0    0    0    0  0.00000000000E+00  0.00000000000E+00  0.12525980253E-10  0.17130000000E+03  0.17130000000E+03 0.  1.
       11    1    1    2    0    0 -0.17476171502E-03 -0.18635423653E-02  0.10584259012E+00  0.10586037236E+00  0.51109989000E-03 0.  1.
     -623    1    1    2    0    0  0.13358815592E-02  0.62146472348E-03  0.22356962003E-03  0.17130000001E+03  0.17130000000E+03 0.  1.
      622    1    1    2    0    0 -0.11611198441E-02  0.12420776418E-02  0.38939338076E+01  0.38941396212E+01  0.40000000000E-01 0.  1.
</event>
<event>
 5   0  0.6200596E+07  0.9118800E+02  0.7818608E-02  0.1180000E+00
       11   -1    0    0    0    0  0.00000000000E+00  0.00000000000E+00  0.39999999673E+01  0.40000000000E+01  0.51109989000E-03 0. -1.
     -623   -1    0    0    0    0  0.00000000000E+00  0.00000000000E+00  0.12525980253E-10  0.17130000000E+03  0.17130000000E+03 0. -1.
       11    1    1    2    0    0  0.12669512500E-01 -0.64718217764E-02  0.24089665773E+00  0.24131693259E+00  0.51109989000E-03 0. -1.
     -623    1    1    2    0    0 -0.12242900238E-02  0.13098236955E-01  0.65686303031E-03  0.17130000051E+03  0.17130000000E+03 0. -1.
      622    1    1    2    0    0 -0.11445222477E-01 -0.66264151789E-02  0.37584464466E+01  0.37586825610E+01  0.40000000000E-01 0. -1.
</event>
<event>
 5   0  0.6200596E+07  0.9118800E+02  0.7818608E-02  0.1180000E+00
       11   -1    0    0    0    0  0.00000000000E+00  0.00000000000E+00  0.39999999673E+01  0.40000000000E+01  0.51109989000E-03 0.  1.
     -623   -1    0    0    0    0  0.00000000000E+00  0.00000000000E+00  0.12525980253E-10  0.17130000000E+03  0.17130000000E+03 0.  1.
       11    1    1    2    0    0  0.16894943491E-02 -0.15484955805E-02  0.81121161225E-01  0.81155136927E-01  0.51109989000E-03 0.  1.
     -623    1    1    2    0    0 -0.56954561587E-02  0.94145651897E-02  0.24838634998E-03  0.17130000035E+03  0.17130000000E+03 0.  1.
      622    1    1    2    0    0  0.40059618095E-02 -0.78660696092E-02  0.39186304198E+01  0.39188445095E+01  0.40000000000E-01 0.  1.
</event>
<event>
 5   0  0.6200596E+07  0.9118800E+02  0.7818608E-02  0.1180000E+00
       11   -1    0    0    0    0  0.00000000000E+00  0.00000000000E+00  0.39999999673E+01  0.40000000000E+01  0.51109989000E-03 0.  1.
     -623   -1    0    0    0    0  0.00000000000E+00  0.00000000000E+00  0.12525980253E-10  0.17130000000E+03  0.17130000000E+03 0.  1.
       11    1    1    2    0    0 -0.16187635725E-02 -0.12462874062E-02  0.31575222284E-01  0.31645371069E-01  0.51109989000E-03 0.  1.
     -623    1    1    2    0    0 -0.13856907217E-03  0.36713335136E-03  0.27220333263E-03  0.17130000000E+03  0.17130000000E+03 0.  1.
      622    1    1    2    0    0  0.17573326447E-02  0.87915405487E-03  0.39681525417E+01  0.39683546283E+01  0.40000000000E-01 0.  1.
</event>
<event>
 5   0  0.6200596E+07  0.9118800E+02  0.7818608E-02  0.1180000E+00
       11   -1    0    0    0    0  0.00000000000E+00  0.00000000000E+00  0.39999999673E+01  0.40000000000E+01  0.51109989000E-03 0.  1.
     -623   -1    0    0    0    0  0.00000000000E+00  0.00000000000E+00  0.12525980253E-10  0.17130000000E+03  0.17130000000E+03 0.  1.
       11    1    1    2    0    0 -0.72228139976E-02 -0.17673153723E-02  0.11875741889E+00  0.11899108457E+00  0.51109989000E-03 0.  1.
     -623    1    1    2    0    0  0.10447578858E-01  0.11557484259E-03  0.44178102651E-03  0.17130000032E+03  0.17130000000E+03 0.  1.
      622    1    1    2    0    0 -0.32247648608E-02  0.16517405297E-02  0.38808007674E+01  0.38810085962E+01  0.40000000000E-01 0.  1.
</event>
<event>
 5   0  0.6200596E+07  0.9118800E+02  0.7818608E-02  0.1180000E+00
       11   -1    0    0    0    0  0.00000000000E+00  0.00000000000E+00  0.39999999673E+01  0.40000000000E+01  0.51109989000E-03 0.  1.
     -623   -1    0    0    0    0  0.00000000000E+00  0.00000000000E+00  0.12525980253E-10  0.17130000000E+03  0.17130000000E+03 0.  1.
       11    1    1    2    0    0 -0.82726736695E-03 -0.47829543401E-02  0.17992727655E-01  0.18642974392E-01  0.51109989000E-03 0.  1.
     -623    1    1    2    0    0  0.20982469343E-02  0.49189870208E-03  0.85368678600E-03  0.17130000002E+03  0.17130000000E+03 0.  1.
      622    1    1    2    0    0 -0.12709795674E-02  0.42910556380E-02  0.39811535529E+01  0.39813570099E+01  0.40000000000E-01 0.  1.
</event>
<event>
 5   0  0.6200596E+07  0.9118800E+02  0.7818608E-02  0.1180000E+00
       11   -1    0    0    0    0  0.00000000000E+00  0.00000000000E+00  0.39999999673E+01  0.40000000000E+01  0.51109989000E-03 0.  1.
     -623   -1    0    0    0    0  0.00000000000E+00  0.00000000000E+00  0.12525980253E-10  0.17130000000E+03  0.17130000000E+03 0. -1.
       11    1    1    2    0    0  0.64612724017E-02 -0.14079182345E-01  0.10210404575E+01  0.10211580918E+01  0.51109989000E-03 0.  1.
     -623    1    1    2    0    0  0.71507451825E-03  0.34728942095E-03  0.42647580780E-03  0.17130000000E+03  0.17130000000E+03 0. -1.
      622    1    1    2    0    0 -0.71763469199E-02  0.13731892924E-01  0.29785330341E+01  0.29788419058E+01  0.40000000000E-01 0.  1.
</event>
<event>
 5   0  0.6200596E+07  0.9118800E+02  0.7818608E-02  0.1180000E+00
       11   -1    0    0    0    0  0.00000000000E+00  0.00000000000E+00  0.39999999673E+01  0.40000000000E+01  0.51109989000E-03 0.  1.
     -623   -1    0    0    0    0  0.00000000000E+00  0.00000000000E+00  0.12525980253E-10  0.17130000000E+03  0.17130000000E+03 0. -1.
       11    1    1    2    0    0 -0.12817171383E-02 -0.20422213744E-02  0.38950337283E-02  0.46093357610E-02  0.51109989000E-03 0.  1.
     -623    1    1    2    0    0 -0.14968002270E-02  0.29986326353E-02  0.91562103658E-03  0.17130000004E+03  0.17130000000E+03 0. -1.
      622    1    1    2    0    0  0.27785173653E-02 -0.95641126085E-03  0.39951893126E+01  0.39953906290E+01  0.40000000000E-01 0.  1.
</event>
<event>
 5   0  0.6200596E+07  0.9118800E+02  0.7818608E-02  0.1180000E+00
       11   -1    0    0    0    0  0.00000000000E+00  0.00000000000E+00  0.39999999673E+01  0.40000000000E+01  0.51109989000E-03 0. -1.
     -623   -1    0    0    0    0  0.00000000000E+00  0.00000000000E+00  0.12525980253E-10  0.17130000000E+03  0.17130000000E+03 0.  1.
       11    1    1    2    0    0  0.10337011959E-01  0.12436081864E-01  0.22426147460E+01  0.22426731082E+01  0.51109989000E-03 0. -1.
     -623    1    1    2    0    0 -0.46811856987E-02 -0.23429865182E-02  0.55180252654E-03  0.17130000008E+03  0.17130000000E+03 0.  1.
      622    1    1    2    0    0 -0.56558262602E-02 -0.10093095346E-01  0.17568334189E+01  0.17573268110E+01  0.40000000000E-01 0. -1.
</event>
<event>
 5   0  0.6200596E+07  0.9118800E+02  0.7818608E-02  0.1180000E+00
       11   -1    0    0    0    0  0.00000000000E+00  0.00000000000E+00  0.39999999673E+01  0.40000000000E+01  0.51109989000E-03 0.  1.
     -623   -1    0    0    0    0  0.00000000000E+00  0.00000000000E+00  0.12525980253E-10  0.17130000000E+03  0.17130000000E+03 0.  1.
       11    1    1    2    0    0 -0.44746145746E-01 -0.17523760048E-01  0.38983890100E+00  0.39278993073E+00  0.51109989000E-03 0.  1.
     -623    1    1    2    0    0  0.56302535728E-02  0.26106792054E-02  0.34158613173E-02  0.17130000015E+03  0.17130000000E+03 0.  1.
      622    1    1    2    0    0  0.39115892173E-01  0.14913080843E-01  0.36067452050E+01  0.36072099228E+01  0.40000000000E-01 0.  1.
</event>
<event>
 5   0  0.6200596E+07  0.9118800E+02  0.7818608E-02  0.1180000E+00
       11   -1    0    0    0    0  0.00000000000E+00  0.00000000000E+00  0.39999999673E+01  0.40000000000E+01  0.51109989000E-03 0. -1.
     -623   -1    0    0    0    0  0.00000000000E+00  0.00000000000E+00  0.12525980253E-10  0.17130000000E+03  0.17130000000E+03 0.  1.
       11    1    1    2    0    0  0.92126900860E-03  0.45901428206E-03  0.50349168480E-01  0.50362281704E-01  0.51109989000E-03 0. -1.
     -623    1    1    2    0    0  0.75692108604E-03  0.13951324909E-02  0.21643527342E-03  0.17130000001E+03  0.17130000000E+03 0.  1.
      622    1    1    2    0    0 -0.16781900946E-02 -0.18541467730E-02  0.39494343636E+01  0.39496377108E+01  0.40000000000E-01 0. -1.
</event>
<event>
 5   0  0.6200596E+07  0.9118800E+02  0.7818608E-02  0.1180000E+00
       11   -1    0    0    0    0  0.00000000000E+00  0.00000000000E+00  0.39999999673E+01  0.40000000000E+01  0.51109989000E-03 0. -1.
     -623   -1    0    0    0    0  0.00000000000E+00  0.00000000000E+00  0.12525980253E-10  0.17130000000E+03  0.17130000000E+03 0. -1.
       11    1    1    2    0    0  0.97224473217E-03  0.15798946654E-02  0.18425971979E-01  0.18526170458E-01  0.51109989000E-03 0. -1.
     -623    1    1    2    0    0  0.13446275220E-02 -0.97196114268E-03  0.30183038753E-03  0.17130000001E+03  0.17130000000E+03 0. -1.
      622    1    1    2    0    0 -0.23168722541E-02 -0.60793352277E-03  0.39812721650E+01  0.39814738212E+01  0.40000000000E-01 0. -1.
</event>
<event>
 5   0  0.6200596E+07  0.9118800E+02  0.7818608E-02  0.1180000E+00
       11   -1    0    0    0    0  0.00000000000E+00  0.00000000000E+00  0.39999999673E+01  0.40000000000E+01  0.51109989000E-03 0.  1.
     -623   -1    0    0    0    0  0.00000000000E+00  0.00000000000E+00  0.12525980253E-10  0.17130000000E+03  0.17130000000E+03 0.  1.
       11    1    1    2    0    0 -0.26656649195E-03 -0.44805819852E-02  0.63304615395E-01  0.63465598746E-01  0.51109989000E-03 0.  1.
     -623    1    1    2    0    0 -0.21260305952E-02  0.21611110756E-02  0.36561812382E-03  0.17130000003E+03  0.17130000000E+03 0.  1.
      622    1    1    2    0    0  0.23925970872E-02  0.23194709095E-02  0.39363297338E+01  0.39365343740E+01  0.40000000000E-01 0.  1.
</event>
<event>
 5   0  0.6200596E+07  0.9118800E+02  0.7818608E-02  0.1180000E+00
       11   -1    0    0    0    0  0.00000000000E+00  0.00000000000E+00  0.39999999673E+01  0.40000000000E+01  0.51109989000E-03 0.  1.
     -623   -1    0    0    0    0  0.00000000000E+00  0.00000000000E+00  0.12525980253E-10  0.17130000000E+03  0.17130000000E+03 0.  1.
       11    1    1    2    0    0 -0.45262370002E-03  0.56867579145E-02  0.17059671623E+01  0.17059767771E+01  0.51109989000E-03 0.  1.
     -623    1    1    2    0    0 -0.12841725828E-01  0.34308882196E-02  0.41550755545E-03  0.17130000052E+03  0.17130000000E+03 0.  1.
      622    1    1    2    0    0  0.13294349529E-01 -0.91176461341E-02  0.22936172975E+01  0.22940227067E+01  0.40000000000E-01 0.  1.
</event>
<event>
 5   0  0.6200596E+07  0.9118800E+02  0.7818608E-02  0.1180000E+00
       11   -1    0    0    0    0  0.00000000000E+00  0.00000000000E+00  0.39999999673E+01  0.40000000000E+01  0.51109989000E-03 0. -1.
     -623   -1    0    0    0    0  0.00000000000E+00  0.00000000000E+00  0.12525980253E-10  0.17130000000E+03  0.17130000000E+03 0.  1.
       11    1    1    2    0    0 -0.22893675359E-02  0.11097332549E-02  0.60262330252E-01  0.60318176198E-01  0.51109989000E-03 0. -1.
     -623    1    1    2    0    0  0.53115383498E-03 -0.10261342992E-02  0.25927795355E-03  0.17130000000E+03  0.17130000000E+03 0.  1.
      622    1    1    2    0    0  0.17582137009E-02 -0.83598955626E-04  0.39394783592E+01  0.39396818197E+01  0.40000000000E-01 0. -1.
</event>
<event>
 5   0  0.6200596E+07  0.9118800E+02  0.7818608E-02  0.1180000E+00
       11   -1    0    0    0    0  0.00000000000E+00  0.00000000000E+00  0.39999999673E+01  0.40000000000E+01  0.51109989000E-03 0.  1.
     -623   -1    0    0    0    0  0.00000000000E+00  0.00000000000E+00  0.12525980253E-10  0.17130000000E+03  0.17130000000E+03 0.  1.
       11    1    1    2    0    0  0.26430078245E-02  0.35726416175E-02  0.22596572930E-01  0.23035094679E-01  0.51109989000E-03 0.  1.
     -623    1    1    2    0    0 -0.30242723217E-02 -0.15472298696E-02  0.64022156356E-03  0.17130000003E+03  0.17130000000E+03 0.  1.
      622    1    1    2    0    0  0.38126449726E-03 -0.20254117479E-02  0.39767631729E+01  0.39769648704E+01  0.40000000000E-01 0.  1.
</event>
<event>
 5   0  0.6200596E+07  0.9118800E+02  0.7818608E-02  0.1180000E+00
       11   -1    0    0    0    0  0.00000000000E+00  0.00000000000E+00  0.39999999673E+01  0.40000000000E+01  0.51109989000E-03 0. -1.
     -623   -1    0    0    0    0  0.00000000000E+00  0.00000000000E+00  0.12525980253E-10  0.17130000000E+03  0.17130000000E+03 0. -1.
       11    1    1    2    0    0 -0.51373575482E-03 -0.29954239188E-03  0.38195532624E-02  0.38992125893E-02  0.51109989000E-03 0. -1.
     -623    1    1    2    0    0  0.30418132463E-03 -0.58216459833E-03  0.27993111107E-03  0.17130000000E+03  0.17130000000E+03 0. -1.
      622    1    1    2    0    0  0.20955443019E-03  0.88170699021E-03  0.39959004830E+01  0.39961007859E+01  0.40000000000E-01 0. -1.
</event>
<event>
 5   0  0.6200596E+07  0.9118800E+02  0.7818608E-02  0.1180000E+00
       11   -1    0    0    0    0  0.00000000000E+00  0.00000000000E+00  0.39999999673E+01  0.40000000000E+01  0.51109989000E-03 0.  1.
     -623   -1    0    0    0    0  0.00000000000E+00  0.00000000000E+00  0.12525980253E-10  0.17130000000E+03  0.17130000000E+03 0.  1.
       11    1    1    2    0    0  0.49589779812E-02 -0.33692588318E-02  0.82609266410E-01  0.82828108060E-01  0.51109989000E-03 0.  1.
     -623    1    1    2    0    0 -0.17834146931E-02 -0.23517504957E-02  0.42853449340E-03  0.17130000003E+03  0.17130000000E+03 0.  1.
      622    1    1    2    0    0 -0.31755632881E-02  0.57210093275E-02  0.39169621665E+01  0.39171718660E+01  0.40000000000E-01 0.  1.
</event>
<event>
 5   0  0.6200596E+07  0.9118800E+02  0.7818608E-02  0.1180000E+00
       11   -1    0    0    0    0  0.00000000000E+00  0.00000000000E+00  0.39999999673E+01  0.40000000000E+01  0.51109989000E-03 0. -1.
     -623   -1    0    0    0    0  0.00000000000E+00  0.00000000000E+00  0.12525980253E-10  0.17130000000E+03  0.17130000000E+03 0. -1.
       11    1    1    2    0    0 -0.43038405012E-01 -0.56909374553E-01  0.32732044370E+00  0.33500733620E+00  0.51109989000E-03 0. -1.
     -623    1    1    2    0    0  0.17851746404E-01  0.79941945231E-02  0.83194844870E-02  0.17130000132E+03  0.17130000000E+03 0. -1.
      622    1    1    2    0    0  0.25186658608E-01  0.48915180030E-01  0.36643600392E+01  0.36649913450E+01  0.40000000000E-01 0. -1.
</event>
<event>
 5   0  0.6200596E+07  0.9118800E+02  0.7818608E-02  0.1180000E+00
       11   -1    0    0    0    0  0.00000000000E+00  0.00000000000E+00  0.39999999673E+01  0.40000000000E+01  0.51109989000E-03 0. -1.
     -623   -1    0    0    0    0  0.00000000000E+00  0.00000000000E+00  0.12525980253E-10  0.17130000000E+03  0.17130000000E+03 0.  1.
       11    1    1    2    0    0 -0.34119369752E-02  0.28733551411E-02  0.57823123703E-01  0.57997175269E-01  0.51109989000E-03 0. -1.
     -623    1    1    2    0    0  0.18948340122E-02  0.61064207653E-03  0.37881029128E-03  0.17130000001E+03  0.17130000000E+03 0.  1.
      622    1    1    2    0    0  0.15171029631E-02 -0.34839972177E-02  0.39417980334E+01  0.39420028127E+01  0.40000000000E-01 0. -1.
</event>
<event>
 5   0  0.6200596E+07  0.9118800E+02  0.7818608E-02  0.1180000E+00
       11   -1    0    0    0    0  0.00000000000E+00  0.00000000000E+00  0.39999999673E+01  0.40000000000E+01  0.51109989000E-03 0.  1.
     -623   -1    0    0    0    0  0.00000000000E+00  0.00000000000E+00  0.12525980253E-10  0.17130000000E+03  0.17130000000E+03 0.  1.
       11    1    1    2    0    0 -0.64329479270E-02 -0.12660985442E-02  0.15048721000E+00  0.15063083156E+00  0.51109989000E-03 0.  1.
     -623    1    1    2    0    0  0.33403324921E-02 -0.14499746978E-02  0.35366052384E-03  0.17130000004E+03  0.17130000000E+03 0.  1.
      622    1    1    2    0    0  0.30926154349E-02  0.27160732420E-02  0.38491590968E+01  0.38493691294E+01  0.40000000000E-01 0.  1.
</event>
<event>
 5   0  0.6200596E+07  0.9118800E+02  0.7818608E-02  0.1180000E+00
       11   -1    0    0    0    0  0.00000000000E+00  0.00000000000E+00  0.39999999673E+01  0.40000000000E+01  0.51109989000E-03 0.  1.
     -623   -1    0    0    0    0  0.00000000000E+00  0.00000000000E+00  0.12525980253E-10  0.17130000000E+03  0.17130000000E+03 0. -1.
       11    1    1    2    0    0  0.27324783900E-02  0.11174697624E-01  0.39217113729E+00  0.39234016166E+00  0.51109989000E-03 0.  1.
     -623    1    1    2    0    0 -0.47940355657E-03 -0.17241135623E-02  0.40384146235E-03  0.17130000001E+03  0.17130000000E+03 0. -1.
      622    1    1    2    0    0 -0.22530748334E-02 -0.94505840618E-02  0.36074249886E+01  0.36076598285E+01  0.40000000000E-01 0.  0.
</event>
<event>
 5   0  0.6200596E+07  0.9118800E+02  0.7818608E-02  0.1180000E+00
       11   -1    0    0    0    0  0.00000000000E+00  0.00000000000E+00  0.39999999673E+01  0.40000000000E+01  0.51109989000E-03 0. -1.
     -623   -1    0    0    0    0  0.00000000000E+00  0.00000000000E+00  0.12525980253E-10  0.17130000000E+03  0.17130000000E+03 0. -1.
       11    1    1    2    0    0 -0.78419780995E-04  0.67510904926E-03  0.65657432685E-02  0.66205836193E-02  0.51109989000E-03 0. -1.
     -623    1    1    2    0    0  0.92899617213E-03 -0.15808828970E-02  0.25534763657E-03  0.17130000001E+03  0.17130000000E+03 0. -1.
      622    1    1    2    0    0 -0.85057639113E-03  0.90577384777E-03  0.39931788765E+01  0.39933794064E+01  0.40000000000E-01 0. -1.
</event>
<event>
 5   0  0.6200596E+07  0.9118800E+02  0.7818608E-02  0.1180000E+00
       11   -1    0    0    0    0  0.00000000000E+00  0.00000000000E+00  0.39999999673E+01  0.40000000000E+01  0.51109989000E-03 0. -1.
     -623   -1    0    0    0    0  0.00000000000E+00  0.00000000000E+00  0.12525980253E-10  0.17130000000E+03  0.17130000000E+03 0.  1.
       11    1    1    2    0    0 -0.81122823682E-03  0.62604895859E-03  0.38137107216E-02  0.39819141576E-02  0.51109989000E-03 0. -1.
     -623    1    1    2    0    0 -0.48202973848E-03 -0.18755516136E-03  0.36860962584E-03  0.17130000000E+03  0.17130000000E+03 0.  1.
      622    1    1    2    0    0  0.12932579753E-02 -0.43849379723E-03  0.39958176470E+01  0.39960180847E+01  0.40000000000E-01 0. -1.
</event>
<event>
 5   0  0.6200596E+07  0.9118800E+02  0.7818608E-02  0.1180000E+00
       11   -1    0    0    0    0  0.00000000000E+00  0.00000000000E+00  0.39999999673E+01  0.40000000000E+01  0.51109989000E-03 0. -1.
     -623   -1    0    0    0    0  0.00000000000E+00  0.00000000000E+00  0.12525980253E-10  0.17130000000E+03  0.17130000000E+03 0.  1.
       11    1    1    2    0    0  0.26001194906E-01  0.32733485254E-01  0.54975847730E+00  0.55134579692E+00  0.51109989000E-03 0. -1.
     -623    1    1    2    0    0 -0.10908523548E-02 -0.89553397363E-02  0.19914746598E-02  0.17130000025E+03  0.17130000000E+03 0.  1.
      622    1    1    2    0    0 -0.24910342551E-01 -0.23778145518E-01  0.34482500154E+01  0.34486539539E+01  0.40000000000E-01 0. -1.
</event>
<event>
 5   0  0.6200596E+07  0.9118800E+02  0.7818608E-02  0.1180000E+00
       11   -1    0    0    0    0  0.00000000000E+00  0.00000000000E+00  0.39999999673E+01  0.40000000000E+01  0.51109989000E-03 0. -1.
     -623   -1    0    0    0    0  0.00000000000E+00  0.00000000000E+00  0.12525980253E-10  0.17130000000E+03  0.17130000000E+03 0.  1.
       11    1    1    2    0    0 -0.66070777730E-02  0.13352655348E-02  0.90498170139E-01  0.90750297137E-01  0.51109989000E-03 0. -1.
     -623    1    1    2    0    0  0.11180373222E-02  0.49298512456E-03  0.46102890574E-03  0.17130000000E+03  0.17130000000E+03 0.  1.
      622    1    1    2    0    0  0.54890404508E-02 -0.18282506594E-02  0.39090407683E+01  0.39092496979E+01  0.40000000000E-01 0. -1.
</event>
<event>
 5   0  0.6200596E+07  0.9118800E+02  0.7818608E-02  0.1180000E+00
       11   -1    0    0    0    0  0.00000000000E+00  0.00000000000E+00  0.39999999673E+01  0.40000000000E+01  0.51109989000E-03 0.  1.
     -623   -1    0    0    0    0  0.00000000000E+00  0.00000000000E+00  0.12525980253E-10  0.17130000000E+03  0.17130000000E+03 0. -1.
       11    1    1    2    0    0  0.23444876588E-02 -0.69755996621E-03  0.46696612645E-01  0.46763426572E-01  0.51109989000E-03 0.  1.
     -623    1    1    2    0    0 -0.45169537973E-02 -0.18448462319E-02  0.27063654007E-03  0.17130000007E+03  0.17130000000E+03 0. -1.
      622    1    1    2    0    0  0.21724661385E-02  0.25424061981E-02  0.39530327182E+01  0.39532365037E+01  0.40000000000E-01 0.  1.
</event>
<event>
 5   0  0.6200596E+07  0.9118800E+02  0.7818608E-02  0.1180000E+00
       11   -1    0    0    0    0  0.00000000000E+00  0.00000000000E+00  0.39999999673E+01  0.40000000000E+01  0.51109989000E-03 0.  1.
     -623   -1    0    0    0    0  0.00000000000E+00  0.00000000000E+00  0.12525980253E-10  0.17130000000E+03  0.17130000000E+03 0.  1.
       11    1    1    2    0    0 -0.17116615334E-02 -0.56943457891E-02  0.40640836483E-01  0.41076686462E-01  0.51109989000E-03 0.  1.
     -623    1    1    2    0    0  0.27944610544E-02  0.14708098996E-02  0.64032906529E-03  0.17130000003E+03  0.17130000000E+03 0.  1.
      622    1    1    2    0    0 -0.10827995210E-02  0.42235358896E-02  0.39587188018E+01  0.39589232832E+01  0.40000000000E-01 0.  1.
</event>
<event>
 5   0  0.6200596E+07  0.9118800E+02  0.7818608E-02  0.1180000E+00
       11   -1    0    0    0    0  0.00000000000E+00  0.00000000000E+00  0.39999999673E+01  0.40000000000E+01  0.51109989000E-03 0.  1.
     -623   -1    0    0    0    0  0.00000000000E+00  0.00000000000E+00  0.12525980253E-10  0.17130000000E+03  0.17130000000E+03 0. -1.
       11    1    1    2    0    0 -0.18823495558E-03 -0.47638752571E-03  0.24392162375E-01  0.24402892964E-01  0.51109989000E-03 0.  1.
     -623    1    1    2    0    0  0.63172374112E-03  0.31346385362E-02  0.21287414701E-03  0.17130000003E+03  0.17130000000E+03 0. -1.
      622    1    1    2    0    0 -0.44348878555E-03 -0.26582510105E-02  0.39753949308E+01  0.39755970771E+01  0.40000000000E-01 0.  1.
</event>
<event>
 5   0  0.6200596E+07  0.9118800E+02  0.7818608E-02  0.1180000E+00
       11   -1    0    0    0    0  0.00000000000E+00  0.00000000000E+00  0.39999999673E+01  0.40000000000E+01  0.51109989000E-03 0. -1.
     -623   -1    0    0    0    0  0.00000000000E+00  0.00000000000E+00  0.12525980253E-10  0.17130000000E+03  0.17130000000E+03 0.  1.
       11    1    1    2    0    0 -0.14209240855E-01  0.15303427573E-01  0.37631483437E+00  0.37689416712E+00  0.51109989000E-03 0. -1.
     -623    1    1    2    0    0  0.10165525626E-01  0.93140278007E-03  0.83905069596E-03  0.17130000031E+03  0.17130000000E+03 0.  1.
      622    1    1    2    0    0  0.40437152282E-02 -0.16234830353E-01  0.36228460823E+01  0.36231055267E+01  0.40000000000E-01 0. -1.
</event>
<event>
 5   0  0.6200596E+07  0.9118800E+02  0.7818608E-02  0.1180000E+00
       11   -1    0    0    0    0  0.00000000000E+00  0.00000000000E+00  0.39999999673E+01  0.40000000000E+01  0.51109989000E-03 0. -1.
     -623   -1    0    0    0    0  0.00000000000E+00  0.00000000000E+00  0.12525980253E-10  0.17130000000E+03  0.17130000000E+03 0. -1.
       11    1    1    2    0    0 -0.26380773338E-01 -0.34180091437E-01  0.11815034228E+01  0.11822921903E+01  0.51109989000E-03 0. -1.
     -623    1    1    2    0    0  0.16351211126E-01  0.23782340894E-01  0.11121416069E-02  0.17130000243E+03  0.17130000000E+03 0. -1.
      622    1    1    2    0    0  0.10029562212E-01  0.10397750544E-01  0.28173844029E+01  0.28177053748E+01  0.40000000000E-01 0.  0.
</event>
<event>
 5   0  0.6200596E+07  0.9118800E+02  0.7818608E-02  0.1180000E+00
       11   -1    0    0    0    0  0.00000000000E+00  0.00000000000E+00  0.39999999673E+01  0.40000000000E+01  0.51109989000E-03 0. -1.
     -623   -1    0    0    0    0  0.00000000000E+00  0.00000000000E+00  0.12525980253E-10  0.17130000000E+03  0.17130000000E+03 0. -1.
       11    1    1    2    0    0  0.34535000437E-02 -0.11399003425E-02  0.82995746138E-02  0.90758028099E-02  0.51109989000E-03 0. -1.
     -623    1    1    2    0    0 -0.22126179058E-02 -0.17241717484E-03  0.97708126989E-03  0.17130000002E+03  0.17130000000E+03 0. -1.
      622    1    1    2    0    0 -0.12408821379E-02  0.13123175173E-02  0.39907233115E+01  0.39909241800E+01  0.40000000000E-01 0. -1.
</event>
<event>
 5   0  0.6200596E+07  0.9118800E+02  0.7818608E-02  0.1180000E+00
       11   -1    0    0    0    0  0.00000000000E+00  0.00000000000E+00  0.39999999673E+01  0.40000000000E+01  0.51109989000E-03 0.  1.
     -623   -1    0    0    0    0  0.00000000000E+00  0.00000000000E+00  0.12525980253E-10  0.17130000000E+03  0.17130000000E+03 0. -1.
       11    1    1    2    0    0 -0.67293750424E-01 -0.58956095885E-02  0.17481557998E+01  0.17494605365E+01  0.51109989000E-03 0.  1.
     -623    1    1    2    0    0 -0.16950698684E-02 -0.61483668806E-02  0.27504104114E-02  0.17130000014E+03  0.17130000000E+03 0. -1.
      622    1    1    2    0    0  0.68988820292E-01  0.12043976469E-01  0.22490937571E+01  0.22505393227E+01  0.40000000000E-01 0.  1.
</event>
<event>
 5   0  0.6200596E+07  0.9118800E+02  0.7818608E-02  0.1180000E+00
       11   -1    0    0    0    0  0.00000000000E+00  0.00000000000E+00  0.39999999673E+01  0.40000000000E+01  0.51109989000E-03 0.  1.
     -623   -1    0    0    0    0  0.00000000000E+00  0.00000000000E+00  0.12525980253E-10  0.17130000000E+03  0.17130000000E+03 0. -1.
       11    1    1    2    0    0 -0.12401927426E-01 -0.87906913461E-03  0.67862590884E+00  0.67873998404E+00  0.51109989000E-03 0.  1.
     -623    1    1    2    0    0  0.30602883012E-02 -0.72575618678E-02  0.37821133463E-03  0.17130000018E+03  0.17130000000E+03 0. -1.
      622    1    1    2    0    0  0.93416391251E-02  0.81366310024E-02  0.33209958472E+01  0.33212598345E+01  0.40000000000E-01 0.  1.
</event>
<event>
 5   0  0.6200596E+07  0.9118800E+02  0.7818608E-02  0.1180000E+00
       11   -1    0    0    0    0  0.00000000000E+00  0.00000000000E+00  0.39999999673E+01  0.40000000000E+01  0.51109989000E-03 0.  1.
     -623   -1    0    0    0    0  0.00000000000E+00  0.00000000000E+00  0.12525980253E-10  0.17130000000E+03  0.17130000000E+03 0.  1.
       11    1    1    2    0    0 -0.12636647462E-02  0.16139895894E-01  0.29366523833E+00  0.29411158854E+00  0.51109989000E-03 0.  1.
     -623    1    1    2    0    0  0.18375456315E-01 -0.25991399107E-01  0.71775990708E-03  0.17130000296E+03  0.17130000000E+03 0.  1.
      622    1    1    2    0    0 -0.17111791569E-01  0.98515032128E-02  0.37056169691E+01  0.37058854525E+01  0.40000000000E-01 0.  1.
</event>
<event>
 5   0  0.6200596E+07  0.9118800E+02  0.7818608E-02  0.1180000E+00
       11   -1    0    0    0    0  0.00000000000E+00  0.00000000000E+00  0.39999999673E+01  0.40000000000E+01  0.51109989000E-03 0.  1.
     -623   -1    0    0    0    0  0.00000000000E+00  0.00000000000E+00  0.12525980253E-10  0.17130000000E+03  0.17130000000E+03 0. -1.
       11    1    1    2    0    0  0.11717976900E-02 -0.79845351279E-04  0.19258312968E-01  0.19300863335E-01  0.51109989000E-03 0.  1.
     -623    1    1    2    0    0 -0.95859983547E-03 -0.51493707905E-03  0.24354629885E-03  0.17130000000E+03  0.17130000000E+03 0. -1.
      622    1    1    2    0    0 -0.21319785451E-03  0.59478243033E-03  0.39804981081E+01  0.39806991330E+01  0.40000000000E-01 0.  1.
</event>
<event>
 5   0  0.6200596E+07  0.9118800E+02  0.7818608E-02  0.1180000E+00
       11   -1    0    0    0    0  0.00000000000E+00  0.00000000000E+00  0.39999999673E+01  0.40000000000E+01  0.51109989000E-03 0.  1.
     -623   -1    0    0    0    0  0.00000000000E+00  0.00000000000E+00  0.12525980253E-10  0.17130000000E+03  0.17130000000E+03 0. -1.
       11    1    1    2    0    0 -0.62257119454E-02  0.85840829747E-02  0.11342800123E+00  0.11392374052E+00  0.51109989000E-03 0.  1.
     -623    1    1    2    0    0  0.11302670475E-02 -0.10411054775E-01  0.70566709889E-03  0.17130000032E+03  0.17130000000E+03 0. -1.
      622    1    1    2    0    0  0.50954448979E-02  0.18269718003E-02  0.38858662990E+01  0.38860759379E+01  0.40000000000E-01 0.  1.
</event>
<event>
 5   0  0.6200596E+07  0.9118800E+02  0.7818608E-02  0.1180000E+00
       11   -1    0    0    0    0  0.00000000000E+00  0.00000000000E+00  0.39999999673E+01  0.40000000000E+01  0.51109989000E-03 0. -1.
     -623   -1    0    0    0    0  0.00000000000E+00  0.00000000000E+00  0.12525980253E-10  0.17130000000E+03  0.17130000000E+03 0. -1.
       11    1    1    2    0    0  0.60968027080E-02  0.16911122567E-01  0.14579395254E+01  0.14580504374E+01  0.51109989000E-03 0. -1.
     -623    1    1    2    0    0 -0.25082412471E-02  0.11689086261E-03  0.48521177033E-03  0.17130000002E+03  0.17130000000E+03 0. -1.
      622    1    1    2    0    0 -0.35885614608E-02 -0.17028013430E-01  0.25415752301E+01  0.25419495435E+01  0.40000000000E-01 0.  1.
</event>
<event>
 5   0  0.6200596E+07  0.9118800E+02  0.7818608E-02  0.1180000E+00
       11   -1    0    0    0    0  0.00000000000E+00  0.00000000000E+00  0.39999999673E+01  0.40000000000E+01  0.51109989000E-03 0.  1.
     -623   -1    0    0    0    0  0.00000000000E+00  0.00000000000E+00  0.12525980253E-10  0.17130000000E+03  0.17130000000E+03 0.  1.
       11    1    1    2    0    0 -0.46554208351E-02 -0.14850580242E-01  0.11836830977E+00  0.11938815124E+00  0.51109989000E-03 0.  1.
     -623    1    1    2    0    0  0.66043783957E-03 -0.12845546259E-02  0.12615805276E-02  0.17130000001E+03  0.17130000000E+03 0.  1.
      622    1    1    2    0    0  0.39949829955E-02  0.16135134868E-01  0.38803700771E+01  0.38806118380E+01  0.40000000000E-01 0.  1.
</event>
<event>
 5   0  0.6200596E+07  0.9118800E+02  0.7818608E-02  0.1180000E+00
       11   -1    0    0    0    0  0.00000000000E+00  0.00000000000E+00  0.39999999673E+01  0.40000000000E+01  0.51109989000E-03 0. -1.
     -623   -1    0    0    0    0  0.00000000000E+00  0.00000000000E+00  0.12525980253E-10  0.17130000000E+03  0.17130000000E+03 0.  1.
       11    1    1    2    0    0  0.11436579547E-02  0.57464103678E-02  0.25185668761E-01  0.25863261955E-01  0.51109989000E-03 0. -1.
     -623    1    1    2    0    0  0.56677445401E-02 -0.40424156911E-02  0.88521375970E-03  0.17130000014E+03  0.17130000000E+03 0.  1.
      622    1    1    2    0    0 -0.68114024947E-02 -0.17039946767E-02  0.39739290848E+01  0.39741365943E+01  0.40000000000E-01 0. -1.
</event>
<event>
 5   0  0.6200596E+07  0.9118800E+02  0.7818608E-02  0.1180000E+00
       11   -1    0    0    0    0  0.00000000000E+00  0.00000000000E+00  0.39999999673E+01  0.40000000000E+01  0.51109989000E-03 0.  1.
     -623   -1    0    0    0    0  0.00000000000E+00  0.00000000000E+00  0.12525980253E-10  0.17130000000E+03  0.17130000000E+03 0. -1.
       11    1    1    2    0    0  0.74938645926E-02 -0.12878199767E-03  0.59966519295E-02  0.96122653917E-02  0.51109989000E-03 0.  1.
     -623    1    1    2    0    0 -0.33502799278E-02 -0.58847552982E-03  0.38183598686E-02  0.17130000008E+03  0.17130000000E+03 0. -1.
      622    1    1    2    0    0 -0.41435846648E-02  0.71725752749E-03  0.39901849556E+01  0.39903876583E+01  0.40000000000E-01 0.  1.
</event>
<event>
 5   0  0.6200596E+07  0.9118800E+02  0.7818608E-02  0.1180000E+00
       11   -1    0    0    0    0  0.00000000000E+00  0.00000000000E+00  0.39999999673E+01  0.40000000000E+01  0.51109989000E-03 0.  1.
     -623   -1    0    0    0    0  0.00000000000E+00  0.00000000000E+00  0.12525980253E-10  0.17130000000E+03  0.17130000000E+03 0. -1.
       11    1    1    2    0    0  0.75816122265E-02  0.76798567536E-03  0.70481919588E-01  0.70894519231E-01  0.51109989000E-03 0.  1.
     -623    1    1    2    0    0  0.34414054343E-02  0.10590309760E-02  0.63210802309E-03  0.17130000004E+03  0.17130000000E+03 0. -1.
      622    1    1    2    0    0 -0.11023017661E-01 -0.18270166514E-02  0.39288859397E+01  0.39291054418E+01  0.40000000000E-01 0.  1.
</event>
<event>
 5   0  0.6200596E+07  0.9118800E+02  0.7818608E-02  0.1180000E+00
       11   -1    0    0    0    0  0.00000000000E+00  0.00000000000E+00  0.39999999673E+01  0.40000000000E+01  0.51109989000E-03 0.  1.
     -623   -1    0    0    0    0  0.00000000000E+00  0.00000000000E+00  0.12525980253E-10  0.17130000000E+03  0.17130000000E+03 0. -1.
       11    1    1    2    0    0 -0.42609634567E-02  0.37078168837E-02  0.40018212405E+00  0.40022230990E+00  0.51109989000E-03 0.  1.
     -623    1    1    2    0    0  0.17432405950E-03 -0.80819912404E-03  0.26588593341E-03  0.17130000000E+03  0.17130000000E+03 0. -1.
      622    1    1    2    0    0  0.40866393972E-02 -0.28996177597E-02  0.35995519574E+01  0.35997776879E+01  0.40000000000E-01 0.  1.
</event>
<event>
 5   0  0.6200596E+07  0.9118800E+02  0.7818608E-02  0.1180000E+00
       11   -1    0    0    0    0  0.00000000000E+00  0.00000000000E+00  0.39999999673E+01  0.40000000000E+01  0.51109989000E-03 0.  1.
     -623   -1    0    0    0    0  0.00000000000E+00  0.00000000000E+00  0.12525980253E-10  0.17130000000E+03  0.17130000000E+03 0.  1.
       11    1    1    2    0    0  0.14636751851E-01  0.15759019972E-01  0.79136568988E-02  0.22923097576E-01  0.51109989000E-03 0.  1.
     -623    1    1    2    0    0 -0.22266099731E-01 -0.30373605665E-01  0.15249556692E-01  0.17130000482E+03  0.17130000000E+03 0.  1.
      622    1    1    2    0    0  0.76293478798E-02  0.14614585693E-01  0.39768367538E+01  0.39770720837E+01  0.40000000000E-01 0.  1.
</event>
<event>
 5   0  0.6200596E+07  0.9118800E+02  0.7818608E-02  0.1180000E+00
       11   -1    0    0    0    0  0.00000000000E+00  0.00000000000E+00  0.39999999673E+01  0.40000000000E+01  0.51109989000E-03 0. -1.
     -623   -1    0    0    0    0  0.00000000000E+00  0.00000000000E+00  0.12525980253E-10  0.17130000000E+03  0.17130000000E+03 0. -1.
       11    1    1    2    0    0 -0.72441568273E-02  0.15745024349E-01  0.88814637777E+00  0.88831561574E+00  0.51109989000E-03 0. -1.
     -623    1    1    2    0    0  0.46425434610E-02 -0.86094067078E-02  0.43586121912E-03  0.17130000028E+03  0.17130000000E+03 0. -1.
      622    1    1    2    0    0  0.26016133663E-02 -0.71356176416E-02  0.31114177284E+01  0.31116841044E+01  0.40000000000E-01 0.  0.
</event>
<event>
 5   0  0.6200596E+07  0.9118800E+02  0.7818608E-02  0.1180000E+00
       11   -1    0    0    0    0  0.00000000000E+00  0.00000000000E+00  0.39999999673E+01  0.40000000000E+01  0.51109989000E-03 0.  1.
     -623   -1    0    0    0    0  0.00000000000E+00  0.00000000000E+00  0.12525980253E-10  0.17130000000E+03  0.17130000000E+03 0. -1.
       11    1    1    2    0    0 -0.40196931818E-02  0.34346913386E-02  0.25347202226E-01  0.25897816901E-01  0.51109989000E-03 0.  1.
     -623    1    1    2    0    0  0.21279840422E-02  0.22757457841E-02  0.75647363703E-03  0.17130000003E+03  0.17130000000E+03 0. -1.
      622    1    1    2    0    0  0.18917091396E-02 -0.57104371227E-02  0.39738962915E+01  0.39741021531E+01  0.40000000000E-01 0.  1.
</event>
<event>
 5   0  0.6200596E+07  0.9118800E+02  0.7818608E-02  0.1180000E+00
       11   -1    0    0    0    0  0.00000000000E+00  0.00000000000E+00  0.39999999673E+01  0.40000000000E+01  0.51109989000E-03 0. -1.
     -623   -1    0    0    0    0  0.00000000000E+00  0.00000000000E+00  0.12525980253E-10  0.17130000000E+03  0.17130000000E+03 0. -1.
       11    1    1    2    0    0 -0.43385873401E-02  0.79192958826E-02  0.42271550935E-01  0.43228275800E-01  0.51109989000E-03 0. -1.
     -623    1    1    2    0    0  0.66094797200E-02 -0.49950273028E-02  0.11608190455E-02  0.17130000020E+03  0.17130000000E+03 0. -1.
      622    1    1    2    0    0 -0.22708923799E-02 -0.29242685799E-02  0.39565675974E+01  0.39567715199E+01  0.40000000000E-01 0. -1.
</event>
<event>
 5   0  0.6200596E+07  0.9118800E+02  0.7818608E-02  0.1180000E+00
       11   -1    0    0    0    0  0.00000000000E+00  0.00000000000E+00  0.39999999673E+01  0.40000000000E+01  0.51109989000E-03 0. -1.
     -623   -1    0    0    0    0  0.00000000000E+00  0.00000000000E+00  0.12525980253E-10  0.17130000000E+03  0.17130000000E+03 0.  1.
       11    1    1    2    0    0  0.31699709134E-02  0.23238265231E-02  0.24898269670E+00  0.24901424330E+00  0.51109989000E-03 0. -1.
     -623    1    1    2    0    0  0.55289315740E-03 -0.83616783063E-03  0.24694300181E-03  0.17130000000E+03  0.17130000000E+03 0.  1.
      622    1    1    2    0    0 -0.37228640708E-02 -0.14876586925E-02  0.37507703277E+01  0.37509857536E+01  0.40000000000E-01 0. -1.
</event>
<event>
 5   0  0.6200596E+07  0.9118800E+02  0.7818608E-02  0.1180000E+00
       11   -1    0    0    0    0  0.00000000000E+00  0.00000000000E+00  0.39999999673E+01  0.40000000000E+01  0.51109989000E-03 0. -1.
     -623   -1    0    0    0    0  0.00000000000E+00  0.00000000000E+00  0.12525980253E-10  0.17130000000E+03  0.17130000000E+03 0. -1.
       11    1    1    2    0    0 -0.20169810413E-01 -0.21766114614E-01  0.21556829935E+01  0.21558872917E+01  0.51109989000E-03 0. -1.
     -623    1    1    2    0    0 -0.17953061986E-02 -0.10301208366E-02  0.90994039374E-03  0.17130000001E+03  0.17130000000E+03 0. -1.
      622    1    1    2    0    0  0.21965116612E-01  0.22796235450E-01  0.18434070335E+01  0.18441126933E+01  0.40000000000E-01 0.  0.
</event>
<event>
 5   0  0.6200596E+07  0.9118800E+02  0.7818608E-02  0.1180000E+00
       11   -1    0    0    0    0  0.00000000000E+00  0.00000000000E+00  0.39999999673E+01  0.40000000000E+01  0.51109989000E-03 0. -1.
     -623   -1    0    0    0    0  0.00000000000E+00  0.00000000000E+00  0.12525980253E-10  0.17130000000E+03  0.17130000000E+03 0. -1.
       11    1    1    2    0    0 -0.18706932138E-01 -0.38002472665E-02  0.11813130776E+01  0.11814674095E+01  0.51109989000E-03 0. -1.
     -623    1    1    2    0    0 -0.21986017125E-01  0.24968682499E-01  0.81469204839E-03  0.17130000323E+03  0.17130000000E+03 0. -1.
      622    1    1    2    0    0  0.40692949263E-01 -0.21168435232E-01  0.28178721977E+01  0.28185293579E+01  0.40000000000E-01 0.  0.
</event>
<event>
 5   0  0.6200596E+07  0.9118800E+02  0.7818608E-02  0.1180000E+00
       11   -1    0    0    0    0  0.00000000000E+00  0.00000000000E+00  0.39999999673E+01  0.40000000000E+01  0.51109989000E-03 0.  1.
     -623   -1    0    0    0    0  0.00000000000E+00  0.00000000000E+00  0.12525980253E-10  0.17130000000E+03  0.17130000000E+03 0.  1.
       11    1    1    2    0    0 -0.10554071770E-03  0.88435763652E-03  0.88218350888E-02  0.88813975312E-02  0.51109989000E-03 0.  1.
     -623    1    1    2    0    0  0.56289010663E-03  0.38171476243E-03  0.26020847083E-03  0.17130000000E+03  0.17130000000E+03 0.  1.
      622    1    1    2    0    0 -0.45734938893E-03 -0.12660723990E-02  0.39909179238E+01  0.39911186009E+01  0.40000000000E-01 0.  1.
</event>
<event>
 5   0  0.6200596E+07  0.9118800E+02  0.7818608E-02  0.1180000E+00
       11   -1    0    0    0    0  0.00000000000E+00  0.00000000000E+00  0.39999999673E+01  0.40000000000E+01  0.51109989000E-03 0. -1.
     -623   -1    0    0    0    0  0.00000000000E+00  0.00000000000E+00  0.12525980253E-10  0.17130000000E+03  0.17130000000E+03 0. -1.
       11    1    1    2    0    0 -0.15158500669E-01  0.37708287853E-01  0.14084351793E+01  0.14090215082E+01  0.51109989000E-03 0. -1.
     -623    1    1    2    0    0  0.23024635723E-01 -0.62070123401E-01  0.10343671457E-02  0.17130001280E+03  0.17130000000E+03 0. -1.
      622    1    1    2    0    0 -0.78661350542E-02  0.24361835548E-01  0.25905304210E+01  0.25909656958E+01  0.40000000000E-01 0. -1.
</event>
<event>
 5   0  0.6200596E+07  0.9118800E+02  0.7818608E-02  0.1180000E+00
       11   -1    0    0    0    0  0.00000000000E+00  0.00000000000E+00  0.39999999673E+01  0.40000000000E+01  0.51109989000E-03 0.  1.
     -623   -1    0    0    0    0  0.00000000000E+00  0.00000000000E+00  0.12525980253E-10  0.17130000000E+03  0.17130000000E+03 0.  1.
       11    1    1    2    0    0  0.50949068510E-03  0.49979995917E-03  0.24100828143E-01  0.24116809880E-01  0.51109989000E-03 0.  1.
     -623    1    1    2    0    0 -0.10133736714E-02 -0.53506195764E-03  0.21720340206E-03  0.17130000000E+03  0.17130000000E+03 0.  1.
      622    1    1    2    0    0  0.50388298628E-03  0.35261998472E-04  0.39756819358E+01  0.39758831861E+01  0.40000000000E-01 0.  1.
</event>
<event>
 5   0  0.6200596E+07  0.9118800E+02  0.7818608E-02  0.1180000E+00
       11   -1    0    0    0    0  0.00000000000E+00  0.00000000000E+00  0.39999999673E+01  0.40000000000E+01  0.51109989000E-03 0. -1.
     -623   -1    0    0    0    0  0.00000000000E+00  0.00000000000E+00  0.12525980253E-10  0.17130000000E+03  0.17130000000E+03 0. -1.
       11    1    1    2    0    0 -0.14227210136E-02 -0.63933757444E-03  0.91899599282E+00  0.91899745861E+00  0.51109989000E-03 0. -1.
     -623    1    1    2    0    0  0.22781491552E-02 -0.31310852363E-02  0.26356981664E-03  0.17130000004E+03  0.17130000000E+03 0. -1.
      622    1    1    2    0    0 -0.85542814162E-03  0.37704228107E-02  0.30807404047E+01  0.30810024974E+01  0.40000000000E-01 0. -1.
</event>
<event>
 5   0  0.6200596E+07  0.9118800E+02  0.7818608E-02  0.1180000E+00
       11   -1    0    0    0    0  0.00000000000E+00  0.00000000000E+00  0.39999999673E+01  0.40000000000E+01  0.51109989000E-03 0.  1.
     -623   -1    0    0    0    0  0.00000000000E+00  0.00000000000E+00  0.12525980253E-10  0.17130000000E+03  0.17130000000E+03 0. -1.
       11    1    1    2    0    0  0.32186931145E-02 -0.83227541602E-02  0.18745278123E+01  0.18745491214E+01  0.51109989000E-03 0.  1.
     -623    1    1    2    0    0 -0.18530818291E-02 -0.29202334624E-03  0.41561175105E-03  0.17130000001E+03  0.17130000000E+03 0. -1.
      622    1    1    2    0    0 -0.13656112854E-02  0.86147775065E-02  0.21250565433E+01  0.21254508678E+01  0.40000000000E-01 0.  1.
</event>
<event>
 5   0  0.6200596E+07  0.9118800E+02  0.7818608E-02  0.1180000E+00
       11   -1    0    0    0    0  0.00000000000E+00  0.00000000000E+00  0.39999999673E+01  0.40000000000E+01  0.51109989000E-03 0. -1.
     -623   -1    0    0    0    0  0.00000000000E+00  0.00000000000E+00  0.12525980253E-10  0.17130000000E+03  0.17130000000E+03 0. -1.
       11    1    1    2    0    0 -0.98787480858E-03 -0.95882796950E-03  0.93387196775E-02  0.94534731720E-02  0.51109989000E-03 0. -1.
     -623    1    1    2    0    0  0.93959684592E-03  0.24023835011E-02  0.31548080184E-03  0.17130000002E+03  0.17130000000E+03 0. -1.
      622    1    1    2    0    0  0.48277962662E-04 -0.14435555316E-02  0.39903457669E+01  0.39905465071E+01  0.40000000000E-01 0. -1.
</event>
<event>
 5   0  0.6200596E+07  0.9118800E+02  0.7818608E-02  0.1180000E+00
       11   -1    0    0    0    0  0.00000000000E+00  0.00000000000E+00  0.39999999673E+01  0.40000000000E+01  0.51109989000E-03 0.  1.
     -623   -1    0    0    0    0  0.00000000000E+00  0.00000000000E+00  0.12525980253E-10  0.17130000000E+03  0.17130000000E+03 0.  1.
       11    1    1    2    0    0  0.86731146255E-03 -0.26875429910E-02  0.11693681184E-01  0.12040702569E-01  0.51109989000E-03 0.  1.
     -623    1    1    2    0    0 -0.19507796053E-02 -0.10055603476E-02  0.54946988294E-03  0.17130000001E+03  0.17130000000E+03 0.  1.
      622    1    1    2    0    0  0.10834681427E-02  0.36931033386E-02  0.39877568163E+01  0.39879592825E+01  0.40000000000E-01 0.  1.
</event>
<event>
 5   0  0.6200596E+07  0.9118800E+02  0.7818608E-02  0.1180000E+00
       11   -1    0    0    0    0  0.00000000000E+00  0.00000000000E+00  0.39999999673E+01  0.40000000000E+01  0.51109989000E-03 0.  1.
     -623   -1    0    0    0    0  0.00000000000E+00  0.00000000000E+00  0.12525980253E-10  0.17130000000E+03  0.17130000000E+03 0.  1.
       11    1    1    2    0    0  0.56452679851E-03 -0.67583472282E-03  0.18153096681E+00  0.18153382213E+00  0.51109989000E-03 0.  1.
     -623    1    1    2    0    0 -0.26438636911E-03 -0.10359454622E-02  0.21273560216E-03  0.17130000000E+03  0.17130000000E+03 0.  1.
      622    1    1    2    0    0 -0.30014042940E-03  0.17117801851E-02  0.38182562649E+01  0.38184661744E+01  0.40000000000E-01 0.  1.
</event>
<event>
 5   0  0.6200596E+07  0.9118800E+02  0.7818608E-02  0.1180000E+00
       11   -1    0    0    0    0  0.00000000000E+00  0.00000000000E+00  0.39999999673E+01  0.40000000000E+01  0.51109989000E-03 0. -1.
     -623   -1    0    0    0    0  0.00000000000E+00  0.00000000000E+00  0.12525980253E-10  0.17130000000E+03  0.17130000000E+03 0. -1.
       11    1    1    2    0    0 -0.39652926051E-02  0.12498356701E-01  0.62516166062E+00  0.62529936478E+00  0.51109989000E-03 0. -1.
     -623    1    1    2    0    0 -0.42961604447E-03 -0.86197810359E-02  0.38004673241E-03  0.17130000022E+03  0.17130000000E+03 0. -1.
      622    1    1    2    0    0  0.43949086496E-02 -0.38785756647E-02  0.33744582600E+01  0.33747004174E+01  0.40000000000E-01 0. -1.
</event>
<event>
 5   0  0.6200596E+07  0.9118800E+02  0.7818608E-02  0.1180000E+00
       11   -1    0    0    0    0  0.00000000000E+00  0.00000000000E+00  0.39999999673E+01  0.40000000000E+01  0.51109989000E-03 0.  1.
     -623   -1    0    0    0    0  0.00000000000E+00  0.00000000000E+00  0.12525980253E-10  0.17130000000E+03  0.17130000000E+03 0. -1.
       11    1    1    2    0    0  0.84083166735E-03  0.24943219209E-02  0.15050949399E+00  0.15053337717E+00  0.51109989000E-03 0.  1.
     -623    1    1    2    0    0 -0.98729328885E-02 -0.47214016633E-02  0.24326789771E-03  0.17130000035E+03  0.17130000000E+03 0. -1.
      622    1    1    2    0    0  0.90321012211E-02  0.22270797424E-02  0.38492472055E+01  0.38494662731E+01  0.40000000000E-01 0.  1.
</event>
<event>
 5   0  0.6200596E+07  0.9118800E+02  0.7818608E-02  0.1180000E+00
       11   -1    0    0    0    0  0.00000000000E+00  0.00000000000E+00  0.39999999673E+01  0.40000000000E+01  0.51109989000E-03 0. -1.
     -623   -1    0    0    0    0  0.00000000000E+00  0.00000000000E+00  0.12525980253E-10  0.17130000000E+03  0.17130000000E+03 0.  1.
       11    1    1    2    0    0 -0.19900936495E-02 -0.85122925165E-03  0.33315289491E+00  0.33316031827E+00  0.51109989000E-03 0. -1.
     -623    1    1    2    0    0 -0.89939017542E-04 -0.91172579936E-03  0.22658515104E-03  0.17130000000E+03  0.17130000000E+03 0.  1.
      622    1    1    2    0    0  0.20800326670E-02  0.17629550510E-02  0.36666204873E+01  0.36668396791E+01  0.40000000000E-01 0. -1.
</event>
<event>
 5   0  0.6200596E+07  0.9118800E+02  0.7818608E-02  0.1180000E+00
       11   -1    0    0    0    0  0.00000000000E+00  0.00000000000E+00  0.39999999673E+01  0.40000000000E+01  0.51109989000E-03 0.  1.
     -623   -1    0    0    0    0  0.00000000000E+00  0.00000000000E+00  0.12525980253E-10  0.17130000000E+03  0.17130000000E+03 0.  1.
       11    1    1    2    0    0 -0.97482061561E-02 -0.16379865848E-01  0.12988243094E+00  0.13127465337E+00  0.51109989000E-03 0.  1.
     -623    1    1    2    0    0  0.26953174382E-01  0.13814118351E-01  0.16407772714E-02  0.17130000269E+03  0.17130000000E+03 0.  1.
      622    1    1    2    0    0 -0.17204968225E-01  0.25657474971E-02  0.38684767591E+01  0.38687226613E+01  0.40000000000E-01 0.  1.
</event>
<event>
 5   0  0.6200596E+07  0.9118800E+02  0.7818608E-02  0.1180000E+00
       11   -1    0    0    0    0  0.00000000000E+00  0.00000000000E+00  0.39999999673E+01  0.40000000000E+01  0.51109989000E-03 0.  1.
     -623   -1    0    0    0    0  0.00000000000E+00  0.00000000000E+00  0.12525980253E-10  0.17130000000E+03  0.17130000000E+03 0.  1.
       11    1    1    2    0    0 -0.75002267732E-03 -0.99201622189E-02  0.15544462904E+01  0.15544782092E+01  0.51109989000E-03 0.  1.
     -623    1    1    2    0    0  0.71774786307E-03 -0.39451944552E-03  0.38079481753E-03  0.17130000000E+03  0.17130000000E+03 0.  1.
      622    1    1    2    0    0  0.32274814242E-04  0.10314681664E-01  0.24451728822E+01  0.24455217884E+01  0.40000000000E-01 0.  1.
</event>
<event>
 5   0  0.6200596E+07  0.9118800E+02  0.7818608E-02  0.1180000E+00
       11   -1    0    0    0    0  0.00000000000E+00  0.00000000000E+00  0.39999999673E+01  0.40000000000E+01  0.51109989000E-03 0.  1.
     -623   -1    0    0    0    0  0.00000000000E+00  0.00000000000E+00  0.12525980253E-10  0.17130000000E+03  0.17130000000E+03 0. -1.
       11    1    1    2    0    0  0.17729249869E-01  0.43749183734E-02  0.17416002118E+01  0.17416960198E+01  0.51109989000E-03 0.  1.
     -623    1    1    2    0    0  0.51158114481E-02 -0.13035776950E-02  0.56779422602E-03  0.17130000008E+03  0.17130000000E+03 0. -1.
      622    1    1    2    0    0 -0.22845061318E-01 -0.30713406785E-02  0.22578319613E+01  0.22583038979E+01  0.40000000000E-01 0.  1.
</event>
<event>
 5   0  0.6200596E+07  0.9118800E+02  0.7818608E-02  0.1180000E+00
       11   -1    0    0    0    0  0.00000000000E+00  0.00000000000E+00  0.39999999673E+01  0.40000000000E+01  0.51109989000E-03 0. -1.
     -623   -1    0    0    0    0  0.00000000000E+00  0.00000000000E+00  0.12525980253E-10  0.17130000000E+03  0.17130000000E+03 0. -1.
       11    1    1    2    0    0  0.18119155307E-01 -0.15928447636E-01  0.34668755623E-01  0.42239828024E-01  0.51109989000E-03 0. -1.
     -623    1    1    2    0    0 -0.15068214108E-01  0.27672878940E-01  0.77948573434E-02  0.17130000308E+03  0.17130000000E+03 0. -1.
      622    1    1    2    0    0 -0.30509411986E-02 -0.11744431304E-01  0.39575363544E+01  0.39577570967E+01  0.40000000000E-01 0. -1.
</event>
<event>
 5   0  0.6200596E+07  0.9118800E+02  0.7818608E-02  0.1180000E+00
       11   -1    0    0    0    0  0.00000000000E+00  0.00000000000E+00  0.39999999673E+01  0.40000000000E+01  0.51109989000E-03 0.  1.
     -623   -1    0    0    0    0  0.00000000000E+00  0.00000000000E+00  0.12525980253E-10  0.17130000000E+03  0.17130000000E+03 0. -1.
       11    1    1    2    0    0 -0.26495753521E-02  0.13759707282E-01  0.10300832524E+01  0.10301786825E+01  0.51109989000E-03 0.  1.
     -623    1    1    2    0    0  0.35754800498E-02  0.54978998078E-03  0.39944624689E-03  0.17130000004E+03  0.17130000000E+03 0. -1.
      622    1    1    2    0    0 -0.92590469771E-03 -0.14309497263E-01  0.29695172687E+01  0.29698212789E+01  0.40000000000E-01 0.  1.
</event>
<event>
 5   0  0.6200596E+07  0.9118800E+02  0.7818608E-02  0.1180000E+00
       11   -1    0    0    0    0  0.00000000000E+00  0.00000000000E+00  0.39999999673E+01  0.40000000000E+01  0.51109989000E-03 0.  1.
     -623   -1    0    0    0    0  0.00000000000E+00  0.00000000000E+00  0.12525980253E-10  0.17130000000E+03  0.17130000000E+03 0. -1.
       11    1    1    2    0    0 -0.22501882766E-02  0.75481217161E-02  0.16681593063E+00  0.16700255514E+00  0.51109989000E-03 0.  1.
     -623    1    1    2    0    0  0.28039985407E-02 -0.27739872425E-03  0.40227136556E-03  0.17130000002E+03  0.17130000000E+03 0. -1.
      622    1    1    2    0    0 -0.55381026407E-03 -0.72707229919E-02  0.38327817654E+01  0.38329974212E+01  0.40000000000E-01 0.  1.
</event>
<event>
 5   0  0.6200596E+07  0.9118800E+02  0.7818608E-02  0.1180000E+00
       11   -1    0    0    0    0  0.00000000000E+00  0.00000000000E+00  0.39999999673E+01  0.40000000000E+01  0.51109989000E-03 0. -1.
     -623   -1    0    0    0    0  0.00000000000E+00  0.00000000000E+00  0.12525980253E-10  0.17130000000E+03  0.17130000000E+03 0. -1.
       11    1    1    2    0    0  0.24203672662E-02  0.13317992193E-01  0.23660638362E+01  0.23661026109E+01  0.51109989000E-03 0. -1.
     -623    1    1    2    0    0  0.27718448666E-02  0.51115094299E-02  0.64076714439E-03  0.17130000010E+03  0.17130000000E+03 0. -1.
      622    1    1    2    0    0 -0.51922121328E-02 -0.18429501623E-01  0.16332953640E+01  0.16338972892E+01  0.40000000000E-01 0.  0.
</event>
<event>
 5   0  0.6200596E+07  0.9118800E+02  0.7818608E-02  0.1180000E+00
       11   -1    0    0    0    0  0.00000000000E+00  0.00000000000E+00  0.39999999673E+01  0.40000000000E+01  0.51109989000E-03 0. -1.
     -623   -1    0    0    0    0  0.00000000000E+00  0.00000000000E+00  0.12525980253E-10  0.17130000000E+03  0.17130000000E+03 0.  1.
       11    1    1    2    0    0 -0.40694150553E-02  0.46298493256E-01  0.24346697257E+01  0.24351133537E+01  0.51109989000E-03 0. -1.
     -623    1    1    2    0    0  0.16832270522E-02 -0.21615082796E-02  0.15795079230E-02  0.17130000003E+03  0.17130000000E+03 0.  1.
      622    1    1    2    0    0  0.23861880031E-02 -0.44136984976E-01  0.15637507337E+01  0.15648866171E+01  0.40000000000E-01 0. -1.
</event>
<event>
 5   0  0.6200596E+07  0.9118800E+02  0.7818608E-02  0.1180000E+00
       11   -1    0    0    0    0  0.00000000000E+00  0.00000000000E+00  0.39999999673E+01  0.40000000000E+01  0.51109989000E-03 0.  1.
     -623   -1    0    0    0    0  0.00000000000E+00  0.00000000000E+00  0.12525980253E-10  0.17130000000E+03  0.17130000000E+03 0. -1.
       11    1    1    2    0    0  0.67619762257E-04 -0.11375169762E-02  0.21186185939E-01  0.21222964282E-01  0.51109989000E-03 0.  1.
     -623    1    1    2    0    0 -0.29002579555E-02  0.14629647623E-02  0.23887025161E-03  0.17130000003E+03  0.17130000000E+03 0. -1.
      622    1    1    2    0    0  0.28326381932E-02 -0.32544778612E-03  0.39785749112E+01  0.39787770048E+01  0.40000000000E-01 0.  1.
</event>
<event>
 5   0  0.6200596E+07  0.9118800E+02  0.7818608E-02  0.1180000E+00
       11   -1    0    0    0    0  0.00000000000E+00  0.00000000000E+00  0.39999999673E+01  0.40000000000E+01  0.51109989000E-03 0. -1.
     -623   -1    0    0    0    0  0.00000000000E+00  0.00000000000E+00  0.12525980253E-10  0.17130000000E+03  0.17130000000E+03 0.  1.
       11    1    1    2    0    0 -0.88413358253E-02  0.50371294736E-02  0.81130650192E+00  0.81137047221E+00  0.51109989000E-03 0. -1.
     -623    1    1    2    0    0  0.73783942630E-03 -0.87321550105E-02  0.32750241831E-03  0.17130000022E+03  0.17130000000E+03 0.  1.
      622    1    1    2    0    0  0.81034963990E-02  0.36950255369E-02  0.31883659630E+01  0.31886293033E+01  0.40000000000E-01 0. -1.
</event>
<event>
 5   0  0.6200596E+07  0.9118800E+02  0.7818608E-02  0.1180000E+00
       11   -1    0    0    0    0  0.00000000000E+00  0.00000000000E+00  0.39999999673E+01  0.40000000000E+01  0.51109989000E-03 0. -1.
     -623   -1    0    0    0    0  0.00000000000E+00  0.00000000000E+00  0.12525980253E-10  0.17130000000E+03  0.17130000000E+03 0. -1.
       11    1    1    2    0    0 -0.75978778454E-02  0.18229562684E-01  0.68879747466E-01  0.71656999203E-01  0.51109989000E-03 0. -1.
     -623    1    1    2    0    0  0.90253786322E-02 -0.26485032292E-01  0.29921183866E-02  0.17130000231E+03  0.17130000000E+03 0. -1.
      622    1    1    2    0    0 -0.14275007868E-02  0.82554696084E-02  0.39281281015E+01  0.39283406895E+01  0.40000000000E-01 0. -1.
</event>
<event>
 5   0  0.6200596E+07  0.9118800E+02  0.7818608E-02  0.1180000E+00
       11   -1    0    0    0    0  0.00000000000E+00  0.00000000000E+00  0.39999999673E+01  0.40000000000E+01  0.51109989000E-03 0.  1.
     -623   -1    0    0    0    0  0.00000000000E+00  0.00000000000E+00  0.12525980253E-10  0.17130000000E+03  0.17130000000E+03 0.  1.
       11    1    1    2    0    0  0.16271130864E-01  0.12157295631E-01  0.24774989758E+00  0.24858162142E+00  0.51109989000E-03 0.  1.
     -623    1    1    2    0    0  0.88365221963E-02  0.23863169931E-02  0.11574188098E-02  0.17130000025E+03  0.17130000000E+03 0.  1.
      622    1    1    2    0    0 -0.25107653061E-01 -0.14543612624E-01  0.37510926510E+01  0.37514181301E+01  0.40000000000E-01 0.  1.
</event>
<event>
 5   0  0.6200596E+07  0.9118800E+02  0.7818608E-02  0.1180000E+00
       11   -1    0    0    0    0  0.00000000000E+00  0.00000000000E+00  0.39999999673E+01  0.40000000000E+01  0.51109989000E-03 0. -1.
     -623   -1    0    0    0    0  0.00000000000E+00  0.00000000000E+00  0.12525980253E-10  0.17130000000E+03  0.17130000000E+03 0.  1.
       11    1    1    2    0    0  0.19629247746E-01 -0.15767189719E-01  0.15266733456E+01  0.15268810291E+01  0.51109989000E-03 0. -1.
     -623    1    1    2    0    0 -0.22343968245E-02  0.27137036719E-02  0.62682481361E-03  0.17130000004E+03  0.17130000000E+03 0.  1.
      622    1    1    2    0    0 -0.17394850921E-01  0.13053486047E-01  0.24726997969E+01  0.24731189337E+01  0.40000000000E-01 0.  0.
</event>
<event>
 5   0  0.6200596E+07  0.9118800E+02  0.7818608E-02  0.1180000E+00
       11   -1    0    0    0    0  0.00000000000E+00  0.00000000000E+00  0.39999999673E+01  0.40000000000E+01  0.51109989000E-03 0.  1.
     -623   -1    0    0    0    0  0.00000000000E+00  0.00000000000E+00  0.12525980253E-10  0.17130000000E+03  0.17130000000E+03 0. -1.
       11    1    1    2    0    0  0.19152651316E-02  0.87794878943E-03  0.24037286554E-01  0.24134858641E-01  0.51109989000E-03 0.  1.
     -623    1    1    2    0    0  0.95306053036E-03 -0.99538238066E-03  0.29980085375E-03  0.17130000001E+03  0.17130000000E+03 0. -1.
      622    1    1    2    0    0 -0.28683256619E-02  0.11743359123E-03  0.39756628800E+01  0.39758651356E+01  0.40000000000E-01 0.  1.
</event>
<event>
 5   0  0.6200596E+07  0.9118800E+02  0.7818608E-02  0.1180000E+00
       11   -1    0    0    0    0  0.00000000000E+00  0.00000000000E+00  0.39999999673E+01  0.40000000000E+01  0.51109989000E-03 0. -1.
     -623   -1    0    0    0    0  0.00000000000E+00  0.00000000000E+00  0.12525980253E-10  0.17130000000E+03  0.17130000000E+03 0. -1.
       11    1    1    2    0    0  0.18805303834E-02 -0.38993353048E-03  0.20262060701E+01  0.20262070448E+01  0.51109989000E-03 0. -1.
     -623    1    1    2    0    0  0.16497605323E-02  0.15448500187E-02  0.40980574724E-03  0.17130000002E+03  0.17130000000E+03 0. -1.
      622    1    1    2    0    0 -0.35302909157E-02 -0.11549164882E-02  0.19733840915E+01  0.19737929398E+01  0.40000000000E-01 0.  1.
</event>
<event>
 5   0  0.6200596E+07  0.9118800E+02  0.7818608E-02  0.1180000E+00
       11   -1    0    0    0    0  0.00000000000E+00  0.00000000000E+00  0.39999999673E+01  0.40000000000E+01  0.51109989000E-03 0.  1.
     -623   -1    0    0    0    0  0.00000000000E+00  0.00000000000E+00  0.12525980253E-10  0.17130000000E+03  0.17130000000E+03 0. -1.
       11    1    1    2    0    0 -0.86350375754E-02 -0.48070134403E-02  0.29313599307E+00  0.29330298823E+00  0.51109989000E-03 0.  1.
     -623    1    1    2    0    0 -0.40425754687E-03  0.73771289131E-02  0.39486769169E-03  0.17130000016E+03  0.17130000000E+03 0. -1.
      622    1    1    2    0    0  0.90392951223E-02 -0.25701154728E-02  0.37064691066E+01  0.37066968520E+01  0.40000000000E-01 0.  1.
</event>
<event>
 5   0  0.6200596E+07  0.9118800E+02  0.7818608E-02  0.1180000E+00
       11   -1    0    0    0    0  0.00000000000E+00  0.00000000000E+00  0.39999999673E+01  0.40000000000E+01  0.51109989000E-03 0.  1.
     -623   -1    0    0    0    0  0.00000000000E+00  0.00000000000E+00  0.12525980253E-10  0.17130000000E+03  0.17130000000E+03 0. -1.
       11    1    1    2    0    0  0.11627076875E-01  0.66550627600E-01  0.23943816993E+01  0.23953346652E+01  0.51109989000E-03 0.  1.
     -623    1    1    2    0    0 -0.46382795608E-01 -0.53718317064E-01  0.18941675358E-02  0.17130001471E+03  0.17130000000E+03 0. -1.
      622    1    1    2    0    0  0.34755718732E-01 -0.12832310536E-01  0.16037241005E+01  0.16046506220E+01  0.40000000000E-01 0.  1.
</event>
<event>
 5   0  0.6200596E+07  0.9118800E+02  0.7818608E-02  0.1180000E+00
       11   -1    0    0    0    0  0.00000000000E+00  0.00000000000E+00  0.39999999673E+01  0.40000000000E+01  0.51109989000E-03 0.  1.
     -623   -1    0    0    0    0  0.00000000000E+00  0.00000000000E+00  0.12525980253E-10  0.17130000000E+03  0.17130000000E+03 0. -1.
       11    1    1    2    0    0  0.51775800863E-02  0.18432322238E-02  0.49079667942E-01  0.49389066265E-01  0.51109989000E-03 0.  1.
     -623    1    1    2    0    0  0.20381941167E-02 -0.27771515285E-02  0.51860715151E-03  0.17130000004E+03  0.17130000000E+03 0. -1.
      622    1    1    2    0    0 -0.72157742030E-02  0.93391930477E-03  0.39504016923E+01  0.39506108983E+01  0.40000000000E-01 0.  1.
</event>
<event>
 5   0  0.6200596E+07  0.9118800E+02  0.7818608E-02  0.1180000E+00
       11   -1    0    0    0    0  0.00000000000E+00  0.00000000000E+00  0.39999999673E+01  0.40000000000E+01  0.51109989000E-03 0. -1.
     -623   -1    0    0    0    0  0.00000000000E+00  0.00000000000E+00  0.12525980253E-10  0.17130000000E+03  0.17130000000E+03 0. -1.
       11    1    1    2    0    0  0.16816088526E-01  0.21509275390E-01  0.14454509057E+01  0.14457088267E+01  0.51109989000E-03 0. -1.
     -623    1    1    2    0    0 -0.14978422022E-01  0.51407524348E-02  0.71154730973E-03  0.17130000073E+03  0.17130000000E+03 0. -1.
      622    1    1    2    0    0 -0.18376665044E-02 -0.26650027825E-01  0.25538375144E+01  0.25542904398E+01  0.40000000000E-01 0. -1.
</event>
<event>
 5   0  0.6200596E+07  0.9118800E+02  0.7818608E-02  0.1180000E+00
       11   -1    0    0    0    0  0.00000000000E+00  0.00000000000E+00  0.39999999673E+01  0.40000000000E+01  0.51109989000E-03 0. -1.
     -623   -1    0    0    0    0  0.00000000000E+00  0.00000000000E+00  0.12525980253E-10  0.17130000000E+03  0.17130000000E+03 0.  1.
       11    1    1    2    0    0  0.15066904306E-02 -0.22638357339E-02  0.12356813375E+00  0.12359910990E+00  0.51109989000E-03 0. -1.
     -623    1    1    2    0    0 -0.53530469194E-03 -0.51558457682E-03  0.23844598969E-03  0.17130000000E+03  0.17130000000E+03 0.  1.
      622    1    1    2    0    0 -0.97138573868E-03  0.27794203108E-02  0.38761933876E+01  0.38764008883E+01  0.40000000000E-01 0. -1.
</event>
<event>
 5   0  0.6200596E+07  0.9118800E+02  0.7818608E-02  0.1180000E+00
       11   -1    0    0    0    0  0.00000000000E+00  0.00000000000E+00  0.39999999673E+01  0.40000000000E+01  0.51109989000E-03 0.  1.
     -623   -1    0    0    0    0  0.00000000000E+00  0.00000000000E+00  0.12525980253E-10  0.17130000000E+03  0.17130000000E+03 0.  1.
       11    1    1    2    0    0  0.15768485923E-01 -0.13330220147E-01  0.22752645034E+00  0.22846200285E+00  0.51109989000E-03 0.  1.
     -623    1    1    2    0    0 -0.22675006994E-03  0.25681370639E-02  0.11950443781E-02  0.17130000002E+03  0.17130000000E+03 0.  1.
      622    1    1    2    0    0 -0.15541735853E-01  0.10762083083E-01  0.37712784726E+01  0.37715379736E+01  0.40000000000E-01 0.  1.
</event>
<event>
 5   0  0.6200596E+07  0.9118800E+02  0.7818608E-02  0.1180000E+00
       11   -1    0    0    0    0  0.00000000000E+00  0.00000000000E+00  0.39999999673E+01  0.40000000000E+01  0.51109989000E-03 0.  1.
     -623   -1    0    0    0    0  0.00000000000E+00  0.00000000000E+00  0.12525980253E-10  0.17130000000E+03  0.17130000000E+03 0.  1.
       11    1    1    2    0    0  0.24269812994E-01  0.38604077194E-02  0.12562175418E+01  0.12564579978E+01  0.51109989000E-03 0.  1.
     -623    1    1    2    0    0  0.89588134316E-03 -0.14696194757E-02  0.64851780629E-03  0.17130000001E+03  0.17130000000E+03 0.  1.
      622    1    1    2    0    0 -0.25165694337E-01 -0.23907882437E-02  0.27431339078E+01  0.27435419924E+01  0.40000000000E-01 0.  1.
</event>
<event>
 5   0  0.6200596E+07  0.9118800E+02  0.7818608E-02  0.1180000E+00
       11   -1    0    0    0    0  0.00000000000E+00  0.00000000000E+00  0.39999999673E+01  0.40000000000E+01  0.51109989000E-03 0.  1.
     -623   -1    0    0    0    0  0.00000000000E+00  0.00000000000E+00  0.12525980253E-10  0.17130000000E+03  0.17130000000E+03 0. -1.
       11    1    1    2    0    0 -0.13765536037E-01  0.72619893301E-02  0.99693659953E-01  0.10090249515E+00  0.51109989000E-03 0.  1.
     -623    1    1    2    0    0  0.10139985993E-01 -0.14019967996E-01  0.14224059623E-02  0.17130000088E+03  0.17130000000E+03 0. -1.
      622    1    1    2    0    0  0.36255500442E-02  0.67579786663E-02  0.38988839014E+01  0.38990966251E+01  0.40000000000E-01 0.  1.
</event>
<event>
 5   0  0.6200596E+07  0.9118800E+02  0.7818608E-02  0.1180000E+00
       11   -1    0    0    0    0  0.00000000000E+00  0.00000000000E+00  0.39999999673E+01  0.40000000000E+01  0.51109989000E-03 0. -1.
     -623   -1    0    0    0    0  0.00000000000E+00  0.00000000000E+00  0.12525980253E-10  0.17130000000E+03  0.17130000000E+03 0.  1.
       11    1    1    2    0    0  0.11681842364E-01  0.20056844105E-01  0.63567630735E+00  0.63610012686E+00  0.51109989000E-03 0. -1.
     -623    1    1    2    0    0  0.64245111025E-03  0.22321237562E-02  0.75805889225E-03  0.17130000002E+03  0.17130000000E+03 0.  1.
      622    1    1    2    0    0 -0.12324293474E-01 -0.22288967861E-01  0.33635656011E+01  0.33638998557E+01  0.40000000000E-01 0.  0.
</event>
<event>
 5   0  0.6200596E+07  0.9118800E+02  0.7818608E-02  0.1180000E+00
       11   -1    0    0    0    0  0.00000000000E+00  0.00000000000E+00  0.39999999673E+01  0.40000000000E+01  0.51109989000E-03 0. -1.
     -623   -1    0    0    0    0  0.00000000000E+00  0.00000000000E+00  0.12525980253E-10  0.17130000000E+03  0.17130000000E+03 0.  1.
       11    1    1    2    0    0  0.62086458831E-02 -0.62010344218E-02  0.43505525863E-01  0.44384593195E-01  0.51109989000E-03 0. -1.
     -623    1    1    2    0    0  0.60076371435E-02 -0.71351491759E-02  0.11228891590E-02  0.17130000026E+03  0.17130000000E+03 0.  1.
      622    1    1    2    0    0 -0.12216283027E-01  0.13336183598E-01  0.39553715523E+01  0.39556151492E+01  0.40000000000E-01 0. -1.
</event>
<event>
 5   0  0.6200596E+07  0.9118800E+02  0.7818608E-02  0.1180000E+00
       11   -1    0    0    0    0  0.00000000000E+00  0.00000000000E+00  0.39999999673E+01  0.40000000000E+01  0.51109989000E-03 0. -1.
     -623   -1    0    0    0    0  0.00000000000E+00  0.00000000000E+00  0.12525980253E-10  0.17130000000E+03  0.17130000000E+03 0. -1.
       11    1    1    2    0    0 -0.49264165163E-02  0.38711592041E-02  0.78782528767E+00  0.78785036686E+00  0.51109989000E-03 0. -1.
     -623    1    1    2    0    0  0.14023497616E-02 -0.29121866334E-02  0.27621777640E-03  0.17130000003E+03  0.17130000000E+03 0. -1.
      622    1    1    2    0    0  0.35240667547E-02 -0.95897257065E-03  0.32118984619E+01  0.32121496024E+01  0.40000000000E-01 0. -1.
</event>
<event>
 5   0  0.6200596E+07  0.9118800E+02  0.7818608E-02  0.1180000E+00
       11   -1    0    0    0    0  0.00000000000E+00  0.00000000000E+00  0.39999999673E+01  0.40000000000E+01  0.51109989000E-03 0. -1.
     -623   -1    0    0    0    0  0.00000000000E+00  0.00000000000E+00  0.12525980253E-10  0.17130000000E+03  0.17130000000E+03 0.  1.
       11    1    1    2    0    0  0.32243266544E-01  0.44515905678E-01  0.14014717102E+01  0.14025492896E+01  0.51109989000E-03 0. -1.
     -623    1    1    2    0    0 -0.96034070111E-02  0.47698854169E-04  0.18668885047E-02  0.17130000028E+03  0.17130000000E+03 0.  1.
      622    1    1    2    0    0 -0.22639859532E-01 -0.44563604532E-01  0.25966613686E+01  0.25974504310E+01  0.40000000000E-01 0. -1.
</event>
<event>
 5   0  0.6200596E+07  0.9118800E+02  0.7818608E-02  0.1180000E+00
       11   -1    0    0    0    0  0.00000000000E+00  0.00000000000E+00  0.39999999673E+01  0.40000000000E+01  0.51109989000E-03 0.  1.
     -623   -1    0    0    0    0  0.00000000000E+00  0.00000000000E+00  0.12525980253E-10  0.17130000000E+03  0.17130000000E+03 0. -1.
       11    1    1    2    0    0 -0.51011806236E-03 -0.18734382526E-02  0.17805329450E-01  0.17918174286E-01  0.51109989000E-03 0.  1.
     -623    1    1    2    0    0 -0.23307797086E-03  0.19100555739E-02  0.31379782470E-03  0.17130000001E+03  0.17130000000E+03 0. -1.
      622    1    1    2    0    0  0.74319603322E-03 -0.36617321329E-04  0.39818808401E+01  0.39820818146E+01  0.40000000000E-01 0.  1.
</event>
<event>
 5   0  0.6200596E+07  0.9118800E+02  0.7818608E-02  0.1180000E+00
       11   -1    0    0    0    0  0.00000000000E+00  0.00000000000E+00  0.39999999673E+01  0.40000000000E+01  0.51109989000E-03 0.  1.
     -623   -1    0    0    0    0  0.00000000000E+00  0.00000000000E+00  0.12525980253E-10  0.17130000000E+03  0.17130000000E+03 0. -1.
       11    1    1    2    0    0 -0.21688288833E-01  0.41692915083E-02  0.11227412372E+01  0.11229585530E+01  0.51109989000E-03 0.  1.
     -623    1    1    2    0    0  0.14211406508E-02 -0.30276177112E-02  0.56701333237E-03  0.17130000003E+03  0.17130000000E+03 0. -1.
      622    1    1    2    0    0  0.20267148182E-01 -0.11416737971E-02  0.28766917168E+01  0.28770414134E+01  0.40000000000E-01 0.  1.
</event>
<event>
 5   0  0.6200596E+07  0.9118800E+02  0.7818608E-02  0.1180000E+00
       11   -1    0    0    0    0  0.00000000000E+00  0.00000000000E+00  0.39999999673E+01  0.40000000000E+01  0.51109989000E-03 0. -1.
     -623   -1    0    0    0    0  0.00000000000E+00  0.00000000000E+00  0.12525980253E-10  0.17130000000E+03  0.17130000000E+03 0. -1.
       11    1    1    2    0    0  0.23734095930E-01  0.33174768773E-01  0.28868899081E+01  0.28871781163E+01  0.51109989000E-03 0. -1.
     -623    1    1    2    0    0  0.16529084530E-01 -0.68501238522E-02  0.20491575956E-02  0.17130000095E+03  0.17130000000E+03 0. -1.
      622    1    1    2    0    0 -0.40263180460E-01 -0.26324644921E-01  0.11110609017E+01  0.11128209370E+01  0.40000000000E-01 0. -1.
</event>
<event>
 5   0  0.6200596E+07  0.9118800E+02  0.7818608E-02  0.1180000E+00
       11   -1    0    0    0    0  0.00000000000E+00  0.00000000000E+00  0.39999999673E+01  0.40000000000E+01  0.51109989000E-03 0. -1.
     -623   -1    0    0    0    0  0.00000000000E+00  0.00000000000E+00  0.12525980253E-10  0.17130000000E+03  0.17130000000E+03 0.  1.
       11    1    1    2    0    0  0.14121596869E-02  0.39602306157E-02  0.35023140996E-01  0.35278311287E-01  0.51109989000E-03 0. -1.
     -623    1    1    2    0    0 -0.91188841811E-02 -0.82420872830E-02  0.46716700728E-03  0.17130000044E+03  0.17130000000E+03 0.  1.
      622    1    1    2    0    0  0.77067244942E-02  0.42818566673E-02  0.39645096594E+01  0.39647212471E+01  0.40000000000E-01 0. -1.
</event>
<event>
 5   0  0.6200596E+07  0.9118800E+02  0.7818608E-02  0.1180000E+00
       11   -1    0    0    0    0  0.00000000000E+00  0.00000000000E+00  0.39999999673E+01  0.40000000000E+01  0.51109989000E-03 0. -1.
     -623   -1    0    0    0    0  0.00000000000E+00  0.00000000000E+00  0.12525980253E-10  0.17130000000E+03  0.17130000000E+03 0.  1.
       11    1    1    2    0    0 -0.75342304671E-02 -0.75665971573E-02  0.78850712985E+00  0.78857959210E+00  0.51109989000E-03 0. -1.
     -623    1    1    2    0    0 -0.75606785836E-03  0.66594400025E-02  0.33251137620E-03  0.17130000013E+03  0.17130000000E+03 0.  1.
      622    1    1    2    0    0  0.82902983255E-02  0.90715715484E-03  0.32111603261E+01  0.32114202765E+01  0.40000000000E-01 0. -1.
</event>
<event>
 5   0  0.6200596E+07  0.9118800E+02  0.7818608E-02  0.1180000E+00
       11   -1    0    0    0    0  0.00000000000E+00  0.00000000000E+00  0.39999999673E+01  0.40000000000E+01  0.51109989000E-03 0.  1.
     -623   -1    0    0    0    0  0.00000000000E+00  0.00000000000E+00  0.12525980253E-10  0.17130000000E+03  0.17130000000E+03 0. -1.
       11    1    1    2    0    0  0.53443424299E-03 -0.28200571554E-02  0.15892194307E+00  0.15894868214E+00  0.51109989000E-03 0.  1.
     -623    1    1    2    0    0  0.21340051875E-02  0.10470522285E-02  0.23634122411E-03  0.17130000002E+03  0.17130000000E+03 0. -1.
      622    1    1    2    0    0 -0.26684394305E-02  0.17730049270E-02  0.38408416831E+01  0.38410513012E+01  0.40000000000E-01 0.  1.
</event>
<event>
 5   0  0.6200596E+07  0.9118800E+02  0.7818608E-02  0.1180000E+00
       11   -1    0    0    0    0  0.00000000000E+00  0.00000000000E+00  0.39999999673E+01  0.40000000000E+01  0.51109989000E-03 0. -1.
     -623   -1    0    0    0    0  0.00000000000E+00  0.00000000000E+00  0.12525980253E-10  0.17130000000E+03  0.17130000000E+03 0.  1.
       11    1    1    2    0    0  0.19789600772E-02 -0.14194907936E-02  0.73336658010E-01  0.73378865258E-01  0.51109989000E-03 0. -1.
     -623    1    1    2    0    0  0.48482174226E-03  0.10926415892E-03  0.24690990501E-03  0.17130000000E+03  0.17130000000E+03 0.  1.
      622    1    1    2    0    0 -0.24637818195E-02  0.13102266346E-02  0.39264163994E+01  0.39266211338E+01  0.40000000000E-01 0. -1.
</event>
<event>
 5   0  0.6200596E+07  0.9118800E+02  0.7818608E-02  0.1180000E+00
       11   -1    0    0    0    0  0.00000000000E+00  0.00000000000E+00  0.39999999673E+01  0.40000000000E+01  0.51109989000E-03 0. -1.
     -623   -1    0    0    0    0  0.00000000000E+00  0.00000000000E+00  0.12525980253E-10  0.17130000000E+03  0.17130000000E+03 0. -1.
       11    1    1    2    0    0  0.22677460119E-02  0.26727603528E-02  0.29705202346E-01  0.29915657908E-01  0.51109989000E-03 0. -1.
     -623    1    1    2    0    0  0.42382542852E-03 -0.11579920641E-03  0.41367204961E-03  0.17130000000E+03  0.17130000000E+03 0. -1.
      622    1    1    2    0    0 -0.26915714404E-02 -0.25569611464E-02  0.39698810930E+01  0.39700843410E+01  0.40000000000E-01 0. -1.
</event>
<event>
 5   0  0.6200596E+07  0.9118800E+02  0.7818608E-02  0.1180000E+00
       11   -1    0    0    0    0  0.00000000000E+00  0.00000000000E+00  0.39999999673E+01  0.40000000000E+01  0.51109989000E-03 0.  1.
     -623   -1    0    0    0    0  0.00000000000E+00  0.00000000000E+00  0.12525980253E-10  0.17130000000E+03  0.17130000000E+03 0. -1.
       11    1    1    2    0    0 -0.11973051304E-02  0.26798995642E-01  0.32523969439E+00  0.32634451081E+00  0.51109989000E-03 0.  1.
     -623    1    1    2    0    0 -0.37476132278E-02 -0.25216248668E-02  0.14061748277E-02  0.17130000007E+03  0.17130000000E+03 0. -1.
      622    1    1    2    0    0  0.49449183582E-02 -0.24277370775E-01  0.36733540981E+01  0.36736554239E+01  0.40000000000E-01 0.  1.
</event>
<event>
 5   0  0.6200596E+07  0.9118800E+02  0.7818608E-02  0.1180000E+00
       11   -1    0    0    0    0  0.00000000000E+00  0.00000000000E+00  0.39999999673E+01  0.40000000000E+01  0.51109989000E-03 0. -1.
     -623   -1    0    0    0    0  0.00000000000E+00  0.00000000000E+00  0.12525980253E-10  0.17130000000E+03  0.17130000000E+03 0.  1.
       11    1    1    2    0    0 -0.10110411534E-02 -0.38425357530E-02  0.55697179275E+00  0.55698619949E+00  0.51109989000E-03 0. -1.
     -623    1    1    2    0    0  0.20024122576E-02  0.26391400886E-03  0.24875125267E-03  0.17130000001E+03  0.17130000000E+03 0.  1.
      622    1    1    2    0    0 -0.99137110424E-03  0.35786217441E-02  0.34427794234E+01  0.34430137884E+01  0.40000000000E-01 0.  1.
</event>
<event>
 5   0  0.6200596E+07  0.9118800E+02  0.7818608E-02  0.1180000E+00
       11   -1    0    0    0    0  0.00000000000E+00  0.00000000000E+00  0.39999999673E+01  0.40000000000E+01  0.51109989000E-03 0.  1.
     -623   -1    0    0    0    0  0.00000000000E+00  0.00000000000E+00  0.12525980253E-10  0.17130000000E+03  0.17130000000E+03 0.  1.
       11    1    1    2    0    0 -0.40888084144E-01 -0.36176021862E-01  0.31587057803E+01  0.31591775841E+01  0.51109989000E-03 0.  1.
     -623    1    1    2    0    0  0.19375278254E-01  0.26461956441E-01  0.17586748091E-02  0.17130000315E+03  0.17130000000E+03 0.  1.
      622    1    1    2    0    0  0.21512805890E-01  0.97140654215E-02  0.83953551222E+00  0.84081926724E+00  0.40000000000E-01 0.  0.
</event>
<event>
 5   0  0.6200596E+07  0.9118800E+02  0.7818608E-02  0.1180000E+00
       11   -1    0    0    0    0  0.00000000000E+00  0.00000000000E+00  0.39999999673E+01  0.40000000000E+01  0.51109989000E-03 0.  1.
     -623   -1    0    0    0    0  0.00000000000E+00  0.00000000000E+00  0.12525980253E-10  0.17130000000E+03  0.17130000000E+03 0. -1.
       11    1    1    2    0    0  0.31328647097E-02  0.31523770954E-02  0.73846213676E-02  0.86340128539E-02  0.51109989000E-03 0.  1.
     -623    1    1    2    0    0 -0.23569331309E-02  0.71204585876E-03  0.14517666393E-02  0.17130000002E+03  0.17130000000E+03 0. -1.
      622    1    1    2    0    0 -0.77593157874E-03 -0.38644229541E-02  0.39911635794E+01  0.39913659633E+01  0.40000000000E-01 0.  1.
</event>
<event>
 5   0  0.6200596E+07  0.9118800E+02  0.7818608E-02  0.1180000E+00
       11   -1    0    0    0    0  0.00000000000E+00  0.00000000000E+00  0.39999999673E+01  0.40000000000E+01  0.51109989000E-03 0. -1.
     -623   -1    0    0    0    0  0.00000000000E+00  0.00000000000E+00  0.12525980253E-10  0.17130000000E+03  0.17130000000E+03 0. -1.
       11    1    1    2    0    0  0.25151446956E-02 -0.34446356033E-02  0.65549922705E-01  0.65690524856E-01  0.51109989000E-03 0. -1.
     -623    1    1    2    0    0 -0.13707663083E-02 -0.28662066191E-02  0.34917212586E-03  0.17130000003E+03  0.17130000000E+03 0. -1.
      622    1    1    2    0    0 -0.11443783873E-02  0.63108422225E-02  0.39341008725E+01  0.39343094453E+01  0.40000000000E-01 0. -1.
</event>
<event>
 5   0  0.6200596E+07  0.9118800E+02  0.7818608E-02  0.1180000E+00
       11   -1    0    0    0    0  0.00000000000E+00  0.00000000000E+00  0.39999999673E+01  0.40000000000E+01  0.51109989000E-03 0.  1.
     -623   -1    0    0    0    0  0.00000000000E+00  0.00000000000E+00  0.12525980253E-10  0.17130000000E+03  0.17130000000E+03 0. -1.
       11    1    1    2    0    0 -0.15556777738E-01  0.14330924593E-01  0.39527040577E+00  0.39583625861E+00  0.51109989000E-03 0.  1.
     -623    1    1    2    0    0  0.11744790426E-01  0.61424529873E-02  0.84847683548E-03  0.17130000051E+03  0.17130000000E+03 0. -1.
      622    1    1    2    0    0  0.38119873121E-02 -0.20473377580E-01  0.36038810848E+01  0.36041632265E+01  0.40000000000E-01 0.  1.
</event>
<event>
 5   0  0.6200596E+07  0.9118800E+02  0.7818608E-02  0.1180000E+00
       11   -1    0    0    0    0  0.00000000000E+00  0.00000000000E+00  0.39999999673E+01  0.40000000000E+01  0.51109989000E-03 0. -1.
     -623   -1    0    0    0    0  0.00000000000E+00  0.00000000000E+00  0.12525980253E-10  0.17130000000E+03  0.17130000000E+03 0. -1.
       11    1    1    2    0    0 -0.44497941483E-02 -0.52063324913E-02  0.43600068433E-01  0.44137668206E-01  0.51109989000E-03 0. -1.
     -623    1    1    2    0    0 -0.22359255188E-02  0.34868855221E-03  0.74845303754E-03  0.17130000002E+03  0.17130000000E+03 0. -1.
      622    1    1    2    0    0  0.66857196671E-02  0.48576439391E-02  0.39556514459E+01  0.39558623152E+01  0.40000000000E-01 0. -1.
</event>
<event>
 5   0  0.6200596E+07  0.9118800E+02  0.7818608E-02  0.1180000E+00
       11   -1    0    0    0    0  0.00000000000E+00  0.00000000000E+00  0.39999999673E+01  0.40000000000E+01  0.51109989000E-03 0.  1.
     -623   -1    0    0    0    0  0.00000000000E+00  0.00000000000E+00  0.12525980253E-10  0.17130000000E+03  0.17130000000E+03 0. -1.
       11    1    1    2    0    0 -0.26994102375E-02  0.56814067219E-03  0.81636856190E-01  0.81685048260E-01  0.51109989000E-03 0.  1.
     -623    1    1    2    0    0 -0.15374703168E-02  0.26289521047E-02  0.25595658490E-03  0.17130000003E+03  0.17130000000E+03 0. -1.
      622    1    1    2    0    0  0.42368805543E-02 -0.31970927769E-02  0.39181071546E+01  0.39183149245E+01  0.40000000000E-01 0.  1.
</event>
<event>
 5   0  0.6200596E+07  0.9118800E+02  0.7818608E-02  0.1180000E+00
       11   -1    0    0    0    0  0.00000000000E+00  0.00000000000E+00  0.39999999673E+01  0.40000000000E+01  0.51109989000E-03 0.  1.
     -623   -1    0    0    0    0  0.00000000000E+00  0.00000000000E+00  0.12525980253E-10  0.17130000000E+03  0.17130000000E+03 0. -1.
       11    1    1    2    0    0 -0.62100822290E-02  0.22308425325E-01  0.25995342546E+00  0.26098328604E+00  0.51109989000E-03 0.  1.
     -623    1    1    2    0    0 -0.51698163140E-03 -0.28056415744E-02  0.13007414001E-02  0.17130000003E+03  0.17130000000E+03 0. -1.
      622    1    1    2    0    0  0.67270638604E-02 -0.19502783751E-01  0.37387458005E+01  0.37390166853E+01  0.40000000000E-01 0.  1.
</event>
<event>
 5   0  0.6200596E+07  0.9118800E+02  0.7818608E-02  0.1180000E+00
       11   -1    0    0    0    0  0.00000000000E+00  0.00000000000E+00  0.39999999673E+01  0.40000000000E+01  0.51109989000E-03 0.  1.
     -623   -1    0    0    0    0  0.00000000000E+00  0.00000000000E+00  0.12525980253E-10  0.17130000000E+03  0.17130000000E+03 0. -1.
       11    1    1    2    0    0  0.37081159687E-01 -0.12031990962E-01  0.10841961969E+01  0.10848969701E+01  0.51109989000E-03 0.  1.
     -623    1    1    2    0    0 -0.11910080522E-01 -0.70178338483E-02  0.11466857817E-02  0.17130000056E+03  0.17130000000E+03 0. -1.
      622    1    1    2    0    0 -0.25171079165E-01  0.19049824810E-01  0.29146570847E+01  0.29151024683E+01  0.40000000000E-01 0.  1.
</event>
<event>
 5   0  0.6200596E+07  0.9118800E+02  0.7818608E-02  0.1180000E+00
       11   -1    0    0    0    0  0.00000000000E+00  0.00000000000E+00  0.39999999673E+01  0.40000000000E+01  0.51109989000E-03 0. -1.
     -623   -1    0    0    0    0  0.00000000000E+00  0.00000000000E+00  0.12525980253E-10  0.17130000000E+03  0.17130000000E+03 0.  1.
       11    1    1    2    0    0 -0.37767702598E-04  0.20302074739E-02  0.38712988194E-01  0.38769573691E-01  0.51109989000E-03 0. -1.
     -623    1    1    2    0    0 -0.38748533333E-03 -0.30558712475E-03  0.25891463816E-03  0.17130000000E+03  0.17130000000E+03 0.  1.
      622    1    1    2    0    0  0.42525303593E-03 -0.17246203492E-02  0.39610280645E+01  0.39612304254E+01  0.40000000000E-01 0. -1.
</event>
<event>
 5   0  0.6200596E+07  0.9118800E+02  0.7818608E-02  0.1180000E+00
       11   -1    0    0    0    0  0.00000000000E+00  0.00000000000E+00  0.39999999673E+01  0.40000000000E+01  0.51109989000E-03 0. -1.
     -623   -1    0    0    0    0  0.00000000000E+00  0.00000000000E+00  0.12525980253E-10  0.17130000000E+03  0.17130000000E+03 0.  1.
       11    1    1    2    0    0  0.13884136652E-02 -0.22240295871E-01  0.15681830930E+00  0.15839445005E+00  0.51109989000E-03 0. -1.
     -623    1    1    2    0    0 -0.11588853035E-01  0.18260488929E-01  0.18013395997E-02  0.17130000137E+03  0.17130000000E+03 0.  1.
      622    1    1    2    0    0  0.10200439370E-01  0.39798069427E-02  0.38413803185E+01  0.38416041752E+01  0.40000000000E-01 0. -1.
</event>
<event>
 5   0  0.6200596E+07  0.9118800E+02  0.7818608E-02  0.1180000E+00
       11   -1    0    0    0    0  0.00000000000E+00  0.00000000000E+00  0.39999999673E+01  0.40000000000E+01  0.51109989000E-03 0. -1.
     -623   -1    0    0    0    0  0.00000000000E+00  0.00000000000E+00  0.12525980253E-10  0.17130000000E+03  0.17130000000E+03 0. -1.
       11    1    1    2    0    0 -0.12794820147E-02  0.12002741384E-02  0.12308902310E-01  0.12443794797E-01  0.51109989000E-03 0. -1.
     -623    1    1    2    0    0  0.88596366286E-04 -0.23402488832E-02  0.33584616005E-03  0.17130000002E+03  0.17130000000E+03 0. -1.
      622    1    1    2    0    0  0.11908856484E-02  0.11399747448E-02  0.39873552189E+01  0.39875561889E+01  0.40000000000E-01 0. -1.
</event>
<event>
 5   0  0.6200596E+07  0.9118800E+02  0.7818608E-02  0.1180000E+00
       11   -1    0    0    0    0  0.00000000000E+00  0.00000000000E+00  0.39999999673E+01  0.40000000000E+01  0.51109989000E-03 0. -1.
     -623   -1    0    0    0    0  0.00000000000E+00  0.00000000000E+00  0.12525980253E-10  0.17130000000E+03  0.17130000000E+03 0.  1.
       11    1    1    2    0    0 -0.81339340674E-03  0.24010632883E-02  0.48013716603E-01  0.48083312260E-01  0.51109989000E-03 0. -1.
     -623    1    1    2    0    0 -0.18975562517E-02  0.11710692330E-02  0.27456074060E-03  0.17130000001E+03  0.17130000000E+03 0.  1.
      622    1    1    2    0    0  0.27109496584E-02 -0.35721325213E-02  0.39517116900E+01  0.39519166730E+01  0.40000000000E-01 0. -1.
</event>
<event>
 5   0  0.6200596E+07  0.9118800E+02  0.7818608E-02  0.1180000E+00
       11   -1    0    0    0    0  0.00000000000E+00  0.00000000000E+00  0.39999999673E+01  0.40000000000E+01  0.51109989000E-03 0.  1.
     -623   -1    0    0    0    0  0.00000000000E+00  0.00000000000E+00  0.12525980253E-10  0.17130000000E+03  0.17130000000E+03 0.  1.
       11    1    1    2    0    0  0.26682860448E-02  0.52429046955E-02  0.30077226062E-01  0.30651403677E-01  0.51109989000E-03 0.  1.
     -623    1    1    2    0    0  0.15828943387E-02  0.10927874330E-02  0.78304034635E-03  0.17130000001E+03  0.17130000000E+03 0.  1.
      622    1    1    2    0    0 -0.42511803835E-02 -0.63356921285E-02  0.39691397010E+01  0.39693485837E+01  0.40000000000E-01 0.  1.
</event>
<event>
 5   0  0.6200596E+07  0.9118800E+02  0.7818608E-02  0.1180000E+00
       11   -1    0    0    0    0  0.00000000000E+00  0.00000000000E+00  0.39999999673E+01  0.40000000000E+01  0.51109989000E-03 0.  1.
     -623   -1    0    0    0    0  0.00000000000E+00  0.00000000000E+00  0.12525980253E-10  0.17130000000E+03  0.17130000000E+03 0. -1.
       11    1    1    2    0    0  0.11233390192E-02  0.24843014522E-02  0.15463808859E+00  0.15466296682E+00  0.51109989000E-03 0.  1.
     -623    1    1    2    0    0 -0.82724726061E-03  0.22499363481E-03  0.23386360406E-03  0.17130000000E+03  0.17130000000E+03 0. -1.
      622    1    1    2    0    0 -0.29609175857E-03 -0.27092950870E-02  0.38451280152E+01  0.38453370309E+01  0.40000000000E-01 0.  1.
</event>
<event>
 5   0  0.6200596E+07  0.9118800E+02  0.7818608E-02  0.1180000E+00
       11   -1    0    0    0    0  0.00000000000E+00  0.00000000000E+00  0.39999999673E+01  0.40000000000E+01  0.51109989000E-03 0. -1.
     -623   -1    0    0    0    0  0.00000000000E+00  0.00000000000E+00  0.12525980253E-10  0.17130000000E+03  0.17130000000E+03 0. -1.
       11    1    1    2    0    0 -0.11666650960E-02 -0.23724469745E-02  0.80717348063E-02  0.85090385249E-02  0.51109989000E-03 0. -1.
     -623    1    1    2    0    0 -0.50982456831E-03 -0.67902948854E-03  0.63922433960E-03  0.17130000000E+03  0.17130000000E+03 0. -1.
      622    1    1    2    0    0  0.16764896643E-02  0.30514764630E-02  0.39912890082E+01  0.39914909582E+01  0.40000000000E-01 0. -1.
</event>
<event>
 5   0  0.6200596E+07  0.9118800E+02  0.7818608E-02  0.1180000E+00
       11   -1    0    0    0    0  0.00000000000E+00  0.00000000000E+00  0.39999999673E+01  0.40000000000E+01  0.51109989000E-03 0. -1.
     -623   -1    0    0    0    0  0.00000000000E+00  0.00000000000E+00  0.12525980253E-10  0.17130000000E+03  0.17130000000E+03 0. -1.
       11    1    1    2    0    0  0.33337651323E-02 -0.93459455489E-03  0.14453841831E+00  0.14458078381E+00  0.51109989000E-03 0. -1.
     -623    1    1    2    0    0 -0.40675513782E-03  0.13908958517E-02  0.25098303655E-03  0.17130000001E+03  0.17130000000E+03 0. -1.
      622    1    1    2    0    0 -0.29270099945E-02 -0.45630129679E-03  0.38552105660E+01  0.38554192099E+01  0.40000000000E-01 0. -1.
</event>
<event>
 5   0  0.6200596E+07  0.9118800E+02  0.7818608E-02  0.1180000E+00
       11   -1    0    0    0    0  0.00000000000E+00  0.00000000000E+00  0.39999999673E+01  0.40000000000E+01  0.51109989000E-03 0. -1.
     -623   -1    0    0    0    0  0.00000000000E+00  0.00000000000E+00  0.12525980253E-10  0.17130000000E+03  0.17130000000E+03 0. -1.
       11    1    1    2    0    0  0.15916542401E-01 -0.48887403782E-02  0.83110775643E+00  0.83127468392E+00  0.51109989000E-03 0. -1.
     -623    1    1    2    0    0  0.30419336870E-03 -0.63741373367E-03  0.46571424612E-03  0.17130000000E+03  0.17130000000E+03 0. -1.
      622    1    1    2    0    0 -0.16220735770E-01  0.55261541118E-02  0.31684264967E+01  0.31687253140E+01  0.40000000000E-01 0. -1.
</event>
<event>
 5   0  0.6200596E+07  0.9118800E+02  0.7818608E-02  0.1180000E+00
       11   -1    0    0    0    0  0.00000000000E+00  0.00000000000E+00  0.39999999673E+01  0.40000000000E+01  0.51109989000E-03 0. -1.
     -623   -1    0    0    0    0  0.00000000000E+00  0.00000000000E+00  0.12525980253E-10  0.17130000000E+03  0.17130000000E+03 0.  1.
       11    1    1    2    0    0 -0.14716139515E-04 -0.72839572097E-03  0.20107071442E-01  0.20126756358E-01  0.51109989000E-03 0. -1.
     -623    1    1    2    0    0  0.35953824620E-02  0.52611148881E-02  0.22497960248E-03  0.17130000012E+03  0.17130000000E+03 0.  1.
      622    1    1    2    0    0 -0.35806663224E-02 -0.45327191671E-02  0.39796679163E+01  0.39798731250E+01  0.40000000000E-01 0. -1.
</event>
<event>
 5   0  0.6200596E+07  0.9118800E+02  0.7818608E-02  0.1180000E+00
       11   -1    0    0    0    0  0.00000000000E+00  0.00000000000E+00  0.39999999673E+01  0.40000000000E+01  0.51109989000E-03 0. -1.
     -623   -1    0    0    0    0  0.00000000000E+00  0.00000000000E+00  0.12525980253E-10  0.17130000000E+03  0.17130000000E+03 0.  1.
       11    1    1    2    0    0  0.70614873481E-02  0.64112012038E-02  0.23839144996E+00  0.23858271677E+00  0.51109989000E-03 0. -1.
     -623    1    1    2    0    0 -0.28353006337E-03 -0.30200921567E-03  0.41499563890E-03  0.17130000000E+03  0.17130000000E+03 0.  1.
      622    1    1    2    0    0 -0.67779572847E-02 -0.61091919881E-02  0.37611935218E+01  0.37614172822E+01  0.40000000000E-01 0.  0.
</event>
<event>
 5   0  0.6200596E+07  0.9118800E+02  0.7818608E-02  0.1180000E+00
       11   -1    0    0    0    0  0.00000000000E+00  0.00000000000E+00  0.39999999673E+01  0.40000000000E+01  0.51109989000E-03 0. -1.
     -623   -1    0    0    0    0  0.00000000000E+00  0.00000000000E+00  0.12525980253E-10  0.17130000000E+03  0.17130000000E+03 0.  1.
       11    1    1    2    0    0 -0.58889816784E-02 -0.85287446304E-02  0.14039642319E+01  0.14040025802E+01  0.51109989000E-03 0. -1.
     -623    1    1    2    0    0  0.23235710864E-02 -0.99315365414E-03  0.36643333406E-03  0.17130000002E+03  0.17130000000E+03 0.  1.
      622    1    1    2    0    0  0.35654105920E-02  0.95218982846E-02  0.25956693022E+01  0.25959974008E+01  0.40000000000E-01 0. -1.
</event>
<event>
 5   0  0.6200596E+07  0.9118800E+02  0.7818608E-02  0.1180000E+00
       11   -1    0    0    0    0  0.00000000000E+00  0.00000000000E+00  0.39999999673E+01  0.40000000000E+01  0.51109989000E-03 0. -1.
     -623   -1    0    0    0    0  0.00000000000E+00  0.00000000000E+00  0.12525980253E-10  0.17130000000E+03  0.17130000000E+03 0.  1.
       11    1    1    2    0    0  0.33015740235E-02  0.68288635261E-02  0.24664091044E+00  0.24675804687E+00  0.51109989000E-03 0. -1.
     -623    1    1    2    0    0  0.15034185142E-02 -0.18705634097E-02  0.33662727540E-03  0.17130000002E+03  0.17130000000E+03 0.  1.
      622    1    1    2    0    0 -0.48049925377E-02 -0.49583001163E-02  0.37530224296E+01  0.37532419360E+01  0.40000000000E-01 0. -1.
</event>
<event>
 5   0  0.6200596E+07  0.9118800E+02  0.7818608E-02  0.1180000E+00
       11   -1    0    0    0    0  0.00000000000E+00  0.00000000000E+00  0.39999999673E+01  0.40000000000E+01  0.51109989000E-03 0.  1.
     -623   -1    0    0    0    0  0.00000000000E+00  0.00000000000E+00  0.12525980253E-10  0.17130000000E+03  0.17130000000E+03 0. -1.
       11    1    1    2    0    0  0.23530515870E-02  0.96422856393E-03  0.25085433933E-01  0.25219175342E-01  0.51109989000E-03 0.  1.
     -623    1    1    2    0    0 -0.11155521468E-02  0.70427003468E-03  0.33553109546E-03  0.17130000001E+03  0.17130000000E+03 0. -1.
      622    1    1    2    0    0 -0.12374994402E-02 -0.16684985986E-02  0.39745790023E+01  0.39747808192E+01  0.40000000000E-01 0.  1.
</event>
<event>
 5   0  0.6200596E+07  0.9118800E+02  0.7818608E-02  0.1180000E+00
       11   -1    0    0    0    0  0.00000000000E+00  0.00000000000E+00  0.39999999673E+01  0.40000000000E+01  0.51109989000E-03 0.  1.
     -623   -1    0    0    0    0  0.00000000000E+00  0.00000000000E+00  0.12525980253E-10  0.17130000000E+03  0.17130000000E+03 0. -1.
       11    1    1    2    0    0  0.13633447871E-02  0.90407013551E-03  0.68324350166E-01  0.68345841858E-01  0.51109989000E-03 0.  1.
     -623    1    1    2    0    0 -0.34614683115E-02 -0.31180095998E-02  0.22618775084E-03  0.17130000006E+03  0.17130000000E+03 0. -1.
      622    1    1    2    0    0  0.20981235244E-02  0.22139394643E-02  0.39314494294E+01  0.39316540946E+01  0.40000000000E-01 0.  1.
</event>
<event>
 5   0  0.6200596E+07  0.9118800E+02  0.7818608E-02  0.1180000E+00
       11   -1    0    0    0    0  0.00000000000E+00  0.00000000000E+00  0.39999999673E+01  0.40000000000E+01  0.51109989000E-03 0. -1.
     -623   -1    0    0    0    0  0.00000000000E+00  0.00000000000E+00  0.12525980253E-10  0.17130000000E+03  0.17130000000E+03 0. -1.
       11    1    1    2    0    0  0.85594781875E-02 -0.30541494284E-01  0.19653166227E+01  0.19655726230E+01  0.51109989000E-03 0. -1.
     -623    1    1    2    0    0  0.22477024693E-01  0.61235682723E-01  0.11300984325E-02  0.17130001242E+03  0.17130000000E+03 0. -1.
      622    1    1    2    0    0 -0.31036502880E-01 -0.30694188439E-01  0.20335532463E+01  0.20344149535E+01  0.40000000000E-01 0. -1.
</event>
<event>
 5   0  0.6200596E+07  0.9118800E+02  0.7818608E-02  0.1180000E+00
       11   -1    0    0    0    0  0.00000000000E+00  0.00000000000E+00  0.39999999673E+01  0.40000000000E+01  0.51109989000E-03 0.  1.
     -623   -1    0    0    0    0  0.00000000000E+00  0.00000000000E+00  0.12525980253E-10  0.17130000000E+03  0.17130000000E+03 0.  1.
       11    1    1    2    0    0 -0.38959022447E-02 -0.55360722364E-03  0.71341540805E-02  0.81634497211E-02  0.51109989000E-03 0.  1.
     -623    1    1    2    0    0  0.11440679939E-02 -0.13988615991E-02  0.12311170685E-02  0.17130000001E+03  0.17130000000E+03 0.  1.
      622    1    1    2    0    0  0.27518342509E-02  0.19524688227E-02  0.39916346962E+01  0.39918365363E+01  0.40000000000E-01 0.  1.
</event>
<event>
 5   0  0.6200596E+07  0.9118800E+02  0.7818608E-02  0.1180000E+00
       11   -1    0    0    0    0  0.00000000000E+00  0.00000000000E+00  0.39999999673E+01  0.40000000000E+01  0.51109989000E-03 0.  1.
     -623   -1    0    0    0    0  0.00000000000E+00  0.00000000000E+00  0.12525980253E-10  0.17130000000E+03  0.17130000000E+03 0. -1.
       11    1    1    2    0    0 -0.18793402240E-01 -0.53054980187E-02  0.26628115979E+00  0.26699673698E+00  0.51109989000E-03 0.  1.
     -623    1    1    2    0    0  0.70409892341E-02  0.12660994141E-01  0.95621860247E-03  0.17130000062E+03  0.17130000000E+03 0. -1.
      622    1    1    2    0    0  0.11752413006E-01 -0.73554961226E-02  0.37327625890E+01  0.37330026478E+01  0.40000000000E-01 0.  1.
</event>
<event>
 5   0  0.6200596E+07  0.9118800E+02  0.7818608E-02  0.1180000E+00
       11   -1    0    0    0    0  0.00000000000E+00  0.00000000000E+00  0.39999999673E+01  0.40000000000E+01  0.51109989000E-03 0.  1.
     -623   -1    0    0    0    0  0.00000000000E+00  0.00000000000E+00  0.12525980253E-10  0.17130000000E+03  0.17130000000E+03 0. -1.
       11    1    1    2    0    0  0.27528799057E-02  0.85632897154E-03  0.73928410854E+00  0.73928990661E+00  0.51109989000E-03 0.  1.
     -623    1    1    2    0    0  0.22671182894E-02  0.85767508362E-02  0.26886027248E-03  0.17130000023E+03  0.17130000000E+03 0. -1.
      622    1    1    2    0    0 -0.50199981951E-02 -0.94330798078E-02  0.32604469985E+01  0.32607098635E+01  0.40000000000E-01 0.  1.
</event>
<event>
 5   0  0.6200596E+07  0.9118800E+02  0.7818608E-02  0.1180000E+00
       11   -1    0    0    0    0  0.00000000000E+00  0.00000000000E+00  0.39999999673E+01  0.40000000000E+01  0.51109989000E-03 0. -1.
     -623   -1    0    0    0    0  0.00000000000E+00  0.00000000000E+00  0.12525980253E-10  0.17130000000E+03  0.17130000000E+03 0.  1.
       11    1    1    2    0    0  0.14970523684E-01 -0.15396300716E-01  0.55532731944E+00  0.55574261632E+00  0.51109989000E-03 0. -1.
     -623    1    1    2    0    0  0.62981011182E-03  0.69935246351E-03  0.71423843328E-03  0.17130000000E+03  0.17130000000E+03 0.  1.
      622    1    1    2    0    0 -0.15600333796E-01  0.14696948252E-01  0.34439584095E+01  0.34442573796E+01  0.40000000000E-01 0. -1.
</event>
<event>
 5   0  0.6200596E+07  0.9118800E+02  0.7818608E-02  0.1180000E+00
       11   -1    0    0    0    0  0.00000000000E+00  0.00000000000E+00  0.39999999673E+01  0.40000000000E+01  0.51109989000E-03 0. -1.
     -623   -1    0    0    0    0  0.00000000000E+00  0.00000000000E+00  0.12525980253E-10  0.17130000000E+03  0.17130000000E+03 0. -1.
       11    1    1    2    0    0 -0.14388517495E-02 -0.17875327023E-01  0.17114870376E+00  0.17208642489E+00  0.51109989000E-03 0. -1.
     -623    1    1    2    0    0  0.10300672147E-03  0.17390834822E-02  0.11809438502E-02  0.17130000001E+03  0.17130000000E+03 0. -1.
      622    1    1    2    0    0  0.13358450280E-02  0.16136243541E-01  0.38276703197E+01  0.38279135622E+01  0.40000000000E-01 0. -1.
</event>
<event>
 5   0  0.6200596E+07  0.9118800E+02  0.7818608E-02  0.1180000E+00
       11   -1    0    0    0    0  0.00000000000E+00  0.00000000000E+00  0.39999999673E+01  0.40000000000E+01  0.51109989000E-03 0. -1.
     -623   -1    0    0    0    0  0.00000000000E+00  0.00000000000E+00  0.12525980253E-10  0.17130000000E+03  0.17130000000E+03 0. -1.
       11    1    1    2    0    0 -0.30002258701E-02  0.14710572164E-02  0.14573703457E+01  0.14573742660E+01  0.51109989000E-03 0. -1.
     -623    1    1    2    0    0  0.80341366430E-03 -0.14033607755E-02  0.31950044005E-03  0.17130000001E+03  0.17130000000E+03 0. -1.
      622    1    1    2    0    0  0.21968122058E-02 -0.67696440870E-04  0.25423101212E+01  0.25426257261E+01  0.40000000000E-01 0. -1.
</event>
<event>
 5   0  0.6200596E+07  0.9118800E+02  0.7818608E-02  0.1180000E+00
       11   -1    0    0    0    0  0.00000000000E+00  0.00000000000E+00  0.39999999673E+01  0.40000000000E+01  0.51109989000E-03 0. -1.
     -623   -1    0    0    0    0  0.00000000000E+00  0.00000000000E+00  0.12525980253E-10  0.17130000000E+03  0.17130000000E+03 0. -1.
       11    1    1    2    0    0  0.77392307392E-03  0.23459196706E-02  0.14738744082E-01  0.14953063041E-01  0.51109989000E-03 0. -1.
     -623    1    1    2    0    0  0.55403440479E-03 -0.46404069280E-03  0.41570950285E-03  0.17130000000E+03  0.17130000000E+03 0. -1.
      622    1    1    2    0    0 -0.13279574787E-02 -0.18818789778E-02  0.39848455138E+01  0.39850469349E+01  0.40000000000E-01 0. -1.
</event>
<event>
 5   0  0.6200596E+07  0.9118800E+02  0.7818608E-02  0.1180000E+00
       11   -1    0    0    0    0  0.00000000000E+00  0.00000000000E+00  0.39999999673E+01  0.40000000000E+01  0.51109989000E-03 0. -1.
     -623   -1    0    0    0    0  0.00000000000E+00  0.00000000000E+00  0.12525980253E-10  0.17130000000E+03  0.17130000000E+03 0.  1.
       11    1    1    2    0    0 -0.14272974236E-02  0.36873921258E-02  0.44767831047E-01  0.44945010369E-01  0.51109989000E-03 0. -1.
     -623    1    1    2    0    0  0.70697567206E-03  0.92817582615E-04  0.38129878943E-03  0.17130000000E+03  0.17130000000E+03 0.  1.
      622    1    1    2    0    0  0.72032175151E-03 -0.37802097084E-02  0.39548508375E+01  0.39550549877E+01  0.40000000000E-01 0. -1.
</event>
<event>
 5   0  0.6200596E+07  0.9118800E+02  0.7818608E-02  0.1180000E+00
       11   -1    0    0    0    0  0.00000000000E+00  0.00000000000E+00  0.39999999673E+01  0.40000000000E+01  0.51109989000E-03 0.  1.
     -623   -1    0    0    0    0  0.00000000000E+00  0.00000000000E+00  0.12525980253E-10  0.17130000000E+03  0.17130000000E+03 0. -1.
       11    1    1    2    0    0  0.45205732024E-03 -0.21000820802E-03  0.39727918588E-01  0.39734332699E-01  0.51109989000E-03 0.  1.
     -623    1    1    2    0    0  0.47675510689E-04 -0.41022087846E-03  0.20847399941E-03  0.17130000000E+03  0.17130000000E+03 0. -1.
      622    1    1    2    0    0 -0.49973283093E-03  0.62022908648E-03  0.39600635748E+01  0.39602656667E+01  0.40000000000E-01 0.  1.
</event>
<event>
 5   0  0.6200596E+07  0.9118800E+02  0.7818608E-02  0.1180000E+00
       11   -1    0    0    0    0  0.00000000000E+00  0.00000000000E+00  0.39999999673E+01  0.40000000000E+01  0.51109989000E-03 0.  1.
     -623   -1    0    0    0    0  0.00000000000E+00  0.00000000000E+00  0.12525980253E-10  0.17130000000E+03  0.17130000000E+03 0.  1.
       11    1    1    2    0    0 -0.12864741424E-04 -0.10785896472E-02  0.39717835863E+00  0.39718015221E+00  0.51109989000E-03 0.  1.
     -623    1    1    2    0    0  0.87723159314E-03  0.18767436441E-03  0.22403242361E-03  0.17130000000E+03  0.17130000000E+03 0.  1.
      622    1    1    2    0    0 -0.86436685172E-03  0.89091528282E-03  0.36025975763E+01  0.36028198453E+01  0.40000000000E-01 0.  1.
</event>
<event>
 5   0  0.6200596E+07  0.9118800E+02  0.7818608E-02  0.1180000E+00
       11   -1    0    0    0    0  0.00000000000E+00  0.00000000000E+00  0.39999999673E+01  0.40000000000E+01  0.51109989000E-03 0. -1.
     -623   -1    0    0    0    0  0.00000000000E+00  0.00000000000E+00  0.12525980253E-10  0.17130000000E+03  0.17130000000E+03 0.  1.
       11    1    1    2    0    0  0.15489213295E-02  0.21675368209E-01  0.12934451018E+01  0.12936277337E+01  0.51109989000E-03 0. -1.
     -623    1    1    2    0    0  0.45953282126E-02  0.80723638640E-02  0.64895537597E-03  0.17130000025E+03  0.17130000000E+03 0.  1.
      622    1    1    2    0    0 -0.61442495420E-02 -0.29747732073E-01  0.27059059102E+01  0.27063720132E+01  0.40000000000E-01 0.  0.
</event>
<event>
 5   0  0.6200596E+07  0.9118800E+02  0.7818608E-02  0.1180000E+00
       11   -1    0    0    0    0  0.00000000000E+00  0.00000000000E+00  0.39999999673E+01  0.40000000000E+01  0.51109989000E-03 0. -1.
     -623   -1    0    0    0    0  0.00000000000E+00  0.00000000000E+00  0.12525980253E-10  0.17130000000E+03  0.17130000000E+03 0.  1.
       11    1    1    2    0    0  0.17900006825E-02 -0.79933730268E-04  0.27794979159E+00  0.27795603674E+00  0.51109989000E-03 0. -1.
     -623    1    1    2    0    0 -0.11211859980E-02 -0.13871104866E-02  0.22151303677E-03  0.17130000001E+03  0.17130000000E+03 0.  1.
      622    1    1    2    0    0 -0.66881468449E-03  0.14670442169E-02  0.37218286627E+01  0.37220439538E+01  0.40000000000E-01 0. -1.
</event>
<event>
 5   0  0.6200596E+07  0.9118800E+02  0.7818608E-02  0.1180000E+00
       11   -1    0    0    0    0  0.00000000000E+00  0.00000000000E+00  0.39999999673E+01  0.40000000000E+01  0.51109989000E-03 0.  1.
     -623   -1    0    0    0    0  0.00000000000E+00  0.00000000000E+00  0.12525980253E-10  0.17130000000E+03  0.17130000000E+03 0. -1.
       11    1    1    2    0    0 -0.11643746379E-02 -0.13583440914E-01  0.94868989267E+00  0.94878798439E+00  0.51109989000E-03 0.  1.
     -623    1    1    2    0    0 -0.18482846696E-01  0.17298032602E-01  0.42765564572E-03  0.17130000187E+03  0.17130000000E+03 0. -1.
      622    1    1    2    0    0  0.19647221334E-01 -0.37145916888E-02  0.30508824190E+01  0.30512101446E+01  0.40000000000E-01 0.  1.
</event>
<event>
 5   0  0.6200596E+07  0.9118800E+02  0.7818608E-02  0.1180000E+00
       11   -1    0    0    0    0  0.00000000000E+00  0.00000000000E+00  0.39999999673E+01  0.40000000000E+01  0.51109989000E-03 0.  1.
     -623   -1    0    0    0    0  0.00000000000E+00  0.00000000000E+00  0.12525980253E-10  0.17130000000E+03  0.17130000000E+03 0.  1.
       11    1    1    2    0    0  0.67875619393E-02 -0.68307348220E-02  0.65035829608E+00  0.65042978440E+00  0.51109989000E-03 0.  1.
     -623    1    1    2    0    0  0.41032282801E-02  0.67780943760E-03  0.33370976744E-03  0.17130000005E+03  0.17130000000E+03 0.  1.
      622    1    1    2    0    0 -0.10890790219E-01  0.61529253844E-02  0.33493079615E+01  0.33495701648E+01  0.40000000000E-01 0.  1.
</event>
<event>
 5   0  0.6200596E+07  0.9118800E+02  0.7818608E-02  0.1180000E+00
       11   -1    0    0    0    0  0.00000000000E+00  0.00000000000E+00  0.39999999673E+01  0.40000000000E+01  0.51109989000E-03 0.  1.
     -623   -1    0    0    0    0  0.00000000000E+00  0.00000000000E+00  0.12525980253E-10  0.17130000000E+03  0.17130000000E+03 0. -1.
       11    1    1    2    0    0  0.79380985189E-03  0.36902696313E-02  0.46964748973E-01  0.47118967429E-01  0.51109989000E-03 0.  1.
     -623    1    1    2    0    0  0.11014453804E-03 -0.66677620393E-03  0.35783646972E-03  0.17130000000E+03  0.17130000000E+03 0. -1.
      622    1    1    2    0    0 -0.90395438993E-03 -0.30234934274E-02  0.39526773819E+01  0.39528810309E+01  0.40000000000E-01 0.  1.
</event>
<event>
 5   0  0.6200596E+07  0.9118800E+02  0.7818608E-02  0.1180000E+00
       11   -1    0    0    0    0  0.00000000000E+00  0.00000000000E+00  0.39999999673E+01  0.40000000000E+01  0.51109989000E-03 0. -1.
     -623   -1    0    0    0    0  0.00000000000E+00  0.00000000000E+00  0.12525980253E-10  0.17130000000E+03  0.17130000000E+03 0. -1.
       11    1    1    2    0    0 -0.12227466041E-01  0.99044784793E-01  0.28633835021E+01  0.28651221128E+01  0.51109989000E-03 0. -1.
     -623    1    1    2    0    0 -0.42003072582E-01 -0.41535513716E-02  0.77274880094E-02  0.17130000537E+03  0.17130000000E+03 0. -1.
      622    1    1    2    0    0  0.54230538623E-01 -0.94891233422E-01  0.11288889773E+01  0.11348725129E+01  0.40000000000E-01 0.  1.
</event>
<event>
 5   0  0.6200596E+07  0.9118800E+02  0.7818608E-02  0.1180000E+00
       11   -1    0    0    0    0  0.00000000000E+00  0.00000000000E+00  0.39999999673E+01  0.40000000000E+01  0.51109989000E-03 0. -1.
     -623   -1    0    0    0    0  0.00000000000E+00  0.00000000000E+00  0.12525980253E-10  0.17130000000E+03  0.17130000000E+03 0. -1.
       11    1    1    2    0    0  0.23868126098E-02  0.11604376863E-02  0.18936833187E-01  0.19128731359E-01  0.51109989000E-03 0. -1.
     -623    1    1    2    0    0 -0.38697101421E-02 -0.15981310426E-02  0.39318352541E-03  0.17130000005E+03  0.17130000000E+03 0. -1.
      622    1    1    2    0    0  0.14828975323E-02  0.43769335630E-03  0.39806699506E+01  0.39808712170E+01  0.40000000000E-01 0. -1.
</event>
<event>
 5   0  0.6200596E+07  0.9118800E+02  0.7818608E-02  0.1180000E+00
       11   -1    0    0    0    0  0.00000000000E+00  0.00000000000E+00  0.39999999673E+01  0.40000000000E+01  0.51109989000E-03 0. -1.
     -623   -1    0    0    0    0  0.00000000000E+00  0.00000000000E+00  0.12525980253E-10  0.17130000000E+03  0.17130000000E+03 0.  1.
       11    1    1    2    0    0  0.50462851631E-02  0.13242413828E-01  0.46697335654E+00  0.46718861657E+00  0.51109989000E-03 0. -1.
     -623    1    1    2    0    0 -0.35440283540E-02 -0.20088501682E-03  0.46611335456E-03  0.17130000004E+03  0.17130000000E+03 0.  1.
      622    1    1    2    0    0 -0.15022568091E-02 -0.13041528811E-01  0.35325604975E+01  0.35328113460E+01  0.40000000000E-01 0. -1.
</event>
<event>
 5   0  0.6200596E+07  0.9118800E+02  0.7818608E-02  0.1180000E+00
       11   -1    0    0    0    0  0.00000000000E+00  0.00000000000E+00  0.39999999673E+01  0.40000000000E+01  0.51109989000E-03 0. -1.
     -623   -1    0    0    0    0  0.00000000000E+00  0.00000000000E+00  0.12525980253E-10  0.17130000000E+03  0.17130000000E+03 0.  1.
       11    1    1    2    0    0  0.92480689544E-03 -0.14530873430E-02  0.47213747196E-02  0.50516661725E-02  0.51109989000E-03 0. -1.
     -623    1    1    2    0    0 -0.11885152237E-02  0.10352627902E-02  0.53055536307E-03  0.17130000001E+03  0.17130000000E+03 0.  1.
      622    1    1    2    0    0  0.26370832830E-03  0.41782455279E-03  0.39947480373E+01  0.39949483258E+01  0.40000000000E-01 0. -1.
</event>
<event>
 5   0  0.6200596E+07  0.9118800E+02  0.7818608E-02  0.1180000E+00
       11   -1    0    0    0    0  0.00000000000E+00  0.00000000000E+00  0.39999999673E+01  0.40000000000E+01  0.51109989000E-03 0.  1.
     -623   -1    0    0    0    0  0.00000000000E+00  0.00000000000E+00  0.12525980253E-10  0.17130000000E+03  0.17130000000E+03 0.  1.
       11    1    1    2    0    0 -0.74575129800E-02 -0.10326465636E-01  0.34396862886E+00  0.34420477808E+00  0.51109989000E-03 0.  1.
     -623    1    1    2    0    0  0.56536683935E-02 -0.39095891765E-02  0.48325754767E-03  0.17130000014E+03  0.17130000000E+03 0.  1.
      622    1    1    2    0    0  0.18038445865E-02  0.14236054812E-01  0.36555480810E+01  0.36557950833E+01  0.40000000000E-01 0.  1.
</event>
<event>
 5   0  0.6200596E+07  0.9118800E+02  0.7818608E-02  0.1180000E+00
       11   -1    0    0    0    0  0.00000000000E+00  0.00000000000E+00  0.39999999673E+01  0.40000000000E+01  0.51109989000E-03 0.  1.
     -623   -1    0    0    0    0  0.00000000000E+00  0.00000000000E+00  0.12525980253E-10  0.17130000000E+03  0.17130000000E+03 0. -1.
       11    1    1    2    0    0 -0.18995669604E-01  0.21571334311E-01  0.16094253985E+01  0.16096821216E+01  0.51109989000E-03 0.  1.
     -623    1    1    2    0    0  0.62873269476E-03  0.56852224276E-03  0.76452951313E-03  0.17130000000E+03  0.17130000000E+03 0. -1.
      622    1    1    2    0    0  0.18366936910E-01 -0.22139856554E-01  0.23898100393E+01  0.23903178746E+01  0.40000000000E-01 0.  1.
</event>
<event>
 5   0  0.6200596E+07  0.9118800E+02  0.7818608E-02  0.1180000E+00
       11   -1    0    0    0    0  0.00000000000E+00  0.00000000000E+00  0.39999999673E+01  0.40000000000E+01  0.51109989000E-03 0. -1.
     -623   -1    0    0    0    0  0.00000000000E+00  0.00000000000E+00  0.12525980253E-10  0.17130000000E+03  0.17130000000E+03 0. -1.
       11    1    1    2    0    0  0.14867046690E-03  0.37885198040E-03  0.69955944737E-01  0.69958995553E-01  0.51109989000E-03 0. -1.
     -623    1    1    2    0    0  0.32806135149E-02  0.43553346085E-02  0.21101841083E-03  0.17130000009E+03  0.17130000000E+03 0. -1.
      622    1    1    2    0    0 -0.34292839818E-02 -0.47341865889E-02  0.39298330042E+01  0.39300409175E+01  0.40000000000E-01 0. -1.
</event>
<event>
 5   0  0.6200596E+07  0.9118800E+02  0.7818608E-02  0.1180000E+00
       11   -1    0    0    0    0  0.00000000000E+00  0.00000000000E+00  0.39999999673E+01  0.40000000000E+01  0.51109989000E-03 0. -1.
     -623   -1    0    0    0    0  0.00000000000E+00  0.00000000000E+00  0.12525980253E-10  0.17130000000E+03  0.17130000000E+03 0.  1.
       11    1    1    2    0    0  0.13718412639E-01  0.52647944915E-02  0.72298733686E+00  0.72313682204E+00  0.51109989000E-03 0. -1.
     -623    1    1    2    0    0 -0.75119647052E-03 -0.19631967623E-02  0.42093333537E-03  0.17130000001E+03  0.17130000000E+03 0.  1.
      622    1    1    2    0    0 -0.12967216168E-01 -0.33015977292E-02  0.32765916972E+01  0.32768631645E+01  0.40000000000E-01 0. -1.
</event>
<event>
 5   0  0.6200596E+07  0.9118800E+02  0.7818608E-02  0.1180000E+00
       11   -1    0    0    0    0  0.00000000000E+00  0.00000000000E+00  0.39999999673E+01  0.40000000000E+01  0.51109989000E-03 0. -1.
     -623   -1    0    0    0    0  0.00000000000E+00  0.00000000000E+00  0.12525980253E-10  0.17130000000E+03  0.17130000000E+03 0.  1.
       11    1    1    2    0    0 -0.27002483221E-02 -0.34159479725E-03  0.52927420937E-02  0.59734720519E-02  0.51109989000E-03 0. -1.
     -623    1    1    2    0    0 -0.30148377711E-03 -0.31621274132E-02  0.88369811529E-03  0.17130000003E+03  0.17130000000E+03 0.  1.
      622    1    1    2    0    0  0.30017320992E-02  0.35037222104E-02  0.39938235272E+01  0.39940264962E+01  0.40000000000E-01 0. -1.
</event>
<event>
 5   0  0.6200596E+07  0.9118800E+02  0.7818608E-02  0.1180000E+00
       11   -1    0    0    0    0  0.00000000000E+00  0.00000000000E+00  0.39999999673E+01  0.40000000000E+01  0.51109989000E-03 0. -1.
     -623   -1    0    0    0    0  0.00000000000E+00  0.00000000000E+00  0.12525980253E-10  0.17130000000E+03  0.17130000000E+03 0.  1.
       11    1    1    2    0    0  0.11873553203E-01  0.73511798324E-02  0.24265000255E+00  0.24305206452E+00  0.51109989000E-03 0. -1.
     -623    1    1    2    0    0 -0.20833120311E-02 -0.14503779143E-01  0.63516811112E-03  0.17130000063E+03  0.17130000000E+03 0.  1.
      622    1    1    2    0    0 -0.97902411723E-02  0.71525993105E-02  0.37567147967E+01  0.37569473076E+01  0.40000000000E-01 0. -1.
</event>
<event>
 5   0  0.6200596E+07  0.9118800E+02  0.7818608E-02  0.1180000E+00
       11   -1    0    0    0    0  0.00000000000E+00  0.00000000000E+00  0.39999999673E+01  0.40000000000E+01  0.51109989000E-03 0. -1.
     -623   -1    0    0    0    0  0.00000000000E+00  0.00000000000E+00  0.12525980253E-10  0.17130000000E+03  0.17130000000E+03 0. -1.
       11    1    1    2    0    0  0.31799949312E-02 -0.61154011864E-02  0.18081456899E+01  0.18081589000E+01  0.51109989000E-03 0. -1.
     -623    1    1    2    0    0 -0.20137853017E-02  0.11987632215E-03  0.38672184190E-03  0.17130000001E+03  0.17130000000E+03 0. -1.
      622    1    1    2    0    0 -0.11662096295E-02  0.59955248642E-02  0.21914675556E+01  0.21918410876E+01  0.40000000000E-01 0. -1.
</event>
<event>
 5   0  0.6200596E+07  0.9118800E+02  0.7818608E-02  0.1180000E+00
       11   -1    0    0    0    0  0.00000000000E+00  0.00000000000E+00  0.39999999673E+01  0.40000000000E+01  0.51109989000E-03 0. -1.
     -623   -1    0    0    0    0  0.00000000000E+00  0.00000000000E+00  0.12525980253E-10  0.17130000000E+03  0.17130000000E+03 0.  1.
       11    1    1    2    0    0  0.40155601612E-03  0.28028332017E-02  0.10960832301E-01  0.11332174849E-01  0.51109989000E-03 0. -1.
     -623    1    1    2    0    0 -0.22265630805E-02 -0.38104153831E-03  0.57305181230E-03  0.17130000002E+03  0.17130000000E+03 0.  1.
      622    1    1    2    0    0  0.18250070644E-02 -0.24217916634E-02  0.39884660832E+01  0.39886678093E+01  0.40000000000E-01 0. -1.
</event>
<event>
 5   0  0.6200596E+07  0.9118800E+02  0.7818608E-02  0.1180000E+00
       11   -1    0    0    0    0  0.00000000000E+00  0.00000000000E+00  0.39999999673E+01  0.40000000000E+01  0.51109989000E-03 0.  1.
     -623   -1    0    0    0    0  0.00000000000E+00  0.00000000000E+00  0.12525980253E-10  0.17130000000E+03  0.17130000000E+03 0. -1.
       11    1    1    2    0    0  0.19407767576E-03  0.14694742820E-01  0.26678018250E+01  0.26678423513E+01  0.51109989000E-03 0.  1.
     -623    1    1    2    0    0  0.16563429871E-02 -0.53580321976E-02  0.67527195593E-03  0.17130000009E+03  0.17130000000E+03 0. -1.
      622    1    1    2    0    0 -0.18504206628E-02 -0.93367106222E-02  0.13315228704E+01  0.13321575555E+01  0.40000000000E-01 0.  1.
</event>
<event>
 5   0  0.6200596E+07  0.9118800E+02  0.7818608E-02  0.1180000E+00
       11   -1    0    0    0    0  0.00000000000E+00  0.00000000000E+00  0.39999999673E+01  0.40000000000E+01  0.51109989000E-03 0.  1.
     -623   -1    0    0    0    0  0.00000000000E+00  0.00000000000E+00  0.12525980253E-10  0.17130000000E+03  0.17130000000E+03 0. -1.
       11    1    1    2    0    0  0.38627965557E-01  0.37299391279E-01  0.24489478949E+00  0.25071314974E+00  0.51109989000E-03 0.  1.
     -623    1    1    2    0    0 -0.14460521998E-01  0.10487425978E-01  0.64152259763E-02  0.17130000105E+03  0.17130000000E+03 0. -1.
      622    1    1    2    0    0 -0.24167443559E-01 -0.47786817257E-01  0.37486899519E+01  0.37492857987E+01  0.40000000000E-01 0.  1.
</event>
<event>
 5   0  0.6200596E+07  0.9118800E+02  0.7818608E-02  0.1180000E+00
       11   -1    0    0    0    0  0.00000000000E+00  0.00000000000E+00  0.39999999673E+01  0.40000000000E+01  0.51109989000E-03 0.  1.
     -623   -1    0    0    0    0  0.00000000000E+00  0.00000000000E+00  0.12525980253E-10  0.17130000000E+03  0.17130000000E+03 0.  1.
       11    1    1    2    0    0  0.52376279606E-02  0.14025710103E-02  0.49551259598E-01  0.49849658996E-01  0.51109989000E-03 0.  1.
     -623    1    1    2    0    0  0.19832348759E-03  0.11762747183E-02  0.50548312927E-03  0.17130000000E+03  0.17130000000E+03 0.  1.
      622    1    1    2    0    0 -0.54359514482E-02 -0.25788457286E-02  0.39499432246E+01  0.39501503361E+01  0.40000000000E-01 0.  1.
</event>
<event>
 5   0  0.6200596E+07  0.9118800E+02  0.7818608E-02  0.1180000E+00
       11   -1    0    0    0    0  0.00000000000E+00  0.00000000000E+00  0.39999999673E+01  0.40000000000E+01  0.51109989000E-03 0.  1.
     -623   -1    0    0    0    0  0.00000000000E+00  0.00000000000E+00  0.12525980253E-10  0.17130000000E+03  0.17130000000E+03 0.  1.
       11    1    1    2    0    0  0.21193772353E-01  0.34770194702E-01  0.34607299512E+00  0.34846078918E+00  0.51109989000E-03 0.  1.
     -623    1    1    2    0    0  0.11579424780E-01 -0.11989364534E-01  0.28258415021E-02  0.17130000083E+03  0.17130000000E+03 0.  1.
      622    1    1    2    0    0 -0.32773197133E-01 -0.22780830168E-01  0.36511011307E+01  0.36515383766E+01  0.40000000000E-01 0.  1.
</event>
<event>
 5   0  0.6200596E+07  0.9118800E+02  0.7818608E-02  0.1180000E+00
       11   -1    0    0    0    0  0.00000000000E+00  0.00000000000E+00  0.39999999673E+01  0.40000000000E+01  0.51109989000E-03 0. -1.
     -623   -1    0    0    0    0  0.00000000000E+00  0.00000000000E+00  0.12525980253E-10  0.17130000000E+03  0.17130000000E+03 0.  1.
       11    1    1    2    0    0 -0.17065632249E-02  0.61117754883E-02  0.33161903010E-01  0.33767427958E-01  0.51109989000E-03 0. -1.
     -623    1    1    2    0    0  0.59979045632E-02 -0.68755321769E-02  0.80984030581E-03  0.17130000024E+03  0.17130000000E+03 0.  1.
      622    1    1    2    0    0 -0.42913413383E-02  0.76375668859E-03  0.39660282240E+01  0.39662323271E+01  0.40000000000E-01 0. -1.
</event>
<event>
 5   0  0.6200596E+07  0.9118800E+02  0.7818608E-02  0.1180000E+00
       11   -1    0    0    0    0  0.00000000000E+00  0.00000000000E+00  0.39999999673E+01  0.40000000000E+01  0.51109989000E-03 0. -1.
     -623   -1    0    0    0    0  0.00000000000E+00  0.00000000000E+00  0.12525980253E-10  0.17130000000E+03  0.17130000000E+03 0.  1.
       11    1    1    2    0    0 -0.79095928596E-04 -0.14307044730E-02  0.17738895372E-01  0.17804010827E-01  0.51109989000E-03 0. -1.
     -623    1    1    2    0    0 -0.26677981131E-02  0.22365900954E-02  0.26704663993E-03  0.17130000004E+03  0.17130000000E+03 0.  1.
      622    1    1    2    0    0  0.27468940417E-02 -0.80588562237E-03  0.39819940253E+01  0.39821959536E+01  0.40000000000E-01 0. -1.
</event>
<event>
 5   0  0.6200596E+07  0.9118800E+02  0.7818608E-02  0.1180000E+00
       11   -1    0    0    0    0  0.00000000000E+00  0.00000000000E+00  0.39999999673E+01  0.40000000000E+01  0.51109989000E-03 0.  1.
     -623   -1    0    0    0    0  0.00000000000E+00  0.00000000000E+00  0.12525980253E-10  0.17130000000E+03  0.17130000000E+03 0. -1.
       11    1    1    2    0    0 -0.79885454565E-03  0.36919544880E-03  0.35059671109E-02  0.36506850590E-02  0.51109989000E-03 0.  1.
     -623    1    1    2    0    0  0.15273336381E-03  0.61668067469E-03  0.34504839400E-03  0.17130000000E+03  0.17130000000E+03 0. -1.
      622    1    1    2    0    0  0.64612118184E-03 -0.98587612349E-03  0.39961489519E+01  0.39963493134E+01  0.40000000000E-01 0.  1.
</event>
<event>
 5   0  0.6200596E+07  0.9118800E+02  0.7818608E-02  0.1180000E+00
       11   -1    0    0    0    0  0.00000000000E+00  0.00000000000E+00  0.39999999673E+01  0.40000000000E+01  0.51109989000E-03 0. -1.
     -623   -1    0    0    0    0  0.00000000000E+00  0.00000000000E+00  0.12525980253E-10  0.17130000000E+03  0.17130000000E+03 0.  1.
       11    1    1    2    0    0  0.34733024321E-02  0.11492158109E-01  0.11598378562E+00  0.11660460229E+00  0.51109989000E-03 0. -1.
     -623    1    1    2    0    0  0.32650764689E-02 -0.12071963678E-01  0.83314306424E-03  0.17130000046E+03  0.17130000000E+03 0.  1.
      622    1    1    2    0    0 -0.67383789010E-02  0.57980556966E-03  0.38831830387E+01  0.38833949392E+01  0.40000000000E-01 0. -1.
</event>
<event>
 5   0  0.6200596E+07  0.9118800E+02  0.7818608E-02  0.1180000E+00
       11   -1    0    0    0    0  0.00000000000E+00  0.00000000000E+00  0.39999999673E+01  0.40000000000E+01  0.51109989000E-03 0. -1.
     -623   -1    0    0    0    0  0.00000000000E+00  0.00000000000E+00  0.12525980253E-10  0.17130000000E+03  0.17130000000E+03 0. -1.
       11    1    1    2    0    0 -0.72808804585E-03 -0.36155518409E-02  0.13617128605E+00  0.13622218136E+00  0.51109989000E-03 0. -1.
     -623    1    1    2    0    0  0.56174198822E-03 -0.11229468738E-02  0.26083361757E-03  0.17130000000E+03  0.17130000000E+03 0. -1.
      622    1    1    2    0    0  0.16634605763E-03  0.47384987147E-02  0.38635678477E+01  0.38637778138E+01  0.40000000000E-01 0.  0.
</event>
<event>
 5   0  0.6200596E+07  0.9118800E+02  0.7818608E-02  0.1180000E+00
       11   -1    0    0    0    0  0.00000000000E+00  0.00000000000E+00  0.39999999673E+01  0.40000000000E+01  0.51109989000E-03 0. -1.
     -623   -1    0    0    0    0  0.00000000000E+00  0.00000000000E+00  0.12525980253E-10  0.17130000000E+03  0.17130000000E+03 0. -1.
       11    1    1    2    0    0  0.10241524237E-01 -0.41770527668E-02  0.11794453559E+00  0.11846312204E+00  0.51109989000E-03 0. -1.
     -623    1    1    2    0    0 -0.22301339606E-04 -0.18591041496E-02  0.74282179054E-03  0.17130000001E+03  0.17130000000E+03 0. -1.
      622    1    1    2    0    0 -0.10219222898E-01  0.60361569164E-02  0.38813126100E+01  0.38815368663E+01  0.40000000000E-01 0. -1.
</event>
<event>
 5   0  0.6200596E+07  0.9118800E+02  0.7818608E-02  0.1180000E+00
       11   -1    0    0    0    0  0.00000000000E+00  0.00000000000E+00  0.39999999673E+01  0.40000000000E+01  0.51109989000E-03 0.  1.
     -623   -1    0    0    0    0  0.00000000000E+00  0.00000000000E+00  0.12525980253E-10  0.17130000000E+03  0.17130000000E+03 0. -1.
       11    1    1    2    0    0  0.13187842936E-02  0.47993194984E-02  0.22464736294E-01  0.23015174506E-01  0.51109989000E-03 0.  1.
     -623    1    1    2    0    0 -0.12841237397E-02 -0.13591798277E-02  0.75306804654E-03  0.17130000001E+03  0.17130000000E+03 0. -1.
      622    1    1    2    0    0 -0.34660553868E-04 -0.34401396707E-02  0.39767821630E+01  0.39769848136E+01  0.40000000000E-01 0.  1.
</event>
<event>
 5   0  0.6200596E+07  0.9118800E+02  0.7818608E-02  0.1180000E+00
       11   -1    0    0    0    0  0.00000000000E+00  0.00000000000E+00  0.39999999673E+01  0.40000000000E+01  0.51109989000E-03 0. -1.
     -623   -1    0    0    0    0  0.00000000000E+00  0.00000000000E+00  0.12525980253E-10  0.17130000000E+03  0.17130000000E+03 0.  1.
       11    1    1    2    0    0 -0.42659787591E-02  0.93010444042E-02  0.73081993447E+00  0.73089174700E+00  0.51109989000E-03 0. -1.
     -623    1    1    2    0    0 -0.45276816123E-02 -0.33740277512E-02  0.33379894105E-03  0.17130000009E+03  0.17130000000E+03 0.  1.
      622    1    1    2    0    0  0.87936603714E-02 -0.59270166530E-02  0.32688462340E+01  0.32691081596E+01  0.40000000000E-01 0. -1.
</event>
<event>
 5   0  0.6200596E+07  0.9118800E+02  0.7818608E-02  0.1180000E+00
       11   -1    0    0    0    0  0.00000000000E+00  0.00000000000E+00  0.39999999673E+01  0.40000000000E+01  0.51109989000E-03 0.  1.
     -623   -1    0    0    0    0  0.00000000000E+00  0.00000000000E+00  0.12525980253E-10  0.17130000000E+03  0.17130000000E+03 0. -1.
       11    1    1    2    0    0  0.61050179466E-02 -0.53937705713E-04  0.54340279386E+00  0.54343733010E+00  0.51109989000E-03 0.  1.
     -623    1    1    2    0    0 -0.67011773881E-03  0.56825295552E-03  0.27026893659E-03  0.17130000000E+03  0.17130000000E+03 0. -1.
      622    1    1    2    0    0 -0.54349002078E-02 -0.51431524980E-03  0.34563269046E+01  0.34565626674E+01  0.40000000000E-01 0.  1.
</event>
<event>
 5   0  0.6200596E+07  0.9118800E+02  0.7818608E-02  0.1180000E+00
       11   -1    0    0    0    0  0.00000000000E+00  0.00000000000E+00  0.39999999673E+01  0.40000000000E+01  0.51109989000E-03 0. -1.
     -623   -1    0    0    0    0  0.00000000000E+00  0.00000000000E+00  0.12525980253E-10  0.17130000000E+03  0.17130000000E+03 0.  1.
       11    1    1    2    0    0 -0.18024021939E-01  0.12233989123E-01  0.35038269936E+00  0.35105958624E+00  0.51109989000E-03 0. -1.
     -623    1    1    2    0    0 -0.61584056304E-03 -0.23521423484E-03  0.96344787853E-03  0.17130000000E+03  0.17130000000E+03 0.  1.
      622    1    1    2    0    0  0.18639862502E-01 -0.11998774888E-01  0.36486538201E+01  0.36489404098E+01  0.40000000000E-01 0. -1.
</event>
<event>
 5   0  0.6200596E+07  0.9118800E+02  0.7818608E-02  0.1180000E+00
       11   -1    0    0    0    0  0.00000000000E+00  0.00000000000E+00  0.39999999673E+01  0.40000000000E+01  0.51109989000E-03 0.  1.
     -623   -1    0    0    0    0  0.00000000000E+00  0.00000000000E+00  0.12525980253E-10  0.17130000000E+03  0.17130000000E+03 0.  1.
       11    1    1    2    0    0 -0.21623147453E-03 -0.25372004570E-02  0.92438846145E+00  0.92439210999E+00  0.51109989000E-03 0.  1.
     -623    1    1    2    0    0 -0.16009530323E-02  0.10299532963E-03  0.26524604539E-03  0.17130000001E+03  0.17130000000E+03 0.  1.
      622    1    1    2    0    0  0.18171845068E-02  0.24342051274E-02  0.30753462599E+01  0.30756078823E+01  0.40000000000E-01 0.  1.
</event>
<event>
 5   0  0.6200596E+07  0.9118800E+02  0.7818608E-02  0.1180000E+00
       11   -1    0    0    0    0  0.00000000000E+00  0.00000000000E+00  0.39999999673E+01  0.40000000000E+01  0.51109989000E-03 0. -1.
     -623   -1    0    0    0    0  0.00000000000E+00  0.00000000000E+00  0.12525980253E-10  0.17130000000E+03  0.17130000000E+03 0. -1.
       11    1    1    2    0    0 -0.12617964410E-01 -0.91050459829E-03  0.35704956807E+00  0.35727398076E+00  0.51109989000E-03 0. -1.
     -623    1    1    2    0    0  0.89439286476E-04 -0.11233478667E-02  0.46612078571E-03  0.17130000000E+03  0.17130000000E+03 0. -1.
      622    1    1    2    0    0  0.12528525123E-01  0.20338524650E-02  0.36424842785E+01  0.36427260149E+01  0.40000000000E-01 0. -1.
</event>
<event>
 5   0  0.6200596E+07  0.9118800E+02  0.7818608E-02  0.1180000E+00
       11   -1    0    0    0    0  0.00000000000E+00  0.00000000000E+00  0.39999999673E+01  0.40000000000E+01  0.51109989000E-03 0.  1.
     -623   -1    0    0    0    0  0.00000000000E+00  0.00000000000E+00  0.12525980253E-10  0.17130000000E+03  0.17130000000E+03 0.  1.
       11    1    1    2    0    0  0.59391522732E-02  0.11405269784E-01  0.14367363044E+00  0.14424883714E+00  0.51109989000E-03 0.  1.
     -623    1    1    2    0    0 -0.37299865607E-02  0.21557944276E-02  0.80720006778E-03  0.17130000006E+03  0.17130000000E+03 0.  1.
      622    1    1    2    0    0 -0.22091657126E-02 -0.13561064212E-01  0.38555191368E+01  0.38557511068E+01  0.40000000000E-01 0.  1.
</event>
<event>
 5   0  0.6200596E+07  0.9118800E+02  0.7818608E-02  0.1180000E+00
       11   -1    0    0    0    0  0.00000000000E+00  0.00000000000E+00  0.39999999673E+01  0.40000000000E+01  0.51109989000E-03 0.  1.
     -623   -1    0    0    0    0  0.00000000000E+00  0.00000000000E+00  0.12525980253E-10  0.17130000000E+03  0.17130000000E+03 0.  1.
       11    1    1    2    0    0  0.16912782449E-01 -0.14377427214E-01  0.15370947624E+00  0.15530491599E+00  0.51109989000E-03 0.  1.
     -623    1    1    2    0    0 -0.18581574440E-01  0.55336967794E-02  0.18151326450E-02  0.17130000111E+03  0.17130000000E+03 0.  1.
      622    1    1    2    0    0  0.16687919910E-02  0.88437304347E-02  0.38444753585E+01  0.38446939772E+01  0.40000000000E-01 0.  1.
</event>
<event>
 5   0  0.6200596E+07  0.9118800E+02  0.7818608E-02  0.1180000E+00
       11   -1    0    0    0    0  0.00000000000E+00  0.00000000000E+00  0.39999999673E+01  0.40000000000E+01  0.51109989000E-03 0. -1.
     -623   -1    0    0    0    0  0.00000000000E+00  0.00000000000E+00  0.12525980253E-10  0.17130000000E+03  0.17130000000E+03 0. -1.
       11    1    1    2    0    0 -0.37075033935E-01 -0.90358637561E-02  0.17509894479E+01  0.17514052965E+01  0.51109989000E-03 0. -1.
     -623    1    1    2    0    0  0.14210614248E-02 -0.12841477992E-03  0.10730406365E-02  0.17130000001E+03  0.17130000000E+03 0. -1.
      622    1    1    2    0    0  0.35653972510E-01  0.91642785360E-02  0.22479374788E+01  0.22485946942E+01  0.40000000000E-01 0. -1.
</event>
<event>
 5   0  0.6200596E+07  0.9118800E+02  0.7818608E-02  0.1180000E+00
       11   -1    0    0    0    0  0.00000000000E+00  0.00000000000E+00  0.39999999673E+01  0.40000000000E+01  0.51109989000E-03 0. -1.
     -623   -1    0    0    0    0  0.00000000000E+00  0.00000000000E+00  0.12525980253E-10  0.17130000000E+03  0.17130000000E+03 0.  1.
       11    1    1    2    0    0  0.11038248409E-03  0.10980981899E-02  0.16738950609E-01  0.16783077572E-01  0.51109989000E-03 0.  1.
     -623    1    1    2    0    0  0.10486278033E-02 -0.35123133129E-03  0.24518447453E-03  0.17130000000E+03  0.17130000000E+03 0.  1.
      622    1    1    2    0    0 -0.11590102874E-02 -0.74686685859E-03  0.39830158323E+01  0.39832169187E+01  0.40000000000E-01 0. -1.
</event>
<event>
 5   0  0.6200596E+07  0.9118800E+02  0.7818608E-02  0.1180000E+00
       11   -1    0    0    0    0  0.00000000000E+00  0.00000000000E+00  0.39999999673E+01  0.40000000000E+01  0.51109989000E-03 0. -1.
     -623   -1    0    0    0    0  0.00000000000E+00  0.00000000000E+00  0.12525980253E-10  0.17130000000E+03  0.17130000000E+03 0. -1.
       11    1    1    2    0    0  0.23793737166E-02  0.42313605667E-02  0.17084429913E+00  0.17091401814E+00  0.51109989000E-03 0. -1.
     -623    1    1    2    0    0 -0.87899480749E-02 -0.54955205308E-02  0.28450835566E-03  0.17130000031E+03  0.17130000000E+03 0. -1.
      622    1    1    2    0    0  0.64105743582E-02  0.12641599641E-02  0.38288711599E+01  0.38290856679E+01  0.40000000000E-01 0. -1.
</event>
<event>
 5   0  0.6200596E+07  0.9118800E+02  0.7818608E-02  0.1180000E+00
       11   -1    0    0    0    0  0.00000000000E+00  0.00000000000E+00  0.39999999673E+01  0.40000000000E+01  0.51109989000E-03 0. -1.
     -623   -1    0    0    0    0  0.00000000000E+00  0.00000000000E+00  0.12525980253E-10  0.17130000000E+03  0.17130000000E+03 0. -1.
       11    1    1    2    0    0 -0.48149993655E-02  0.52804808637E-02  0.95265135697E-01  0.95534156186E-01  0.51109989000E-03 0. -1.
     -623    1    1    2    0    0  0.62788397985E-03 -0.28649478944E-02  0.47690504923E-03  0.17130000003E+03  0.17130000000E+03 0. -1.
      622    1    1    2    0    0  0.41871153856E-02 -0.24155329693E-02  0.39042579266E+01  0.39044658180E+01  0.40000000000E-01 0. -1.
</event>
<event>
 5   0  0.6200596E+07  0.9118800E+02  0.7818608E-02  0.1180000E+00
       11   -1    0    0    0    0  0.00000000000E+00  0.00000000000E+00  0.39999999673E+01  0.40000000000E+01  0.51109989000E-03 0. -1.
     -623   -1    0    0    0    0  0.00000000000E+00  0.00000000000E+00  0.12525980253E-10  0.17130000000E+03  0.17130000000E+03 0. -1.
       11    1    1    2    0    0  0.28058407192E-01  0.20759519121E-01  0.14430940224E+01  0.14435161414E+01  0.51109989000E-03 0. -1.
     -623    1    1    2    0    0  0.59105118308E-03 -0.36935220016E-02  0.95260871180E-03  0.17130000004E+03  0.17130000000E+03 0. -1.
      622    1    1    2    0    0 -0.28649458375E-01 -0.17065997119E-01  0.25559533363E+01  0.25564838151E+01  0.40000000000E-01 0. -1.
</event>
<event>
 5   0  0.6200596E+07  0.9118800E+02  0.7818608E-02  0.1180000E+00
       11   -1    0    0    0    0  0.00000000000E+00  0.00000000000E+00  0.39999999673E+01  0.40000000000E+01  0.51109989000E-03 0. -1.
     -623   -1    0    0    0    0  0.00000000000E+00  0.00000000000E+00  0.12525980253E-10  0.17130000000E+03  0.17130000000E+03 0. -1.
       11    1    1    2    0    0  0.21885218586E-03  0.18127643212E-02  0.21918358795E+00  0.21919178921E+00  0.51109989000E-03 0. -1.
     -623    1    1    2    0    0 -0.26522285516E-04  0.15581411594E-02  0.22128444611E-03  0.17130000001E+03  0.17130000000E+03 0. -1.
      622    1    1    2    0    0 -0.19232990034E-03 -0.33709054807E-02  0.37805950950E+01  0.37808082036E+01  0.40000000000E-01 0. -1.
</event>
<event>
 5   0  0.6200596E+07  0.9118800E+02  0.7818608E-02  0.1180000E+00
       11   -1    0    0    0    0  0.00000000000E+00  0.00000000000E+00  0.39999999673E+01  0.40000000000E+01  0.51109989000E-03 0. -1.
     -623   -1    0    0    0    0  0.00000000000E+00  0.00000000000E+00  0.12525980253E-10  0.17130000000E+03  0.17130000000E+03 0.  1.
       11    1    1    2    0    0 -0.74783537671E-02 -0.31671911938E-02  0.11201999951E-01  0.13845681604E-01  0.51109989000E-03 0. -1.
     -623    1    1    2    0    0  0.16848281349E-02 -0.12569247964E-02  0.28510510091E-02  0.17130000004E+03  0.17130000000E+03 0.  1.
      622    1    1    2    0    0  0.57935256322E-02  0.44241159901E-02  0.39859469164E+01  0.39861542818E+01  0.40000000000E-01 0. -1.
</event>
<event>
 5   0  0.6200596E+07  0.9118800E+02  0.7818608E-02  0.1180000E+00
       11   -1    0    0    0    0  0.00000000000E+00  0.00000000000E+00  0.39999999673E+01  0.40000000000E+01  0.51109989000E-03 0.  1.
     -623   -1    0    0    0    0  0.00000000000E+00  0.00000000000E+00  0.12525980253E-10  0.17130000000E+03  0.17130000000E+03 0.  1.
       11    1    1    2    0    0  0.20357843419E-03 -0.29345060110E-03  0.12369180250E-01  0.12384885912E-01  0.51109989000E-03 0.  1.
     -623    1    1    2    0    0  0.11071104247E-02 -0.15374566148E-04  0.21653032632E-03  0.17130000000E+03  0.17130000000E+03 0.  1.
      622    1    1    2    0    0 -0.13106888589E-02  0.30882516724E-03  0.39874142568E+01  0.39876151104E+01  0.40000000000E-01 0.  1.
</event>
<event>
 5   0  0.6200596E+07  0.9118800E+02  0.7818608E-02  0.1180000E+00
       11   -1    0    0    0    0  0.00000000000E+00  0.00000000000E+00  0.39999999673E+01  0.40000000000E+01  0.51109989000E-03 0. -1.
     -623   -1    0    0    0    0  0.00000000000E+00  0.00000000000E+00  0.12525980253E-10  0.17130000000E+03  0.17130000000E+03 0. -1.
       11    1    1    2    0    0  0.93379631930E-02 -0.49940807203E-02  0.38781297902E+00  0.38795786667E+00  0.51109989000E-03 0. -1.
     -623    1    1    2    0    0 -0.22484031443E-02  0.70643304529E-02  0.37405530189E-03  0.17130000016E+03  0.17130000000E+03 0. -1.
      622    1    1    2    0    0 -0.70895600488E-02 -0.20702497326E-02  0.36118129330E+01  0.36120419725E+01  0.40000000000E-01 0.  1.
</event>
<event>
 5   0  0.6200596E+07  0.9118800E+02  0.7818608E-02  0.1180000E+00
       11   -1    0    0    0    0  0.00000000000E+00  0.00000000000E+00  0.39999999673E+01  0.40000000000E+01  0.51109989000E-03 0. -1.
     -623   -1    0    0    0    0  0.00000000000E+00  0.00000000000E+00  0.12525980253E-10  0.17130000000E+03  0.17130000000E+03 0.  1.
       11    1    1    2    0    0  0.59238575263E-02 -0.19815578183E-02  0.11375391445E+00  0.11392643649E+00  0.51109989000E-03 0. -1.
     -623    1    1    2    0    0  0.37224998085E-02  0.10799939649E-01  0.40071876646E-03  0.17130000038E+03  0.17130000000E+03 0.  1.
      622    1    1    2    0    0 -0.96463573348E-02 -0.88183818310E-02  0.38858453341E+01  0.38860731821E+01  0.40000000000E-01 0. -1.
</event>
<event>
 5   0  0.6200596E+07  0.9118800E+02  0.7818608E-02  0.1180000E+00
       11   -1    0    0    0    0  0.00000000000E+00  0.00000000000E+00  0.39999999673E+01  0.40000000000E+01  0.51109989000E-03 0.  1.
     -623   -1    0    0    0    0  0.00000000000E+00  0.00000000000E+00  0.12525980253E-10  0.17130000000E+03  0.17130000000E+03 0.  1.
       11    1    1    2    0    0  0.27749693885E-02 -0.25747586040E-02  0.38932048134E-01  0.39118990641E-01  0.51109989000E-03 0.  1.
     -623    1    1    2    0    0  0.74554343644E-03  0.27592740458E-02  0.39048350547E-03  0.17130000002E+03  0.17130000000E+03 0.  1.
      622    1    1    2    0    0 -0.35205128249E-02 -0.18451544181E-03  0.39606774357E+01  0.39608809851E+01  0.40000000000E-01 0.  1.
</event>
<event>
 5   0  0.6200596E+07  0.9118800E+02  0.7818608E-02  0.1180000E+00
       11   -1    0    0    0    0  0.00000000000E+00  0.00000000000E+00  0.39999999673E+01  0.40000000000E+01  0.51109989000E-03 0. -1.
     -623   -1    0    0    0    0  0.00000000000E+00  0.00000000000E+00  0.12525980253E-10  0.17130000000E+03  0.17130000000E+03 0. -1.
       11    1    1    2    0    0 -0.32846127989E-02 -0.69039292398E-03  0.63143008315E-01  0.63234215762E-01  0.51109989000E-03 0. -1.
     -623    1    1    2    0    0  0.74267247705E-03  0.21072822022E-02  0.29548306423E-03  0.17130000001E+03  0.17130000000E+03 0. -1.
      622    1    1    2    0    0  0.25419403218E-02 -0.14168892782E-02  0.39365614760E+01  0.39367657694E+01  0.40000000000E-01 0. -1.
</event>
<event>
 5   0  0.6200596E+07  0.9118800E+02  0.7818608E-02  0.1180000E+00
       11   -1    0    0    0    0  0.00000000000E+00  0.00000000000E+00  0.39999999673E+01  0.40000000000E+01  0.51109989000E-03 0. -1.
     -623   -1    0    0    0    0  0.00000000000E+00  0.00000000000E+00  0.12525980253E-10  0.17130000000E+03  0.17130000000E+03 0.  1.
       11    1    1    2    0    0  0.38092654800E-01 -0.19905769580E-02  0.11152367498E+01  0.11158890098E+01  0.51109989000E-03 0. -1.
     -623    1    1    2    0    0 -0.16513965031E-02 -0.11344190663E-01  0.11910949566E-02  0.17130000039E+03  0.17130000000E+03 0.  1.
      622    1    1    2    0    0 -0.36441258297E-01  0.13334767621E-01  0.28835721226E+01  0.28841106025E+01  0.40000000000E-01 0.  1.
</event>
<event>
 5   0  0.6200596E+07  0.9118800E+02  0.7818608E-02  0.1180000E+00
       11   -1    0    0    0    0  0.00000000000E+00  0.00000000000E+00  0.39999999673E+01  0.40000000000E+01  0.51109989000E-03 0.  1.
     -623   -1    0    0    0    0  0.00000000000E+00  0.00000000000E+00  0.12525980253E-10  0.17130000000E+03  0.17130000000E+03 0.  1.
       11    1    1    2    0    0  0.38697004376E-02  0.30145655780E-02  0.72598252707E-01  0.72765580496E-01  0.51109989000E-03 0.  1.
     -623    1    1    2    0    0 -0.79550354603E-03  0.77793337817E-03  0.37404472061E-03  0.17130000000E+03  0.17130000000E+03 0.  1.
      622    1    1    2    0    0 -0.30741968916E-02 -0.37924989562E-02  0.39270276699E+01  0.39272344155E+01  0.40000000000E-01 0.  1.
</event>
<event>
 5   0  0.6200596E+07  0.9118800E+02  0.7818608E-02  0.1180000E+00
       11   -1    0    0    0    0  0.00000000000E+00  0.00000000000E+00  0.39999999673E+01  0.40000000000E+01  0.51109989000E-03 0. -1.
     -623   -1    0    0    0    0  0.00000000000E+00  0.00000000000E+00  0.12525980253E-10  0.17130000000E+03  0.17130000000E+03 0.  1.
       11    1    1    2    0    0  0.29856558668E-02  0.76513249921E-02  0.23970787477E+00  0.23984908456E+00  0.51109989000E-03 0. -1.
     -623    1    1    2    0    0  0.33946825524E-02 -0.17829525647E-01  0.37409236087E-03  0.17130000096E+03  0.17130000000E+03 0.  1.
      622    1    1    2    0    0 -0.63803384192E-02  0.10178200655E-01  0.37599180002E+01  0.37601499535E+01  0.40000000000E-01 0. -1.
</event>
<event>
 5   0  0.6200596E+07  0.9118800E+02  0.7818608E-02  0.1180000E+00
       11   -1    0    0    0    0  0.00000000000E+00  0.00000000000E+00  0.39999999673E+01  0.40000000000E+01  0.51109989000E-03 0. -1.
     -623   -1    0    0    0    0  0.00000000000E+00  0.00000000000E+00  0.12525980253E-10  0.17130000000E+03  0.17130000000E+03 0. -1.
       11    1    1    2    0    0  0.80885393870E-02 -0.11339203189E-01  0.91843220038E+00  0.91853795235E+00  0.51109989000E-03 0. -1.
     -623    1    1    2    0    0 -0.46377562703E-02  0.72284796959E-02  0.37023747484E-03  0.17130000022E+03  0.17130000000E+03 0. -1.
      622    1    1    2    0    0 -0.34507831167E-02  0.41107234934E-02  0.30811975295E+01  0.30814618320E+01  0.40000000000E-01 0.  0.
</event>
<event>
 5   0  0.6200596E+07  0.9118800E+02  0.7818608E-02  0.1180000E+00
       11   -1    0    0    0    0  0.00000000000E+00  0.00000000000E+00  0.39999999673E+01  0.40000000000E+01  0.51109989000E-03 0.  1.
     -623   -1    0    0    0    0  0.00000000000E+00  0.00000000000E+00  0.12525980253E-10  0.17130000000E+03  0.17130000000E+03 0. -1.
       11    1    1    2    0    0 -0.16058158102E-01  0.48294335872E-01  0.80718586835E-01  0.95425147640E-01  0.51109989000E-03 0.  1.
     -623    1    1    2    0    0  0.27271923480E-01 -0.43273751338E-01  0.14939041685E-01  0.17130000829E+03  0.17130000000E+03 0. -1.
      622    1    1    2    0    0 -0.11213765378E-01 -0.50205845342E-02  0.39043423388E+01  0.39045665641E+01  0.40000000000E-01 0.  1.
</event>
<event>
 5   0  0.6200596E+07  0.9118800E+02  0.7818608E-02  0.1180000E+00
       11   -1    0    0    0    0  0.00000000000E+00  0.00000000000E+00  0.39999999673E+01  0.40000000000E+01  0.51109989000E-03 0.  1.
     -623   -1    0    0    0    0  0.00000000000E+00  0.00000000000E+00  0.12525980253E-10  0.17130000000E+03  0.17130000000E+03 0. -1.
       11    1    1    2    0    0 -0.12452288694E-02  0.50912552925E-02  0.52869274460E+00  0.52871897156E+00  0.51109989000E-03 0.  1.
     -623    1    1    2    0    0 -0.11075004036E-03 -0.32576334417E-03  0.26020117722E-03  0.17130000000E+03  0.17130000000E+03 0. -1.
      622    1    1    2    0    0  0.13559789097E-02 -0.47654919483E-02  0.34710470216E+01  0.34712810279E+01  0.40000000000E-01 0.  1.
</event>
<event>
 5   0  0.6200596E+07  0.9118800E+02  0.7818608E-02  0.1180000E+00
       11   -1    0    0    0    0  0.00000000000E+00  0.00000000000E+00  0.39999999673E+01  0.40000000000E+01  0.51109989000E-03 0.  1.
     -623   -1    0    0    0    0  0.00000000000E+00  0.00000000000E+00  0.12525980253E-10  0.17130000000E+03  0.17130000000E+03 0. -1.
       11    1    1    2    0    0  0.23485605409E-02 -0.41069427584E-01  0.99638927750E-02  0.42329115260E-01  0.51109989000E-03 0.  1.
     -623    1    1    2    0    0 -0.15315168666E-02  0.37311046539E-01  0.32576371241E-01  0.17130000717E+03  0.17130000000E+03 0. -1.
      622    1    1    2    0    0 -0.81704367429E-03  0.37583810447E-02  0.39574597033E+01  0.39576637170E+01  0.40000000000E-01 0.  1.
</event>
<event>
 5   0  0.6200596E+07  0.9118800E+02  0.7818608E-02  0.1180000E+00
       11   -1    0    0    0    0  0.00000000000E+00  0.00000000000E+00  0.39999999673E+01  0.40000000000E+01  0.51109989000E-03 0. -1.
     -623   -1    0    0    0    0  0.00000000000E+00  0.00000000000E+00  0.12525980253E-10  0.17130000000E+03  0.17130000000E+03 0.  1.
       11    1    1    2    0    0  0.61533530220E-03 -0.21801765097E-03  0.13110888722E-01  0.13137077006E-01  0.51109989000E-03 0. -1.
     -623    1    1    2    0    0  0.39394422464E-03 -0.90466704201E-04  0.22696003088E-03  0.17130000000E+03  0.17130000000E+03 0.  1.
      622    1    1    2    0    0 -0.10092795268E-02  0.30848435517E-03  0.39866621186E+01  0.39868629224E+01  0.40000000000E-01 0. -1.
</event>
<event>
 5   0  0.6200596E+07  0.9118800E+02  0.7818608E-02  0.1180000E+00
       11   -1    0    0    0    0  0.00000000000E+00  0.00000000000E+00  0.39999999673E+01  0.40000000000E+01  0.51109989000E-03 0. -1.
     -623   -1    0    0    0    0  0.00000000000E+00  0.00000000000E+00  0.12525980253E-10  0.17130000000E+03  0.17130000000E+03 0.  1.
       11    1    1    2    0    0 -0.19710567283E-01  0.67385648310E-01  0.11892693709E+01  0.11913400983E+01  0.51109989000E-03 0. -1.
     -623    1    1    2    0    0  0.41699241941E-01 -0.70969153793E-01  0.24637092710E-02  0.17130001979E+03  0.17130000000E+03 0.  1.
      622    1    1    2    0    0 -0.21988674658E-01  0.35835054822E-02  0.28082668871E+01  0.28086401074E+01  0.40000000000E-01 0. -1.
</event>
<event>
 5   0  0.6200596E+07  0.9118800E+02  0.7818608E-02  0.1180000E+00
       11   -1    0    0    0    0  0.00000000000E+00  0.00000000000E+00  0.39999999673E+01  0.40000000000E+01  0.51109989000E-03 0. -1.
     -623   -1    0    0    0    0  0.00000000000E+00  0.00000000000E+00  0.12525980253E-10  0.17130000000E+03  0.17130000000E+03 0. -1.
       11    1    1    2    0    0 -0.86003754077E-03  0.63422411125E-03  0.41105371254E+00  0.41105541928E+00  0.51109989000E-03 0. -1.
     -623    1    1    2    0    0  0.21257816103E-03 -0.50915177727E-02  0.22749018478E-03  0.17130000008E+03  0.17130000000E+03 0. -1.
      622    1    1    2    0    0  0.64745937973E-03  0.44572936614E-02  0.35887187646E+01  0.35889445048E+01  0.40000000000E-01 0. -1.
</event>
<event>
 5   0  0.6200596E+07  0.9118800E+02  0.7818608E-02  0.1180000E+00
       11   -1    0    0    0    0  0.00000000000E+00  0.00000000000E+00  0.39999999673E+01  0.40000000000E+01  0.51109989000E-03 0. -1.
     -623   -1    0    0    0    0  0.00000000000E+00  0.00000000000E+00  0.12525980253E-10  0.17130000000E+03  0.17130000000E+03 0.  1.
       11    1    1    2    0    0  0.93983277885E-03 -0.28914278009E-02  0.22081510111E+00  0.22083662228E+00  0.51109989000E-03 0. -1.
     -623    1    1    2    0    0 -0.19467542824E-02  0.15960506849E-02  0.23355635170E-03  0.17130000002E+03  0.17130000000E+03 0.  1.
      622    1    1    2    0    0  0.10069215036E-02  0.12953771159E-02  0.37789513099E+01  0.37791633591E+01  0.40000000000E-01 0. -1.
</event>
<event>
 5   0  0.6200596E+07  0.9118800E+02  0.7818608E-02  0.1180000E+00
       11   -1    0    0    0    0  0.00000000000E+00  0.00000000000E+00  0.39999999673E+01  0.40000000000E+01  0.51109989000E-03 0. -1.
     -623   -1    0    0    0    0  0.00000000000E+00  0.00000000000E+00  0.12525980253E-10  0.17130000000E+03  0.17130000000E+03 0.  1.
       11    1    1    2    0    0  0.23006138505E-02 -0.47645896210E-02  0.16702770992E+00  0.16711227136E+00  0.51109989000E-03 0. -1.
     -623    1    1    2    0    0  0.91795109529E-03  0.78092479922E-03  0.29668062242E-03  0.17130000000E+03  0.17130000000E+03 0.  1.
      622    1    1    2    0    0 -0.32185649458E-02  0.39836648218E-02  0.38326755768E+01  0.38328877241E+01  0.40000000000E-01 0. -1.
</event>
<event>
 5   0  0.6200596E+07  0.9118800E+02  0.7818608E-02  0.1180000E+00
       11   -1    0    0    0    0  0.00000000000E+00  0.00000000000E+00  0.39999999673E+01  0.40000000000E+01  0.51109989000E-03 0.  1.
     -623   -1    0    0    0    0  0.00000000000E+00  0.00000000000E+00  0.12525980253E-10  0.17130000000E+03  0.17130000000E+03 0. -1.
       11    1    1    2    0    0 -0.86102694212E-02 -0.65696263234E-03  0.73621398552E+00  0.73626480429E+00  0.51109989000E-03 0.  1.
     -623    1    1    2    0    0 -0.34511167422E-03 -0.47379899146E-03  0.30839774631E-03  0.17130000000E+03  0.17130000000E+03 0. -1.
      622    1    1    2    0    0  0.89553810954E-02  0.11307616238E-02  0.32634775841E+01  0.32637351944E+01  0.40000000000E-01 0.  0.
</event>
<event>
 5   0  0.6200596E+07  0.9118800E+02  0.7818608E-02  0.1180000E+00
       11   -1    0    0    0    0  0.00000000000E+00  0.00000000000E+00  0.39999999673E+01  0.40000000000E+01  0.51109989000E-03 0. -1.
     -623   -1    0    0    0    0  0.00000000000E+00  0.00000000000E+00  0.12525980253E-10  0.17130000000E+03  0.17130000000E+03 0. -1.
       11    1    1    2    0    0  0.64149360522E-02 -0.87841468319E-02  0.16100912591E+01  0.16101280807E+01  0.51109989000E-03 0. -1.
     -623    1    1    2    0    0  0.55886796161E-02 -0.32312449856E-01  0.75828123729E-03  0.17130000314E+03  0.17130000000E+03 0. -1.
      622    1    1    2    0    0 -0.12003615668E-01  0.41096596688E-01  0.23891504271E+01  0.23898687789E+01  0.40000000000E-01 0.  0.
</event>
<event>
 5   0  0.6200596E+07  0.9118800E+02  0.7818608E-02  0.1180000E+00
       11   -1    0    0    0    0  0.00000000000E+00  0.00000000000E+00  0.39999999673E+01  0.40000000000E+01  0.51109989000E-03 0.  1.
     -623   -1    0    0    0    0  0.00000000000E+00  0.00000000000E+00  0.12525980253E-10  0.17130000000E+03  0.17130000000E+03 0. -1.
       11    1    1    2    0    0 -0.33292472832E-02 -0.89687177042E-02  0.55177541473E-02  0.11055705191E-01  0.51109989000E-03 0.  1.
     -623    1    1    2    0    0 -0.34017599682E-02  0.15209086498E-01  0.57498440763E-02  0.17130000081E+03  0.17130000000E+03 0. -1.
      622    1    1    2    0    0  0.67310072514E-02 -0.62403687942E-02  0.39887323691E+01  0.39889434894E+01  0.40000000000E-01 0.  1.
</event>
<event>
 5   0  0.6200596E+07  0.9118800E+02  0.7818608E-02  0.1180000E+00
       11   -1    0    0    0    0  0.00000000000E+00  0.00000000000E+00  0.39999999673E+01  0.40000000000E+01  0.51109989000E-03 0.  1.
     -623   -1    0    0    0    0  0.00000000000E+00  0.00000000000E+00  0.12525980253E-10  0.17130000000E+03  0.17130000000E+03 0.  1.
       11    1    1    2    0    0 -0.70432971664E-03  0.80100250749E-03  0.11971120683E-01  0.12029407176E-01  0.51109989000E-03 0.  1.
     -623    1    1    2    0    0 -0.78758258522E-03  0.20675012135E-03  0.25927072853E-03  0.17130000000E+03  0.17130000000E+03 0.  1.
      622    1    1    2    0    0  0.14919123019E-02 -0.10077526288E-02  0.39877695759E+01  0.39879705907E+01  0.40000000000E-01 0.  1.
</event>
<event>
 5   0  0.6200596E+07  0.9118800E+02  0.7818608E-02  0.1180000E+00
       11   -1    0    0    0    0  0.00000000000E+00  0.00000000000E+00  0.39999999673E+01  0.40000000000E+01  0.51109989000E-03 0. -1.
     -623   -1    0    0    0    0  0.00000000000E+00  0.00000000000E+00  0.12525980253E-10  0.17130000000E+03  0.17130000000E+03 0. -1.
       11    1    1    2    0    0  0.68557428284E-03  0.25868444849E-02  0.58286208638E-01  0.58349851035E-01  0.51109989000E-03 0. -1.
     -623    1    1    2    0    0 -0.22760271985E-03  0.74528874710E-04  0.26750116384E-03  0.17130000000E+03  0.17130000000E+03 0. -1.
      622    1    1    2    0    0 -0.45797156299E-03 -0.26613733596E-02  0.39414462576E+01  0.39416501486E+01  0.40000000000E-01 0. -1.
</event>
<event>
 5   0  0.6200596E+07  0.9118800E+02  0.7818608E-02  0.1180000E+00
       11   -1    0    0    0    0  0.00000000000E+00  0.00000000000E+00  0.39999999673E+01  0.40000000000E+01  0.51109989000E-03 0.  1.
     -623   -1    0    0    0    0  0.00000000000E+00  0.00000000000E+00  0.12525980253E-10  0.17130000000E+03  0.17130000000E+03 0. -1.
       11    1    1    2    0    0 -0.22084908582E-03  0.12307727175E-02  0.65940803370E-02  0.67310245696E-02  0.51109989000E-03 0.  1.
     -623    1    1    2    0    0  0.11085964130E-02  0.70695339351E-03  0.33782796177E-03  0.17130000001E+03  0.17130000000E+03 0. -1.
      622    1    1    2    0    0 -0.88774732718E-03 -0.19377261111E-02  0.39930680591E+01  0.39932689701E+01  0.40000000000E-01 0.  1.
</event>
<event>
 5   0  0.6200596E+07  0.9118800E+02  0.7818608E-02  0.1180000E+00
       11   -1    0    0    0    0  0.00000000000E+00  0.00000000000E+00  0.39999999673E+01  0.40000000000E+01  0.51109989000E-03 0. -1.
     -623   -1    0    0    0    0  0.00000000000E+00  0.00000000000E+00  0.12525980253E-10  0.17130000000E+03  0.17130000000E+03 0. -1.
       11    1    1    2    0    0  0.11453808156E-01  0.33928726854E-01  0.47728945726E+00  0.47863121029E+00  0.51109989000E-03 0. -1.
     -623    1    1    2    0    0 -0.11165625919E-01  0.40441721538E-02  0.17741054905E-02  0.17130000042E+03  0.17130000000E+03 0. -1.
      622    1    1    2    0    0 -0.28818223747E-03 -0.37972899007E-01  0.35209364046E+01  0.35213683689E+01  0.40000000000E-01 0. -1.
</event>
<event>
 5   0  0.6200596E+07  0.9118800E+02  0.7818608E-02  0.1180000E+00
       11   -1    0    0    0    0  0.00000000000E+00  0.00000000000E+00  0.39999999673E+01  0.40000000000E+01  0.51109989000E-03 0.  1.
     -623   -1    0    0    0    0  0.00000000000E+00  0.00000000000E+00  0.12525980253E-10  0.17130000000E+03  0.17130000000E+03 0. -1.
       11    1    1    2    0    0  0.25100386867E-03 -0.44300587529E-03  0.94317454359E-02  0.94592969770E-02  0.51109989000E-03 0.  1.
     -623    1    1    2    0    0 -0.13125576514E-02 -0.53788663480E-03  0.22826581137E-03  0.17130000001E+03  0.17130000000E+03 0. -1.
      622    1    1    2    0    0  0.10615537827E-02  0.98089251010E-03  0.39903399561E+01  0.39905406970E+01  0.40000000000E-01 0.  1.
</event>
<event>
 5   0  0.6200596E+07  0.9118800E+02  0.7818608E-02  0.1180000E+00
       11   -1    0    0    0    0  0.00000000000E+00  0.00000000000E+00  0.39999999673E+01  0.40000000000E+01  0.51109989000E-03 0. -1.
     -623   -1    0    0    0    0  0.00000000000E+00  0.00000000000E+00  0.12525980253E-10  0.17130000000E+03  0.17130000000E+03 0. -1.
       11    1    1    2    0    0  0.36785319025E-02  0.99694516606E-02  0.15230662927E+00  0.15267773938E+00  0.51109989000E-03 0. -1.
     -623    1    1    2    0    0 -0.30606907514E-02 -0.23115823840E-02  0.58673517446E-03  0.17130000004E+03  0.17130000000E+03 0. -1.
      622    1    1    2    0    0 -0.61784115109E-03 -0.76578692766E-02  0.38471066029E+01  0.38473222167E+01  0.40000000000E-01 0. -1.
</event>
<event>
 5   0  0.6200596E+07  0.9118800E+02  0.7818608E-02  0.1180000E+00
       11   -1    0    0    0    0  0.00000000000E+00  0.00000000000E+00  0.39999999673E+01  0.40000000000E+01  0.51109989000E-03 0. -1.
     -623   -1    0    0    0    0  0.00000000000E+00  0.00000000000E+00  0.12525980253E-10  0.17130000000E+03  0.17130000000E+03 0. -1.
       11    1    1    2    0    0  0.64773697694E-02 -0.41476324657E-02  0.96182858134E-02  0.12326062557E-01  0.51109989000E-03 0. -1.
     -623    1    1    2    0    0 -0.42397713824E-02  0.64610550953E-02  0.29098653147E-02  0.17130000020E+03  0.17130000000E+03 0. -1.
      622    1    1    2    0    0 -0.22375983870E-02 -0.23134226296E-02  0.39874718162E+01  0.39876737384E+01  0.40000000000E-01 0. -1.
</event>
<event>
 5   0  0.6200596E+07  0.9118800E+02  0.7818608E-02  0.1180000E+00
       11   -1    0    0    0    0  0.00000000000E+00  0.00000000000E+00  0.39999999673E+01  0.40000000000E+01  0.51109989000E-03 0. -1.
     -623   -1    0    0    0    0  0.00000000000E+00  0.00000000000E+00  0.12525980253E-10  0.17130000000E+03  0.17130000000E+03 0. -1.
       11    1    1    2    0    0  0.90086607809E-02 -0.56621908938E-01  0.30929890700E+01  0.30935204614E+01  0.51109989000E-03 0. -1.
     -623    1    1    2    0    0 -0.27160007212E-01  0.14344715124E-01  0.25866088637E-02  0.17130000277E+03  0.17130000000E+03 0. -1.
      622    1    1    2    0    0  0.18151346431E-01  0.42277193814E-01  0.90442428846E+00  0.90647676532E+00  0.40000000000E-01 0. -1.
</event>
<event>
 5   0  0.6200596E+07  0.9118800E+02  0.7818608E-02  0.1180000E+00
       11   -1    0    0    0    0  0.00000000000E+00  0.00000000000E+00  0.39999999673E+01  0.40000000000E+01  0.51109989000E-03 0.  1.
     -623   -1    0    0    0    0  0.00000000000E+00  0.00000000000E+00  0.12525980253E-10  0.17130000000E+03  0.17130000000E+03 0. -1.
       11    1    1    2    0    0  0.17048846201E-02  0.62352632135E-02  0.18530198867E+00  0.18541540757E+00  0.51109989000E-03 0.  1.
     -623    1    1    2    0    0 -0.32658651400E-02 -0.81678720849E-02  0.32414860162E-03  0.17130000023E+03  0.17130000000E+03 0. -1.
      622    1    1    2    0    0  0.15609805198E-02  0.19326088714E-02  0.38143738301E+01  0.38145843663E+01  0.40000000000E-01 0.  1.
</event>
<event>
 5   0  0.6200596E+07  0.9118800E+02  0.7818608E-02  0.1180000E+00
       11   -1    0    0    0    0  0.00000000000E+00  0.00000000000E+00  0.39999999673E+01  0.40000000000E+01  0.51109989000E-03 0.  1.
     -623   -1    0    0    0    0  0.00000000000E+00  0.00000000000E+00  0.12525980253E-10  0.17130000000E+03  0.17130000000E+03 0. -1.
       11    1    1    2    0    0 -0.74759312072E-02  0.61910589008E-02  0.64926302357E-01  0.65649864562E-01  0.51109989000E-03 0.  1.
     -623    1    1    2    0    0  0.42012385527E-03 -0.48563898470E-02  0.93349760803E-03  0.17130000007E+03  0.17130000000E+03 0. -1.
      622    1    1    2    0    0  0.70558073519E-02 -0.13346690537E-02  0.39341401674E+01  0.39343500635E+01  0.40000000000E-01 0.  1.
</event>
<event>
 5   0  0.6200596E+07  0.9118800E+02  0.7818608E-02  0.1180000E+00
       11   -1    0    0    0    0  0.00000000000E+00  0.00000000000E+00  0.39999999673E+01  0.40000000000E+01  0.51109989000E-03 0. -1.
     -623   -1    0    0    0    0  0.00000000000E+00  0.00000000000E+00  0.12525980253E-10  0.17130000000E+03  0.17130000000E+03 0. -1.
       11    1    1    2    0    0  0.19563997778E-02 -0.19580526682E-03  0.99344842717E-02  0.10140070992E-01  0.51109989000E-03 0. -1.
     -623    1    1    2    0    0  0.63381271597E-03  0.64000838942E-03  0.40693581463E-03  0.17130000000E+03  0.17130000000E+03 0. -1.
      622    1    1    2    0    0 -0.25902124937E-02 -0.44420312260E-03  0.39896585473E+01  0.39898599262E+01  0.40000000000E-01 0. -1.
</event>
<event>
 5   0  0.6200596E+07  0.9118800E+02  0.7818608E-02  0.1180000E+00
       11   -1    0    0    0    0  0.00000000000E+00  0.00000000000E+00  0.39999999673E+01  0.40000000000E+01  0.51109989000E-03 0.  1.
     -623   -1    0    0    0    0  0.00000000000E+00  0.00000000000E+00  0.12525980253E-10  0.17130000000E+03  0.17130000000E+03 0.  1.
       11    1    1    2    0    0 -0.57860841254E-02  0.45579379646E-02  0.64380993525E+00  0.64385227150E+00  0.51109989000E-03 0.  1.
     -623    1    1    2    0    0  0.22759762256E-02 -0.13780060932E-02  0.28404379443E-03  0.17130000002E+03  0.17130000000E+03 0.  1.
      622    1    1    2    0    0  0.35101078998E-02 -0.31799318713E-02  0.33559059883E+01  0.33561477076E+01  0.40000000000E-01 0.  1.
</event>
<event>
 5   0  0.6200596E+07  0.9118800E+02  0.7818608E-02  0.1180000E+00
       11   -1    0    0    0    0  0.00000000000E+00  0.00000000000E+00  0.39999999673E+01  0.40000000000E+01  0.51109989000E-03 0.  1.
     -623   -1    0    0    0    0  0.00000000000E+00  0.00000000000E+00  0.12525980253E-10  0.17130000000E+03  0.17130000000E+03 0. -1.
       11    1    1    2    0    0  0.17260587983E-02 -0.31425304561E-03  0.51963899438E-01  0.51996020030E-01  0.51109989000E-03 0.  1.
     -623    1    1    2    0    0 -0.20699758869E-02  0.29917409509E-02  0.23568893556E-03  0.17130000004E+03  0.17130000000E+03 0. -1.
      622    1    1    2    0    0  0.34391708863E-03 -0.26774879053E-02  0.39478003790E+01  0.39480039412E+01  0.40000000000E-01 0.  1.
</event>
<event>
 5   0  0.6200596E+07  0.9118800E+02  0.7818608E-02  0.1180000E+00
       11   -1    0    0    0    0  0.00000000000E+00  0.00000000000E+00  0.39999999673E+01  0.40000000000E+01  0.51109989000E-03 0.  1.
     -623   -1    0    0    0    0  0.00000000000E+00  0.00000000000E+00  0.12525980253E-10  0.17130000000E+03  0.17130000000E+03 0. -1.
       11    1    1    2    0    0  0.21940388731E-02 -0.46612458272E-01  0.11334499145E+01  0.11344102014E+01  0.51109989000E-03 0.  1.
     -623    1    1    2    0    0  0.42444205462E-01 -0.88121468277E-02  0.21288333215E-02  0.17130000550E+03  0.17130000000E+03 0. -1.
      622    1    1    2    0    0 -0.44638244335E-01  0.55424605099E-01  0.28644212195E+01  0.28655843004E+01  0.40000000000E-01 0.  0.
</event>
<event>
 5   0  0.6200596E+07  0.9118800E+02  0.7818608E-02  0.1180000E+00
       11   -1    0    0    0    0  0.00000000000E+00  0.00000000000E+00  0.39999999673E+01  0.40000000000E+01  0.51109989000E-03 0. -1.
     -623   -1    0    0    0    0  0.00000000000E+00  0.00000000000E+00  0.12525980253E-10  0.17130000000E+03  0.17130000000E+03 0. -1.
       11    1    1    2    0    0  0.41470734846E-03  0.16356621041E-03  0.13862340642E-01  0.13878920940E-01  0.51109989000E-03 0. -1.
     -623    1    1    2    0    0 -0.27049561111E-03  0.77932289028E-03  0.21736532810E-03  0.17130000000E+03  0.17130000000E+03 0. -1.
      622    1    1    2    0    0 -0.14421173735E-03 -0.94288910069E-03  0.39859202614E+01  0.39861210769E+01  0.40000000000E-01 0. -1.
</event>
<event>
 5   0  0.6200596E+07  0.9118800E+02  0.7818608E-02  0.1180000E+00
       11   -1    0    0    0    0  0.00000000000E+00  0.00000000000E+00  0.39999999673E+01  0.40000000000E+01  0.51109989000E-03 0.  1.
     -623   -1    0    0    0    0  0.00000000000E+00  0.00000000000E+00  0.12525980253E-10  0.17130000000E+03  0.17130000000E+03 0.  1.
       11    1    1    2    0    0  0.42208695639E-02  0.28181765007E-02  0.38952569629E-01  0.39285134106E-01  0.51109989000E-03 0.  1.
     -623    1    1    2    0    0  0.10679164228E-02  0.46188350004E-03  0.53941505554E-03  0.17130000000E+03  0.17130000000E+03 0.  1.
      622    1    1    2    0    0 -0.52887859867E-02 -0.32800600007E-02  0.39605079827E+01  0.39607148611E+01  0.40000000000E-01 0.  1.
</event>
<event>
 5   0  0.6200596E+07  0.9118800E+02  0.7818608E-02  0.1180000E+00
       11   -1    0    0    0    0  0.00000000000E+00  0.00000000000E+00  0.39999999673E+01  0.40000000000E+01  0.51109989000E-03 0.  1.
     -623   -1    0    0    0    0  0.00000000000E+00  0.00000000000E+00  0.12525980253E-10  0.17130000000E+03  0.17130000000E+03 0.  1.
       11    1    1    2    0    0  0.80393114228E-03  0.87782021415E-03  0.36730635802E-01  0.36753471953E-01  0.51109989000E-03 0.  1.
     -623    1    1    2    0    0 -0.29808332834E-04 -0.65819905128E-03  0.22474647346E-03  0.17130000000E+03  0.17130000000E+03 0.  1.
      622    1    1    2    0    0 -0.77412280945E-03 -0.21962116287E-03  0.39630445851E+01  0.39632465266E+01  0.40000000000E-01 0.  1.
</event>
<event>
 5   0  0.6200596E+07  0.9118800E+02  0.7818608E-02  0.1180000E+00
       11   -1    0    0    0    0  0.00000000000E+00  0.00000000000E+00  0.39999999673E+01  0.40000000000E+01  0.51109989000E-03 0.  1.
     -623   -1    0    0    0    0  0.00000000000E+00  0.00000000000E+00  0.12525980253E-10  0.17130000000E+03  0.17130000000E+03 0. -1.
       11    1    1    2    0    0 -0.20678575468E-01  0.33291506335E-01  0.22671440357E+01  0.22674828043E+01  0.51109989000E-03 0.  1.
     -623    1    1    2    0    0  0.17455678741E-01 -0.32109606083E-01  0.80785684608E-03  0.17130000390E+03  0.17130000000E+03 0. -1.
      622    1    1    2    0    0  0.32228967274E-02 -0.11819002528E-02  0.17320480748E+01  0.17325132950E+01  0.40000000000E-01 0.  0.
</event>
<event>
 5   0  0.6200596E+07  0.9118800E+02  0.7818608E-02  0.1180000E+00
       11   -1    0    0    0    0  0.00000000000E+00  0.00000000000E+00  0.39999999673E+01  0.40000000000E+01  0.51109989000E-03 0.  1.
     -623   -1    0    0    0    0  0.00000000000E+00  0.00000000000E+00  0.12525980253E-10  0.17130000000E+03  0.17130000000E+03 0. -1.
       11    1    1    2    0    0  0.12822610411E-02 -0.11734456081E-02  0.40259573019E-03  0.18559292871E-02  0.51109989000E-03 0.  1.
     -623    1    1    2    0    0 -0.15463240239E-02  0.23124115070E-02  0.16536002930E-02  0.17130000003E+03  0.17130000000E+03 0. -1.
      622    1    1    2    0    0  0.26406298283E-03 -0.11389658989E-02  0.39979437713E+01  0.39981440401E+01  0.40000000000E-01 0.  1.
</event>
<event>
 5   0  0.6200596E+07  0.9118800E+02  0.7818608E-02  0.1180000E+00
       11   -1    0    0    0    0  0.00000000000E+00  0.00000000000E+00  0.39999999673E+01  0.40000000000E+01  0.51109989000E-03 0. -1.
     -623   -1    0    0    0    0  0.00000000000E+00  0.00000000000E+00  0.12525980253E-10  0.17130000000E+03  0.17130000000E+03 0.  1.
       11    1    1    2    0    0 -0.63949633188E-01 -0.59898421732E-01  0.25943116697E+01  0.25957909541E+01  0.51109989000E-03 0. -1.
     -623    1    1    2    0    0 -0.88695377086E-02 -0.72064000333E-02  0.55468644121E-02  0.17130000047E+03  0.17130000000E+03 0.  1.
      622    1    1    2    0    0  0.72819170897E-01  0.67104821765E-01  0.14001414332E+01  0.14042085749E+01  0.40000000000E-01 0.  0.
</event>
<event>
 5   0  0.6200596E+07  0.9118800E+02  0.7818608E-02  0.1180000E+00
       11   -1    0    0    0    0  0.00000000000E+00  0.00000000000E+00  0.39999999673E+01  0.40000000000E+01  0.51109989000E-03 0. -1.
     -623   -1    0    0    0    0  0.00000000000E+00  0.00000000000E+00  0.12525980253E-10  0.17130000000E+03  0.17130000000E+03 0. -1.
       11    1    1    2    0    0 -0.24731384931E-02  0.32579608287E-03  0.49442938164E-01  0.49508463031E-01  0.51109989000E-03 0. -1.
     -623    1    1    2    0    0  0.15970823139E-02 -0.62925419680E-02  0.27273051085E-03  0.17130000012E+03  0.17130000000E+03 0. -1.
      622    1    1    2    0    0  0.87605617923E-03  0.59667458852E-02  0.39502842987E+01  0.39504914137E+01  0.40000000000E-01 0. -1.
</event>
<event>
 5   0  0.6200596E+07  0.9118800E+02  0.7818608E-02  0.1180000E+00
       11   -1    0    0    0    0  0.00000000000E+00  0.00000000000E+00  0.39999999673E+01  0.40000000000E+01  0.51109989000E-03 0. -1.
     -623   -1    0    0    0    0  0.00000000000E+00  0.00000000000E+00  0.12525980253E-10  0.17130000000E+03  0.17130000000E+03 0.  1.
       11    1    1    2    0    0 -0.60021938719E-02  0.41607590851E-02  0.42689861738E+00  0.42696139052E+00  0.51109989000E-03 0. -1.
     -623    1    1    2    0    0  0.33966865623E-02 -0.77829333429E-03  0.28923343829E-03  0.17130000004E+03  0.17130000000E+03 0.  1.
      622    1    1    2    0    0  0.26055073096E-02 -0.33824657508E-02  0.35728121165E+01  0.35730385738E+01  0.40000000000E-01 0. -1.
</event>
<event>
 5   0  0.6200596E+07  0.9118800E+02  0.7818608E-02  0.1180000E+00
       11   -1    0    0    0    0  0.00000000000E+00  0.00000000000E+00  0.39999999673E+01  0.40000000000E+01  0.51109989000E-03 0.  1.
     -623   -1    0    0    0    0  0.00000000000E+00  0.00000000000E+00  0.12525980253E-10  0.17130000000E+03  0.17130000000E+03 0.  1.
       11    1    1    2    0    0  0.32392630831E-02  0.62520220850E-03  0.30599173334E+00  0.30600994395E+00  0.51109989000E-03 0.  1.
     -623    1    1    2    0    0  0.24037537267E-02 -0.41834863528E-03  0.23908609472E-03  0.17130000002E+03  0.17130000000E+03 0.  1.
      622    1    1    2    0    0 -0.56430168098E-02 -0.20685357323E-03  0.36937691479E+01  0.36939900385E+01  0.40000000000E-01 0.  1.
</event>
<event>
 5   0  0.6200596E+07  0.9118800E+02  0.7818608E-02  0.1180000E+00
       11   -1    0    0    0    0  0.00000000000E+00  0.00000000000E+00  0.39999999673E+01  0.40000000000E+01  0.51109989000E-03 0. -1.
     -623   -1    0    0    0    0  0.00000000000E+00  0.00000000000E+00  0.12525980253E-10  0.17130000000E+03  0.17130000000E+03 0.  1.
       11    1    1    2    0    0 -0.80016591015E-03  0.68328752126E-02  0.17203795591E-01  0.18535378451E-01  0.51109989000E-03 0. -1.
     -623    1    1    2    0    0  0.96191239095E-02 -0.39882722073E-02  0.15435935985E-02  0.17130000032E+03  0.17130000000E+03 0.  1.
      622    1    1    2    0    0 -0.88189579994E-02 -0.28446030053E-02  0.39812525782E+01  0.39814642981E+01  0.40000000000E-01 0. -1.
</event>
<event>
 5   0  0.6200596E+07  0.9118800E+02  0.7818608E-02  0.1180000E+00
       11   -1    0    0    0    0  0.00000000000E+00  0.00000000000E+00  0.39999999673E+01  0.40000000000E+01  0.51109989000E-03 0.  1.
     -623   -1    0    0    0    0  0.00000000000E+00  0.00000000000E+00  0.12525980253E-10  0.17130000000E+03  0.17130000000E+03 0.  1.
       11    1    1    2    0    0 -0.48121308768E-02 -0.32946823513E-01  0.32449833518E+00  0.32620251461E+00  0.51109989000E-03 0.  1.
     -623    1    1    2    0    0 -0.67149653715E-02  0.13526148126E-02  0.20760106416E-02  0.17130000015E+03  0.17130000000E+03 0.  1.
      622    1    1    2    0    0  0.11527096248E-01  0.31594208700E-01  0.36734256215E+01  0.36737973359E+01  0.40000000000E-01 0.  1.
</event>
<event>
 5   0  0.6200596E+07  0.9118800E+02  0.7818608E-02  0.1180000E+00
       11   -1    0    0    0    0  0.00000000000E+00  0.00000000000E+00  0.39999999673E+01  0.40000000000E+01  0.51109989000E-03 0.  1.
     -623   -1    0    0    0    0  0.00000000000E+00  0.00000000000E+00  0.12525980253E-10  0.17130000000E+03  0.17130000000E+03 0.  1.
       11    1    1    2    0    0  0.20639327084E-03  0.82089622556E-03  0.18534447172E+00  0.18534710919E+00  0.51109989000E-03 0.  1.
     -623    1    1    2    0    0  0.58577140743E-02  0.49065582415E-02  0.22161904996E-03  0.17130000017E+03  0.17130000000E+03 0.  1.
      622    1    1    2    0    0 -0.60641073452E-02 -0.57274544670E-02  0.38144338766E+01  0.38146527202E+01  0.40000000000E-01 0.  1.
</event>
<event>
 5   0  0.6200596E+07  0.9118800E+02  0.7818608E-02  0.1180000E+00
       11   -1    0    0    0    0  0.00000000000E+00  0.00000000000E+00  0.39999999673E+01  0.40000000000E+01  0.51109989000E-03 0. -1.
     -623   -1    0    0    0    0  0.00000000000E+00  0.00000000000E+00  0.12525980253E-10  0.17130000000E+03  0.17130000000E+03 0. -1.
       11    1    1    2    0    0 -0.13994509428E-02 -0.17151151984E-02  0.15776655411E-01  0.15939390247E-01  0.51109989000E-03 0. -1.
     -623    1    1    2    0    0 -0.50728726103E-03  0.38365565583E-02  0.36457265986E-03  0.17130000004E+03  0.17130000000E+03 0. -1.
      622    1    1    2    0    0  0.19067382039E-02 -0.21214413599E-02  0.39838587393E+01  0.39840605657E+01  0.40000000000E-01 0. -1.
</event>
<event>
 5   0  0.6200596E+07  0.9118800E+02  0.7818608E-02  0.1180000E+00
       11   -1    0    0    0    0  0.00000000000E+00  0.00000000000E+00  0.39999999673E+01  0.40000000000E+01  0.51109989000E-03 0. -1.
     -623   -1    0    0    0    0  0.00000000000E+00  0.00000000000E+00  0.12525980253E-10  0.17130000000E+03  0.17130000000E+03 0.  1.
       11    1    1    2    0    0 -0.14975783402E-01  0.75446516773E-02  0.17127341692E+00  0.17209311556E+00  0.51109989000E-03 0. -1.
     -623    1    1    2    0    0  0.14496822837E-01  0.98428442443E-04  0.10369405860E-02  0.17130000062E+03  0.17130000000E+03 0.  1.
      622    1    1    2    0    0  0.47896056535E-03 -0.76430801198E-02  0.38276896099E+01  0.38279062678E+01  0.40000000000E-01 0. -1.
</event>
<event>
 5   0  0.6200596E+07  0.9118800E+02  0.7818608E-02  0.1180000E+00
       11   -1    0    0    0    0  0.00000000000E+00  0.00000000000E+00  0.39999999673E+01  0.40000000000E+01  0.51109989000E-03 0.  1.
     -623   -1    0    0    0    0  0.00000000000E+00  0.00000000000E+00  0.12525980253E-10  0.17130000000E+03  0.17130000000E+03 0. -1.
       11    1    1    2    0    0  0.76121831203E-04  0.28374547629E-02  0.50013572509E-01  0.50096662577E-01  0.51109989000E-03 0.  1.
     -623    1    1    2    0    0 -0.16442946913E-02  0.87342933899E-04  0.28700161107E-03  0.17130000001E+03  0.17130000000E+03 0. -1.
      622    1    1    2    0    0  0.15681728601E-02 -0.29247976968E-02  0.39496993932E+01  0.39499033293E+01  0.40000000000E-01 0.  1.
</event>
<event>
 5   0  0.6200596E+07  0.9118800E+02  0.7818608E-02  0.1180000E+00
       11   -1    0    0    0    0  0.00000000000E+00  0.00000000000E+00  0.39999999673E+01  0.40000000000E+01  0.51109989000E-03 0.  1.
     -623   -1    0    0    0    0  0.00000000000E+00  0.00000000000E+00  0.12525980253E-10  0.17130000000E+03  0.17130000000E+03 0. -1.
       11    1    1    2    0    0 -0.15776730729E-02 -0.41336517007E-03  0.21672402769E+00  0.21673076690E+00  0.51109989000E-03 0.  1.
     -623    1    1    2    0    0  0.44405885703E-02 -0.36541498349E-02  0.22153646177E-03  0.17130000010E+03  0.17130000000E+03 0. -1.
      622    1    1    2    0    0 -0.28629154974E-02  0.40675150050E-02  0.37830544032E+01  0.37832691364E+01  0.40000000000E-01 0.  1.
</event>
<event>
 5   0  0.6200596E+07  0.9118800E+02  0.7818608E-02  0.1180000E+00
       11   -1    0    0    0    0  0.00000000000E+00  0.00000000000E+00  0.39999999673E+01  0.40000000000E+01  0.51109989000E-03 0.  1.
     -623   -1    0    0    0    0  0.00000000000E+00  0.00000000000E+00  0.12525980253E-10  0.17130000000E+03  0.17130000000E+03 0.  1.
       11    1    1    2    0    0 -0.83334037299E-02  0.18721487652E-02  0.17280057294E+01  0.17280269131E+01  0.51109989000E-03 0.  1.
     -623    1    1    2    0    0 -0.88690810684E-03  0.35569237210E-03  0.39310313934E-03  0.17130000000E+03  0.17130000000E+03 0.  1.
      622    1    1    2    0    0  0.92203118367E-02 -0.22278411373E-02  0.22716011349E+01  0.22719730838E+01  0.40000000000E-01 0. -1.
</event>
<event>
 5   0  0.6200596E+07  0.9118800E+02  0.7818608E-02  0.1180000E+00
       11   -1    0    0    0    0  0.00000000000E+00  0.00000000000E+00  0.39999999673E+01  0.40000000000E+01  0.51109989000E-03 0. -1.
     -623   -1    0    0    0    0  0.00000000000E+00  0.00000000000E+00  0.12525980253E-10  0.17130000000E+03  0.17130000000E+03 0. -1.
       11    1    1    2    0    0  0.60759409886E-02  0.21208651456E-02  0.17535048276E+01  0.17535167113E+01  0.51109989000E-03 0. -1.
     -623    1    1    2    0    0  0.68953478695E-02 -0.49013097561E-02  0.40737644706E-03  0.17130000021E+03  0.17130000000E+03 0. -1.
      622    1    1    2    0    0 -0.12971288858E-01  0.27804446104E-02  0.22460877633E+01  0.22464830793E+01  0.40000000000E-01 0.  0.
</event>
<event>
 5   0  0.6200596E+07  0.9118800E+02  0.7818608E-02  0.1180000E+00
       11   -1    0    0    0    0  0.00000000000E+00  0.00000000000E+00  0.39999999673E+01  0.40000000000E+01  0.51109989000E-03 0.  1.
     -623   -1    0    0    0    0  0.00000000000E+00  0.00000000000E+00  0.12525980253E-10  0.17130000000E+03  0.17130000000E+03 0.  1.
       11    1    1    2    0    0  0.14027617869E-02  0.16242524656E-01  0.13498268553E+00  0.13596460555E+00  0.51109989000E-03 0.  1.
     -623    1    1    2    0    0  0.11961825403E-01 -0.11743505117E-01  0.12154876855E-02  0.17130000082E+03  0.17130000000E+03 0.  1.
      622    1    1    2    0    0 -0.13364587190E-01 -0.44990195388E-02  0.38638017941E+01  0.38640345700E+01  0.40000000000E-01 0.  1.
</event>
<event>
 5   0  0.6200596E+07  0.9118800E+02  0.7818608E-02  0.1180000E+00
       11   -1    0    0    0    0  0.00000000000E+00  0.00000000000E+00  0.39999999673E+01  0.40000000000E+01  0.51109989000E-03 0.  1.
     -623   -1    0    0    0    0  0.00000000000E+00  0.00000000000E+00  0.12525980253E-10  0.17130000000E+03  0.17130000000E+03 0.  1.
       11    1    1    2    0    0  0.28395760130E-02 -0.68415331592E-02  0.74254254688E-01  0.74624562495E-01  0.51109989000E-03 0.  1.
     -623    1    1    2    0    0 -0.10422491363E-01  0.56695508696E-02  0.58199409488E-03  0.17130000041E+03  0.17130000000E+03 0.  1.
      622    1    1    2    0    0  0.75829153498E-02  0.11719822895E-02  0.39251637186E+01  0.39253750256E+01  0.40000000000E-01 0.  1.
</event>
<event>
 5   0  0.6200596E+07  0.9118800E+02  0.7818608E-02  0.1180000E+00
       11   -1    0    0    0    0  0.00000000000E+00  0.00000000000E+00  0.39999999673E+01  0.40000000000E+01  0.51109989000E-03 0.  1.
     -623   -1    0    0    0    0  0.00000000000E+00  0.00000000000E+00  0.12525980253E-10  0.17130000000E+03  0.17130000000E+03 0.  1.
       11    1    1    2    0    0  0.80239149681E-02  0.13289361445E-02  0.39513186831E+00  0.39521589525E+00  0.51109989000E-03 0.  1.
     -623    1    1    2    0    0 -0.14332732113E-02  0.36483973215E-02  0.31543526322E-03  0.17130000005E+03  0.17130000000E+03 0.  1.
      622    1    1    2    0    0 -0.65906417568E-02 -0.49773334660E-02  0.36045526638E+01  0.36047840596E+01  0.40000000000E-01 0.  1.
</event>
<event>
 5   0  0.6200596E+07  0.9118800E+02  0.7818608E-02  0.1180000E+00
       11   -1    0    0    0    0  0.00000000000E+00  0.00000000000E+00  0.39999999673E+01  0.40000000000E+01  0.51109989000E-03 0. -1.
     -623   -1    0    0    0    0  0.00000000000E+00  0.00000000000E+00  0.12525980253E-10  0.17130000000E+03  0.17130000000E+03 0. -1.
       11    1    1    2    0    0  0.67871003998E-03  0.43647304244E-03  0.71856649174E-01  0.71862997480E-01  0.51109989000E-03 0. -1.
     -623    1    1    2    0    0  0.11616435749E-02  0.50718864147E-03  0.21052913374E-03  0.17130000000E+03  0.17130000000E+03 0. -1.
      622    1    1    2    0    0 -0.18403536149E-02 -0.94366168391E-03  0.39279327891E+01  0.39281369977E+01  0.40000000000E-01 0. -1.
</event>
<event>
 5   0  0.6200596E+07  0.9118800E+02  0.7818608E-02  0.1180000E+00
       11   -1    0    0    0    0  0.00000000000E+00  0.00000000000E+00  0.39999999673E+01  0.40000000000E+01  0.51109989000E-03 0. -1.
     -623   -1    0    0    0    0  0.00000000000E+00  0.00000000000E+00  0.12525980253E-10  0.17130000000E+03  0.17130000000E+03 0. -1.
       11    1    1    2    0    0  0.19164959154E-01 -0.18358330612E-01  0.48570735297E+00  0.48643213084E+00  0.51109989000E-03 0. -1.
     -623    1    1    2    0    0  0.57795394208E-02  0.15097594600E-01  0.10432739563E-02  0.17130000077E+03  0.17130000000E+03 0. -1.
      622    1    1    2    0    0 -0.24944498574E-01  0.32607360115E-02  0.35132493404E+01  0.35135671032E+01  0.40000000000E-01 0. -1.
</event>
<event>
 5   0  0.6200596E+07  0.9118800E+02  0.7818608E-02  0.1180000E+00
       11   -1    0    0    0    0  0.00000000000E+00  0.00000000000E+00  0.39999999673E+01  0.40000000000E+01  0.51109989000E-03 0. -1.
     -623   -1    0    0    0    0  0.00000000000E+00  0.00000000000E+00  0.12525980253E-10  0.17130000000E+03  0.17130000000E+03 0.  1.
       11    1    1    2    0    0  0.87046494379E-03  0.98500257581E-03  0.11391424767E-02  0.18129552934E-02  0.51109989000E-03 0. -1.
     -623    1    1    2    0    0 -0.25543119432E-02 -0.24036404883E-02  0.87452030393E-03  0.17130000004E+03  0.17130000000E+03 0.  1.
      622    1    1    2    0    0  0.16838469995E-02  0.14186379125E-02  0.39979863046E+01  0.39981870066E+01  0.40000000000E-01 0. -1.
</event>
<event>
 5   0  0.6200596E+07  0.9118800E+02  0.7818608E-02  0.1180000E+00
       11   -1    0    0    0    0  0.00000000000E+00  0.00000000000E+00  0.39999999673E+01  0.40000000000E+01  0.51109989000E-03 0. -1.
     -623   -1    0    0    0    0  0.00000000000E+00  0.00000000000E+00  0.12525980253E-10  0.17130000000E+03  0.17130000000E+03 0. -1.
       11    1    1    2    0    0 -0.45375239570E-02  0.28255808815E-01  0.12330337577E+01  0.12333659185E+01  0.51109989000E-03 0. -1.
     -623    1    1    2    0    0 -0.68668320975E-03 -0.19918167676E-02  0.75093044234E-03  0.17130000001E+03  0.17130000000E+03 0. -1.
      622    1    1    2    0    0  0.52242071667E-02 -0.26263992048E-01  0.27662152792E+01  0.27666340669E+01  0.40000000000E-01 0.  0.
</event>
<event>
 5   0  0.6200596E+07  0.9118800E+02  0.7818608E-02  0.1180000E+00
       11   -1    0    0    0    0  0.00000000000E+00  0.00000000000E+00  0.39999999673E+01  0.40000000000E+01  0.51109989000E-03 0. -1.
     -623   -1    0    0    0    0  0.00000000000E+00  0.00000000000E+00  0.12525980253E-10  0.17130000000E+03  0.17130000000E+03 0.  1.
       11    1    1    2    0    0  0.88585388062E-02 -0.34866970949E-02  0.13278612697E+00  0.13312793660E+00  0.51109989000E-03 0. -1.
     -623    1    1    2    0    0 -0.18508337899E-02  0.15360022050E-02  0.55552809590E-03  0.17130000002E+03  0.17130000000E+03 0.  1.
      622    1    1    2    0    0 -0.70077050163E-02  0.19506948899E-02  0.38666583123E+01  0.38668720456E+01  0.40000000000E-01 0. -1.
</event>
<event>
 5   0  0.6200596E+07  0.9118800E+02  0.7818608E-02  0.1180000E+00
       11   -1    0    0    0    0  0.00000000000E+00  0.00000000000E+00  0.39999999673E+01  0.40000000000E+01  0.51109989000E-03 0. -1.
     -623   -1    0    0    0    0  0.00000000000E+00  0.00000000000E+00  0.12525980253E-10  0.17130000000E+03  0.17130000000E+03 0.  1.
       11    1    1    2    0    0  0.82610393602E-01 -0.41746623402E-02  0.15175651694E+01  0.15198178212E+01  0.51109989000E-03 0. -1.
     -623    1    1    2    0    0 -0.29355411702E-01  0.10866556481E-01  0.31590096013E-02  0.17130000289E+03  0.17130000000E+03 0.  1.
      622    1    1    2    0    0 -0.53254981900E-01 -0.66918941403E-02  0.24792757884E+01  0.24801792897E+01  0.40000000000E-01 0. -1.
</event>
<event>
 5   0  0.6200596E+07  0.9118800E+02  0.7818608E-02  0.1180000E+00
       11   -1    0    0    0    0  0.00000000000E+00  0.00000000000E+00  0.39999999673E+01  0.40000000000E+01  0.51109989000E-03 0. -1.
     -623   -1    0    0    0    0  0.00000000000E+00  0.00000000000E+00  0.12525980253E-10  0.17130000000E+03  0.17130000000E+03 0.  1.
       11    1    1    2    0    0  0.71247550660E-03  0.28171217557E-03  0.10475617016E-01  0.10516023755E-01  0.51109989000E-03 0. -1.
     -623    1    1    2    0    0 -0.12382383840E-02  0.31811497239E-03  0.24099100708E-03  0.17130000000E+03  0.17130000000E+03 0.  1.
      622    1    1    2    0    0  0.52576287737E-03 -0.59982714796E-03  0.39892833593E+01  0.39894839713E+01  0.40000000000E-01 0. -1.
</event>
<event>
 5   0  0.6200596E+07  0.9118800E+02  0.7818608E-02  0.1180000E+00
       11   -1    0    0    0    0  0.00000000000E+00  0.00000000000E+00  0.39999999673E+01  0.40000000000E+01  0.51109989000E-03 0.  1.
     -623   -1    0    0    0    0  0.00000000000E+00  0.00000000000E+00  0.12525980253E-10  0.17130000000E+03  0.17130000000E+03 0. -1.
       11    1    1    2    0    0 -0.41752914879E-02 -0.34268636751E-02  0.31513564204E-02  0.62744501021E-02  0.51109989000E-03 0.  1.
     -623    1    1    2    0    0  0.35815004083E-02  0.41807427266E-02  0.33236162897E-02  0.17130000012E+03  0.17130000000E+03 0. -1.
      622    1    1    2    0    0  0.59379107964E-03 -0.75387905156E-03  0.39935249946E+01  0.39937254292E+01  0.40000000000E-01 0.  1.
</event>
<event>
 5   0  0.6200596E+07  0.9118800E+02  0.7818608E-02  0.1180000E+00
       11   -1    0    0    0    0  0.00000000000E+00  0.00000000000E+00  0.39999999673E+01  0.40000000000E+01  0.51109989000E-03 0.  1.
     -623   -1    0    0    0    0  0.00000000000E+00  0.00000000000E+00  0.12525980253E-10  0.17130000000E+03  0.17130000000E+03 0.  1.
       11    1    1    2    0    0  0.15773172039E-01 -0.76393731231E-02  0.35961767759E-02  0.17898231353E-01  0.51109989000E-03 0.  1.
     -623    1    1    2    0    0 -0.28928416728E-02  0.15496354394E-01  0.14532851662E-01  0.17130000134E+03  0.17130000000E+03 0.  1.
      622    1    1    2    0    0 -0.12880330367E-01 -0.78569812709E-02  0.39818709389E+01  0.39821004268E+01  0.40000000000E-01 0.  1.
</event>
<event>
 5   0  0.6200596E+07  0.9118800E+02  0.7818608E-02  0.1180000E+00
       11   -1    0    0    0    0  0.00000000000E+00  0.00000000000E+00  0.39999999673E+01  0.40000000000E+01  0.51109989000E-03 0.  1.
     -623   -1    0    0    0    0  0.00000000000E+00  0.00000000000E+00  0.12525980253E-10  0.17130000000E+03  0.17130000000E+03 0. -1.
       11    1    1    2    0    0 -0.85012909226E-02 -0.22771841151E-01  0.13697970925E+01  0.13700128337E+01  0.51109989000E-03 0.  1.
     -623    1    1    2    0    0 -0.65756425633E-03 -0.18709192224E-03  0.63608844687E-03  0.17130000000E+03  0.17130000000E+03 0. -1.
      622    1    1    2    0    0  0.91588551789E-02  0.22958933074E-01  0.26295667864E+01  0.26299871637E+01  0.40000000000E-01 0.  0.
</event>
<event>
 5   0  0.6200596E+07  0.9118800E+02  0.7818608E-02  0.1180000E+00
       11   -1    0    0    0    0  0.00000000000E+00  0.00000000000E+00  0.39999999673E+01  0.40000000000E+01  0.51109989000E-03 0. -1.
     -623   -1    0    0    0    0  0.00000000000E+00  0.00000000000E+00  0.12525980253E-10  0.17130000000E+03  0.17130000000E+03 0. -1.
       11    1    1    2    0    0  0.42563551023E-01 -0.11116712426E-01  0.73654467424E+00  0.73785740868E+00  0.51109989000E-03 0. -1.
     -623    1    1    2    0    0 -0.42185308154E-01 -0.14632922771E-02  0.15874374186E-02  0.17130000521E+03  0.17130000000E+03 0. -1.
      622    1    1    2    0    0 -0.37824286883E-03  0.12580004703E-01  0.32618678557E+01  0.32621373833E+01  0.40000000000E-01 0. -1.
</event>
<event>
 5   0  0.6200596E+07  0.9118800E+02  0.7818608E-02  0.1180000E+00
       11   -1    0    0    0    0  0.00000000000E+00  0.00000000000E+00  0.39999999673E+01  0.40000000000E+01  0.51109989000E-03 0.  1.
     -623   -1    0    0    0    0  0.00000000000E+00  0.00000000000E+00  0.12525980253E-10  0.17130000000E+03  0.17130000000E+03 0. -1.
       11    1    1    2    0    0  0.30700604925E-02  0.19204192205E-02  0.35558620626E+00  0.35560501204E+00  0.51109989000E-03 0.  1.
     -623    1    1    2    0    0 -0.31417355094E-03  0.61212427615E-04  0.23987623888E-03  0.17130000000E+03  0.17130000000E+03 0. -1.
      622    1    1    2    0    0 -0.27558869415E-02 -0.19816316481E-02  0.36441738849E+01  0.36443949875E+01  0.40000000000E-01 0.  1.
</event>
<event>
 5   0  0.6200596E+07  0.9118800E+02  0.7818608E-02  0.1180000E+00
       11   -1    0    0    0    0  0.00000000000E+00  0.00000000000E+00  0.39999999673E+01  0.40000000000E+01  0.51109989000E-03 0.  1.
     -623   -1    0    0    0    0  0.00000000000E+00  0.00000000000E+00  0.12525980253E-10  0.17130000000E+03  0.17130000000E+03 0. -1.
       11    1    1    2    0    0 -0.58606519731E-03 -0.19936825910E-02  0.22035231008E-01  0.22138899452E-01  0.51109989000E-03 0.  1.
     -623    1    1    2    0    0  0.51639947855E-02  0.70527941258E-02  0.31082900562E-03  0.17130000022E+03  0.17130000000E+03 0. -1.
      622    1    1    2    0    0 -0.45779295882E-02 -0.50591115348E-02  0.39776539073E+01  0.39778608772E+01  0.40000000000E-01 0.  1.
</event>
<event>
 5   0  0.6200596E+07  0.9118800E+02  0.7818608E-02  0.1180000E+00
       11   -1    0    0    0    0  0.00000000000E+00  0.00000000000E+00  0.39999999673E+01  0.40000000000E+01  0.51109989000E-03 0. -1.
     -623   -1    0    0    0    0  0.00000000000E+00  0.00000000000E+00  0.12525980253E-10  0.17130000000E+03  0.17130000000E+03 0. -1.
       11    1    1    2    0    0  0.48401641057E-03  0.31460238309E-02  0.11208932545E-01  0.11663324117E-01  0.51109989000E-03 0. -1.
     -623    1    1    2    0    0  0.15608622045E-02 -0.31820211982E-02  0.65551117757E-03  0.17130000004E+03  0.17130000000E+03 0. -1.
      622    1    1    2    0    0 -0.20448786150E-02  0.35997367356E-04  0.39881355236E+01  0.39883366380E+01  0.40000000000E-01 0. -1.
</event>
<event>
 5   0  0.6200596E+07  0.9118800E+02  0.7818608E-02  0.1180000E+00
       11   -1    0    0    0    0  0.00000000000E+00  0.00000000000E+00  0.39999999673E+01  0.40000000000E+01  0.51109989000E-03 0.  1.
     -623   -1    0    0    0    0  0.00000000000E+00  0.00000000000E+00  0.12525980253E-10  0.17130000000E+03  0.17130000000E+03 0.  1.
       11    1    1    2    0    0 -0.56725751420E-02  0.16025629779E-01  0.44419892461E+00  0.44452440289E+00  0.51109989000E-03 0.  1.
     -623    1    1    2    0    0  0.32554496822E-02  0.21949544417E-02  0.59801590769E-03  0.17130000005E+03  0.17130000000E+03 0.  1.
      622    1    1    2    0    0  0.24171254598E-02 -0.18220584221E-01  0.35552030268E+01  0.35554755511E+01  0.40000000000E-01 0.  1.
</event>
<event>
 5   0  0.6200596E+07  0.9118800E+02  0.7818608E-02  0.1180000E+00
       11   -1    0    0    0    0  0.00000000000E+00  0.00000000000E+00  0.39999999673E+01  0.40000000000E+01  0.51109989000E-03 0. -1.
     -623   -1    0    0    0    0  0.00000000000E+00  0.00000000000E+00  0.12525980253E-10  0.17130000000E+03  0.17130000000E+03 0.  1.
       11    1    1    2    0    0  0.29786531387E-02  0.99964227325E-02  0.91483494786E+00  0.91489455343E+00  0.51109989000E-03 0. -1.
     -623    1    1    2    0    0 -0.74563427883E-03 -0.77997074288E-02  0.32066410043E-03  0.17130000018E+03  0.17130000000E+03 0.  1.
      622    1    1    2    0    0 -0.22330188599E-02 -0.21967153038E-02  0.30848443554E+01  0.30851052671E+01  0.40000000000E-01 0.  1.
</event>
<event>
 5   0  0.6200596E+07  0.9118800E+02  0.7818608E-02  0.1180000E+00
       11   -1    0    0    0    0  0.00000000000E+00  0.00000000000E+00  0.39999999673E+01  0.40000000000E+01  0.51109989000E-03 0. -1.
     -623   -1    0    0    0    0  0.00000000000E+00  0.00000000000E+00  0.12525980253E-10  0.17130000000E+03  0.17130000000E+03 0.  1.
       11    1    1    2    0    0  0.54817379804E-02  0.24933019209E-03  0.78974992816E-01  0.79167053308E-01  0.51109989000E-03 0. -1.
     -623    1    1    2    0    0 -0.21774746041E-02  0.80111347850E-02  0.40636759344E-03  0.17130000020E+03  0.17130000000E+03 0.  1.
      622    1    1    2    0    0 -0.33042633763E-02 -0.82604649771E-02  0.39206186070E+01  0.39208327450E+01  0.40000000000E-01 0. -1.
</event>
<event>
 5   0  0.6200596E+07  0.9118800E+02  0.7818608E-02  0.1180000E+00
       11   -1    0    0    0    0  0.00000000000E+00  0.00000000000E+00  0.39999999673E+01  0.40000000000E+01  0.51109989000E-03 0.  1.
     -623   -1    0    0    0    0  0.00000000000E+00  0.00000000000E+00  0.12525980253E-10  0.17130000000E+03  0.17130000000E+03 0. -1.
       11    1    1    2    0    0  0.39062168833E-02  0.13988832925E-01  0.94942594976E+00  0.94953717214E+00  0.51109989000E-03 0.  1.
     -623    1    1    2    0    0 -0.43718486709E-02  0.34459804404E-02  0.42341154635E-03  0.17130000009E+03  0.17130000000E+03 0. -1.
      622    1    1    2    0    0  0.46563178764E-03 -0.17434813365E-01  0.30501506061E+01  0.30504627369E+01  0.40000000000E-01 0.  0.
</event>
<event>
 5   0  0.6200596E+07  0.9118800E+02  0.7818608E-02  0.1180000E+00
       11   -1    0    0    0    0  0.00000000000E+00  0.00000000000E+00  0.39999999673E+01  0.40000000000E+01  0.51109989000E-03 0. -1.
     -623   -1    0    0    0    0  0.00000000000E+00  0.00000000000E+00  0.12525980253E-10  0.17130000000E+03  0.17130000000E+03 0. -1.
       11    1    1    2    0    0  0.71337412729E-02 -0.40259278730E-02  0.56495224484E+00  0.56501185699E+00  0.51109989000E-03 0. -1.
     -623    1    1    2    0    0  0.11754983520E-02 -0.19405155843E-02  0.30773299498E-03  0.17130000002E+03  0.17130000000E+03 0. -1.
      622    1    1    2    0    0 -0.83092396249E-02  0.59664434573E-02  0.34347399895E+01  0.34349881277E+01  0.40000000000E-01 0. -1.
</event>
<event>
 5   0  0.6200596E+07  0.9118800E+02  0.7818608E-02  0.1180000E+00
       11   -1    0    0    0    0  0.00000000000E+00  0.00000000000E+00  0.39999999673E+01  0.40000000000E+01  0.51109989000E-03 0. -1.
     -623   -1    0    0    0    0  0.00000000000E+00  0.00000000000E+00  0.12525980253E-10  0.17130000000E+03  0.17130000000E+03 0.  1.
       11    1    1    2    0    0 -0.22805761536E-02 -0.24792403531E-02  0.10769486780E+01  0.10769540677E+01  0.51109989000E-03 0. -1.
     -623    1    1    2    0    0 -0.27672493765E-02  0.53241847571E-02  0.28490589038E-03  0.17130000011E+03  0.17130000000E+03 0.  1.
      622    1    1    2    0    0  0.50478255301E-02 -0.28449444040E-02  0.29227663834E+01  0.29230458269E+01  0.40000000000E-01 0. -1.
</event>
<event>
 5   0  0.6200596E+07  0.9118800E+02  0.7818608E-02  0.1180000E+00
       11   -1    0    0    0    0  0.00000000000E+00  0.00000000000E+00  0.39999999673E+01  0.40000000000E+01  0.51109989000E-03 0. -1.
     -623   -1    0    0    0    0  0.00000000000E+00  0.00000000000E+00  0.12525980253E-10  0.17130000000E+03  0.17130000000E+03 0.  1.
       11    1    1    2    0    0 -0.69575936727E-02  0.28318274241E-02  0.28494755222E-01  0.29472693330E-01  0.51109989000E-03 0. -1.
     -623    1    1    2    0    0  0.99967740335E-02 -0.30052837088E-03  0.11816613327E-02  0.17130000030E+03  0.17130000000E+03 0.  1.
      622    1    1    2    0    0 -0.30391803608E-02 -0.25312990532E-02  0.39703235508E+01  0.39705270106E+01  0.40000000000E-01 0. -1.
</event>
<event>
 5   0  0.6200596E+07  0.9118800E+02  0.7818608E-02  0.1180000E+00
       11   -1    0    0    0    0  0.00000000000E+00  0.00000000000E+00  0.39999999673E+01  0.40000000000E+01  0.51109989000E-03 0.  1.
     -623   -1    0    0    0    0  0.00000000000E+00  0.00000000000E+00  0.12525980253E-10  0.17130000000E+03  0.17130000000E+03 0. -1.
       11    1    1    2    0    0 -0.10467321104E-02  0.12992651752E-02  0.23068718095E-01  0.23134621561E-01  0.51109989000E-03 0.  1.
     -623    1    1    2    0    0 -0.54693750953E-04  0.82591665513E-03  0.26776197771E-03  0.17130000000E+03  0.17130000000E+03 0. -1.
      622    1    1    2    0    0  0.11014258613E-02 -0.21251818304E-02  0.39766634873E+01  0.39768653762E+01  0.40000000000E-01 0.  1.
</event>
<event>
 5   0  0.6200596E+07  0.9118800E+02  0.7818608E-02  0.1180000E+00
       11   -1    0    0    0    0  0.00000000000E+00  0.00000000000E+00  0.39999999673E+01  0.40000000000E+01  0.51109989000E-03 0. -1.
     -623   -1    0    0    0    0  0.00000000000E+00  0.00000000000E+00  0.12525980253E-10  0.17130000000E+03  0.17130000000E+03 0. -1.
       11    1    1    2    0    0 -0.23441940631E-01 -0.50217342103E-01  0.18801432905E+01  0.18809599570E+01  0.51109989000E-03 0. -1.
     -623    1    1    2    0    0  0.40942866857E-02 -0.75410621216E-03  0.18958593600E-02  0.17130000006E+03  0.17130000000E+03 0. -1.
      622    1    1    2    0    0  0.19347653945E-01  0.50971448315E-01  0.21179608175E+01  0.21190399819E+01  0.40000000000E-01 0. -1.
</event>
<event>
 5   0  0.6200596E+07  0.9118800E+02  0.7818608E-02  0.1180000E+00
       11   -1    0    0    0    0  0.00000000000E+00  0.00000000000E+00  0.39999999673E+01  0.40000000000E+01  0.51109989000E-03 0. -1.
     -623   -1    0    0    0    0  0.00000000000E+00  0.00000000000E+00  0.12525980253E-10  0.17130000000E+03  0.17130000000E+03 0. -1.
       11    1    1    2    0    0 -0.23438522683E-02  0.17280036725E-01  0.31172574071E+00  0.31221353583E+00  0.51109989000E-03 0. -1.
     -623    1    1    2    0    0 -0.31837581126E-02 -0.21695121820E-01  0.71289213021E-03  0.17130000140E+03  0.17130000000E+03 0. -1.
      622    1    1    2    0    0  0.55276103810E-02  0.44150850956E-02  0.36875613345E+01  0.36877850593E+01  0.40000000000E-01 0. -1.
</event>
<event>
 5   0  0.6200596E+07  0.9118800E+02  0.7818608E-02  0.1180000E+00
       11   -1    0    0    0    0  0.00000000000E+00  0.00000000000E+00  0.39999999673E+01  0.40000000000E+01  0.51109989000E-03 0.  1.
     -623   -1    0    0    0    0  0.00000000000E+00  0.00000000000E+00  0.12525980253E-10  0.17130000000E+03  0.17130000000E+03 0.  1.
       11    1    1    2    0    0 -0.24921127979E-01  0.29981437841E-01  0.28772372318E+00  0.29035349376E+00  0.51109989000E-03 0.  1.
     -623    1    1    2    0    0  0.22928630081E-02  0.94512092679E-02  0.31243236476E-02  0.17130000030E+03  0.17130000000E+03 0.  1.
      622    1    1    2    0    0  0.22628264971E-01 -0.39432647109E-01  0.37091519205E+01  0.37096462017E+01  0.40000000000E-01 0.  1.
</event>
<event>
 5   0  0.6200596E+07  0.9118800E+02  0.7818608E-02  0.1180000E+00
       11   -1    0    0    0    0  0.00000000000E+00  0.00000000000E+00  0.39999999673E+01  0.40000000000E+01  0.51109989000E-03 0. -1.
     -623   -1    0    0    0    0  0.00000000000E+00  0.00000000000E+00  0.12525980253E-10  0.17130000000E+03  0.17130000000E+03 0.  1.
       11    1    1    2    0    0  0.43644398449E-02  0.33500651639E-02  0.13319352332E+01  0.13319466949E+01  0.51109989000E-03 0. -1.
     -623    1    1    2    0    0 -0.73535163444E-03 -0.60201692193E-04  0.31578877790E-03  0.17130000000E+03  0.17130000000E+03 0.  1.
      622    1    1    2    0    0 -0.36290882105E-02 -0.32898634717E-02  0.26677489453E+01  0.26680533032E+01  0.40000000000E-01 0. -1.
</event>
<event>
 5   0  0.6200596E+07  0.9118800E+02  0.7818608E-02  0.1180000E+00
       11   -1    0    0    0    0  0.00000000000E+00  0.00000000000E+00  0.39999999673E+01  0.40000000000E+01  0.51109989000E-03 0. -1.
     -623   -1    0    0    0    0  0.00000000000E+00  0.00000000000E+00  0.12525980253E-10  0.17130000000E+03  0.17130000000E+03 0. -1.
       11    1    1    2    0    0 -0.49443794261E-02  0.75005502897E-02  0.51551679115E+00  0.51559531449E+00  0.51109989000E-03 0. -1.
     -623    1    1    2    0    0 -0.21672789341E-02 -0.20880673352E-01  0.34232911212E-03  0.17130000129E+03  0.17130000000E+03 0. -1.
      622    1    1    2    0    0  0.71116583602E-02  0.13380123062E-01  0.34841408471E+01  0.34844033988E+01  0.40000000000E-01 0. -1.
</event>
<event>
 5   0  0.6200596E+07  0.9118800E+02  0.7818608E-02  0.1180000E+00
       11   -1    0    0    0    0  0.00000000000E+00  0.00000000000E+00  0.39999999673E+01  0.40000000000E+01  0.51109989000E-03 0. -1.
     -623   -1    0    0    0    0  0.00000000000E+00  0.00000000000E+00  0.12525980253E-10  0.17130000000E+03  0.17130000000E+03 0.  1.
       11    1    1    2    0    0 -0.49780007572E-02 -0.10009246393E-01  0.13713579807E+00  0.13759161980E+00  0.51109989000E-03 0. -1.
     -623    1    1    2    0    0 -0.15099646602E-02  0.99273867380E-04  0.68109075861E-03  0.17130000001E+03  0.17130000000E+03 0.  1.
      622    1    1    2    0    0  0.64879654174E-02  0.99099725258E-02  0.38621830785E+01  0.38624083722E+01  0.40000000000E-01 0. -1.
</event>
<event>
 5   0  0.6200596E+07  0.9118800E+02  0.7818608E-02  0.1180000E+00
       11   -1    0    0    0    0  0.00000000000E+00  0.00000000000E+00  0.39999999673E+01  0.40000000000E+01  0.51109989000E-03 0. -1.
     -623   -1    0    0    0    0  0.00000000000E+00  0.00000000000E+00  0.12525980253E-10  0.17130000000E+03  0.17130000000E+03 0.  1.
       11    1    1    2    0    0 -0.11078289395E-01  0.54049451609E-02  0.22779593227E+00  0.22812976551E+00  0.51109989000E-03 0. -1.
     -623    1    1    2    0    0 -0.15145305429E-02 -0.55478223798E-02  0.56702564058E-03  0.17130000010E+03  0.17130000000E+03 0.  1.
      622    1    1    2    0    0  0.12592819937E-01  0.14287721886E-03  0.37716370094E+01  0.37718701370E+01  0.40000000000E-01 0. -1.
</event>
<event>
 5   0  0.6200596E+07  0.9118800E+02  0.7818608E-02  0.1180000E+00
       11   -1    0    0    0    0  0.00000000000E+00  0.00000000000E+00  0.39999999673E+01  0.40000000000E+01  0.51109989000E-03 0.  1.
     -623   -1    0    0    0    0  0.00000000000E+00  0.00000000000E+00  0.12525980253E-10  0.17130000000E+03  0.17130000000E+03 0.  1.
       11    1    1    2    0    0  0.40081348888E-02 -0.89090497984E-02  0.65175126337E+00  0.65182467493E+00  0.51109989000E-03 0.  1.
     -623    1    1    2    0    0  0.98192134838E-03 -0.15668390679E-03  0.32831995645E-03  0.17130000000E+03  0.17130000000E+03 0.  1.
      622    1    1    2    0    0 -0.49900562372E-02  0.90657337052E-02  0.33479203840E+01  0.33481753219E+01  0.40000000000E-01 0.  1.
</event>
<event>
 5   0  0.6200596E+07  0.9118800E+02  0.7818608E-02  0.1180000E+00
       11   -1    0    0    0    0  0.00000000000E+00  0.00000000000E+00  0.39999999673E+01  0.40000000000E+01  0.51109989000E-03 0. -1.
     -623   -1    0    0    0    0  0.00000000000E+00  0.00000000000E+00  0.12525980253E-10  0.17130000000E+03  0.17130000000E+03 0. -1.
       11    1    1    2    0    0  0.21187775975E-01  0.25080114896E-02  0.15519137919E+01  0.15520605306E+01  0.51109989000E-03 0. -1.
     -623    1    1    2    0    0 -0.31753536458E-02 -0.12818532574E-02  0.54015480445E-03  0.17130000004E+03  0.17130000000E+03 0. -1.
      622    1    1    2    0    0 -0.18012422329E-01 -0.12261582322E-02  0.24475460207E+01  0.24479394343E+01  0.40000000000E-01 0.  0.
</event>
<event>
 5   0  0.6200596E+07  0.9118800E+02  0.7818608E-02  0.1180000E+00
       11   -1    0    0    0    0  0.00000000000E+00  0.00000000000E+00  0.39999999673E+01  0.40000000000E+01  0.51109989000E-03 0.  1.
     -623   -1    0    0    0    0  0.00000000000E+00  0.00000000000E+00  0.12525980253E-10  0.17130000000E+03  0.17130000000E+03 0.  1.
       11    1    1    2    0    0  0.10965935068E-03  0.34536987551E-03  0.20502297173E-01  0.20511867701E-01  0.51109989000E-03 0.  1.
     -623    1    1    2    0    0  0.37371070901E-03 -0.55055188602E-03  0.21060991449E-03  0.17130000000E+03  0.17130000000E+03 0.  1.
      622    1    1    2    0    0 -0.48337005969E-03  0.20518201051E-03  0.39792870603E+01  0.39794881309E+01  0.40000000000E-01 0.  1.
</event>
<event>
 5   0  0.6200596E+07  0.9118800E+02  0.7818608E-02  0.1180000E+00
       11   -1    0    0    0    0  0.00000000000E+00  0.00000000000E+00  0.39999999673E+01  0.40000000000E+01  0.51109989000E-03 0.  1.
     -623   -1    0    0    0    0  0.00000000000E+00  0.00000000000E+00  0.12525980253E-10  0.17130000000E+03  0.17130000000E+03 0. -1.
       11    1    1    2    0    0 -0.58796358399E-02 -0.23519524131E-01  0.59443418108E+00  0.59492856293E+00  0.51109989000E-03 0.  1.
     -623    1    1    2    0    0  0.10559172959E-02  0.28533496552E-03  0.81199799359E-03  0.17130000001E+03  0.17130000000E+03 0. -1.
      622    1    1    2    0    0  0.48237185440E-02  0.23234189166E-01  0.34047537883E+01  0.34050714316E+01  0.40000000000E-01 0.  1.
</event>
<event>
 5   0  0.6200596E+07  0.9118800E+02  0.7818608E-02  0.1180000E+00
       11   -1    0    0    0    0  0.00000000000E+00  0.00000000000E+00  0.39999999673E+01  0.40000000000E+01  0.51109989000E-03 0. -1.
     -623   -1    0    0    0    0  0.00000000000E+00  0.00000000000E+00  0.12525980253E-10  0.17130000000E+03  0.17130000000E+03 0.  1.
       11    1    1    2    0    0 -0.38713821822E-02  0.10801220170E-01  0.27826246586E+00  0.27849939872E+00  0.51109989000E-03 0. -1.
     -623    1    1    2    0    0  0.85066413502E-03 -0.11795235585E-01  0.45364108204E-03  0.17130000041E+03  0.17130000000E+03 0.  1.
      622    1    1    2    0    0  0.30207180472E-02  0.99401541493E-03  0.37212838604E+01  0.37215001925E+01  0.40000000000E-01 0.  0.
</event>
<event>
 5   0  0.6200596E+07  0.9118800E+02  0.7818608E-02  0.1180000E+00
       11   -1    0    0    0    0  0.00000000000E+00  0.00000000000E+00  0.39999999673E+01  0.40000000000E+01  0.51109989000E-03 0. -1.
     -623   -1    0    0    0    0  0.00000000000E+00  0.00000000000E+00  0.12525980253E-10  0.17130000000E+03  0.17130000000E+03 0.  1.
       11    1    1    2    0    0 -0.21869233962E-02  0.70372767278E-02  0.18759559278E+00  0.18774097462E+00  0.51109989000E-03 0. -1.
     -623    1    1    2    0    0  0.84849910875E-02 -0.71672224458E-02  0.36076966738E-03  0.17130000036E+03  0.17130000000E+03 0.  1.
      622    1    1    2    0    0 -0.62980676913E-02  0.12994571807E-03  0.38120436049E+01  0.38122586649E+01  0.40000000000E-01 0. -1.
</event>
<event>
 5   0  0.6200596E+07  0.9118800E+02  0.7818608E-02  0.1180000E+00
       11   -1    0    0    0    0  0.00000000000E+00  0.00000000000E+00  0.39999999673E+01  0.40000000000E+01  0.51109989000E-03 0.  1.
     -623   -1    0    0    0    0  0.00000000000E+00  0.00000000000E+00  0.12525980253E-10  0.17130000000E+03  0.17130000000E+03 0. -1.
       11    1    1    2    0    0 -0.59510320094E-03  0.37608907548E-03  0.62391761714E-02  0.62995341862E-02  0.51109989000E-03 0.  1.
     -623    1    1    2    0    0  0.51153756269E-03  0.50274543996E-03  0.26074514757E-03  0.17130000000E+03  0.17130000000E+03 0. -1.
      622    1    1    2    0    0  0.83565638249E-04 -0.87883451544E-03  0.39935000460E+01  0.39937004641E+01  0.40000000000E-01 0.  1.
</event>
<event>
 5   0  0.6200596E+07  0.9118800E+02  0.7818608E-02  0.1180000E+00
       11   -1    0    0    0    0  0.00000000000E+00  0.00000000000E+00  0.39999999673E+01  0.40000000000E+01  0.51109989000E-03 0.  1.
     -623   -1    0    0    0    0  0.00000000000E+00  0.00000000000E+00  0.12525980253E-10  0.17130000000E+03  0.17130000000E+03 0.  1.
       11    1    1    2    0    0  0.69310478678E-01  0.76129123113E-01  0.31064182929E+01  0.31081239450E+01  0.51109989000E-03 0.  1.
     -623    1    1    2    0    0 -0.29598553164E-01 -0.91812936498E-02  0.60127136649E-02  0.17130000291E+03  0.17130000000E+03 0.  1.
      622    1    1    2    0    0 -0.39711925514E-01 -0.66947829463E-01  0.88756896076E+00  0.89187314625E+00  0.40000000000E-01 0.  1.
</event>
<event>
 5   0  0.6200596E+07  0.9118800E+02  0.7818608E-02  0.1180000E+00
       11   -1    0    0    0    0  0.00000000000E+00  0.00000000000E+00  0.39999999673E+01  0.40000000000E+01  0.51109989000E-03 0.  1.
     -623   -1    0    0    0    0  0.00000000000E+00  0.00000000000E+00  0.12525980253E-10  0.17130000000E+03  0.17130000000E+03 0.  1.
       11    1    1    2    0    0 -0.51564168693E-02 -0.31284760509E-02  0.24926092627E+00  0.24933440714E+00  0.51109989000E-03 0.  1.
     -623    1    1    2    0    0  0.21955889569E-02 -0.60988210299E-02  0.29939245953E-03  0.17130000012E+03  0.17130000000E+03 0.  1.
      622    1    1    2    0    0  0.29608279124E-02  0.92272970808E-02  0.37504396486E+01  0.37506654700E+01  0.40000000000E-01 0.  1.
</event>
<event>
 5   0  0.6200596E+07  0.9118800E+02  0.7818608E-02  0.1180000E+00
       11   -1    0    0    0    0  0.00000000000E+00  0.00000000000E+00  0.39999999673E+01  0.40000000000E+01  0.51109989000E-03 0.  1.
     -623   -1    0    0    0    0  0.00000000000E+00  0.00000000000E+00  0.12525980253E-10  0.17130000000E+03  0.17130000000E+03 0. -1.
       11    1    1    2    0    0 -0.14953425198E-01 -0.60019373509E-01  0.21436690402E+01  0.21445612944E+01  0.51109989000E-03 0.  1.
     -623    1    1    2    0    0 -0.65017583366E-02 -0.10264741685E-01  0.27800306928E-02  0.17130000045E+03  0.17130000000E+03 0. -1.
      622    1    1    2    0    0  0.21455183534E-01  0.70284115195E-01  0.18535508965E+01  0.18554382521E+01  0.40000000000E-01 0.  1.
</event>
<event>
 5   0  0.6200596E+07  0.9118800E+02  0.7818608E-02  0.1180000E+00
       11   -1    0    0    0    0  0.00000000000E+00  0.00000000000E+00  0.39999999673E+01  0.40000000000E+01  0.51109989000E-03 0. -1.
     -623   -1    0    0    0    0  0.00000000000E+00  0.00000000000E+00  0.12525980253E-10  0.17130000000E+03  0.17130000000E+03 0.  1.
       11    1    1    2    0    0 -0.12270045436E-02 -0.29150322889E-02  0.51955452037E-01  0.52054136935E-01  0.51109989000E-03 0. -1.
     -623    1    1    2    0    0 -0.23578560046E-03  0.17672965261E-03  0.30251570772E-03  0.17130000000E+03  0.17130000000E+03 0.  1.
      622    1    1    2    0    0  0.14627901440E-02  0.27383026363E-02  0.39477419996E+01  0.39479458625E+01  0.40000000000E-01 0. -1.
</event>
<event>
 5   0  0.6200596E+07  0.9118800E+02  0.7818608E-02  0.1180000E+00
       11   -1    0    0    0    0  0.00000000000E+00  0.00000000000E+00  0.39999999673E+01  0.40000000000E+01  0.51109989000E-03 0.  1.
     -623   -1    0    0    0    0  0.00000000000E+00  0.00000000000E+00  0.12525980253E-10  0.17130000000E+03  0.17130000000E+03 0.  1.
       11    1    1    2    0    0  0.23726523642E-01 -0.29362451372E-02  0.16158333372E+01  0.16160102736E+01  0.51109989000E-03 0.  1.
     -623    1    1    2    0    0 -0.41628007249E-01  0.14397326322E-01  0.61294090989E-03  0.17130000566E+03  0.17130000000E+03 0.  1.
      622    1    1    2    0    0  0.17901483607E-01 -0.11461081185E-01  0.23835536892E+01  0.23839840622E+01  0.40000000000E-01 0.  1.
</event>
<event>
 5   0  0.6200596E+07  0.9118800E+02  0.7818608E-02  0.1180000E+00
       11   -1    0    0    0    0  0.00000000000E+00  0.00000000000E+00  0.39999999673E+01  0.40000000000E+01  0.51109989000E-03 0. -1.
     -623   -1    0    0    0    0  0.00000000000E+00  0.00000000000E+00  0.12525980253E-10  0.17130000000E+03  0.17130000000E+03 0.  1.
       11    1    1    2    0    0 -0.19046745092E-01  0.25066600354E-01  0.98957112626E+00  0.99007191057E+00  0.51109989000E-03 0. -1.
     -623    1    1    2    0    0 -0.14174277951E-02 -0.64023186383E-03  0.93525981225E-03  0.17130000001E+03  0.17130000000E+03 0.  1.
      622    1    1    2    0    0  0.20464172887E-01 -0.24426368490E-01  0.30094935813E+01  0.30099280798E+01  0.40000000000E-01 0. -1.
</event>
<event>
 5   0  0.6200596E+07  0.9118800E+02  0.7818608E-02  0.1180000E+00
       11   -1    0    0    0    0  0.00000000000E+00  0.00000000000E+00  0.39999999673E+01  0.40000000000E+01  0.51109989000E-03 0.  1.
     -623   -1    0    0    0    0  0.00000000000E+00  0.00000000000E+00  0.12525980253E-10  0.17130000000E+03  0.17130000000E+03 0. -1.
       11    1    1    2    0    0 -0.38785588807E-02 -0.36142832569E-02  0.44359500439E+00  0.44362697777E+00  0.51109989000E-03 0.  1.
     -623    1    1    2    0    0  0.58915176519E-03 -0.57905498543E-04  0.26031470191E-03  0.17130000000E+03  0.17130000000E+03 0. -1.
      622    1    1    2    0    0  0.32894071155E-02  0.36721887555E-02  0.35561446483E+01  0.35563730210E+01  0.40000000000E-01 0.  1.
</event>
<event>
 5   0  0.6200596E+07  0.9118800E+02  0.7818608E-02  0.1180000E+00
       11   -1    0    0    0    0  0.00000000000E+00  0.00000000000E+00  0.39999999673E+01  0.40000000000E+01  0.51109989000E-03 0. -1.
     -623   -1    0    0    0    0  0.00000000000E+00  0.00000000000E+00  0.12525980253E-10  0.17130000000E+03  0.17130000000E+03 0. -1.
       11    1    1    2    0    0  0.31852056246E-01  0.35830231592E-02  0.78987569803E+00  0.79052594588E+00  0.51109989000E-03 0. -1.
     -623    1    1    2    0    0 -0.33097758374E-01 -0.15081245110E-01  0.92419122692E-03  0.17130000386E+03  0.17130000000E+03 0. -1.
      622    1    1    2    0    0  0.12457021278E-02  0.11498221951E-01  0.32092000781E+01  0.32094701903E+01  0.40000000000E-01 0. -1.
</event>
<event>
 5   0  0.6200596E+07  0.9118800E+02  0.7818608E-02  0.1180000E+00
       11   -1    0    0    0    0  0.00000000000E+00  0.00000000000E+00  0.39999999673E+01  0.40000000000E+01  0.51109989000E-03 0.  1.
     -623   -1    0    0    0    0  0.00000000000E+00  0.00000000000E+00  0.12525980253E-10  0.17130000000E+03  0.17130000000E+03 0.  1.
       11    1    1    2    0    0 -0.32562590577E-02  0.11055803817E-02  0.34345814755E-01  0.34521323024E-01  0.51109989000E-03 0.  1.
     -623    1    1    2    0    0  0.94944302226E-03  0.30291494754E-02  0.38007840381E-03  0.17130000003E+03  0.17130000000E+03 0.  1.
      622    1    1    2    0    0  0.23068160354E-02 -0.41347298571E-02  0.39652740742E+01  0.39654786471E+01  0.40000000000E-01 0.  1.
</event>
<event>
 5   0  0.6200596E+07  0.9118800E+02  0.7818608E-02  0.1180000E+00
       11   -1    0    0    0    0  0.00000000000E+00  0.00000000000E+00  0.39999999673E+01  0.40000000000E+01  0.51109989000E-03 0.  1.
     -623   -1    0    0    0    0  0.00000000000E+00  0.00000000000E+00  0.12525980253E-10  0.17130000000E+03  0.17130000000E+03 0. -1.
       11    1    1    2    0    0 -0.11121004422E-02  0.10545345173E-03  0.24013143879E-01  0.24044545899E-01  0.51109989000E-03 0.  1.
     -623    1    1    2    0    0  0.31810216214E-03  0.95605623458E-03  0.23280808453E-03  0.17130000000E+03  0.17130000000E+03 0. -1.
      622    1    1    2    0    0  0.79399828006E-03 -0.10615096863E-02  0.39757540154E+01  0.39759554510E+01  0.40000000000E-01 0.  1.
</event>
<event>
 5   0  0.6200596E+07  0.9118800E+02  0.7818608E-02  0.1180000E+00
       11   -1    0    0    0    0  0.00000000000E+00  0.00000000000E+00  0.39999999673E+01  0.40000000000E+01  0.51109989000E-03 0. -1.
     -623   -1    0    0    0    0  0.00000000000E+00  0.00000000000E+00  0.12525980253E-10  0.17130000000E+03  0.17130000000E+03 0.  1.
       11    1    1    2    0    0  0.40522745449E-01 -0.43249717820E-01  0.19439801174E+01  0.19448834384E+01  0.51109989000E-03 0. -1.
     -623    1    1    2    0    0 -0.11541871576E-01  0.11409745702E-01  0.17445007780E-02  0.17130000078E+03  0.17130000000E+03 0.  1.
      622    1    1    2    0    0 -0.28980873873E-01  0.31839972118E-01  0.20542753492E+01  0.20551157839E+01  0.40000000000E-01 0. -1.
</event>
<event>
 5   0  0.6200596E+07  0.9118800E+02  0.7818608E-02  0.1180000E+00
       11   -1    0    0    0    0  0.00000000000E+00  0.00000000000E+00  0.39999999673E+01  0.40000000000E+01  0.51109989000E-03 0. -1.
     -623   -1    0    0    0    0  0.00000000000E+00  0.00000000000E+00  0.12525980253E-10  0.17130000000E+03  0.17130000000E+03 0. -1.
       11    1    1    2    0    0  0.37680801400E-02 -0.46789731731E-02  0.74716739692E+00  0.74719172336E+00  0.51109989000E-03 0. -1.
     -623    1    1    2    0    0  0.11863833097E-02 -0.57389927909E-03  0.27826486007E-03  0.17130000001E+03  0.17130000000E+03 0. -1.
      622    1    1    2    0    0 -0.49544634497E-02  0.52528724522E-02  0.32525543056E+01  0.32528082713E+01  0.40000000000E-01 0. -1.
</event>
<event>
 5   0  0.6200596E+07  0.9118800E+02  0.7818608E-02  0.1180000E+00
       11   -1    0    0    0    0  0.00000000000E+00  0.00000000000E+00  0.39999999673E+01  0.40000000000E+01  0.51109989000E-03 0.  1.
     -623   -1    0    0    0    0  0.00000000000E+00  0.00000000000E+00  0.12525980253E-10  0.17130000000E+03  0.17130000000E+03 0. -1.
       11    1    1    2    0    0 -0.73712323387E-02 -0.69362356149E-02  0.17030420182E+01  0.17030721721E+01  0.51109989000E-03 0.  1.
     -623    1    1    2    0    0  0.19255711614E-01  0.10777877159E-01  0.41382464461E-03  0.17130000142E+03  0.17130000000E+03 0. -1.
      622    1    1    2    0    0 -0.11884479275E-01 -0.38416415443E-02  0.22965441245E+01  0.22969264060E+01  0.40000000000E-01 0.  1.
</event>
<event>
 5   0  0.6200596E+07  0.9118800E+02  0.7818608E-02  0.1180000E+00
       11   -1    0    0    0    0  0.00000000000E+00  0.00000000000E+00  0.39999999673E+01  0.40000000000E+01  0.51109989000E-03 0. -1.
     -623   -1    0    0    0    0  0.00000000000E+00  0.00000000000E+00  0.12525980253E-10  0.17130000000E+03  0.17130000000E+03 0.  1.
       11    1    1    2    0    0 -0.74093324196E-02 -0.30460874227E-02  0.12942127437E+00  0.12966998240E+00  0.51109989000E-03 0. -1.
     -623    1    1    2    0    0 -0.33661903893E-03  0.19442010751E-03  0.46418498871E-03  0.17130000000E+03  0.17130000000E+03 0.  1.
      622    1    1    2    0    0  0.77459514585E-02  0.28516673152E-02  0.38701145080E+01  0.38703300165E+01  0.40000000000E-01 0. -1.
</event>
<event>
 5   0  0.6200596E+07  0.9118800E+02  0.7818608E-02  0.1180000E+00
       11   -1    0    0    0    0  0.00000000000E+00  0.00000000000E+00  0.39999999673E+01  0.40000000000E+01  0.51109989000E-03 0. -1.
     -623   -1    0    0    0    0  0.00000000000E+00  0.00000000000E+00  0.12525980253E-10  0.17130000000E+03  0.17130000000E+03 0.  1.
       11    1    1    2    0    0  0.17778449709E-02 -0.16220200436E-02  0.19982036621E-01  0.20132925530E-01  0.51109989000E-03 0. -1.
     -623    1    1    2    0    0  0.51642149173E-03  0.22953454171E-03  0.35277931401E-03  0.17130000000E+03  0.17130000000E+03 0.  1.
      622    1    1    2    0    0 -0.22942664627E-02  0.13924855019E-02  0.39796651514E+01  0.39798670732E+01  0.40000000000E-01 0. -1.
</event>
<event>
 5   0  0.6200596E+07  0.9118800E+02  0.7818608E-02  0.1180000E+00
       11   -1    0    0    0    0  0.00000000000E+00  0.00000000000E+00  0.39999999673E+01  0.40000000000E+01  0.51109989000E-03 0. -1.
     -623   -1    0    0    0    0  0.00000000000E+00  0.00000000000E+00  0.12525980253E-10  0.17130000000E+03  0.17130000000E+03 0.  1.
       11    1    1    2    0    0  0.22037879548E-03  0.56372709514E-02  0.73542385289E-01  0.73760226723E-01  0.51109989000E-03 0. -1.
     -623    1    1    2    0    0 -0.18857367632E-02 -0.10948083182E-02  0.42456682889E-03  0.17130000001E+03  0.17130000000E+03 0.  1.
      622    1    1    2    0    0  0.16653579677E-02 -0.45424626333E-02  0.39260330152E+01  0.39262397589E+01  0.40000000000E-01 0. -1.
</event>
<event>
 5   0  0.6200596E+07  0.9118800E+02  0.7818608E-02  0.1180000E+00
       11   -1    0    0    0    0  0.00000000000E+00  0.00000000000E+00  0.39999999673E+01  0.40000000000E+01  0.51109989000E-03 0.  1.
     -623   -1    0    0    0    0  0.00000000000E+00  0.00000000000E+00  0.12525980253E-10  0.17130000000E+03  0.17130000000E+03 0.  1.
       11    1    1    2    0    0 -0.17229829677E-01 -0.76721943191E-02  0.43579036063E+00  0.43619861214E+00  0.51109989000E-03 0.  1.
     -623    1    1    2    0    0  0.16062210843E-02 -0.44515337243E-02  0.68764462851E-03  0.17130000007E+03  0.17130000000E+03 0.  1.
      622    1    1    2    0    0  0.15623608592E-01  0.12123728043E-01  0.35635219621E+01  0.35638013211E+01  0.40000000000E-01 0.  1.
</event>
<event>
 5   0  0.6200596E+07  0.9118800E+02  0.7818608E-02  0.1180000E+00
       11   -1    0    0    0    0  0.00000000000E+00  0.00000000000E+00  0.39999999673E+01  0.40000000000E+01  0.51109989000E-03 0. -1.
     -623   -1    0    0    0    0  0.00000000000E+00  0.00000000000E+00  0.12525980253E-10  0.17130000000E+03  0.17130000000E+03 0.  1.
       11    1    1    2    0    0  0.47217390196E-02 -0.55559964086E-02  0.10453631393E+00  0.10479153623E+00  0.51109989000E-03 0. -1.
     -623    1    1    2    0    0  0.26599384821E-02  0.46837876751E-02  0.46775336233E-03  0.17130000009E+03  0.17130000000E+03 0.  1.
      622    1    1    2    0    0 -0.73816775018E-02  0.87220873349E-03  0.38949959001E+01  0.38952083784E+01  0.40000000000E-01 0. -1.
</event>
<event>
 5   0  0.6200596E+07  0.9118800E+02  0.7818608E-02  0.1180000E+00
       11   -1    0    0    0    0  0.00000000000E+00  0.00000000000E+00  0.39999999673E+01  0.40000000000E+01  0.51109989000E-03 0.  1.
     -623   -1    0    0    0    0  0.00000000000E+00  0.00000000000E+00  0.12525980253E-10  0.17130000000E+03  0.17130000000E+03 0. -1.
       11    1    1    2    0    0 -0.19621251530E-01  0.10003851342E-01  0.65561488068E+00  0.65598491106E+00  0.51109989000E-03 0.  1.
     -623    1    1    2    0    0  0.97572501320E-03  0.53975434360E-03  0.67785390585E-03  0.17130000000E+03  0.17130000000E+03 0. -1.
      622    1    1    2    0    0  0.18645526517E-01 -0.10543605685E-01  0.33437072328E+01  0.33440150840E+01  0.40000000000E-01 0.  1.
</event>
<event>
 5   0  0.6200596E+07  0.9118800E+02  0.7818608E-02  0.1180000E+00
       11   -1    0    0    0    0  0.00000000000E+00  0.00000000000E+00  0.39999999673E+01  0.40000000000E+01  0.51109989000E-03 0.  1.
     -623   -1    0    0    0    0  0.00000000000E+00  0.00000000000E+00  0.12525980253E-10  0.17130000000E+03  0.17130000000E+03 0. -1.
       11    1    1    2    0    0 -0.16726134535E-02 -0.14983268956E-02  0.15187474208E+00  0.15189220231E+00  0.51109989000E-03 0.  1.
     -623    1    1    2    0    0  0.23609936850E-02 -0.45749512020E-03  0.22590325063E-03  0.17130000002E+03  0.17130000000E+03 0. -1.
      622    1    1    2    0    0 -0.68838023156E-03  0.19558220158E-02  0.38478993220E+01  0.38481077807E+01  0.40000000000E-01 0.  1.
</event>
<event>
 5   0  0.6200596E+07  0.9118800E+02  0.7818608E-02  0.1180000E+00
       11   -1    0    0    0    0  0.00000000000E+00  0.00000000000E+00  0.39999999673E+01  0.40000000000E+01  0.51109989000E-03 0.  1.
     -623   -1    0    0    0    0  0.00000000000E+00  0.00000000000E+00  0.12525980253E-10  0.17130000000E+03  0.17130000000E+03 0.  1.
       11    1    1    2    0    0  0.19610531885E-02  0.19413285426E-02  0.78450027681E-02  0.83318531182E-02  0.51109989000E-03 0.  1.
     -623    1    1    2    0    0 -0.26697448910E-02 -0.36534425406E-02  0.68773146636E-03  0.17130000006E+03  0.17130000000E+03 0.  1.
      622    1    1    2    0    0  0.70869170251E-03  0.17121139980E-02  0.39914672331E+01  0.39916680857E+01  0.40000000000E-01 0.  1.
</event>
<event>
 5   0  0.6200596E+07  0.9118800E+02  0.7818608E-02  0.1180000E+00
       11   -1    0    0    0    0  0.00000000000E+00  0.00000000000E+00  0.39999999673E+01  0.40000000000E+01  0.51109989000E-03 0. -1.
     -623   -1    0    0    0    0  0.00000000000E+00  0.00000000000E+00  0.12525980253E-10  0.17130000000E+03  0.17130000000E+03 0. -1.
       11    1    1    2    0    0 -0.25050540231E-02 -0.84367300697E-02  0.29534186044E-01  0.30821795500E-01  0.51109989000E-03 0. -1.
     -623    1    1    2    0    0 -0.81875763138E-03 -0.41158683287E-02  0.15104347905E-02  0.17130000006E+03  0.17130000000E+03 0. -1.
      622    1    1    2    0    0  0.33238116545E-02  0.12552598398E-01  0.39689553465E+01  0.39691781464E+01  0.40000000000E-01 0. -1.
</event>
<event>
 5   0  0.6200596E+07  0.9118800E+02  0.7818608E-02  0.1180000E+00
       11   -1    0    0    0    0  0.00000000000E+00  0.00000000000E+00  0.39999999673E+01  0.40000000000E+01  0.51109989000E-03 0.  1.
     -623   -1    0    0    0    0  0.00000000000E+00  0.00000000000E+00  0.12525980253E-10  0.17130000000E+03  0.17130000000E+03 0. -1.
       11    1    1    2    0    0 -0.41483829461E-03  0.60449551161E-04  0.12375549533E-01  0.12393191369E-01  0.51109989000E-03 0.  1.
     -623    1    1    2    0    0  0.18453461293E-04  0.13390927138E-02  0.21850651826E-03  0.17130000001E+03  0.17130000000E+03 0. -1.
      622    1    1    2    0    0  0.39638483331E-03 -0.13995422650E-02  0.39874059113E+01  0.39876068033E+01  0.40000000000E-01 0.  1.
</event>
<event>
 5   0  0.6200596E+07  0.9118800E+02  0.7818608E-02  0.1180000E+00
       11   -1    0    0    0    0  0.00000000000E+00  0.00000000000E+00  0.39999999673E+01  0.40000000000E+01  0.51109989000E-03 0. -1.
     -623   -1    0    0    0    0  0.00000000000E+00  0.00000000000E+00  0.12525980253E-10  0.17130000000E+03  0.17130000000E+03 0. -1.
       11    1    1    2    0    0 -0.54336500321E-02  0.22570061083E-02  0.26687861978E+00  0.26694395956E+00  0.51109989000E-03 0. -1.
     -623    1    1    2    0    0 -0.22259136261E-02 -0.87011866163E-02  0.29327159021E-03  0.17130000024E+03  0.17130000000E+03 0. -1.
      622    1    1    2    0    0  0.76595636582E-02  0.64441805080E-02  0.37328280760E+01  0.37330558047E+01  0.40000000000E-01 0. -1.
</event>
<event>
 5   0  0.6200596E+07  0.9118800E+02  0.7818608E-02  0.1180000E+00
       11   -1    0    0    0    0  0.00000000000E+00  0.00000000000E+00  0.39999999673E+01  0.40000000000E+01  0.51109989000E-03 0.  1.
     -623   -1    0    0    0    0  0.00000000000E+00  0.00000000000E+00  0.12525980253E-10  0.17130000000E+03  0.17130000000E+03 0.  1.
       11    1    1    2    0    0 -0.37816141949E-01  0.27810565475E-01  0.26767570625E+01  0.26771686762E+01  0.51109989000E-03 0.  1.
     -623    1    1    2    0    0 -0.94130066175E-02 -0.55888144159E-02  0.20474785007E-02  0.17130000036E+03  0.17130000000E+03 0.  1.
      622    1    1    2    0    0  0.47229148567E-01 -0.22221751060E-01  0.13211954264E+01  0.13228309618E+01  0.40000000000E-01 0.  0.
</event>
<event>
 5   0  0.6200596E+07  0.9118800E+02  0.7818608E-02  0.1180000E+00
       11   -1    0    0    0    0  0.00000000000E+00  0.00000000000E+00  0.39999999673E+01  0.40000000000E+01  0.51109989000E-03 0. -1.
     -623   -1    0    0    0    0  0.00000000000E+00  0.00000000000E+00  0.12525980253E-10  0.17130000000E+03  0.17130000000E+03 0.  1.
       11    1    1    2    0    0  0.18460177985E-02  0.14021549413E-02  0.15207340809E+00  0.15209193433E+00  0.51109989000E-03 0. -1.
     -623    1    1    2    0    0  0.39480469281E-02  0.85323595202E-03  0.23147569605E-03  0.17130000005E+03  0.17130000000E+03 0.  1.
      622    1    1    2    0    0 -0.57940647266E-02 -0.22553908933E-02  0.38476950836E+01  0.38479080179E+01  0.40000000000E-01 0. -1.
</event>
<event>
 5   0  0.6200596E+07  0.9118800E+02  0.7818608E-02  0.1180000E+00
       11   -1    0    0    0    0  0.00000000000E+00  0.00000000000E+00  0.39999999673E+01  0.40000000000E+01  0.51109989000E-03 0. -1.
     -623   -1    0    0    0    0  0.00000000000E+00  0.00000000000E+00  0.12525980253E-10  0.17130000000E+03  0.17130000000E+03 0. -1.
       11    1    1    2    0    0  0.25566087291E-02 -0.54392622679E-02  0.35446554637E+00  0.35451686365E+00  0.51109989000E-03 0. -1.
     -623    1    1    2    0    0  0.16657520135E-02 -0.77675268674E-03  0.27849626556E-03  0.17130000001E+03  0.17130000000E+03 0. -1.
      622    1    1    2    0    0 -0.42223607426E-02  0.62160149547E-02  0.36452559247E+01  0.36454831263E+01  0.40000000000E-01 0. -1.
</event>
<event>
 5   0  0.6200596E+07  0.9118800E+02  0.7818608E-02  0.1180000E+00
       11   -1    0    0    0    0  0.00000000000E+00  0.00000000000E+00  0.39999999673E+01  0.40000000000E+01  0.51109989000E-03 0. -1.
     -623   -1    0    0    0    0  0.00000000000E+00  0.00000000000E+00  0.12525980253E-10  0.17130000000E+03  0.17130000000E+03 0. -1.
       11    1    1    2    0    0  0.50968307393E-02 -0.11133092979E-01  0.77858612189E+00  0.77868256296E+00  0.51109989000E-03 0. -1.
     -623    1    1    2    0    0 -0.27021984006E-02  0.11528287350E-02  0.36114092460E-03  0.17130000003E+03  0.17130000000E+03 0. -1.
      622    1    1    2    0    0 -0.23946323387E-02  0.99802642444E-02  0.32210527045E+01  0.32213174115E+01  0.40000000000E-01 0.  0.
</event>
<event>
 5   0  0.6200596E+07  0.9118800E+02  0.7818608E-02  0.1180000E+00
       11   -1    0    0    0    0  0.00000000000E+00  0.00000000000E+00  0.39999999673E+01  0.40000000000E+01  0.51109989000E-03 0. -1.
     -623   -1    0    0    0    0  0.00000000000E+00  0.00000000000E+00  0.12525980253E-10  0.17130000000E+03  0.17130000000E+03 0. -1.
       11    1    1    2    0    0  0.28810450787E-01 -0.37305951032E-01  0.39872155023E+00  0.40149833362E+00  0.51109989000E-03 0. -1.
     -623    1    1    2    0    0 -0.19129183965E-01  0.23710721651E-03  0.32041387132E-02  0.17130000110E+03  0.17130000000E+03 0. -1.
      622    1    1    2    0    0 -0.96812668226E-02  0.37068843815E-01  0.35980742784E+01  0.35985005682E+01  0.40000000000E-01 0. -1.
</event>
<event>
 5   0  0.6200596E+07  0.9118800E+02  0.7818608E-02  0.1180000E+00
       11   -1    0    0    0    0  0.00000000000E+00  0.00000000000E+00  0.39999999673E+01  0.40000000000E+01  0.51109989000E-03 0.  1.
     -623   -1    0    0    0    0  0.00000000000E+00  0.00000000000E+00  0.12525980253E-10  0.17130000000E+03  0.17130000000E+03 0.  1.
       11    1    1    2    0    0 -0.20635281193E-01 -0.39446584534E-02  0.57266108307E+00  0.57304655347E+00  0.51109989000E-03 0.  1.
     -623    1    1    2    0    0 -0.76487977362E-03 -0.54134391217E-03  0.68865315618E-03  0.17130000000E+03  0.17130000000E+03 0.  1.
      622    1    1    2    0    0  0.21400160967E-01  0.44860023655E-02  0.34266502311E+01  0.34269534426E+01  0.40000000000E-01 0.  0.
</event>
<event>
 5   0  0.6200596E+07  0.9118800E+02  0.7818608E-02  0.1180000E+00
       11   -1    0    0    0    0  0.00000000000E+00  0.00000000000E+00  0.39999999673E+01  0.40000000000E+01  0.51109989000E-03 0.  1.
     -623   -1    0    0    0    0  0.00000000000E+00  0.00000000000E+00  0.12525980253E-10  0.17130000000E+03  0.17130000000E+03 0. -1.
       11    1    1    2    0    0 -0.64691864337E-02 -0.21794061365E-01  0.48463776533E+00  0.48517095574E+00  0.51109989000E-03 0.  1.
     -623    1    1    2    0    0 -0.38661391263E-02  0.23605184538E-01  0.77810727217E-03  0.17130000167E+03  0.17130000000E+03 0. -1.
      622    1    1    2    0    0  0.10335325560E-01 -0.18111231726E-02  0.35145840948E+01  0.35148273725E+01  0.40000000000E-01 0.  1.
</event>
<event>
 5   0  0.6200596E+07  0.9118800E+02  0.7818608E-02  0.1180000E+00
       11   -1    0    0    0    0  0.00000000000E+00  0.00000000000E+00  0.39999999673E+01  0.40000000000E+01  0.51109989000E-03 0.  1.
     -623   -1    0    0    0    0  0.00000000000E+00  0.00000000000E+00  0.12525980253E-10  0.17130000000E+03  0.17130000000E+03 0.  1.
       11    1    1    2    0    0  0.13866481433E-01  0.29407765606E-01  0.26551811814E+00  0.26750182853E+00  0.51109989000E-03 0.  1.
     -623    1    1    2    0    0 -0.39289920474E-02 -0.40634399665E-03  0.23239873051E-02  0.17130000006E+03  0.17130000000E+03 0.  1.
      622    1    1    2    0    0 -0.99374893854E-02 -0.29001421609E-01  0.37321578619E+01  0.37324981102E+01  0.40000000000E-01 0.  1.
</event>
<event>
 5   0  0.6200596E+07  0.9118800E+02  0.7818608E-02  0.1180000E+00
       11   -1    0    0    0    0  0.00000000000E+00  0.00000000000E+00  0.39999999673E+01  0.40000000000E+01  0.51109989000E-03 0.  1.
     -623   -1    0    0    0    0  0.00000000000E+00  0.00000000000E+00  0.12525980253E-10  0.17130000000E+03  0.17130000000E+03 0. -1.
       11    1    1    2    0    0  0.11706175504E-02  0.20572939819E-01  0.25869942846E-01  0.33077656543E-01  0.51109989000E-03 0.  1.
     -623    1    1    2    0    0  0.74570647561E-02 -0.14997195205E-01  0.74236349935E-02  0.17130000098E+03  0.17130000000E+03 0. -1.
      622    1    1    2    0    0 -0.86276823064E-02 -0.55757446141E-02  0.39667063895E+01  0.39669213638E+01  0.40000000000E-01 0.  1.
</event>
<event>
 5   0  0.6200596E+07  0.9118800E+02  0.7818608E-02  0.1180000E+00
       11   -1    0    0    0    0  0.00000000000E+00  0.00000000000E+00  0.39999999673E+01  0.40000000000E+01  0.51109989000E-03 0. -1.
     -623   -1    0    0    0    0  0.00000000000E+00  0.00000000000E+00  0.12525980253E-10  0.17130000000E+03  0.17130000000E+03 0. -1.
       11    1    1    2    0    0 -0.42211712658E-02  0.15330369799E-02  0.86447204897E-01  0.86565287187E-01  0.51109989000E-03 0. -1.
     -623    1    1    2    0    0  0.10020184760E-02  0.24730710669E-03  0.32421149032E-03  0.17130000000E+03  0.17130000000E+03 0. -1.
      622    1    1    2    0    0  0.32191527898E-02 -0.17803440866E-02  0.39132285510E+01  0.39134347094E+01  0.40000000000E-01 0. -1.
</event>
<event>
 5   0  0.6200596E+07  0.9118800E+02  0.7818608E-02  0.1180000E+00
       11   -1    0    0    0    0  0.00000000000E+00  0.00000000000E+00  0.39999999673E+01  0.40000000000E+01  0.51109989000E-03 0.  1.
     -623   -1    0    0    0    0  0.00000000000E+00  0.00000000000E+00  0.12525980253E-10  0.17130000000E+03  0.17130000000E+03 0.  1.
       11    1    1    2    0    0  0.39827463524E-01  0.47663989479E-01  0.20357766561E+01  0.20367240701E+01  0.51109989000E-03 0.  1.
     -623    1    1    2    0    0 -0.26066589566E-01  0.32746992697E-02  0.20662568271E-02  0.17130000203E+03  0.17130000000E+03 0.  1.
      622    1    1    2    0    0 -0.13760873958E-01 -0.50938688749E-01  0.19621570544E+01  0.19632739029E+01  0.40000000000E-01 0.  1.
</event>
<event>
 5   0  0.6200596E+07  0.9118800E+02  0.7818608E-02  0.1180000E+00
       11   -1    0    0    0    0  0.00000000000E+00  0.00000000000E+00  0.39999999673E+01  0.40000000000E+01  0.51109989000E-03 0. -1.
     -623   -1    0    0    0    0  0.00000000000E+00  0.00000000000E+00  0.12525980253E-10  0.17130000000E+03  0.17130000000E+03 0.  1.
       11    1    1    2    0    0 -0.53517262504E-02  0.12851565113E-01  0.12584513703E+01  0.12585284726E+01  0.51109989000E-03 0. -1.
     -623    1    1    2    0    0  0.14549409871E-02  0.12310295363E-03  0.40238207647E-03  0.17130000001E+03  0.17130000000E+03 0.  1.
      622    1    1    2    0    0  0.38967852633E-02 -0.12974668067E-01  0.27411462149E+01  0.27414715207E+01  0.40000000000E-01 0. -1.
</event>
<event>
 5   0  0.6200596E+07  0.9118800E+02  0.7818608E-02  0.1180000E+00
       11   -1    0    0    0    0  0.00000000000E+00  0.00000000000E+00  0.39999999673E+01  0.40000000000E+01  0.51109989000E-03 0.  1.
     -623   -1    0    0    0    0  0.00000000000E+00  0.00000000000E+00  0.12525980253E-10  0.17130000000E+03  0.17130000000E+03 0.  1.
       11    1    1    2    0    0  0.24306719380E-01  0.17441196374E-01  0.95937479085E+00  0.95984126942E+00  0.51109989000E-03 0.  1.
     -623    1    1    2    0    0 -0.24717884221E-02 -0.20895949046E-02  0.84681738534E-03  0.17130000003E+03  0.17130000000E+03 0.  1.
      622    1    1    2    0    0 -0.21834930958E-01 -0.15351601470E-01  0.30397783591E+01  0.30401586979E+01  0.40000000000E-01 0.  0.
</event>
<event>
 5   0  0.6200596E+07  0.9118800E+02  0.7818608E-02  0.1180000E+00
       11   -1    0    0    0    0  0.00000000000E+00  0.00000000000E+00  0.39999999673E+01  0.40000000000E+01  0.51109989000E-03 0.  1.
     -623   -1    0    0    0    0  0.00000000000E+00  0.00000000000E+00  0.12525980253E-10  0.17130000000E+03  0.17130000000E+03 0. -1.
       11    1    1    2    0    0  0.70384870102E-02  0.40937830674E-01  0.92245413931E-01  0.10116780067E+00  0.51109989000E-03 0.  1.
     -623    1    1    2    0    0 -0.14080042206E-01 -0.45030988161E-01  0.91427987937E-02  0.17130000674E+03  0.17130000000E+03 0. -1.
      622    1    1    2    0    0  0.70415551959E-02  0.40931574864E-02  0.38986117546E+01  0.38988254579E+01  0.40000000000E-01 0.  1.
</event>
<event>
 5   0  0.6200596E+07  0.9118800E+02  0.7818608E-02  0.1180000E+00
       11   -1    0    0    0    0  0.00000000000E+00  0.00000000000E+00  0.39999999673E+01  0.40000000000E+01  0.51109989000E-03 0.  1.
     -623   -1    0    0    0    0  0.00000000000E+00  0.00000000000E+00  0.12525980253E-10  0.17130000000E+03  0.17130000000E+03 0.  1.
       11    1    1    2    0    0 -0.12651469302E-01 -0.67902587363E-02  0.36718342078E+00  0.36746441053E+00  0.51109989000E-03 0.  1.
     -623    1    1    2    0    0 -0.22070053833E-02  0.11521945775E-03  0.53773450532E-03  0.17130000002E+03  0.17130000000E+03 0.  1.
      622    1    1    2    0    0  0.14858474686E-01  0.66750392786E-02  0.36322788121E+01  0.36325355744E+01  0.40000000000E-01 0.  0.
</event>
<event>
 5   0  0.6200596E+07  0.9118800E+02  0.7818608E-02  0.1180000E+00
       11   -1    0    0    0    0  0.00000000000E+00  0.00000000000E+00  0.39999999673E+01  0.40000000000E+01  0.51109989000E-03 0.  1.
     -623   -1    0    0    0    0  0.00000000000E+00  0.00000000000E+00  0.12525980253E-10  0.17130000000E+03  0.17130000000E+03 0. -1.
       11    1    1    2    0    0  0.25775094267E-01  0.17005500445E-01  0.13951484000E+01  0.13954901869E+01  0.51109989000E-03 0.  1.
     -623    1    1    2    0    0 -0.11087674699E-02  0.85506112211E-03  0.82700931208E-03  0.17130000001E+03  0.17130000000E+03 0. -1.
      622    1    1    2    0    0 -0.24666326797E-01 -0.17860561567E-01  0.26040245581E+01  0.26045098054E+01  0.40000000000E-01 0.  1.
</event>
<event>
 5   0  0.6200596E+07  0.9118800E+02  0.7818608E-02  0.1180000E+00
       11   -1    0    0    0    0  0.00000000000E+00  0.00000000000E+00  0.39999999673E+01  0.40000000000E+01  0.51109989000E-03 0. -1.
     -623   -1    0    0    0    0  0.00000000000E+00  0.00000000000E+00  0.12525980253E-10  0.17130000000E+03  0.17130000000E+03 0.  1.
       11    1    1    2    0    0  0.20108897142E-01 -0.65210876413E-03  0.41916713763E+00  0.41965002500E+00  0.51109989000E-03 0. -1.
     -623    1    1    2    0    0 -0.15225641485E-01 -0.48226743370E-02  0.71456604172E-03  0.17130000075E+03  0.17130000000E+03 0.  1.
      622    1    1    2    0    0 -0.48832556567E-02  0.54747831011E-02  0.35801182637E+01  0.35803492290E+01  0.40000000000E-01 0. -1.
</event>
<event>
 5   0  0.6200596E+07  0.9118800E+02  0.7818608E-02  0.1180000E+00
       11   -1    0    0    0    0  0.00000000000E+00  0.00000000000E+00  0.39999999673E+01  0.40000000000E+01  0.51109989000E-03 0. -1.
     -623   -1    0    0    0    0  0.00000000000E+00  0.00000000000E+00  0.12525980253E-10  0.17130000000E+03  0.17130000000E+03 0. -1.
       11    1    1    2    0    0 -0.31110921239E-02 -0.33403662972E-02  0.17207942800E+01  0.17208004104E+01  0.51109989000E-03 0. -1.
     -623    1    1    2    0    0  0.96538810421E-05  0.82933129580E-03  0.36062145777E-03  0.17130000000E+03  0.17130000000E+03 0. -1.
      622    1    1    2    0    0  0.31014382428E-02  0.25110350014E-02  0.22788450659E+01  0.22791995873E+01  0.40000000000E-01 0. -1.
</event>
<event>
 5   0  0.6200596E+07  0.9118800E+02  0.7818608E-02  0.1180000E+00
       11   -1    0    0    0    0  0.00000000000E+00  0.00000000000E+00  0.39999999673E+01  0.40000000000E+01  0.51109989000E-03 0.  1.
     -623   -1    0    0    0    0  0.00000000000E+00  0.00000000000E+00  0.12525980253E-10  0.17130000000E+03  0.17130000000E+03 0.  1.
       11    1    1    2    0    0 -0.17645922737E-02  0.18458632183E-03  0.16000495025E-01  0.16106673185E-01  0.51109989000E-03 0.  1.
     -623    1    1    2    0    0  0.66036323385E-03  0.79316213306E-03  0.30723558269E-03  0.17130000000E+03  0.17130000000E+03 0.  1.
      622    1    1    2    0    0  0.11042290399E-02 -0.97774845489E-03  0.39836922368E+01  0.39838933234E+01  0.40000000000E-01 0.  1.
</event>
<event>
 5   0  0.6200596E+07  0.9118800E+02  0.7818608E-02  0.1180000E+00
       11   -1    0    0    0    0  0.00000000000E+00  0.00000000000E+00  0.39999999673E+01  0.40000000000E+01  0.51109989000E-03 0. -1.
     -623   -1    0    0    0    0  0.00000000000E+00  0.00000000000E+00  0.12525980253E-10  0.17130000000E+03  0.17130000000E+03 0.  1.
       11    1    1    2    0    0  0.73763490107E-02 -0.24526947338E-01  0.54774414260E+00  0.54834285683E+00  0.51109989000E-03 0. -1.
     -623    1    1    2    0    0 -0.11113784033E-01  0.41292682449E-01  0.87854688914E-03  0.17130000534E+03  0.17130000000E+03 0.  1.
      622    1    1    2    0    0  0.37374350221E-02 -0.16765735110E-01  0.34513772779E+01  0.34516518035E+01  0.40000000000E-01 0. -1.
</event>
<event>
 5   0  0.6200596E+07  0.9118800E+02  0.7818608E-02  0.1180000E+00
       11   -1    0    0    0    0  0.00000000000E+00  0.00000000000E+00  0.39999999673E+01  0.40000000000E+01  0.51109989000E-03 0.  1.
     -623   -1    0    0    0    0  0.00000000000E+00  0.00000000000E+00  0.12525980253E-10  0.17130000000E+03  0.17130000000E+03 0. -1.
       11    1    1    2    0    0  0.21896151544E-01  0.96162591410E-02  0.30471039792E+01  0.30471978661E+01  0.51109989000E-03 0.  1.
     -623    1    1    2    0    0 -0.48538486972E-02 -0.25066561318E-02  0.11130575825E-02  0.17130000009E+03  0.17130000000E+03 0. -1.
      622    1    1    2    0    0 -0.17042302847E-01 -0.71096030092E-02  0.95178293059E+00  0.95280204318E+00  0.40000000000E-01 0.  0.
</event>
<event>
 5   0  0.6200596E+07  0.9118800E+02  0.7818608E-02  0.1180000E+00
       11   -1    0    0    0    0  0.00000000000E+00  0.00000000000E+00  0.39999999673E+01  0.40000000000E+01  0.51109989000E-03 0. -1.
     -623   -1    0    0    0    0  0.00000000000E+00  0.00000000000E+00  0.12525980253E-10  0.17130000000E+03  0.17130000000E+03 0.  1.
       11    1    1    2    0    0 -0.93647176960E-02 -0.24234651588E-01  0.20208738732E+01  0.20210409419E+01  0.51109989000E-03 0. -1.
     -623    1    1    2    0    0  0.16768098053E-01  0.29078868623E-02  0.70097274009E-03  0.17130000085E+03  0.17130000000E+03 0.  1.
      622    1    1    2    0    0 -0.74033803568E-02  0.21326764726E-01  0.19784251214E+01  0.19789582113E+01  0.40000000000E-01 0.  1.
</event>
<event>
 5   0  0.6200596E+07  0.9118800E+02  0.7818608E-02  0.1180000E+00
       11   -1    0    0    0    0  0.00000000000E+00  0.00000000000E+00  0.39999999673E+01  0.40000000000E+01  0.51109989000E-03 0.  1.
     -623   -1    0    0    0    0  0.00000000000E+00  0.00000000000E+00  0.12525980253E-10  0.17130000000E+03  0.17130000000E+03 0. -1.
       11    1    1    2    0    0  0.51359191102E-03 -0.77677418545E-02  0.64512807402E-01  0.64982806422E-01  0.51109989000E-03 0.  1.
     -623    1    1    2    0    0  0.95538199254E-03  0.53276014381E-03  0.68020499851E-03  0.17130000000E+03  0.17130000000E+03 0. -1.
      622    1    1    2    0    0 -0.14689739036E-02  0.72349817107E-02  0.39348069550E+01  0.39350171887E+01  0.40000000000E-01 0.  1.
</event>
<event>
 5   0  0.6200596E+07  0.9118800E+02  0.7818608E-02  0.1180000E+00
       11   -1    0    0    0    0  0.00000000000E+00  0.00000000000E+00  0.39999999673E+01  0.40000000000E+01  0.51109989000E-03 0.  1.
     -623   -1    0    0    0    0  0.00000000000E+00  0.00000000000E+00  0.12525980253E-10  0.17130000000E+03  0.17130000000E+03 0.  1.
       11    1    1    2    0    0  0.90308718111E-02  0.10299732722E-01  0.87591403878E-01  0.88657523059E-01  0.51109989000E-03 0.  1.
     -623    1    1    2    0    0 -0.16073089462E-01 -0.13021686762E-01  0.12791662186E-02  0.17130000125E+03  0.17130000000E+03 0.  1.
      622    1    1    2    0    0  0.70422176508E-02  0.27219540397E-02  0.39111293973E+01  0.39113412232E+01  0.40000000000E-01 0.  1.
</event>
<event>
 5   0  0.6200596E+07  0.9118800E+02  0.7818608E-02  0.1180000E+00
       11   -1    0    0    0    0  0.00000000000E+00  0.00000000000E+00  0.39999999673E+01  0.40000000000E+01  0.51109989000E-03 0.  1.
     -623   -1    0    0    0    0  0.00000000000E+00  0.00000000000E+00  0.12525980253E-10  0.17130000000E+03  0.17130000000E+03 0.  1.
       11    1    1    2    0    0 -0.58864356302E-02 -0.72346988893E-02  0.27249792171E+00  0.27265797173E+00  0.51109989000E-03 0.  1.
     -623    1    1    2    0    0 -0.87628187904E-03  0.31933890340E-02  0.38301248904E-03  0.17130000003E+03  0.17130000000E+03 0.  1.
      622    1    1    2    0    0  0.67627175092E-02  0.40413098553E-02  0.37271190332E+01  0.37273419958E+01  0.40000000000E-01 0.  1.
</event>
<event>
 5   0  0.6200596E+07  0.9118800E+02  0.7818608E-02  0.1180000E+00
       11   -1    0    0    0    0  0.00000000000E+00  0.00000000000E+00  0.39999999673E+01  0.40000000000E+01  0.51109989000E-03 0. -1.
     -623   -1    0    0    0    0  0.00000000000E+00  0.00000000000E+00  0.12525980253E-10  0.17130000000E+03  0.17130000000E+03 0.  1.
       11    1    1    2    0    0  0.26484873760E-01  0.30126271406E-01  0.27692955211E+01  0.27695860675E+01  0.51109989000E-03 0. -1.
     -623    1    1    2    0    0  0.72381956468E-02 -0.62323939269E-02  0.16358525633E-02  0.17130000027E+03  0.17130000000E+03 0.  1.
      622    1    1    2    0    0 -0.33723069406E-01 -0.23893877479E-01  0.12290685937E+01  0.12304136584E+01  0.40000000000E-01 0. -1.
</event>
<event>
 5   0  0.6200596E+07  0.9118800E+02  0.7818608E-02  0.1180000E+00
       11   -1    0    0    0    0  0.00000000000E+00  0.00000000000E+00  0.39999999673E+01  0.40000000000E+01  0.51109989000E-03 0. -1.
     -623   -1    0    0    0    0  0.00000000000E+00  0.00000000000E+00  0.12525980253E-10  0.17130000000E+03  0.17130000000E+03 0. -1.
       11    1    1    2    0    0  0.32262163115E-02  0.48188005682E-03  0.13004567315E-01  0.13417178242E-01  0.51109989000E-03 0. -1.
     -623    1    1    2    0    0 -0.56315717037E-02  0.18439169406E-02  0.61476422181E-03  0.17130000010E+03  0.17130000000E+03 0. -1.
      622    1    1    2    0    0  0.24053553922E-02 -0.23257969974E-02  0.39863806358E+01  0.39865827182E+01  0.40000000000E-01 0. -1.
</event>
<event>
 5   0  0.6200596E+07  0.9118800E+02  0.7818608E-02  0.1180000E+00
       11   -1    0    0    0    0  0.00000000000E+00  0.00000000000E+00  0.39999999673E+01  0.40000000000E+01  0.51109989000E-03 0.  1.
     -623   -1    0    0    0    0  0.00000000000E+00  0.00000000000E+00  0.12525980253E-10  0.17130000000E+03  0.17130000000E+03 0. -1.
       11    1    1    2    0    0 -0.27580746551E-01 -0.21695195818E-01  0.70286110043E+00  0.70373671698E+00  0.51109989000E-03 0.  1.
     -623    1    1    2    0    0 -0.14446815640E-03  0.15802842742E-01  0.12409030712E-02  0.17130000073E+03  0.17130000000E+03 0. -1.
      622    1    1    2    0    0  0.27725214707E-01  0.58923530755E-02  0.32958979639E+01  0.32962625495E+01  0.40000000000E-01 0.  1.
</event>
<event>
 5   0  0.6200596E+07  0.9118800E+02  0.7818608E-02  0.1180000E+00
       11   -1    0    0    0    0  0.00000000000E+00  0.00000000000E+00  0.39999999673E+01  0.40000000000E+01  0.51109989000E-03 0.  1.
     -623   -1    0    0    0    0  0.00000000000E+00  0.00000000000E+00  0.12525980253E-10  0.17130000000E+03  0.17130000000E+03 0. -1.
       11    1    1    2    0    0 -0.16784713342E-02  0.94178498415E-03  0.11741058595E-01  0.11908732256E-01  0.51109989000E-03 0.  1.
     -623    1    1    2    0    0  0.40238346314E-03 -0.20762961844E-03  0.36851602124E-03  0.17130000000E+03  0.17130000000E+03 0. -1.
      622    1    1    2    0    0  0.12760878710E-02 -0.73415536571E-03  0.39878903927E+01  0.39880912667E+01  0.40000000000E-01 0.  1.
</event>
<event>
 5   0  0.6200596E+07  0.9118800E+02  0.7818608E-02  0.1180000E+00
       11   -1    0    0    0    0  0.00000000000E+00  0.00000000000E+00  0.39999999673E+01  0.40000000000E+01  0.51109989000E-03 0.  1.
     -623   -1    0    0    0    0  0.00000000000E+00  0.00000000000E+00  0.12525980253E-10  0.17130000000E+03  0.17130000000E+03 0. -1.
       11    1    1    2    0    0  0.25915248392E-02 -0.16469697341E-04  0.36888546790E+00  0.36889492532E+00  0.51109989000E-03 0.  1.
     -623    1    1    2    0    0  0.24529858037E-03 -0.56754273359E-03  0.23090651077E-03  0.17130000000E+03  0.17130000000E+03 0. -1.
      622    1    1    2    0    0 -0.28368234196E-02  0.58401243093E-03  0.36308835929E+01  0.36311050734E+01  0.40000000000E-01 0.  1.
</event>
<event>
 5   0  0.6200596E+07  0.9118800E+02  0.7818608E-02  0.1180000E+00
       11   -1    0    0    0    0  0.00000000000E+00  0.00000000000E+00  0.39999999673E+01  0.40000000000E+01  0.51109989000E-03 0.  1.
     -623   -1    0    0    0    0  0.00000000000E+00  0.00000000000E+00  0.12525980253E-10  0.17130000000E+03  0.17130000000E+03 0. -1.
       11    1    1    2    0    0  0.16821489001E-02 -0.16982262688E-02  0.27089885450E+00  0.27090988204E+00  0.51109989000E-03 0.  1.
     -623    1    1    2    0    0  0.10049452779E-02  0.27221171587E-02  0.22666409987E-03  0.17130000002E+03  0.17130000000E+03 0. -1.
      622    1    1    2    0    0 -0.26870941780E-02 -0.10238908899E-02  0.37288744488E+01  0.37290900932E+01  0.40000000000E-01 0.  1.
</event>
<event>
 5   0  0.6200596E+07  0.9118800E+02  0.7818608E-02  0.1180000E+00
       11   -1    0    0    0    0  0.00000000000E+00  0.00000000000E+00  0.39999999673E+01  0.40000000000E+01  0.51109989000E-03 0. -1.
     -623   -1    0    0    0    0  0.00000000000E+00  0.00000000000E+00  0.12525980253E-10  0.17130000000E+03  0.17130000000E+03 0.  1.
       11    1    1    2    0    0  0.27592398501E-03 -0.32986632598E-02  0.12984852064E+00  0.12989171200E+00  0.51109989000E-03 0. -1.
     -623    1    1    2    0    0  0.37845887162E-02  0.67919592779E-02  0.25376039103E-03  0.17130000018E+03  0.17130000000E+03 0.  1.
      622    1    1    2    0    0 -0.40605127012E-02 -0.34932960181E-02  0.38698976863E+01  0.38701081114E+01  0.40000000000E-01 0. -1.
</event>
<event>
 5   0  0.6200596E+07  0.9118800E+02  0.7818608E-02  0.1180000E+00
       11   -1    0    0    0    0  0.00000000000E+00  0.00000000000E+00  0.39999999673E+01  0.40000000000E+01  0.51109989000E-03 0. -1.
     -623   -1    0    0    0    0  0.00000000000E+00  0.00000000000E+00  0.12525980253E-10  0.17130000000E+03  0.17130000000E+03 0.  1.
       11    1    1    2    0    0  0.30509928820E-02  0.28762129964E-02  0.60174565277E-01  0.60322638258E-01  0.51109989000E-03 0. -1.
     -623    1    1    2    0    0  0.27589472304E-03  0.68015449351E-03  0.35411986568E-03  0.17130000000E+03  0.17130000000E+03 0.  1.
      622    1    1    2    0    0 -0.33268876050E-02 -0.35563674900E-02  0.39394712822E+01  0.39396773598E+01  0.40000000000E-01 0. -1.
</event>
<event>
 5   0  0.6200596E+07  0.9118800E+02  0.7818608E-02  0.1180000E+00
       11   -1    0    0    0    0  0.00000000000E+00  0.00000000000E+00  0.39999999673E+01  0.40000000000E+01  0.51109989000E-03 0.  1.
     -623   -1    0    0    0    0  0.00000000000E+00  0.00000000000E+00  0.12525980253E-10  0.17130000000E+03  0.17130000000E+03 0.  1.
       11    1    1    2    0    0  0.81213542036E-02  0.65998293778E-02  0.14138130682E+00  0.14176899972E+00  0.51109989000E-03 0.  1.
     -623    1    1    2    0    0  0.15283697365E-02 -0.53173797572E-03  0.61186360473E-03  0.17130000001E+03  0.17130000000E+03 0.  1.
      622    1    1    2    0    0 -0.96497239401E-02 -0.60680914021E-02  0.38580067969E+01  0.38582309915E+01  0.40000000000E-01 0.  1.
</event>
<event>
 5   0  0.6200596E+07  0.9118800E+02  0.7818608E-02  0.1180000E+00
       11   -1    0    0    0    0  0.00000000000E+00  0.00000000000E+00  0.39999999673E+01  0.40000000000E+01  0.51109989000E-03 0.  1.
     -623   -1    0    0    0    0  0.00000000000E+00  0.00000000000E+00  0.12525980253E-10  0.17130000000E+03  0.17130000000E+03 0.  1.
       11    1    1    2    0    0 -0.11415160913E-02 -0.11117143982E-01  0.38835254501E-01  0.40414504362E-01  0.51109989000E-03 0.  1.
     -623    1    1    2    0    0 -0.77768340941E-02  0.69743284330E-02  0.17938031450E-02  0.17130000033E+03  0.17130000000E+03 0.  1.
      622    1    1    2    0    0  0.89183501854E-02  0.41428155490E-02  0.39593709097E+01  0.39595851677E+01  0.40000000000E-01 0.  1.
</event>
<event>
 5   0  0.6200596E+07  0.9118800E+02  0.7818608E-02  0.1180000E+00
       11   -1    0    0    0    0  0.00000000000E+00  0.00000000000E+00  0.39999999673E+01  0.40000000000E+01  0.51109989000E-03 0.  1.
     -623   -1    0    0    0    0  0.00000000000E+00  0.00000000000E+00  0.12525980253E-10  0.17130000000E+03  0.17130000000E+03 0. -1.
       11    1    1    2    0    0  0.27680689979E-02 -0.10356425433E-02  0.59505283809E-02  0.66636904340E-02  0.51109989000E-03 0.  1.
     -623    1    1    2    0    0  0.30156670765E-02  0.20669018492E-02  0.91783146020E-03  0.17130000004E+03  0.17130000000E+03 0. -1.
      622    1    1    2    0    0 -0.57837360744E-02 -0.10312593058E-02  0.39931316075E+01  0.39933362681E+01  0.40000000000E-01 0.  1.
</event>
<event>
 5   0  0.6200596E+07  0.9118800E+02  0.7818608E-02  0.1180000E+00
       11   -1    0    0    0    0  0.00000000000E+00  0.00000000000E+00  0.39999999673E+01  0.40000000000E+01  0.51109989000E-03 0.  1.
     -623   -1    0    0    0    0  0.00000000000E+00  0.00000000000E+00  0.12525980253E-10  0.17130000000E+03  0.17130000000E+03 0. -1.
       11    1    1    2    0    0  0.62372963244E-02 -0.16023914854E-01  0.13917620765E+01  0.13918683877E+01  0.51109989000E-03 0.  1.
     -623    1    1    2    0    0 -0.39252930674E-02  0.30745819058E-02  0.44627816482E-03  0.17130000007E+03  0.17130000000E+03 0. -1.
      622    1    1    2    0    0 -0.23120032570E-02  0.12949332949E-01  0.26077916127E+01  0.26081315392E+01  0.40000000000E-01 0.  0.
</event>
<event>
 5   0  0.6200596E+07  0.9118800E+02  0.7818608E-02  0.1180000E+00
       11   -1    0    0    0    0  0.00000000000E+00  0.00000000000E+00  0.39999999673E+01  0.40000000000E+01  0.51109989000E-03 0. -1.
     -623   -1    0    0    0    0  0.00000000000E+00  0.00000000000E+00  0.12525980253E-10  0.17130000000E+03  0.17130000000E+03 0.  1.
       11    1    1    2    0    0 -0.27279438629E-01 -0.41091223158E-03  0.50216324001E+00  0.50290408376E+00  0.51109989000E-03 0. -1.
     -623    1    1    2    0    0  0.56298815758E-02  0.83833585989E-02  0.10459872591E-02  0.17130000030E+03  0.17130000000E+03 0.  1.
      622    1    1    2    0    0  0.21649557053E-01 -0.79724463673E-02  0.34967907401E+01  0.34970956154E+01  0.40000000000E-01 0. -1.
</event>
<event>
 5   0  0.6200596E+07  0.9118800E+02  0.7818608E-02  0.1180000E+00
       11   -1    0    0    0    0  0.00000000000E+00  0.00000000000E+00  0.39999999673E+01  0.40000000000E+01  0.51109989000E-03 0.  1.
     -623   -1    0    0    0    0  0.00000000000E+00  0.00000000000E+00  0.12525980253E-10  0.17130000000E+03  0.17130000000E+03 0. -1.
       11    1    1    2    0    0 -0.27851353446E-02  0.22916260969E-03  0.20456623202E-01  0.20652945283E-01  0.51109989000E-03 0.  1.
     -623    1    1    2    0    0  0.24862122508E-02  0.15318512498E-02  0.39775878602E-03  0.17130000003E+03  0.17130000000E+03 0. -1.
      622    1    1    2    0    0  0.29892309381E-03 -0.17610138595E-02  0.39791455854E+01  0.39793470294E+01  0.40000000000E-01 0.  1.
</event>
<event>
 5   0  0.6200596E+07  0.9118800E+02  0.7818608E-02  0.1180000E+00
       11   -1    0    0    0    0  0.00000000000E+00  0.00000000000E+00  0.39999999673E+01  0.40000000000E+01  0.51109989000E-03 0.  1.
     -623   -1    0    0    0    0  0.00000000000E+00  0.00000000000E+00  0.12525980253E-10  0.17130000000E+03  0.17130000000E+03 0. -1.
       11    1    1    2    0    0  0.11805423165E-01  0.13295459886E-01  0.13209588916E+01  0.13210786471E+01  0.51109989000E-03 0.  1.
     -623    1    1    2    0    0 -0.17125566412E-02  0.71965965025E-03  0.47405810112E-03  0.17130000001E+03  0.17130000000E+03 0. -1.
      622    1    1    2    0    0 -0.10092866524E-01 -0.14015119536E-01  0.26785670176E+01  0.26789213422E+01  0.40000000000E-01 0.  1.
</event>
<event>
 5   0  0.6200596E+07  0.9118800E+02  0.7818608E-02  0.1180000E+00
       11   -1    0    0    0    0  0.00000000000E+00  0.00000000000E+00  0.39999999673E+01  0.40000000000E+01  0.51109989000E-03 0. -1.
     -623   -1    0    0    0    0  0.00000000000E+00  0.00000000000E+00  0.12525980253E-10  0.17130000000E+03  0.17130000000E+03 0.  1.
       11    1    1    2    0    0  0.21116779703E-02 -0.12919382998E-01  0.20749994175E-01  0.24539623487E-01  0.51109989000E-03 0. -1.
     -623    1    1    2    0    0 -0.45512477045E-02  0.29935455067E-03  0.40117246881E-02  0.17130000011E+03  0.17130000000E+03 0.  1.
      622    1    1    2    0    0  0.24395697342E-02  0.12620028448E-01  0.39752382485E+01  0.39754602688E+01  0.40000000000E-01 0. -1.
</event>
<event>
 5   0  0.6200596E+07  0.9118800E+02  0.7818608E-02  0.1180000E+00
       11   -1    0    0    0    0  0.00000000000E+00  0.00000000000E+00  0.39999999673E+01  0.40000000000E+01  0.51109989000E-03 0.  1.
     -623   -1    0    0    0    0  0.00000000000E+00  0.00000000000E+00  0.12525980253E-10  0.17130000000E+03  0.17130000000E+03 0.  1.
       11    1    1    2    0    0  0.21119237042E-02  0.86259216871E-03  0.11619756505E-01  0.11852605147E-01  0.51109989000E-03 0.  1.
     -623    1    1    2    0    0 -0.92393959293E-03  0.58125708161E-03  0.43385778738E-03  0.17130000000E+03  0.17130000000E+03 0.  1.
      622    1    1    2    0    0 -0.11879841112E-02 -0.14438492503E-02  0.39879463531E+01  0.39881473908E+01  0.40000000000E-01 0.  1.
</event>
<event>
 5   0  0.6200596E+07  0.9118800E+02  0.7818608E-02  0.1180000E+00
       11   -1    0    0    0    0  0.00000000000E+00  0.00000000000E+00  0.39999999673E+01  0.40000000000E+01  0.51109989000E-03 0.  1.
     -623   -1    0    0    0    0  0.00000000000E+00  0.00000000000E+00  0.12525980253E-10  0.17130000000E+03  0.17130000000E+03 0. -1.
       11    1    1    2    0    0  0.13904716380E-01  0.61785136518E-02  0.18030147702E+00  0.18094308223E+00  0.51109989000E-03 0.  1.
     -623    1    1    2    0    0  0.50951005396E-02  0.17870800401E-02  0.90671424590E-03  0.17130000009E+03  0.17130000000E+03 0. -1.
      622    1    1    2    0    0 -0.18999816920E-01 -0.79655936919E-02  0.38187917761E+01  0.38190568303E+01  0.40000000000E-01 0.  1.
</event>
<event>
 5   0  0.6200596E+07  0.9118800E+02  0.7818608E-02  0.1180000E+00
       11   -1    0    0    0    0  0.00000000000E+00  0.00000000000E+00  0.39999999673E+01  0.40000000000E+01  0.51109989000E-03 0. -1.
     -623   -1    0    0    0    0  0.00000000000E+00  0.00000000000E+00  0.12525980253E-10  0.17130000000E+03  0.17130000000E+03 0.  1.
       11    1    1    2    0    0 -0.30667589553E-03 -0.22711743770E-02  0.92229359086E-02  0.95171450474E-02  0.51109989000E-03 0.  1.
     -623    1    1    2    0    0  0.75073825784E-03  0.11520319924E-02  0.49484641132E-03  0.17130000001E+03  0.17130000000E+03 0.  1.
      622    1    1    2    0    0 -0.44406236230E-03  0.11191423847E-02  0.39902821850E+01  0.39904828487E+01  0.40000000000E-01 0. -1.
</event>
<event>
 5   0  0.6200596E+07  0.9118800E+02  0.7818608E-02  0.1180000E+00
       11   -1    0    0    0    0  0.00000000000E+00  0.00000000000E+00  0.39999999673E+01  0.40000000000E+01  0.51109989000E-03 0. -1.
     -623   -1    0    0    0    0  0.00000000000E+00  0.00000000000E+00  0.12525980253E-10  0.17130000000E+03  0.17130000000E+03 0. -1.
       11    1    1    2    0    0  0.14585061053E-01  0.40092268598E-02  0.30912597016E+01  0.30912967508E+01  0.51109989000E-03 0. -1.
     -623    1    1    2    0    0 -0.27765858819E-02 -0.19796217123E-01  0.11330824091E-02  0.17130000117E+03  0.17130000000E+03 0. -1.
      622    1    1    2    0    0 -0.11808475171E-01  0.15786990264E-01  0.90760718338E+00  0.90870207905E+00  0.40000000000E-01 0.  1.
</event>
<event>
 5   0  0.6200596E+07  0.9118800E+02  0.7818608E-02  0.1180000E+00
       11   -1    0    0    0    0  0.00000000000E+00  0.00000000000E+00  0.39999999673E+01  0.40000000000E+01  0.51109989000E-03 0.  1.
     -623   -1    0    0    0    0  0.00000000000E+00  0.00000000000E+00  0.12525980253E-10  0.17130000000E+03  0.17130000000E+03 0. -1.
       11    1    1    2    0    0  0.20740712428E-02 -0.29967371189E-02  0.81479392555E-01  0.81562459730E-01  0.51109989000E-03 0.  1.
     -623    1    1    2    0    0  0.14950211248E-02  0.12672607960E-02  0.28922153929E-03  0.17130000001E+03  0.17130000000E+03 0. -1.
      622    1    1    2    0    0 -0.35690923677E-02  0.17294763229E-02  0.39182313533E+01  0.39184375288E+01  0.40000000000E-01 0.  1.
</event>
<event>
 5   0  0.6200596E+07  0.9118800E+02  0.7818608E-02  0.1180000E+00
       11   -1    0    0    0    0  0.00000000000E+00  0.00000000000E+00  0.39999999673E+01  0.40000000000E+01  0.51109989000E-03 0. -1.
     -623   -1    0    0    0    0  0.00000000000E+00  0.00000000000E+00  0.12525980253E-10  0.17130000000E+03  0.17130000000E+03 0. -1.
       11    1    1    2    0    0  0.15888509385E-02  0.15667958744E-01  0.17748403084E+00  0.17818207486E+00  0.51109989000E-03 0. -1.
     -623    1    1    2    0    0 -0.62475692177E-02 -0.28784279924E-02  0.93172286355E-03  0.17130000014E+03  0.17130000000E+03 0. -1.
      622    1    1    2    0    0  0.46587182792E-02 -0.12789530752E-01  0.38215842137E+01  0.38218177845E+01  0.40000000000E-01 0. -1.
</event>
<event>
 5   0  0.6200596E+07  0.9118800E+02  0.7818608E-02  0.1180000E+00
       11   -1    0    0    0    0  0.00000000000E+00  0.00000000000E+00  0.39999999673E+01  0.40000000000E+01  0.51109989000E-03 0. -1.
     -623   -1    0    0    0    0  0.00000000000E+00  0.00000000000E+00  0.12525980253E-10  0.17130000000E+03  0.17130000000E+03 0. -1.
       11    1    1    2    0    0  0.15883452368E-01  0.25440506908E-02  0.49372417729E+00  0.49398641754E+00  0.51109989000E-03 0. -1.
     -623    1    1    2    0    0 -0.29676940961E-03 -0.65990798273E-02  0.52751706996E-03  0.17130000013E+03  0.17130000000E+03 0. -1.
      622    1    1    2    0    0 -0.15586682958E-01  0.40550291365E-02  0.35057482730E+01  0.35060134543E+01  0.40000000000E-01 0. -1.
</event>
<event>
 5   0  0.6200596E+07  0.9118800E+02  0.7818608E-02  0.1180000E+00
       11   -1    0    0    0    0  0.00000000000E+00  0.00000000000E+00  0.39999999673E+01  0.40000000000E+01  0.51109989000E-03 0.  1.
     -623   -1    0    0    0    0  0.00000000000E+00  0.00000000000E+00  0.12525980253E-10  0.17130000000E+03  0.17130000000E+03 0. -1.
       11    1    1    2    0    0  0.44182664355E-02 -0.12236016294E-01  0.61057356838E-01  0.62429986543E-01  0.51109989000E-03 0.  1.
     -623    1    1    2    0    0  0.46078588342E-02  0.91468974498E-03  0.16024675841E-02  0.17130000007E+03  0.17130000000E+03 0. -1.
      622    1    1    2    0    0 -0.90261252697E-02  0.11321326550E-01  0.39373401429E+01  0.39375699415E+01  0.40000000000E-01 0.  1.
</event>
<event>
 5   0  0.6200596E+07  0.9118800E+02  0.7818608E-02  0.1180000E+00
       11   -1    0    0    0    0  0.00000000000E+00  0.00000000000E+00  0.39999999673E+01  0.40000000000E+01  0.51109989000E-03 0. -1.
     -623   -1    0    0    0    0  0.00000000000E+00  0.00000000000E+00  0.12525980253E-10  0.17130000000E+03  0.17130000000E+03 0.  1.
       11    1    1    2    0    0  0.16356690777E-02 -0.10407848154E-02  0.50992717403E-01  0.51032118275E-01  0.51109989000E-03 0. -1.
     -623    1    1    2    0    0 -0.15394747067E-02 -0.39128808677E-02  0.24511811560E-03  0.17130000005E+03  0.17130000000E+03 0.  1.
      622    1    1    2    0    0 -0.96194370963E-04  0.49536656831E-02  0.39487621318E+01  0.39489678299E+01  0.40000000000E-01 0. -1.
</event>
<event>
 5   0  0.6200596E+07  0.9118800E+02  0.7818608E-02  0.1180000E+00
       11   -1    0    0    0    0  0.00000000000E+00  0.00000000000E+00  0.39999999673E+01  0.40000000000E+01  0.51109989000E-03 0.  1.
     -623   -1    0    0    0    0  0.00000000000E+00  0.00000000000E+00  0.12525980253E-10  0.17130000000E+03  0.17130000000E+03 0. -1.
       11    1    1    2    0    0 -0.72701677279E-02  0.33958879899E-01  0.32674790653E+01  0.32676636553E+01  0.51109989000E-03 0.  1.
     -623    1    1    2    0    0  0.47084520525E-02 -0.22318977192E-01  0.13764296518E-02  0.17130000152E+03  0.17130000000E+03 0. -1.
      622    1    1    2    0    0  0.25617156754E-02 -0.11639902706E-01  0.73114447238E+00  0.73233482043E+00  0.40000000000E-01 0.  1.
</event>
<event>
 5   0  0.6200596E+07  0.9118800E+02  0.7818608E-02  0.1180000E+00
       11   -1    0    0    0    0  0.00000000000E+00  0.00000000000E+00  0.39999999673E+01  0.40000000000E+01  0.51109989000E-03 0.  1.
     -623   -1    0    0    0    0  0.00000000000E+00  0.00000000000E+00  0.12525980253E-10  0.17130000000E+03  0.17130000000E+03 0. -1.
       11    1    1    2    0    0  0.12536417052E-01  0.19936947923E-01  0.31586853151E+00  0.31674569305E+00  0.51109989000E-03 0.  1.
     -623    1    1    2    0    0 -0.17652347315E-01 -0.15199854373E-02  0.11448550283E-02  0.17130000092E+03  0.17130000000E+03 0. -1.
      622    1    1    2    0    0  0.51159302634E-02 -0.18416962485E-01  0.36829865808E+01  0.36832533868E+01  0.40000000000E-01 0.  1.
</event>
<event>
 5   0  0.6200596E+07  0.9118800E+02  0.7818608E-02  0.1180000E+00
       11   -1    0    0    0    0  0.00000000000E+00  0.00000000000E+00  0.39999999673E+01  0.40000000000E+01  0.51109989000E-03 0. -1.
     -623   -1    0    0    0    0  0.00000000000E+00  0.00000000000E+00  0.12525980253E-10  0.17130000000E+03  0.17130000000E+03 0.  1.
       11    1    1    2    0    0  0.65678057851E-03  0.10116607162E-03  0.78920494505E-02  0.79364513969E-02  0.51109989000E-03 0. -1.
     -623    1    1    2    0    0 -0.28528654488E-04  0.49733571244E-03  0.24486715216E-03  0.17130000000E+03  0.17130000000E+03 0.  1.
      622    1    1    2    0    0 -0.62825192402E-03 -0.59850178406E-03  0.39918630508E+01  0.39920635477E+01  0.40000000000E-01 0. -1.
</event>
<event>
 5   0  0.6200596E+07  0.9118800E+02  0.7818608E-02  0.1180000E+00
       11   -1    0    0    0    0  0.00000000000E+00  0.00000000000E+00  0.39999999673E+01  0.40000000000E+01  0.51109989000E-03 0.  1.
     -623   -1    0    0    0    0  0.00000000000E+00  0.00000000000E+00  0.12525980253E-10  0.17130000000E+03  0.17130000000E+03 0. -1.
       11    1    1    2    0    0 -0.89191224506E-03  0.29288241550E-04  0.86507874118E-01  0.86513986569E-01  0.51109989000E-03 0.  1.
     -623    1    1    2    0    0  0.24402231782E-03 -0.85625054785E-03  0.21064993012E-03  0.17130000000E+03  0.17130000000E+03 0. -1.
      622    1    1    2    0    0  0.64788992724E-03  0.82696230630E-03  0.39132814433E+01  0.39134860110E+01  0.40000000000E-01 0.  1.
</event>
<event>
 5   0  0.6200596E+07  0.9118800E+02  0.7818608E-02  0.1180000E+00
       11   -1    0    0    0    0  0.00000000000E+00  0.00000000000E+00  0.39999999673E+01  0.40000000000E+01  0.51109989000E-03 0.  1.
     -623   -1    0    0    0    0  0.00000000000E+00  0.00000000000E+00  0.12525980253E-10  0.17130000000E+03  0.17130000000E+03 0. -1.
       11    1    1    2    0    0  0.66903639550E-02 -0.95570635076E-02  0.66150487120E-01  0.67173258069E-01  0.51109989000E-03 0.  1.
     -623    1    1    2    0    0 -0.75959239305E-03  0.45659608562E-02  0.12338659126E-02  0.17130000007E+03  0.17130000000E+03 0. -1.
      622    1    1    2    0    0 -0.59307715620E-02  0.49911026514E-02  0.39326156143E+01  0.39328266750E+01  0.40000000000E-01 0.  1.
</event>
<event>
 5   0  0.6200596E+07  0.9118800E+02  0.7818608E-02  0.1180000E+00
       11   -1    0    0    0    0  0.00000000000E+00  0.00000000000E+00  0.39999999673E+01  0.40000000000E+01  0.51109989000E-03 0.  1.
     -623   -1    0    0    0    0  0.00000000000E+00  0.00000000000E+00  0.12525980253E-10  0.17130000000E+03  0.17130000000E+03 0.  1.
       11    1    1    2    0    0 -0.13885351669E-03 -0.26659856600E-03  0.65010948251E-01  0.65013652172E-01  0.51109989000E-03 0.  1.
     -623    1    1    2    0    0 -0.35771769167E-02  0.32883229046E-02  0.20896495590E-03  0.17130000007E+03  0.17130000000E+03 0.  1.
      622    1    1    2    0    0  0.37160304334E-02 -0.30217243386E-02  0.39347800542E+01  0.39349862788E+01  0.40000000000E-01 0.  1.
</event>
<event>
 5   0  0.6200596E+07  0.9118800E+02  0.7818608E-02  0.1180000E+00
       11   -1    0    0    0    0  0.00000000000E+00  0.00000000000E+00  0.39999999673E+01  0.40000000000E+01  0.51109989000E-03 0. -1.
     -623   -1    0    0    0    0  0.00000000000E+00  0.00000000000E+00  0.12525980253E-10  0.17130000000E+03  0.17130000000E+03 0.  1.
       11    1    1    2    0    0  0.31862073542E-03 -0.10241257943E-02  0.35365784592E-01  0.35385735759E-01  0.51109989000E-03 0. -1.
     -623    1    1    2    0    0  0.74651668267E-03 -0.35712085325E-03  0.22209459249E-03  0.17130000000E+03  0.17130000000E+03 0.  1.
      622    1    1    2    0    0 -0.10651374181E-02  0.13812466476E-02  0.39644120882E+01  0.39646142621E+01  0.40000000000E-01 0. -1.
</event>
<event>
 5   0  0.6200596E+07  0.9118800E+02  0.7818608E-02  0.1180000E+00
       11   -1    0    0    0    0  0.00000000000E+00  0.00000000000E+00  0.39999999673E+01  0.40000000000E+01  0.51109989000E-03 0. -1.
     -623   -1    0    0    0    0  0.00000000000E+00  0.00000000000E+00  0.12525980253E-10  0.17130000000E+03  0.17130000000E+03 0. -1.
       11    1    1    2    0    0  0.19306237607E-02 -0.10092678512E-03  0.43149603261E-01  0.43195913901E-01  0.51109989000E-03 0. -1.
     -623    1    1    2    0    0 -0.24141593461E-02 -0.42426828926E-03  0.24854866154E-03  0.17130000002E+03  0.17130000000E+03 0. -1.
      622    1    1    2    0    0  0.48353558543E-03  0.52519507438E-03  0.39566018154E+01  0.39568040684E+01  0.40000000000E-01 0. -1.
</event>
<event>
 5   0  0.6200596E+07  0.9118800E+02  0.7818608E-02  0.1180000E+00
       11   -1    0    0    0    0  0.00000000000E+00  0.00000000000E+00  0.39999999673E+01  0.40000000000E+01  0.51109989000E-03 0.  1.
     -623   -1    0    0    0    0  0.00000000000E+00  0.00000000000E+00  0.12525980253E-10  0.17130000000E+03  0.17130000000E+03 0. -1.
       11    1    1    2    0    0  0.11537285547E-02  0.34597051599E-02  0.31239973908E-01  0.31456284617E-01  0.51109989000E-03 0.  1.
     -623    1    1    2    0    0 -0.37022067407E-02 -0.51246882235E-02  0.41915325753E-03  0.17130000012E+03  0.17130000000E+03 0. -1.
      622    1    1    2    0    0  0.25484781859E-02  0.16649830636E-02  0.39683408402E+01  0.39685435982E+01  0.40000000000E-01 0.  1.
</event>
<event>
 5   0  0.6200596E+07  0.9118800E+02  0.7818608E-02  0.1180000E+00
       11   -1    0    0    0    0  0.00000000000E+00  0.00000000000E+00  0.39999999673E+01  0.40000000000E+01  0.51109989000E-03 0. -1.
     -623   -1    0    0    0    0  0.00000000000E+00  0.00000000000E+00  0.12525980253E-10  0.17130000000E+03  0.17130000000E+03 0.  1.
       11    1    1    2    0    0  0.13408344458E-01 -0.10093468639E-01  0.43183916103E+00  0.43216545909E+00  0.51109989000E-03 0. -1.
     -623    1    1    2    0    0 -0.25024982744E-03  0.54000173005E-03  0.58755654859E-03  0.17130000000E+03  0.17130000000E+03 0.  1.
      622    1    1    2    0    0 -0.13158094630E-01  0.95534669094E-02  0.35675732498E+01  0.35678345389E+01  0.40000000000E-01 0.  0.
</event>
<event>
 5   0  0.6200596E+07  0.9118800E+02  0.7818608E-02  0.1180000E+00
       11   -1    0    0    0    0  0.00000000000E+00  0.00000000000E+00  0.39999999673E+01  0.40000000000E+01  0.51109989000E-03 0.  1.
     -623   -1    0    0    0    0  0.00000000000E+00  0.00000000000E+00  0.12525980253E-10  0.17130000000E+03  0.17130000000E+03 0.  1.
       11    1    1    2    0    0  0.12971683268E-02 -0.13296213174E-02  0.19743148163E+00  0.19744088153E+00  0.51109989000E-03 0.  1.
     -623    1    1    2    0    0 -0.67962906024E-04  0.12759884384E-02  0.21996168436E-03  0.17130000000E+03  0.17130000000E+03 0.  1.
      622    1    1    2    0    0 -0.12292054208E-02  0.53632879007E-04  0.38023485240E+01  0.38025591136E+01  0.40000000000E-01 0.  1.
</event>
<event>
 5   0  0.6200596E+07  0.9118800E+02  0.7818608E-02  0.1180000E+00
       11   -1    0    0    0    0  0.00000000000E+00  0.00000000000E+00  0.39999999673E+01  0.40000000000E+01  0.51109989000E-03 0. -1.
     -623   -1    0    0    0    0  0.00000000000E+00  0.00000000000E+00  0.12525980253E-10  0.17130000000E+03  0.17130000000E+03 0. -1.
       11    1    1    2    0    0  0.98555842913E-02 -0.13245633095E-01  0.11046124910E+01  0.11047359846E+01  0.51109989000E-03 0. -1.
     -623    1    1    2    0    0 -0.22402415097E-01  0.39007079093E-01  0.54750857691E-03  0.17130000591E+03  0.17130000000E+03 0. -1.
      622    1    1    2    0    0  0.12546830806E-01 -0.25761445998E-01  0.28948399678E+01  0.28952581084E+01  0.40000000000E-01 0. -1.
</event>
<event>
 5   0  0.6200596E+07  0.9118800E+02  0.7818608E-02  0.1180000E+00
       11   -1    0    0    0    0  0.00000000000E+00  0.00000000000E+00  0.39999999673E+01  0.40000000000E+01  0.51109989000E-03 0.  1.
     -623   -1    0    0    0    0  0.00000000000E+00  0.00000000000E+00  0.12525980253E-10  0.17130000000E+03  0.17130000000E+03 0.  1.
       11    1    1    2    0    0 -0.36372145641E-02  0.49911391571E-02  0.12300668763E-01  0.13773469867E-01  0.51109989000E-03 0.  1.
     -623    1    1    2    0    0  0.40849565864E-02 -0.34209012086E-02  0.16738900504E-02  0.17130000009E+03  0.17130000000E+03 0.  1.
      622    1    1    2    0    0 -0.44774202230E-03 -0.15702379485E-02  0.39860254085E+01  0.39862264391E+01  0.40000000000E-01 0.  1.
</event>
<event>
 5   0  0.6200596E+07  0.9118800E+02  0.7818608E-02  0.1180000E+00
       11   -1    0    0    0    0  0.00000000000E+00  0.00000000000E+00  0.39999999673E+01  0.40000000000E+01  0.51109989000E-03 0. -1.
     -623   -1    0    0    0    0  0.00000000000E+00  0.00000000000E+00  0.12525980253E-10  0.17130000000E+03  0.17130000000E+03 0.  1.
       11    1    1    2    0    0 -0.56351046905E-01  0.31360226693E-02  0.17831960307E+01  0.17840890169E+01  0.51109989000E-03 0. -1.
     -623    1    1    2    0    0  0.14835994168E-01  0.10669998106E-01  0.16870046762E-02  0.17130000098E+03  0.17130000000E+03 0.  1.
      622    1    1    2    0    0  0.41515052737E-01 -0.13806020775E-01  0.22151169320E+01  0.22159100000E+01  0.40000000000E-01 0.  0.
</event>
<event>
 5   0  0.6200596E+07  0.9118800E+02  0.7818608E-02  0.1180000E+00
       11   -1    0    0    0    0  0.00000000000E+00  0.00000000000E+00  0.39999999673E+01  0.40000000000E+01  0.51109989000E-03 0.  1.
     -623   -1    0    0    0    0  0.00000000000E+00  0.00000000000E+00  0.12525980253E-10  0.17130000000E+03  0.17130000000E+03 0. -1.
       11    1    1    2    0    0 -0.91302959345E-03 -0.14621235863E-02  0.38273564152E-01  0.38315771727E-01  0.51109989000E-03 0.  1.
     -623    1    1    2    0    0  0.27841033107E-03 -0.26189015761E-03  0.24454097309E-03  0.17130000000E+03  0.17130000000E+03 0. -1.
      622    1    1    2    0    0  0.63461926238E-03  0.17240137439E-02  0.39614818622E+01  0.39616842277E+01  0.40000000000E-01 0.  1.
</event>
<event>
 5   0  0.6200596E+07  0.9118800E+02  0.7818608E-02  0.1180000E+00
       11   -1    0    0    0    0  0.00000000000E+00  0.00000000000E+00  0.39999999673E+01  0.40000000000E+01  0.51109989000E-03 0.  1.
     -623   -1    0    0    0    0  0.00000000000E+00  0.00000000000E+00  0.12525980253E-10  0.17130000000E+03  0.17130000000E+03 0. -1.
       11    1    1    2    0    0  0.63059451529E-03  0.67326419190E-03  0.85321740456E-02  0.85971012656E-02  0.51109989000E-03 0.  1.
     -623    1    1    2    0    0 -0.18680881530E-02  0.51536649292E-03  0.26571040166E-03  0.17130000001E+03  0.17130000000E+03 0. -1.
      622    1    1    2    0    0  0.12374936377E-02 -0.11886306848E-02  0.39912020829E+01  0.39914028876E+01  0.40000000000E-01 0.  1.
</event>
<event>
 5   0  0.6200596E+07  0.9118800E+02  0.7818608E-02  0.1180000E+00
       11   -1    0    0    0    0  0.00000000000E+00  0.00000000000E+00  0.39999999673E+01  0.40000000000E+01  0.51109989000E-03 0.  1.
     -623   -1    0    0    0    0  0.00000000000E+00  0.00000000000E+00  0.12525980253E-10  0.17130000000E+03  0.17130000000E+03 0. -1.
       11    1    1    2    0    0  0.58729081770E-03 -0.14767765687E-03  0.41240763557E-01  0.41248375950E-01  0.51109989000E-03 0.  1.
     -623    1    1    2    0    0 -0.80364169605E-03 -0.16403901788E-02  0.21008843275E-03  0.17130000001E+03  0.17130000000E+03 0. -1.
      622    1    1    2    0    0  0.21635087835E-03  0.17880678356E-02  0.39585491154E+01  0.39587516142E+01  0.40000000000E-01 0.  1.
</event>
<event>
 5   0  0.6200596E+07  0.9118800E+02  0.7818608E-02  0.1180000E+00
       11   -1    0    0    0    0  0.00000000000E+00  0.00000000000E+00  0.39999999673E+01  0.40000000000E+01  0.51109989000E-03 0.  1.
     -623   -1    0    0    0    0  0.00000000000E+00  0.00000000000E+00  0.12525980253E-10  0.17130000000E+03  0.17130000000E+03 0.  1.
       11    1    1    2    0    0  0.59269318812E-02 -0.18548204406E-01  0.25188360668E+00  0.25263566047E+00  0.51109989000E-03 0.  1.
     -623    1    1    2    0    0 -0.12368063379E-01  0.32693935075E-02  0.10026766899E-02  0.17130000048E+03  0.17130000000E+03 0.  1.
      622    1    1    2    0    0  0.64411314977E-02  0.15278810898E-01  0.37471136840E+01  0.37473638589E+01  0.40000000000E-01 0.  1.
</event>
<event>
 5   0  0.6200596E+07  0.9118800E+02  0.7818608E-02  0.1180000E+00
       11   -1    0    0    0    0  0.00000000000E+00  0.00000000000E+00  0.39999999673E+01  0.40000000000E+01  0.51109989000E-03 0.  1.
     -623   -1    0    0    0    0  0.00000000000E+00  0.00000000000E+00  0.12525980253E-10  0.17130000000E+03  0.17130000000E+03 0. -1.
       11    1    1    2    0    0  0.10097228341E-02  0.13830294570E-02  0.63003948122E-02  0.65489316929E-02  0.51109989000E-03 0.  1.
     -623    1    1    2    0    0  0.46096796234E-02 -0.19393545025E-02  0.45290348920E-03  0.17130000007E+03  0.17130000000E+03 0. -1.
      622    1    1    2    0    0 -0.56194024575E-02  0.55632504554E-03  0.39932466691E+01  0.39934509947E+01  0.40000000000E-01 0.  1.
</event>
<event>
 5   0  0.6200596E+07  0.9118800E+02  0.7818608E-02  0.1180000E+00
       11   -1    0    0    0    0  0.00000000000E+00  0.00000000000E+00  0.39999999673E+01  0.40000000000E+01  0.51109989000E-03 0.  1.
     -623   -1    0    0    0    0  0.00000000000E+00  0.00000000000E+00  0.12525980253E-10  0.17130000000E+03  0.17130000000E+03 0. -1.
       11    1    1    2    0    0  0.70762552906E-02  0.80377807583E-02  0.93413292008E+00  0.93419444063E+00  0.51109989000E-03 0.  1.
     -623    1    1    2    0    0  0.10781635231E-02 -0.36669957035E-02  0.33644621621E-03  0.17130000004E+03  0.17130000000E+03 0. -1.
      622    1    1    2    0    0 -0.81544188137E-02 -0.43707850548E-02  0.30655306011E+01  0.30658055164E+01  0.40000000000E-01 0.  1.
</event>
<event>
 5   0  0.6200596E+07  0.9118800E+02  0.7818608E-02  0.1180000E+00
       11   -1    0    0    0    0  0.00000000000E+00  0.00000000000E+00  0.39999999673E+01  0.40000000000E+01  0.51109989000E-03 0.  1.
     -623   -1    0    0    0    0  0.00000000000E+00  0.00000000000E+00  0.12525980253E-10  0.17130000000E+03  0.17130000000E+03 0. -1.
       11    1    1    2    0    0 -0.45560380369E-03 -0.76196632763E-03  0.95666371602E-02  0.96213271224E-02  0.51109989000E-03 0.  1.
     -623    1    1    2    0    0  0.55244637964E-03 -0.63675837142E-03  0.25539318058E-03  0.17130000000E+03  0.17130000000E+03 0. -1.
      622    1    1    2    0    0 -0.96842575949E-04  0.13987246991E-02  0.39901779370E+01  0.39903786706E+01  0.40000000000E-01 0.  1.
</event>
<event>
 5   0  0.6200596E+07  0.9118800E+02  0.7818608E-02  0.1180000E+00
       11   -1    0    0    0    0  0.00000000000E+00  0.00000000000E+00  0.39999999673E+01  0.40000000000E+01  0.51109989000E-03 0. -1.
     -623   -1    0    0    0    0  0.00000000000E+00  0.00000000000E+00  0.12525980253E-10  0.17130000000E+03  0.17130000000E+03 0.  1.
       11    1    1    2    0    0 -0.20475341068E-01 -0.25402344396E-02  0.17068123152E+00  0.17192450784E+00  0.51109989000E-03 0. -1.
     -623    1    1    2    0    0 -0.38467894201E-02 -0.27569837363E-02  0.15332410657E-02  0.17130000007E+03  0.17130000000E+03 0.  1.
      622    1    1    2    0    0  0.24322130488E-01  0.52972181759E-02  0.38277854948E+01  0.38280754199E+01  0.40000000000E-01 0. -1.
</event>
<event>
 5   0  0.6200596E+07  0.9118800E+02  0.7818608E-02  0.1180000E+00
       11   -1    0    0    0    0  0.00000000000E+00  0.00000000000E+00  0.39999999673E+01  0.40000000000E+01  0.51109989000E-03 0. -1.
     -623   -1    0    0    0    0  0.00000000000E+00  0.00000000000E+00  0.12525980253E-10  0.17130000000E+03  0.17130000000E+03 0. -1.
       11    1    1    2    0    0  0.40725517908E-02  0.25513845552E-01  0.14860350545E+01  0.14862597305E+01  0.51109989000E-03 0. -1.
     -623    1    1    2    0    0  0.72229261444E-03  0.11249939635E-03  0.67813495838E-03  0.17130000000E+03  0.17130000000E+03 0. -1.
      622    1    1    2    0    0 -0.47948444052E-02 -0.25626344948E-01  0.25132867779E+01  0.25137402666E+01  0.40000000000E-01 0. -1.
</event>
<event>
 5   0  0.6200596E+07  0.9118800E+02  0.7818608E-02  0.1180000E+00
       11   -1    0    0    0    0  0.00000000000E+00  0.00000000000E+00  0.39999999673E+01  0.40000000000E+01  0.51109989000E-03 0.  1.
     -623   -1    0    0    0    0  0.00000000000E+00  0.00000000000E+00  0.12525980253E-10  0.17130000000E+03  0.17130000000E+03 0. -1.
       11    1    1    2    0    0  0.16708206505E-01  0.28197701976E-01  0.62423344807E+00  0.62509353978E+00  0.51109989000E-03 0.  1.
     -623    1    1    2    0    0  0.41855913372E-02 -0.87728080343E-02  0.12179795179E-02  0.17130000028E+03  0.17130000000E+03 0. -1.
      622    1    1    2    0    0 -0.20893797843E-01 -0.19424893942E-01  0.33745485398E+01  0.33749061801E+01  0.40000000000E-01 0.  1.
</event>
<event>
 5   0  0.6200596E+07  0.9118800E+02  0.7818608E-02  0.1180000E+00
       11   -1    0    0    0    0  0.00000000000E+00  0.00000000000E+00  0.39999999673E+01  0.40000000000E+01  0.51109989000E-03 0.  1.
     -623   -1    0    0    0    0  0.00000000000E+00  0.00000000000E+00  0.12525980253E-10  0.17130000000E+03  0.17130000000E+03 0.  1.
       11    1    1    2    0    0 -0.21632770612E-01  0.27282574744E-02  0.66417207949E+00  0.66453008400E+00  0.51109989000E-03 0.  1.
     -623    1    1    2    0    0  0.71319600041E-02  0.36136042229E-02  0.63556729131E-03  0.17130000019E+03  0.17130000000E+03 0.  1.
      622    1    1    2    0    0  0.14500810608E-01 -0.63418616974E-02  0.33351923206E+01  0.33354697282E+01  0.40000000000E-01 0. -1.
</event>
<event>
 5   0  0.6200596E+07  0.9118800E+02  0.7818608E-02  0.1180000E+00
       11   -1    0    0    0    0  0.00000000000E+00  0.00000000000E+00  0.39999999673E+01  0.40000000000E+01  0.51109989000E-03 0. -1.
     -623   -1    0    0    0    0  0.00000000000E+00  0.00000000000E+00  0.12525980253E-10  0.17130000000E+03  0.17130000000E+03 0. -1.
       11    1    1    2    0    0  0.92282991026E-02 -0.59003326540E-02  0.46228256954E-01  0.47510929198E-01  0.51109989000E-03 0. -1.
     -623    1    1    2    0    0 -0.16139685149E-03  0.53128409315E-02  0.14955817107E-02  0.17130000009E+03  0.17130000000E+03 0. -1.
      622    1    1    2    0    0 -0.90669022511E-02  0.58749172246E-03  0.39522761287E+01  0.39524889818E+01  0.40000000000E-01 0. -1.
</event>
<event>
 5   0  0.6200596E+07  0.9118800E+02  0.7818608E-02  0.1180000E+00
       11   -1    0    0    0    0  0.00000000000E+00  0.00000000000E+00  0.39999999673E+01  0.40000000000E+01  0.51109989000E-03 0.  1.
     -623   -1    0    0    0    0  0.00000000000E+00  0.00000000000E+00  0.12525980253E-10  0.17130000000E+03  0.17130000000E+03 0. -1.
       11    1    1    2    0    0 -0.51217347897E-02 -0.25186903230E-01  0.44813127083E+00  0.44886803114E+00  0.51109989000E-03 0.  1.
     -623    1    1    2    0    0 -0.99142461684E-02 -0.68845266995E-02  0.11391157506E-02  0.17130000043E+03  0.17130000000E+03 0. -1.
      622    1    1    2    0    0  0.15035980958E-01  0.32071429930E-01  0.35507295808E+01  0.35511315398E+01  0.40000000000E-01 0.  1.
</event>
<event>
 5   0  0.6200596E+07  0.9118800E+02  0.7818608E-02  0.1180000E+00
       11   -1    0    0    0    0  0.00000000000E+00  0.00000000000E+00  0.39999999673E+01  0.40000000000E+01  0.51109989000E-03 0.  1.
     -623   -1    0    0    0    0  0.00000000000E+00  0.00000000000E+00  0.12525980253E-10  0.17130000000E+03  0.17130000000E+03 0.  1.
       11    1    1    2    0    0  0.53987175799E-02  0.11024111127E-01  0.17243255928E+01  0.17243693596E+01  0.51109989000E-03 0.  1.
     -623    1    1    2    0    0 -0.46516925795E-02 -0.62483855785E-03  0.41926500377E-03  0.17130000006E+03  0.17130000000E+03 0.  1.
      622    1    1    2    0    0 -0.74702500041E-03 -0.10399272570E-01  0.22752551095E+01  0.22756305756E+01  0.40000000000E-01 0.  1.
</event>
<event>
 5   0  0.6200596E+07  0.9118800E+02  0.7818608E-02  0.1180000E+00
       11   -1    0    0    0    0  0.00000000000E+00  0.00000000000E+00  0.39999999673E+01  0.40000000000E+01  0.51109989000E-03 0. -1.
     -623   -1    0    0    0    0  0.00000000000E+00  0.00000000000E+00  0.12525980253E-10  0.17130000000E+03  0.17130000000E+03 0.  1.
       11    1    1    2    0    0  0.37112812300E-03 -0.42398970012E-02  0.60950325988E-02  0.74515170088E-02  0.51109989000E-03 0.  1.
     -623    1    1    2    0    0 -0.55663335493E-03  0.38062780881E-02  0.15569081971E-02  0.17130000005E+03  0.17130000000E+03 0.  1.
      622    1    1    2    0    0  0.18550523192E-03  0.43361891305E-03  0.39923480266E+01  0.39925484327E+01  0.40000000000E-01 0. -1.
</event>
<event>
 5   0  0.6200596E+07  0.9118800E+02  0.7818608E-02  0.1180000E+00
       11   -1    0    0    0    0  0.00000000000E+00  0.00000000000E+00  0.39999999673E+01  0.40000000000E+01  0.51109989000E-03 0.  1.
     -623   -1    0    0    0    0  0.00000000000E+00  0.00000000000E+00  0.12525980253E-10  0.17130000000E+03  0.17130000000E+03 0.  1.
       11    1    1    2    0    0  0.19490174602E-02 -0.81604652703E-03  0.56652108916E-01  0.56693802720E-01  0.51109989000E-03 0.  1.
     -623    1    1    2    0    0  0.46601602492E-03  0.30079823642E-03  0.24531613345E-03  0.17130000000E+03  0.17130000000E+03 0.  1.
      622    1    1    2    0    0 -0.24150334851E-02  0.51524829062E-03  0.39431025423E+01  0.39433061962E+01  0.40000000000E-01 0.  1.
</event>
<event>
 5   0  0.6200596E+07  0.9118800E+02  0.7818608E-02  0.1180000E+00
       11   -1    0    0    0    0  0.00000000000E+00  0.00000000000E+00  0.39999999673E+01  0.40000000000E+01  0.51109989000E-03 0.  1.
     -623   -1    0    0    0    0  0.00000000000E+00  0.00000000000E+00  0.12525980253E-10  0.17130000000E+03  0.17130000000E+03 0.  1.
       11    1    1    2    0    0  0.70836127897E-04  0.20035439495E-02  0.41490368761E-02  0.46362627896E-02  0.51109989000E-03 0.  1.
     -623    1    1    2    0    0  0.29077858794E-04 -0.29027820952E-02  0.68755880213E-03  0.17130000003E+03  0.17130000000E+03 0.  1.
      622    1    1    2    0    0 -0.99913986691E-04  0.89923814574E-03  0.39951633717E+01  0.39953637112E+01  0.40000000000E-01 0.  1.
</event>
<event>
 5   0  0.6200596E+07  0.9118800E+02  0.7818608E-02  0.1180000E+00
       11   -1    0    0    0    0  0.00000000000E+00  0.00000000000E+00  0.39999999673E+01  0.40000000000E+01  0.51109989000E-03 0. -1.
     -623   -1    0    0    0    0  0.00000000000E+00  0.00000000000E+00  0.12525980253E-10  0.17130000000E+03  0.17130000000E+03 0.  1.
       11    1    1    2    0    0  0.13860912858E-01  0.25391436050E-01  0.11788670931E+01  0.11792220886E+01  0.51109989000E-03 0. -1.
     -623    1    1    2    0    0  0.55815412955E-03  0.11938109108E-02  0.80074821691E-03  0.17130000001E+03  0.17130000000E+03 0.  1.
      622    1    1    2    0    0 -0.14419066987E-01 -0.26585246961E-01  0.28203321261E+01  0.28207779045E+01  0.40000000000E-01 0.  0.
</event>
<event>
 5   0  0.6200596E+07  0.9118800E+02  0.7818608E-02  0.1180000E+00
       11   -1    0    0    0    0  0.00000000000E+00  0.00000000000E+00  0.39999999673E+01  0.40000000000E+01  0.51109989000E-03 0.  1.
     -623   -1    0    0    0    0  0.00000000000E+00  0.00000000000E+00  0.12525980253E-10  0.17130000000E+03  0.17130000000E+03 0. -1.
       11    1    1    2    0    0 -0.61222953068E-02  0.25476702376E-03  0.17944966227E+00  0.17955497742E+00  0.51109989000E-03 0.  1.
     -623    1    1    2    0    0 -0.68447540695E-03  0.12976513619E-02  0.32107399442E-03  0.17130000001E+03  0.17130000000E+03 0. -1.
      622    1    1    2    0    0  0.68067707138E-02 -0.15524183857E-02  0.38202292311E+01  0.38204450160E+01  0.40000000000E-01 0.  1.
</event>
<event>
 5   0  0.6200596E+07  0.9118800E+02  0.7818608E-02  0.1180000E+00
       11   -1    0    0    0    0  0.00000000000E+00  0.00000000000E+00  0.39999999673E+01  0.40000000000E+01  0.51109989000E-03 0. -1.
     -623   -1    0    0    0    0  0.00000000000E+00  0.00000000000E+00  0.12525980253E-10  0.17130000000E+03  0.17130000000E+03 0. -1.
       11    1    1    2    0    0  0.28332998839E-03 -0.17887075031E-02  0.17330982723E-01  0.17432840701E-01  0.51109989000E-03 0. -1.
     -623    1    1    2    0    0  0.28787659621E-02  0.32468405184E-02  0.30428343136E-03  0.17130000006E+03  0.17130000000E+03 0. -1.
      622    1    1    2    0    0 -0.31620959505E-02 -0.14581330154E-02  0.39823647012E+01  0.39825671041E+01  0.40000000000E-01 0. -1.
</event>
<event>
 5   0  0.6200596E+07  0.9118800E+02  0.7818608E-02  0.1180000E+00
       11   -1    0    0    0    0  0.00000000000E+00  0.00000000000E+00  0.39999999673E+01  0.40000000000E+01  0.51109989000E-03 0.  1.
     -623   -1    0    0    0    0  0.00000000000E+00  0.00000000000E+00  0.12525980253E-10  0.17130000000E+03  0.17130000000E+03 0.  1.
       11    1    1    2    0    0  0.13533643068E-02 -0.37152449278E-03  0.15540314198E-01  0.15611925338E-01  0.51109989000E-03 0.  1.
     -623    1    1    2    0    0 -0.49141965952E-03 -0.28097815366E-03  0.27251503481E-03  0.17130000000E+03  0.17130000000E+03 0.  1.
      622    1    1    2    0    0 -0.86194464728E-03  0.65250264644E-03  0.39841871381E+01  0.39843880735E+01  0.40000000000E-01 0.  1.
</event>
<event>
 5   0  0.6200596E+07  0.9118800E+02  0.7818608E-02  0.1180000E+00
       11   -1    0    0    0    0  0.00000000000E+00  0.00000000000E+00  0.39999999673E+01  0.40000000000E+01  0.51109989000E-03 0. -1.
     -623   -1    0    0    0    0  0.00000000000E+00  0.00000000000E+00  0.12525980253E-10  0.17130000000E+03  0.17130000000E+03 0.  1.
       11    1    1    2    0    0 -0.11972286752E-01  0.15866327266E-01  0.50307406209E+00  0.50346683024E+00  0.51109989000E-03 0. -1.
     -623    1    1    2    0    0 -0.13381236167E-01  0.11009932113E-01  0.81765037732E-03  0.17130000088E+03  0.17130000000E+03 0.  1.
      622    1    1    2    0    0  0.25353522918E-01 -0.26876259380E-01  0.34961082549E+01  0.34965322913E+01  0.40000000000E-01 0. -1.
</event>
<event>
 5   0  0.6200596E+07  0.9118800E+02  0.7818608E-02  0.1180000E+00
       11   -1    0    0    0    0  0.00000000000E+00  0.00000000000E+00  0.39999999673E+01  0.40000000000E+01  0.51109989000E-03 0.  1.
     -623   -1    0    0    0    0  0.00000000000E+00  0.00000000000E+00  0.12525980253E-10  0.17130000000E+03  0.17130000000E+03 0. -1.
       11    1    1    2    0    0 -0.10210780933E-02  0.53005991803E-02  0.13887338503E+01  0.13887444355E+01  0.51109989000E-03 0.  1.
     -623    1    1    2    0    0  0.88602320605E-03  0.74621599177E-03  0.32394633976E-03  0.17130000000E+03  0.17130000000E+03 0. -1.
      622    1    1    2    0    0  0.13505488727E-03 -0.60468151720E-02  0.26109421707E+01  0.26112555603E+01  0.40000000000E-01 0.  1.
</event>
<event>
 5   0  0.6200596E+07  0.9118800E+02  0.7818608E-02  0.1180000E+00
       11   -1    0    0    0    0  0.00000000000E+00  0.00000000000E+00  0.39999999673E+01  0.40000000000E+01  0.51109989000E-03 0.  1.
     -623   -1    0    0    0    0  0.00000000000E+00  0.00000000000E+00  0.12525980253E-10  0.17130000000E+03  0.17130000000E+03 0. -1.
       11    1    1    2    0    0  0.21096554621E-03 -0.28020438172E-03  0.32517800090E-01  0.32523707751E-01  0.51109989000E-03 0.  1.
     -623    1    1    2    0    0 -0.10297473463E-02  0.57749677081E-03  0.20761948619E-03  0.17130000000E+03  0.17130000000E+03 0. -1.
      622    1    1    2    0    0  0.81878180012E-03 -0.29729238909E-03  0.39672745478E+01  0.39674762881E+01  0.40000000000E-01 0.  1.
</event>
<event>
 5   0  0.6200596E+07  0.9118800E+02  0.7818608E-02  0.1180000E+00
       11   -1    0    0    0    0  0.00000000000E+00  0.00000000000E+00  0.39999999673E+01  0.40000000000E+01  0.51109989000E-03 0. -1.
     -623   -1    0    0    0    0  0.00000000000E+00  0.00000000000E+00  0.12525980253E-10  0.17130000000E+03  0.17130000000E+03 0. -1.
       11    1    1    2    0    0 -0.18400769868E-01 -0.17938704097E-01  0.20381040820E+00  0.20542475301E+00  0.51109989000E-03 0. -1.
     -623    1    1    2    0    0  0.37813174791E-02  0.85297517780E-02  0.18652394885E-02  0.17130000026E+03  0.17130000000E+03 0. -1.
      622    1    1    2    0    0  0.14619452389E-01  0.94089523189E-02  0.37943243197E+01  0.37945749827E+01  0.40000000000E-01 0. -1.
</event>
<event>
 5   0  0.6200596E+07  0.9118800E+02  0.7818608E-02  0.1180000E+00
       11   -1    0    0    0    0  0.00000000000E+00  0.00000000000E+00  0.39999999673E+01  0.40000000000E+01  0.51109989000E-03 0.  1.
     -623   -1    0    0    0    0  0.00000000000E+00  0.00000000000E+00  0.12525980253E-10  0.17130000000E+03  0.17130000000E+03 0.  1.
       11    1    1    2    0    0  0.12529743135E-01  0.28052573585E-01  0.12445878065E+01  0.12449670721E+01  0.51109989000E-03 0.  1.
     -623    1    1    2    0    0  0.83368735951E-03  0.50265139340E-03  0.85004961545E-03  0.17130000000E+03  0.17130000000E+03 0.  1.
      622    1    1    2    0    0 -0.13363430495E-01 -0.28555224979E-01  0.27545621113E+01  0.27550329230E+01  0.40000000000E-01 0.  1.
</event>
<event>
 5   0  0.6200596E+07  0.9118800E+02  0.7818608E-02  0.1180000E+00
       11   -1    0    0    0    0  0.00000000000E+00  0.00000000000E+00  0.39999999673E+01  0.40000000000E+01  0.51109989000E-03 0.  1.
     -623   -1    0    0    0    0  0.00000000000E+00  0.00000000000E+00  0.12525980253E-10  0.17130000000E+03  0.17130000000E+03 0.  1.
       11    1    1    2    0    0 -0.53073724630E-02 -0.36519427977E-02  0.20502056858E+00  0.20512240163E+00  0.51109989000E-03 0.  1.
     -623    1    1    2    0    0 -0.43870955088E-03 -0.51051475688E-03  0.31925183650E-03  0.17130000000E+03  0.17130000000E+03 0.  1.
      622    1    1    2    0    0  0.57460820139E-02  0.41624575546E-02  0.37946601469E+01  0.37948775967E+01  0.40000000000E-01 0.  0.
</event>
<event>
 5   0  0.6200596E+07  0.9118800E+02  0.7818608E-02  0.1180000E+00
       11   -1    0    0    0    0  0.00000000000E+00  0.00000000000E+00  0.39999999673E+01  0.40000000000E+01  0.51109989000E-03 0. -1.
     -623   -1    0    0    0    0  0.00000000000E+00  0.00000000000E+00  0.12525980253E-10  0.17130000000E+03  0.17130000000E+03 0.  1.
       11    1    1    2    0    0 -0.12867470198E-02 -0.50601750061E-03  0.57256825500E-01  0.57275798205E-01  0.51109989000E-03 0. -1.
     -623    1    1    2    0    0  0.27359003578E-02 -0.29134408464E-02  0.22364667945E-03  0.17130000005E+03  0.17130000000E+03 0.  1.
      622    1    1    2    0    0 -0.14491533380E-02  0.34194583470E-02  0.39425194952E+01  0.39427241550E+01  0.40000000000E-01 0. -1.
</event>
<event>
 5   0  0.6200596E+07  0.9118800E+02  0.7818608E-02  0.1180000E+00
       11   -1    0    0    0    0  0.00000000000E+00  0.00000000000E+00  0.39999999673E+01  0.40000000000E+01  0.51109989000E-03 0.  1.
     -623   -1    0    0    0    0  0.00000000000E+00  0.00000000000E+00  0.12525980253E-10  0.17130000000E+03  0.17130000000E+03 0. -1.
       11    1    1    2    0    0 -0.99358720527E-02 -0.28003089967E-02  0.23653940234E+01  0.23654166040E+01  0.51109989000E-03 0.  1.
     -623    1    1    2    0    0  0.10835143058E-01  0.40431443379E-02  0.51315393339E-03  0.17130000039E+03  0.17130000000E+03 0. -1.
      622    1    1    2    0    0 -0.89927100555E-03 -0.12428353412E-02  0.16340927900E+01  0.16345830048E+01  0.40000000000E-01 0.  1.
</event>
<event>
 5   0  0.6200596E+07  0.9118800E+02  0.7818608E-02  0.1180000E+00
       11   -1    0    0    0    0  0.00000000000E+00  0.00000000000E+00  0.39999999673E+01  0.40000000000E+01  0.51109989000E-03 0.  1.
     -623   -1    0    0    0    0  0.00000000000E+00  0.00000000000E+00  0.12525980253E-10  0.17130000000E+03  0.17130000000E+03 0.  1.
       11    1    1    2    0    0 -0.53075985776E-03 -0.40027278762E-02  0.10431679784E+00  0.10439616405E+00  0.51109989000E-03 0.  1.
     -623    1    1    2    0    0 -0.12816998810E-02  0.30529017617E-03  0.28688041171E-03  0.17130000001E+03  0.17130000000E+03 0.  1.
      622    1    1    2    0    0  0.18124597387E-02  0.36974377000E-02  0.38953962891E+01  0.38956038306E+01  0.40000000000E-01 0.  1.
</event>
<event>
 5   0  0.6200596E+07  0.9118800E+02  0.7818608E-02  0.1180000E+00
       11   -1    0    0    0    0  0.00000000000E+00  0.00000000000E+00  0.39999999673E+01  0.40000000000E+01  0.51109989000E-03 0.  1.
     -623   -1    0    0    0    0  0.00000000000E+00  0.00000000000E+00  0.12525980253E-10  0.17130000000E+03  0.17130000000E+03 0.  1.
       11    1    1    2    0    0 -0.44603861714E-02  0.12199058399E-01  0.31262204267E+00  0.31289217768E+00  0.51109989000E-03 0.  1.
     -623    1    1    2    0    0  0.96847611858E-02 -0.31121906611E-03  0.51022269417E-03  0.17130000027E+03  0.17130000000E+03 0.  1.
      622    1    1    2    0    0 -0.52243750144E-02 -0.11887839333E-01  0.36868677020E+01  0.36871075475E+01  0.40000000000E-01 0.  1.
</event>
<event>
 5   0  0.6200596E+07  0.9118800E+02  0.7818608E-02  0.1180000E+00
       11   -1    0    0    0    0  0.00000000000E+00  0.00000000000E+00  0.39999999673E+01  0.40000000000E+01  0.51109989000E-03 0. -1.
     -623   -1    0    0    0    0  0.00000000000E+00  0.00000000000E+00  0.12525980253E-10  0.17130000000E+03  0.17130000000E+03 0.  1.
       11    1    1    2    0    0  0.98306023897E-02  0.16011277652E-01  0.39208997256E-02  0.19199907098E-01  0.51109989000E-03 0. -1.
     -623    1    1    2    0    0 -0.14730256794E-02 -0.20860488993E-01  0.15493649110E-01  0.17130000198E+03  0.17130000000E+03 0.  1.
      622    1    1    2    0    0 -0.83575767103E-02  0.48492113414E-02  0.39805854185E+01  0.39807981157E+01  0.40000000000E-01 0. -1.
</event>
<event>
 5   0  0.6200596E+07  0.9118800E+02  0.7818608E-02  0.1180000E+00
       11   -1    0    0    0    0  0.00000000000E+00  0.00000000000E+00  0.39999999673E+01  0.40000000000E+01  0.51109989000E-03 0.  1.
     -623   -1    0    0    0    0  0.00000000000E+00  0.00000000000E+00  0.12525980253E-10  0.17130000000E+03  0.17130000000E+03 0. -1.
       11    1    1    2    0    0 -0.92234579121E-03 -0.41061679647E-03  0.27895622646E-02  0.30103500489E-02  0.51109989000E-03 0.  1.
     -623    1    1    2    0    0  0.23724468665E-02  0.18936167632E-03  0.42119702324E-03  0.17130000002E+03  0.17130000000E+03 0. -1.
      622    1    1    2    0    0 -0.14501010752E-02  0.22125512014E-03  0.39967892081E+01  0.39969896329E+01  0.40000000000E-01 0.  1.
</event>
<event>
 5   0  0.6200596E+07  0.9118800E+02  0.7818608E-02  0.1180000E+00
       11   -1    0    0    0    0  0.00000000000E+00  0.00000000000E+00  0.39999999673E+01  0.40000000000E+01  0.51109989000E-03 0.  1.
     -623   -1    0    0    0    0  0.00000000000E+00  0.00000000000E+00  0.12525980253E-10  0.17130000000E+03  0.17130000000E+03 0. -1.
       11    1    1    2    0    0 -0.55476618508E-02  0.24206422311E-02  0.17738168250E+00  0.17748565736E+00  0.51109989000E-03 0.  1.
     -623    1    1    2    0    0  0.39509693851E-04 -0.19375717754E-03  0.31785216033E-03  0.17130000000E+03  0.17130000000E+03 0. -1.
      622    1    1    2    0    0  0.55081521569E-02 -0.22268850536E-02  0.38223004327E+01  0.38225143422E+01  0.40000000000E-01 0.  1.
</event>
<event>
 5   0  0.6200596E+07  0.9118800E+02  0.7818608E-02  0.1180000E+00
       11   -1    0    0    0    0  0.00000000000E+00  0.00000000000E+00  0.39999999673E+01  0.40000000000E+01  0.51109989000E-03 0.  1.
     -623   -1    0    0    0    0  0.00000000000E+00  0.00000000000E+00  0.12525980253E-10  0.17130000000E+03  0.17130000000E+03 0. -1.
       11    1    1    2    0    0 -0.49734653854E-04  0.57594087888E-03  0.42151065250E-02  0.42851518943E-02  0.51109989000E-03 0.  1.
     -623    1    1    2    0    0  0.13611170027E-03  0.40131194980E-03  0.27035341591E-03  0.17130000000E+03  0.17130000000E+03 0. -1.
      622    1    1    2    0    0 -0.86377046416E-04 -0.97725282869E-03  0.39955145074E+01  0.39957148474E+01  0.40000000000E-01 0.  1.
</event>
<event>
 5   0  0.6200596E+07  0.9118800E+02  0.7818608E-02  0.1180000E+00
       11   -1    0    0    0    0  0.00000000000E+00  0.00000000000E+00  0.39999999673E+01  0.40000000000E+01  0.51109989000E-03 0. -1.
     -623   -1    0    0    0    0  0.00000000000E+00  0.00000000000E+00  0.12525980253E-10  0.17130000000E+03  0.17130000000E+03 0. -1.
       11    1    1    2    0    0 -0.19592689441E-01 -0.59708060259E-03  0.15735644781E+01  0.15736866454E+01  0.51109989000E-03 0. -1.
     -623    1    1    2    0    0 -0.54506970378E-02  0.10557567649E-01  0.60200209810E-03  0.17130000041E+03  0.17130000000E+03 0. -1.
      622    1    1    2    0    0  0.25043386479E-01 -0.99604870469E-02  0.24258334872E+01  0.24263129415E+01  0.40000000000E-01 0. -1.
</event>
<event>
 5   0  0.6200596E+07  0.9118800E+02  0.7818608E-02  0.1180000E+00
       11   -1    0    0    0    0  0.00000000000E+00  0.00000000000E+00  0.39999999673E+01  0.40000000000E+01  0.51109989000E-03 0.  1.
     -623   -1    0    0    0    0  0.00000000000E+00  0.00000000000E+00  0.12525980253E-10  0.17130000000E+03  0.17130000000E+03 0.  1.
       11    1    1    2    0    0 -0.30777650337E-01  0.20386768977E-01  0.58795616675E-01  0.69426723045E-01  0.51109989000E-03 0.  1.
     -623    1    1    2    0    0  0.12693063527E-01 -0.83037233020E-02  0.10895809337E-01  0.17130000102E+03  0.17130000000E+03 0.  1.
      622    1    1    2    0    0  0.18084586811E-01 -0.12083045675E-01  0.39303085413E+01  0.39305722589E+01  0.40000000000E-01 0.  1.
</event>
<event>
 5   0  0.6200596E+07  0.9118800E+02  0.7818608E-02  0.1180000E+00
       11   -1    0    0    0    0  0.00000000000E+00  0.00000000000E+00  0.39999999673E+01  0.40000000000E+01  0.51109989000E-03 0.  1.
     -623   -1    0    0    0    0  0.00000000000E+00  0.00000000000E+00  0.12525980253E-10  0.17130000000E+03  0.17130000000E+03 0.  1.
       11    1    1    2    0    0 -0.16518147664E-02 -0.40463796374E-02  0.28067470921E+01  0.28067505415E+01  0.51109989000E-03 0.  1.
     -623    1    1    2    0    0  0.38025089039E-02  0.89411537410E-03  0.68019463672E-03  0.17130000005E+03  0.17130000000E+03 0.  1.
      622    1    1    2    0    0 -0.21506941374E-02  0.31522642633E-02  0.11925726806E+01  0.11932494127E+01  0.40000000000E-01 0.  1.
</event>
<event>
 5   0  0.6200596E+07  0.9118800E+02  0.7818608E-02  0.1180000E+00
       11   -1    0    0    0    0  0.00000000000E+00  0.00000000000E+00  0.39999999673E+01  0.40000000000E+01  0.51109989000E-03 0. -1.
     -623   -1    0    0    0    0  0.00000000000E+00  0.00000000000E+00  0.12525980253E-10  0.17130000000E+03  0.17130000000E+03 0.  1.
       11    1    1    2    0    0 -0.87687085635E-02  0.30284904855E-01  0.18925816896E+01  0.18928443620E+01  0.51109989000E-03 0. -1.
     -623    1    1    2    0    0  0.19230117599E-01 -0.22835301190E-01  0.68408092149E-03  0.17130000260E+03  0.17130000000E+03 0.  1.
      622    1    1    2    0    0 -0.10461409035E-01 -0.74496036657E-02  0.21067341968E+01  0.21071530352E+01  0.40000000000E-01 0. -1.
</event>
<event>
 5   0  0.6200596E+07  0.9118800E+02  0.7818608E-02  0.1180000E+00
       11   -1    0    0    0    0  0.00000000000E+00  0.00000000000E+00  0.39999999673E+01  0.40000000000E+01  0.51109989000E-03 0. -1.
     -623   -1    0    0    0    0  0.00000000000E+00  0.00000000000E+00  0.12525980253E-10  0.17130000000E+03  0.17130000000E+03 0.  1.
       11    1    1    2    0    0 -0.81900465508E-02 -0.11546193054E-02  0.26820308145E+01  0.26820436166E+01  0.51109989000E-03 0. -1.
     -623    1    1    2    0    0  0.13058482518E-02 -0.14783149744E-02  0.64054123110E-03  0.17130000001E+03  0.17130000000E+03 0.  1.
      622    1    1    2    0    0  0.68841982991E-02  0.26329342798E-02  0.13173286116E+01  0.13179563709E+01  0.40000000000E-01 0. -1.
</event>
<event>
 5   0  0.6200596E+07  0.9118800E+02  0.7818608E-02  0.1180000E+00
       11   -1    0    0    0    0  0.00000000000E+00  0.00000000000E+00  0.39999999673E+01  0.40000000000E+01  0.51109989000E-03 0.  1.
     -623   -1    0    0    0    0  0.00000000000E+00  0.00000000000E+00  0.12525980253E-10  0.17130000000E+03  0.17130000000E+03 0. -1.
       11    1    1    2    0    0 -0.71082055843E-02  0.32182797359E-02  0.17932683795E+01  0.17932854279E+01  0.51109989000E-03 0.  1.
     -623    1    1    2    0    0 -0.23694532198E-01 -0.42336726117E-01  0.94832400390E-03  0.17130000687E+03  0.17130000000E+03 0. -1.
      622    1    1    2    0    0  0.30802737783E-01  0.39118446381E-01  0.22057832639E+01  0.22067076990E+01  0.40000000000E-01 0.  0.
</event>
<event>
 5   0  0.6200596E+07  0.9118800E+02  0.7818608E-02  0.1180000E+00
       11   -1    0    0    0    0  0.00000000000E+00  0.00000000000E+00  0.39999999673E+01  0.40000000000E+01  0.51109989000E-03 0.  1.
     -623   -1    0    0    0    0  0.00000000000E+00  0.00000000000E+00  0.12525980253E-10  0.17130000000E+03  0.17130000000E+03 0. -1.
       11    1    1    2    0    0  0.24391903044E-02  0.13277200931E-01  0.25782693907E+00  0.25818060626E+00  0.51109989000E-03 0.  1.
     -623    1    1    2    0    0  0.10129296768E-02 -0.17296464715E-03  0.59198459200E-03  0.17130000000E+03  0.17130000000E+03 0. -1.
      622    1    1    2    0    0 -0.34521199812E-02 -0.13104236284E-01  0.37415810437E+01  0.37418193896E+01  0.40000000000E-01 0.  1.
</event>
<event>
 5   0  0.6200596E+07  0.9118800E+02  0.7818608E-02  0.1180000E+00
       11   -1    0    0    0    0  0.00000000000E+00  0.00000000000E+00  0.39999999673E+01  0.40000000000E+01  0.51109989000E-03 0. -1.
     -623   -1    0    0    0    0  0.00000000000E+00  0.00000000000E+00  0.12525980253E-10  0.17130000000E+03  0.17130000000E+03 0. -1.
       11    1    1    2    0    0  0.20718102426E-01  0.22408191364E-01  0.22164301950E+00  0.22373478970E+00  0.51109989000E-03 0. -1.
     -623    1    1    2    0    0  0.44100920424E-02 -0.16704805788E-01  0.23923986044E-02  0.17130000089E+03  0.17130000000E+03 0. -1.
      622    1    1    2    0    0 -0.25128194469E-01 -0.57033855765E-02  0.37759645493E+01  0.37762643223E+01  0.40000000000E-01 0. -1.
</event>
<event>
 5   0  0.6200596E+07  0.9118800E+02  0.7818608E-02  0.1180000E+00
       11   -1    0    0    0    0  0.00000000000E+00  0.00000000000E+00  0.39999999673E+01  0.40000000000E+01  0.51109989000E-03 0. -1.
     -623   -1    0    0    0    0  0.00000000000E+00  0.00000000000E+00  0.12525980253E-10  0.17130000000E+03  0.17130000000E+03 0. -1.
       11    1    1    2    0    0  0.44301888080E-02 -0.34827164109E-02  0.30740254378E-01  0.31256684846E-01  0.51109989000E-03 0. -1.
     -623    1    1    2    0    0 -0.15143197210E-02  0.12211323601E-03  0.72048045154E-03  0.17130000001E+03  0.17130000000E+03 0. -1.
      622    1    1    2    0    0 -0.29158690870E-02  0.33606031749E-02  0.39685392325E+01  0.39687433069E+01  0.40000000000E-01 0. -1.
</event>
<event>
 5   0  0.6200596E+07  0.9118800E+02  0.7818608E-02  0.1180000E+00
       11   -1    0    0    0    0  0.00000000000E+00  0.00000000000E+00  0.39999999673E+01  0.40000000000E+01  0.51109989000E-03 0.  1.
     -623   -1    0    0    0    0  0.00000000000E+00  0.00000000000E+00  0.12525980253E-10  0.17130000000E+03  0.17130000000E+03 0. -1.
       11    1    1    2    0    0 -0.20714116165E-02 -0.75259626331E-02  0.21553017261E+00  0.21567208300E+00  0.51109989000E-03 0.  1.
     -623    1    1    2    0    0 -0.67768753156E-03  0.30147887031E-03  0.36117875669E-03  0.17130000000E+03  0.17130000000E+03 0. -1.
      622    1    1    2    0    0  0.27490991481E-02  0.72244837628E-02  0.37841086160E+01  0.37843279150E+01  0.40000000000E-01 0.  1.
</event>
<event>
 5   0  0.6200596E+07  0.9118800E+02  0.7818608E-02  0.1180000E+00
       11   -1    0    0    0    0  0.00000000000E+00  0.00000000000E+00  0.39999999673E+01  0.40000000000E+01  0.51109989000E-03 0. -1.
     -623   -1    0    0    0    0  0.00000000000E+00  0.00000000000E+00  0.12525980253E-10  0.17130000000E+03  0.17130000000E+03 0.  1.
       11    1    1    2    0    0  0.49998743195E-01 -0.10844478143E-01  0.42417086288E+00  0.42724543200E+00  0.51109989000E-03 0. -1.
     -623    1    1    2    0    0 -0.34250546175E-01  0.42913506526E-02  0.33426916527E-02  0.17130000351E+03  0.17130000000E+03 0.  1.
      622    1    1    2    0    0 -0.15748197019E-01  0.65531274907E-02  0.35724864128E+01  0.35727510575E+01  0.40000000000E-01 0. -1.
</event>
<event>
 5   0  0.6200596E+07  0.9118800E+02  0.7818608E-02  0.1180000E+00
       11   -1    0    0    0    0  0.00000000000E+00  0.00000000000E+00  0.39999999673E+01  0.40000000000E+01  0.51109989000E-03 0.  1.
     -623   -1    0    0    0    0  0.00000000000E+00  0.00000000000E+00  0.12525980253E-10  0.17130000000E+03  0.17130000000E+03 0.  1.
       11    1    1    2    0    0  0.50073570697E-03 -0.33428214272E-03  0.54758758287E-02  0.55325326598E-02  0.51109989000E-03 0.  1.
     -623    1    1    2    0    0 -0.70089224990E-03  0.10376047620E-02  0.25697792771E-03  0.17130000000E+03  0.17130000000E+03 0.  1.
      622    1    1    2    0    0  0.20015654293E-03 -0.70332261926E-03  0.39942671136E+01  0.39944674626E+01  0.40000000000E-01 0.  1.
</event>
<event>
 5   0  0.6200596E+07  0.9118800E+02  0.7818608E-02  0.1180000E+00
       11   -1    0    0    0    0  0.00000000000E+00  0.00000000000E+00  0.39999999673E+01  0.40000000000E+01  0.51109989000E-03 0.  1.
     -623   -1    0    0    0    0  0.00000000000E+00  0.00000000000E+00  0.12525980253E-10  0.17130000000E+03  0.17130000000E+03 0. -1.
       11    1    1    2    0    0 -0.17718301524E-01  0.54283912765E-02  0.95790488054E+00  0.95808424840E+00  0.51109989000E-03 0.  1.
     -623    1    1    2    0    0 -0.99928928897E-02 -0.85558451683E-02  0.57068783298E-03  0.17130000051E+03  0.17130000000E+03 0. -1.
      622    1    1    2    0    0  0.27711194414E-01  0.31274538918E-02  0.30415243990E+01  0.30419152455E+01  0.40000000000E-01 0.  1.
</event>
<event>
 5   0  0.6200596E+07  0.9118800E+02  0.7818608E-02  0.1180000E+00
       11   -1    0    0    0    0  0.00000000000E+00  0.00000000000E+00  0.39999999673E+01  0.40000000000E+01  0.51109989000E-03 0. -1.
     -623   -1    0    0    0    0  0.00000000000E+00  0.00000000000E+00  0.12525980253E-10  0.17130000000E+03  0.17130000000E+03 0.  1.
       11    1    1    2    0    0  0.97573528256E-02  0.67383099956E-02  0.10959431732E+00  0.11023514126E+00  0.51109989000E-03 0. -1.
     -623    1    1    2    0    0 -0.46969852426E-02  0.13351258526E-01  0.90222529823E-03  0.17130000059E+03  0.17130000000E+03 0.  1.
      622    1    1    2    0    0 -0.50603675830E-02 -0.20089568522E-01  0.38895034247E+01  0.38897642717E+01  0.40000000000E-01 0. -1.
</event>
<event>
 5   0  0.6200596E+07  0.9118800E+02  0.7818608E-02  0.1180000E+00
       11   -1    0    0    0    0  0.00000000000E+00  0.00000000000E+00  0.39999999673E+01  0.40000000000E+01  0.51109989000E-03 0.  1.
     -623   -1    0    0    0    0  0.00000000000E+00  0.00000000000E+00  0.12525980253E-10  0.17130000000E+03  0.17130000000E+03 0.  1.
       11    1    1    2    0    0 -0.16084850283E-01  0.49884613095E-03  0.18151958270E+01  0.18152672318E+01  0.51109989000E-03 0.  1.
     -623    1    1    2    0    0 -0.44424622199E-02  0.58815735288E-03  0.53436385099E-03  0.17130000006E+03  0.17130000000E+03 0.  1.
      622    1    1    2    0    0  0.20527312503E-01 -0.10870034838E-02  0.21842697765E+01  0.21847327087E+01  0.40000000000E-01 0.  0.
</event>
<event>
 5   0  0.6200596E+07  0.9118800E+02  0.7818608E-02  0.1180000E+00
       11   -1    0    0    0    0  0.00000000000E+00  0.00000000000E+00  0.39999999673E+01  0.40000000000E+01  0.51109989000E-03 0.  1.
     -623   -1    0    0    0    0  0.00000000000E+00  0.00000000000E+00  0.12525980253E-10  0.17130000000E+03  0.17130000000E+03 0.  1.
       11    1    1    2    0    0  0.16091258986E-02 -0.69862864818E-02  0.68737897323E+00  0.68741654878E+00  0.51109989000E-03 0.  1.
     -623    1    1    2    0    0  0.15790481593E-02 -0.65183866373E-03  0.28940478213E-03  0.17130000001E+03  0.17130000000E+03 0.  1.
      622    1    1    2    0    0 -0.31881740579E-02  0.76381251455E-02  0.33123315894E+01  0.33125834425E+01  0.40000000000E-01 0.  1.
</event>
<event>
 5   0  0.6200596E+07  0.9118800E+02  0.7818608E-02  0.1180000E+00
       11   -1    0    0    0    0  0.00000000000E+00  0.00000000000E+00  0.39999999673E+01  0.40000000000E+01  0.51109989000E-03 0.  1.
     -623   -1    0    0    0    0  0.00000000000E+00  0.00000000000E+00  0.12525980253E-10  0.17130000000E+03  0.17130000000E+03 0.  1.
       11    1    1    2    0    0  0.17989875522E-01  0.19802287261E-01  0.99024140485E+00  0.99060288073E+00  0.51109989000E-03 0.  1.
     -623    1    1    2    0    0  0.97416430542E-02 -0.85438801931E-02  0.77662962536E-03  0.17130000049E+03  0.17130000000E+03 0.  1.
      622    1    1    2    0    0 -0.27731518576E-01 -0.11258407068E-01  0.30089819329E+01  0.30093966274E+01  0.40000000000E-01 0.  1.
</event>
<event>
 5   0  0.6200596E+07  0.9118800E+02  0.7818608E-02  0.1180000E+00
       11   -1    0    0    0    0  0.00000000000E+00  0.00000000000E+00  0.39999999673E+01  0.40000000000E+01  0.51109989000E-03 0.  1.
     -623   -1    0    0    0    0  0.00000000000E+00  0.00000000000E+00  0.12525980253E-10  0.17130000000E+03  0.17130000000E+03 0.  1.
       11    1    1    2    0    0 -0.16187913213E-02 -0.55678657314E-03  0.37863310832E-01  0.37905435293E-01  0.51109989000E-03 0.  1.
     -623    1    1    2    0    0  0.18703175167E-02 -0.26413316864E-02  0.24533989838E-03  0.17130000003E+03  0.17130000000E+03 0.  1.
      622    1    1    2    0    0 -0.25152619542E-03  0.31981182595E-02  0.39618913166E+01  0.39620945340E+01  0.40000000000E-01 0.  1.
</event>
<event>
 5   0  0.6200596E+07  0.9118800E+02  0.7818608E-02  0.1180000E+00
       11   -1    0    0    0    0  0.00000000000E+00  0.00000000000E+00  0.39999999673E+01  0.40000000000E+01  0.51109989000E-03 0. -1.
     -623   -1    0    0    0    0  0.00000000000E+00  0.00000000000E+00  0.12525980253E-10  0.17130000000E+03  0.17130000000E+03 0. -1.
       11    1    1    2    0    0 -0.27556598743E-01  0.15373343248E-01  0.23859473479E+00  0.24067283708E+00  0.51109989000E-03 0. -1.
     -623    1    1    2    0    0 -0.11468808528E-01 -0.23656184816E-01  0.25046187604E-02  0.17130000204E+03  0.17130000000E+03 0. -1.
      622    1    1    2    0    0  0.39025407271E-01  0.82828415679E-02  0.37589006138E+01  0.37593251272E+01  0.40000000000E-01 0. -1.
</event>
<event>
 5   0  0.6200596E+07  0.9118800E+02  0.7818608E-02  0.1180000E+00
       11   -1    0    0    0    0  0.00000000000E+00  0.00000000000E+00  0.39999999673E+01  0.40000000000E+01  0.51109989000E-03 0.  1.
     -623   -1    0    0    0    0  0.00000000000E+00  0.00000000000E+00  0.12525980253E-10  0.17130000000E+03  0.17130000000E+03 0. -1.
       11    1    1    2    0    0  0.13896845805E-01 -0.16128938557E-01  0.12245114996E+01  0.12246966722E+01  0.51109989000E-03 0.  1.
     -623    1    1    2    0    0 -0.93890545731E-03 -0.26512800332E-02  0.56723947493E-03  0.17130000002E+03  0.17130000000E+03 0. -1.
      622    1    1    2    0    0 -0.12957940348E-01  0.18780218590E-01  0.27749212283E+01  0.27753033038E+01  0.40000000000E-01 0.  1.
</event>
<event>
 5   0  0.6200596E+07  0.9118800E+02  0.7818608E-02  0.1180000E+00
       11   -1    0    0    0    0  0.00000000000E+00  0.00000000000E+00  0.39999999673E+01  0.40000000000E+01  0.51109989000E-03 0. -1.
     -623   -1    0    0    0    0  0.00000000000E+00  0.00000000000E+00  0.12525980253E-10  0.17130000000E+03  0.17130000000E+03 0. -1.
       11    1    1    2    0    0  0.40884455098E-02  0.36420705660E-02  0.53947106918E-01  0.54226668999E-01  0.51109989000E-03 0. -1.
     -623    1    1    2    0    0 -0.97452705423E-02 -0.36377385252E-02  0.48665492664E-03  0.17130000032E+03  0.17130000000E+03 0. -1.
      622    1    1    2    0    0  0.56568250325E-02 -0.43320408237E-05  0.39455662055E+01  0.39457730145E+01  0.40000000000E-01 0. -1.
</event>
<event>
 5   0  0.6200596E+07  0.9118800E+02  0.7818608E-02  0.1180000E+00
       11   -1    0    0    0    0  0.00000000000E+00  0.00000000000E+00  0.39999999673E+01  0.40000000000E+01  0.51109989000E-03 0. -1.
     -623   -1    0    0    0    0  0.00000000000E+00  0.00000000000E+00  0.12525980253E-10  0.17130000000E+03  0.17130000000E+03 0.  1.
       11    1    1    2    0    0 -0.78489018680E-02 -0.62472079489E-02  0.30239250694E-01  0.31863872534E-01  0.51109989000E-03 0. -1.
     -623    1    1    2    0    0  0.85287002826E-02  0.77544773801E-02  0.18269424119E-02  0.17130000040E+03  0.17130000000E+03 0.  1.
      622    1    1    2    0    0 -0.67979841460E-03 -0.15072694311E-02  0.39679337743E+01  0.39681357299E+01  0.40000000000E-01 0. -1.
</event>
<event>
 5   0  0.6200596E+07  0.9118800E+02  0.7818608E-02  0.1180000E+00
       11   -1    0    0    0    0  0.00000000000E+00  0.00000000000E+00  0.39999999673E+01  0.40000000000E+01  0.51109989000E-03 0. -1.
     -623   -1    0    0    0    0  0.00000000000E+00  0.00000000000E+00  0.12525980253E-10  0.17130000000E+03  0.17130000000E+03 0.  1.
       11    1    1    2    0    0 -0.12624943467E-03  0.16167757950E-01  0.11503061882E+00  0.11616245875E+00  0.51109989000E-03 0. -1.
     -623    1    1    2    0    0 -0.31739256978E-02 -0.19216021750E-01  0.13415055921E-02  0.17130000111E+03  0.17130000000E+03 0.  1.
      622    1    1    2    0    0  0.33001751324E-02  0.30482637996E-02  0.38836278429E+01  0.38838364288E+01  0.40000000000E-01 0. -1.
</event>
<event>
 5   0  0.6200596E+07  0.9118800E+02  0.7818608E-02  0.1180000E+00
       11   -1    0    0    0    0  0.00000000000E+00  0.00000000000E+00  0.39999999673E+01  0.40000000000E+01  0.51109989000E-03 0. -1.
     -623   -1    0    0    0    0  0.00000000000E+00  0.00000000000E+00  0.12525980253E-10  0.17130000000E+03  0.17130000000E+03 0.  1.
       11    1    1    2    0    0  0.15414539910E-03  0.40435598247E-01  0.14757567870E+00  0.15301602377E+00  0.51109989000E-03 0. -1.
     -623    1    1    2    0    0  0.37411607937E-01 -0.37777385984E-01  0.58409718506E-02  0.17130000835E+03  0.17130000000E+03 0.  1.
      622    1    1    2    0    0 -0.37565753336E-01 -0.26582122630E-02  0.38465833168E+01  0.38469756257E+01  0.40000000000E-01 0. -1.
</event>
<event>
 5   0  0.6200596E+07  0.9118800E+02  0.7818608E-02  0.1180000E+00
       11   -1    0    0    0    0  0.00000000000E+00  0.00000000000E+00  0.39999999673E+01  0.40000000000E+01  0.51109989000E-03 0.  1.
     -623   -1    0    0    0    0  0.00000000000E+00  0.00000000000E+00  0.12525980253E-10  0.17130000000E+03  0.17130000000E+03 0.  1.
       11    1    1    2    0    0  0.10803912745E-02  0.42997758633E-03  0.34303365713E-02  0.36579441136E-02  0.51109989000E-03 0.  1.
     -623    1    1    2    0    0 -0.20740493162E-02  0.11205052759E-02  0.42820406594E-03  0.17130000002E+03  0.17130000000E+03 0.  1.
      622    1    1    2    0    0  0.99365804164E-03 -0.15504828622E-02  0.39961414267E+01  0.39963420391E+01  0.40000000000E-01 0.  1.
</event>
<event>
 5   0  0.6200596E+07  0.9118800E+02  0.7818608E-02  0.1180000E+00
       11   -1    0    0    0    0  0.00000000000E+00  0.00000000000E+00  0.39999999673E+01  0.40000000000E+01  0.51109989000E-03 0. -1.
     -623   -1    0    0    0    0  0.00000000000E+00  0.00000000000E+00  0.12525980253E-10  0.17130000000E+03  0.17130000000E+03 0.  1.
       11    1    1    2    0    0 -0.16714475559E-02 -0.68913049631E-02  0.29555979921E+00  0.29564529415E+00  0.51109989000E-03 0. -1.
     -623    1    1    2    0    0 -0.99115107695E-03 -0.51091517758E-03  0.30978768233E-03  0.17130000000E+03  0.17130000000E+03 0.  1.
      622    1    1    2    0    0  0.26625986328E-02  0.74022201407E-02  0.37041303805E+01  0.37043547019E+01  0.40000000000E-01 0. -1.
</event>
<event>
 5   0  0.6200596E+07  0.9118800E+02  0.7818608E-02  0.1180000E+00
       11   -1    0    0    0    0  0.00000000000E+00  0.00000000000E+00  0.39999999673E+01  0.40000000000E+01  0.51109989000E-03 0. -1.
     -623   -1    0    0    0    0  0.00000000000E+00  0.00000000000E+00  0.12525980253E-10  0.17130000000E+03  0.17130000000E+03 0. -1.
       11    1    1    2    0    0 -0.23158592710E-01 -0.76194905448E-01  0.38157195357E+00  0.38979404948E+00  0.51109989000E-03 0. -1.
     -623    1    1    2    0    0  0.33164246565E-01  0.38911927104E-01  0.86579101892E-02  0.17130000785E+03  0.17130000000E+03 0. -1.
      622    1    1    2    0    0 -0.10005653854E-01  0.37282978344E-01  0.36097701036E+01  0.36101981018E+01  0.40000000000E-01 0. -1.
</event>
<event>
 5   0  0.6200596E+07  0.9118800E+02  0.7818608E-02  0.1180000E+00
       11   -1    0    0    0    0  0.00000000000E+00  0.00000000000E+00  0.39999999673E+01  0.40000000000E+01  0.51109989000E-03 0. -1.
     -623   -1    0    0    0    0  0.00000000000E+00  0.00000000000E+00  0.12525980253E-10  0.17130000000E+03  0.17130000000E+03 0. -1.
       11    1    1    2    0    0 -0.63137287714E-03  0.39604552623E-03  0.44446481234E-02  0.45355928931E-02  0.51109989000E-03 0. -1.
     -623    1    1    2    0    0  0.92296869738E-03  0.36129792489E-04  0.29118093772E-03  0.17130000000E+03  0.17130000000E+03 0. -1.
      622    1    1    2    0    0 -0.29159582024E-03 -0.43217531872E-03  0.39952641383E+01  0.39954644044E+01  0.40000000000E-01 0. -1.
</event>
<event>
 5   0  0.6200596E+07  0.9118800E+02  0.7818608E-02  0.1180000E+00
       11   -1    0    0    0    0  0.00000000000E+00  0.00000000000E+00  0.39999999673E+01  0.40000000000E+01  0.51109989000E-03 0.  1.
     -623   -1    0    0    0    0  0.00000000000E+00  0.00000000000E+00  0.12525980253E-10  0.17130000000E+03  0.17130000000E+03 0. -1.
       11    1    1    2    0    0 -0.23793466273E-02  0.30480983295E-02  0.71284073946E+00  0.71285141036E+00  0.51109989000E-03 0.  1.
     -623    1    1    2    0    0  0.77153872707E-03 -0.76373295335E-03  0.25520996059E-03  0.17130000000E+03  0.17130000000E+03 0. -1.
      622    1    1    2    0    0  0.16078079002E-02 -0.22843653761E-02  0.32869040179E+01  0.32871485860E+01  0.40000000000E-01 0.  1.
</event>
<event>
 5   0  0.6200596E+07  0.9118800E+02  0.7818608E-02  0.1180000E+00
       11   -1    0    0    0    0  0.00000000000E+00  0.00000000000E+00  0.39999999673E+01  0.40000000000E+01  0.51109989000E-03 0. -1.
     -623   -1    0    0    0    0  0.00000000000E+00  0.00000000000E+00  0.12525980253E-10  0.17130000000E+03  0.17130000000E+03 0.  1.
       11    1    1    2    0    0 -0.61982743366E-01  0.60561260766E-01  0.11070655722E+01  0.11104521463E+01  0.51109989000E-03 0. -1.
     -623    1    1    2    0    0  0.23999978277E-01  0.11057130528E-01  0.48030361355E-02  0.17130000211E+03  0.17130000000E+03 0.  1.
      622    1    1    2    0    0  0.37982765089E-01 -0.71618391294E-01  0.28881313590E+01  0.28895457483E+01  0.40000000000E-01 0. -1.
</event>
<event>
 5   0  0.6200596E+07  0.9118800E+02  0.7818608E-02  0.1180000E+00
       11   -1    0    0    0    0  0.00000000000E+00  0.00000000000E+00  0.39999999673E+01  0.40000000000E+01  0.51109989000E-03 0. -1.
     -623   -1    0    0    0    0  0.00000000000E+00  0.00000000000E+00  0.12525980253E-10  0.17130000000E+03  0.17130000000E+03 0. -1.
       11    1    1    2    0    0  0.36276613436E-02 -0.27574482731E-02  0.14249043075E-01  0.14968630470E-01  0.51109989000E-03 0. -1.
     -623    1    1    2    0    0 -0.37433839059E-02  0.39961027573E-02  0.92059523819E-03  0.17130000009E+03  0.17130000000E+03 0. -1.
      622    1    1    2    0    0  0.11572256224E-03 -0.12386544843E-02  0.39848303290E+01  0.39850312795E+01  0.40000000000E-01 0. -1.
</event>
<event>
 5   0  0.6200596E+07  0.9118800E+02  0.7818608E-02  0.1180000E+00
       11   -1    0    0    0    0  0.00000000000E+00  0.00000000000E+00  0.39999999673E+01  0.40000000000E+01  0.51109989000E-03 0. -1.
     -623   -1    0    0    0    0  0.00000000000E+00  0.00000000000E+00  0.12525980253E-10  0.17130000000E+03  0.17130000000E+03 0.  1.
       11    1    1    2    0    0  0.17073747763E-02 -0.81471400900E-02  0.10135419759E-01  0.13125508558E-01  0.51109989000E-03 0. -1.
     -623    1    1    2    0    0  0.47009487454E-03  0.89242935650E-02  0.31916529039E-02  0.17130000026E+03  0.17130000000E+03 0.  1.
      622    1    1    2    0    0 -0.21774696508E-02 -0.77715347507E-03  0.39866728947E+01  0.39868742286E+01  0.40000000000E-01 0. -1.
</event>
<event>
 5   0  0.6200596E+07  0.9118800E+02  0.7818608E-02  0.1180000E+00
       11   -1    0    0    0    0  0.00000000000E+00  0.00000000000E+00  0.39999999673E+01  0.40000000000E+01  0.51109989000E-03 0.  1.
     -623   -1    0    0    0    0  0.00000000000E+00  0.00000000000E+00  0.12525980253E-10  0.17130000000E+03  0.17130000000E+03 0.  1.
       11    1    1    2    0    0  0.54031025802E-03  0.28741688956E-02  0.24511874855E-01  0.24691010774E-01  0.51109989000E-03 0.  1.
     -623    1    1    2    0    0  0.12083914295E-02 -0.12344901902E-04  0.38177008355E-03  0.17130000000E+03  0.17130000000E+03 0.  1.
      622    1    1    2    0    0 -0.17487016875E-02 -0.28618239937E-02  0.39751063224E+01  0.39753089845E+01  0.40000000000E-01 0.  1.
</event>
<event>
 5   0  0.6200596E+07  0.9118800E+02  0.7818608E-02  0.1180000E+00
       11   -1    0    0    0    0  0.00000000000E+00  0.00000000000E+00  0.39999999673E+01  0.40000000000E+01  0.51109989000E-03 0. -1.
     -623   -1    0    0    0    0  0.00000000000E+00  0.00000000000E+00  0.12525980253E-10  0.17130000000E+03  0.17130000000E+03 0.  1.
       11    1    1    2    0    0  0.45628403793E-02  0.11836149427E-02  0.50239063416E+00  0.50241300836E+00  0.51109989000E-03 0. -1.
     -623    1    1    2    0    0 -0.10013869235E-01  0.55162955417E-02  0.26212547234E-03  0.17130000038E+03  0.17130000000E+03 0.  1.
      622    1    1    2    0    0  0.54510288560E-02 -0.66999104844E-02  0.34973472077E+01  0.34975866099E+01  0.40000000000E-01 0. -1.
</event>
<event>
 5   0  0.6200596E+07  0.9118800E+02  0.7818608E-02  0.1180000E+00
       11   -1    0    0    0    0  0.00000000000E+00  0.00000000000E+00  0.39999999673E+01  0.40000000000E+01  0.51109989000E-03 0.  1.
     -623   -1    0    0    0    0  0.00000000000E+00  0.00000000000E+00  0.12525980253E-10  0.17130000000E+03  0.17130000000E+03 0. -1.
       11    1    1    2    0    0  0.20675291199E-01 -0.36186341165E-02  0.19999167390E+00  0.20109075819E+00  0.51109989000E-03 0.  1.
     -623    1    1    2    0    0 -0.10273302203E-01  0.31737442001E-02  0.13242548278E-02  0.17130000034E+03  0.17130000000E+03 0. -1.
      622    1    1    2    0    0 -0.10401988997E-01  0.44488991639E-03  0.37986840386E+01  0.37989088992E+01  0.40000000000E-01 0.  1.
</event>
<event>
 5   0  0.6200596E+07  0.9118800E+02  0.7818608E-02  0.1180000E+00
       11   -1    0    0    0    0  0.00000000000E+00  0.00000000000E+00  0.39999999673E+01  0.40000000000E+01  0.51109989000E-03 0. -1.
     -623   -1    0    0    0    0  0.00000000000E+00  0.00000000000E+00  0.12525980253E-10  0.17130000000E+03  0.17130000000E+03 0.  1.
       11    1    1    2    0    0 -0.57047640058E-02 -0.10107473821E-03  0.33780476548E-01  0.34262754792E-01  0.51109989000E-03 0. -1.
     -623    1    1    2    0    0 -0.21255196127E-03  0.99107041887E-03  0.68849779873E-03  0.17130000000E+03  0.17130000000E+03 0.  1.
      622    1    1    2    0    0  0.59173159671E-02 -0.88999568066E-03  0.39655309930E+01  0.39657372408E+01  0.40000000000E-01 0. -1.
</event>
<event>
 5   0  0.6200596E+07  0.9118800E+02  0.7818608E-02  0.1180000E+00
       11   -1    0    0    0    0  0.00000000000E+00  0.00000000000E+00  0.39999999673E+01  0.40000000000E+01  0.51109989000E-03 0. -1.
     -623   -1    0    0    0    0  0.00000000000E+00  0.00000000000E+00  0.12525980253E-10  0.17130000000E+03  0.17130000000E+03 0. -1.
       11    1    1    2    0    0 -0.98622696436E-04  0.21739999071E-03  0.10189517801E+00  0.10189673945E+00  0.51109989000E-03 0. -1.
     -623    1    1    2    0    0  0.20877939631E-03 -0.69788591021E-03  0.20679507177E-03  0.17130000000E+03  0.17130000000E+03 0. -1.
      622    1    1    2    0    0 -0.11015669988E-03  0.48048591951E-03  0.38978979943E+01  0.38981032589E+01  0.40000000000E-01 0. -1.
</event>
<event>
 5   0  0.6200596E+07  0.9118800E+02  0.7818608E-02  0.1180000E+00
       11   -1    0    0    0    0  0.00000000000E+00  0.00000000000E+00  0.39999999673E+01  0.40000000000E+01  0.51109989000E-03 0.  1.
     -623   -1    0    0    0    0  0.00000000000E+00  0.00000000000E+00  0.12525980253E-10  0.17130000000E+03  0.17130000000E+03 0.  1.
       11    1    1    2    0    0  0.12775468360E-02 -0.16520734199E-02  0.25712934579E-01  0.25802668432E-01  0.51109989000E-03 0.  1.
     -623    1    1    2    0    0  0.82916424607E-04  0.10292410904E-03  0.29153993796E-03  0.17130000000E+03  0.17130000000E+03 0.  1.
      622    1    1    2    0    0 -0.13604632606E-02  0.15491493108E-02  0.39739954928E+01  0.39741973313E+01  0.40000000000E-01 0.  1.
</event>
<event>
 5   0  0.6200596E+07  0.9118800E+02  0.7818608E-02  0.1180000E+00
       11   -1    0    0    0    0  0.00000000000E+00  0.00000000000E+00  0.39999999673E+01  0.40000000000E+01  0.51109989000E-03 0. -1.
     -623   -1    0    0    0    0  0.00000000000E+00  0.00000000000E+00  0.12525980253E-10  0.17130000000E+03  0.17130000000E+03 0.  1.
       11    1    1    2    0    0  0.85726818503E-02 -0.48210261640E-03  0.90082801587E-01  0.90492517149E-01  0.51109989000E-03 0. -1.
     -623    1    1    2    0    0  0.34517272459E-03  0.48435644910E-02  0.62699224045E-03  0.17130000007E+03  0.17130000000E+03 0.  1.
      622    1    1    2    0    0 -0.89178545749E-02 -0.43614618746E-02  0.39092901735E+01  0.39095074129E+01  0.40000000000E-01 0. -1.
</event>
<event>
 5   0  0.6200596E+07  0.9118800E+02  0.7818608E-02  0.1180000E+00
       11   -1    0    0    0    0  0.00000000000E+00  0.00000000000E+00  0.39999999673E+01  0.40000000000E+01  0.51109989000E-03 0. -1.
     -623   -1    0    0    0    0  0.00000000000E+00  0.00000000000E+00  0.12525980253E-10  0.17130000000E+03  0.17130000000E+03 0. -1.
       11    1    1    2    0    0  0.21764529989E-02  0.44436122276E-02  0.30830355180E+00  0.30834367824E+00  0.51109989000E-03 0. -1.
     -623    1    1    2    0    0  0.65144379871E-02  0.22067246950E-02  0.27316452622E-03  0.17130000014E+03  0.17130000000E+03 0. -1.
      622    1    1    2    0    0 -0.86908909860E-02 -0.66503369226E-02  0.36914232510E+01  0.36916561835E+01  0.40000000000E-01 0. -1.
</event>
<event>
 5   0  0.6200596E+07  0.9118800E+02  0.7818608E-02  0.1180000E+00
       11   -1    0    0    0    0  0.00000000000E+00  0.00000000000E+00  0.39999999673E+01  0.40000000000E+01  0.51109989000E-03 0. -1.
     -623   -1    0    0    0    0  0.00000000000E+00  0.00000000000E+00  0.12525980253E-10  0.17130000000E+03  0.17130000000E+03 0.  1.
       11    1    1    2    0    0 -0.52489727853E-02  0.25286022350E-02  0.79652447793E-02  0.98818971053E-02  0.51109989000E-03 0. -1.
     -623    1    1    2    0    0  0.57625857383E-02  0.26439161044E-02  0.21206363852E-02  0.17130000013E+03  0.17130000000E+03 0.  1.
      622    1    1    2    0    0 -0.51361295302E-03 -0.51725183395E-02  0.39899140862E+01  0.39901179724E+01  0.40000000000E-01 0. -1.
</event>
<event>
 5   0  0.6200596E+07  0.9118800E+02  0.7818608E-02  0.1180000E+00
       11   -1    0    0    0    0  0.00000000000E+00  0.00000000000E+00  0.39999999673E+01  0.40000000000E+01  0.51109989000E-03 0.  1.
     -623   -1    0    0    0    0  0.00000000000E+00  0.00000000000E+00  0.12525980253E-10  0.17130000000E+03  0.17130000000E+03 0.  1.
       11    1    1    2    0    0  0.18748546713E-01  0.20281712352E-01  0.42499489660E+00  0.42589174589E+00  0.51109989000E-03 0.  1.
     -623    1    1    2    0    0 -0.11734225097E-01  0.83719751509E-02  0.12430179561E-02  0.17130000061E+03  0.17130000000E+03 0.  1.
      622    1    1    2    0    0 -0.70143216166E-02 -0.28653687503E-01  0.35737620528E+01  0.35741076431E+01  0.40000000000E-01 0.  1.
</event>
<event>
 5   0  0.6200596E+07  0.9118800E+02  0.7818608E-02  0.1180000E+00
       11   -1    0    0    0    0  0.00000000000E+00  0.00000000000E+00  0.39999999673E+01  0.40000000000E+01  0.51109989000E-03 0.  1.
     -623   -1    0    0    0    0  0.00000000000E+00  0.00000000000E+00  0.12525980253E-10  0.17130000000E+03  0.17130000000E+03 0. -1.
       11    1    1    2    0    0 -0.22457221169E-02  0.24238571372E-01  0.60627599380E-01  0.65333901133E-01  0.51109989000E-03 0.  1.
     -623    1    1    2    0    0 -0.91853784028E-02 -0.30726681007E-01  0.49346240873E-02  0.17130000307E+03  0.17130000000E+03 0. -1.
      622    1    1    2    0    0  0.11431100520E-01  0.64881096356E-02  0.39344377439E+01  0.39346630257E+01  0.40000000000E-01 0.  1.
</event>
<event>
 5   0  0.6200596E+07  0.9118800E+02  0.7818608E-02  0.1180000E+00
       11   -1    0    0    0    0  0.00000000000E+00  0.00000000000E+00  0.39999999673E+01  0.40000000000E+01  0.51109989000E-03 0.  1.
     -623   -1    0    0    0    0  0.00000000000E+00  0.00000000000E+00  0.12525980253E-10  0.17130000000E+03  0.17130000000E+03 0.  1.
       11    1    1    2    0    0  0.21054891928E-01  0.20820452587E-01  0.22468794801E+00  0.22663127525E+00  0.51109989000E-03 0.  1.
     -623    1    1    2    0    0  0.20094387480E-02 -0.29378423262E-02  0.22682362215E-02  0.17130000005E+03  0.17130000000E+03 0.  1.
      622    1    1    2    0    0 -0.23064330676E-01 -0.17882610261E-01  0.37730437831E+01  0.37733686728E+01  0.40000000000E-01 0.  1.
</event>
<event>
 5   0  0.6200596E+07  0.9118800E+02  0.7818608E-02  0.1180000E+00
       11   -1    0    0    0    0  0.00000000000E+00  0.00000000000E+00  0.39999999673E+01  0.40000000000E+01  0.51109989000E-03 0. -1.
     -623   -1    0    0    0    0  0.00000000000E+00  0.00000000000E+00  0.12525980253E-10  0.17130000000E+03  0.17130000000E+03 0. -1.
       11    1    1    2    0    0  0.69769094127E-03 -0.14098306649E-02  0.72254288911E-02  0.74123166626E-02  0.51109989000E-03 0. -1.
     -623    1    1    2    0    0 -0.25084009880E-02  0.28555572758E-02  0.38794645081E-03  0.17130000004E+03  0.17130000000E+03 0. -1.
      622    1    1    2    0    0  0.18107100468E-02 -0.14457266109E-02  0.39923865920E+01  0.39925876407E+01  0.40000000000E-01 0. -1.
</event>
<event>
 5   0  0.6200596E+07  0.9118800E+02  0.7818608E-02  0.1180000E+00
       11   -1    0    0    0    0  0.00000000000E+00  0.00000000000E+00  0.39999999673E+01  0.40000000000E+01  0.51109989000E-03 0.  1.
     -623   -1    0    0    0    0  0.00000000000E+00  0.00000000000E+00  0.12525980253E-10  0.17130000000E+03  0.17130000000E+03 0.  1.
       11    1    1    2    0    0 -0.14505314561E-02  0.37280673998E-02  0.47165011285E-01  0.47337110589E-01  0.51109989000E-03 0.  1.
     -623    1    1    2    0    0  0.31558226883E-02  0.89785599000E-04  0.37670834552E-03  0.17130000003E+03  0.17130000000E+03 0.  1.
      622    1    1    2    0    0 -0.17052912322E-02 -0.38178529988E-02  0.39524582477E+01  0.39526628599E+01  0.40000000000E-01 0.  1.
</event>
<event>
 5   0  0.6200596E+07  0.9118800E+02  0.7818608E-02  0.1180000E+00
       11   -1    0    0    0    0  0.00000000000E+00  0.00000000000E+00  0.39999999673E+01  0.40000000000E+01  0.51109989000E-03 0. -1.
     -623   -1    0    0    0    0  0.00000000000E+00  0.00000000000E+00  0.12525980253E-10  0.17130000000E+03  0.17130000000E+03 0.  1.
       11    1    1    2    0    0 -0.28582257916E-03  0.18615962472E-02  0.53175645390E+00  0.53176003490E+00  0.51109989000E-03 0. -1.
     -623    1    1    2    0    0  0.23976942654E-02  0.17659790414E-02  0.23678689323E-03  0.17130000003E+03  0.17130000000E+03 0.  1.
      622    1    1    2    0    0 -0.21118716862E-02 -0.36275752886E-02  0.34680067266E+01  0.34682399391E+01  0.40000000000E-01 0. -1.
</event>
<event>
 5   0  0.6200596E+07  0.9118800E+02  0.7818608E-02  0.1180000E+00
       11   -1    0    0    0    0  0.00000000000E+00  0.00000000000E+00  0.39999999673E+01  0.40000000000E+01  0.51109989000E-03 0.  1.
     -623   -1    0    0    0    0  0.00000000000E+00  0.00000000000E+00  0.12525980253E-10  0.17130000000E+03  0.17130000000E+03 0.  1.
       11    1    1    2    0    0  0.84087856496E-02 -0.16020710940E-01  0.92933820079E+00  0.92951445579E+00  0.51109989000E-03 0.  1.
     -623    1    1    2    0    0 -0.54533231901E-02  0.62464769600E-02  0.45396079359E-03  0.17130000020E+03  0.17130000000E+03 0.  1.
      622    1    1    2    0    0 -0.29554624594E-02  0.97742339796E-02  0.30702078058E+01  0.30704853429E+01  0.40000000000E-01 0.  1.
</event>
<event>
 5   0  0.6200596E+07  0.9118800E+02  0.7818608E-02  0.1180000E+00
       11   -1    0    0    0    0  0.00000000000E+00  0.00000000000E+00  0.39999999673E+01  0.40000000000E+01  0.51109989000E-03 0. -1.
     -623   -1    0    0    0    0  0.00000000000E+00  0.00000000000E+00  0.12525980253E-10  0.17130000000E+03  0.17130000000E+03 0.  1.
       11    1    1    2    0    0 -0.22399646772E-01  0.23866023867E-01  0.16525610250E+01  0.16528852150E+01  0.51109989000E-03 0. -1.
     -623    1    1    2    0    0 -0.11911072463E-02  0.64077872783E-02  0.97901479563E-03  0.17130000013E+03  0.17130000000E+03 0.  1.
      622    1    1    2    0    0  0.23590754019E-01 -0.30273811145E-01  0.23464599276E+01  0.23471146582E+01  0.40000000000E-01 0.  0.
</event>
<event>
 5   0  0.6200596E+07  0.9118800E+02  0.7818608E-02  0.1180000E+00
       11   -1    0    0    0    0  0.00000000000E+00  0.00000000000E+00  0.39999999673E+01  0.40000000000E+01  0.51109989000E-03 0.  1.
     -623   -1    0    0    0    0  0.00000000000E+00  0.00000000000E+00  0.12525980253E-10  0.17130000000E+03  0.17130000000E+03 0.  1.
       11    1    1    2    0    0  0.88215384935E-02  0.14300770833E-02  0.28201343324E-01  0.29587863200E-01  0.51109989000E-03 0.  1.
     -623    1    1    2    0    0 -0.13192122415E-03 -0.24200849485E-02  0.15976403108E-02  0.17130000002E+03  0.17130000000E+03 0.  1.
      622    1    1    2    0    0 -0.86896172694E-02  0.99000786526E-03  0.39702009837E+01  0.39704121122E+01  0.40000000000E-01 0.  1.
</event>
<event>
 5   0  0.6200596E+07  0.9118800E+02  0.7818608E-02  0.1180000E+00
       11   -1    0    0    0    0  0.00000000000E+00  0.00000000000E+00  0.39999999673E+01  0.40000000000E+01  0.51109989000E-03 0. -1.
     -623   -1    0    0    0    0  0.00000000000E+00  0.00000000000E+00  0.12525980253E-10  0.17130000000E+03  0.17130000000E+03 0. -1.
       11    1    1    2    0    0  0.59535784429E-02  0.14833216131E-02  0.28257545715E+01  0.28257612789E+01  0.51109989000E-03 0. -1.
     -623    1    1    2    0    0 -0.78742104823E-03  0.14237737676E-01  0.80543780976E-03  0.17130000060E+03  0.17130000000E+03 0. -1.
      622    1    1    2    0    0 -0.51661573947E-02 -0.15721059290E-01  0.11734399580E+01  0.11742381257E+01  0.40000000000E-01 0.  1.
</event>
<event>
 5   0  0.6200596E+07  0.9118800E+02  0.7818608E-02  0.1180000E+00
       11   -1    0    0    0    0  0.00000000000E+00  0.00000000000E+00  0.39999999673E+01  0.40000000000E+01  0.51109989000E-03 0.  1.
     -623   -1    0    0    0    0  0.00000000000E+00  0.00000000000E+00  0.12525980253E-10  0.17130000000E+03  0.17130000000E+03 0. -1.
       11    1    1    2    0    0  0.12101089933E-02 -0.26155748839E-02  0.42700193013E+00  0.42701196137E+00  0.51109989000E-03 0.  1.
     -623    1    1    2    0    0  0.55323140879E-02  0.23225481235E-02  0.24038718257E-03  0.17130000011E+03  0.17130000000E+03 0. -1.
      622    1    1    2    0    0 -0.67424230812E-02  0.29302676040E-03  0.35727576500E+01  0.35729879334E+01  0.40000000000E-01 0.  1.
</event>
<event>
 5   0  0.6200596E+07  0.9118800E+02  0.7818608E-02  0.1180000E+00
       11   -1    0    0    0    0  0.00000000000E+00  0.00000000000E+00  0.39999999673E+01  0.40000000000E+01  0.51109989000E-03 0.  1.
     -623   -1    0    0    0    0  0.00000000000E+00  0.00000000000E+00  0.12525980253E-10  0.17130000000E+03  0.17130000000E+03 0. -1.
       11    1    1    2    0    0 -0.37641851618E-03  0.14052703687E-02  0.19410205166E-01  0.19471357485E-01  0.51109989000E-03 0.  1.
     -623    1    1    2    0    0  0.56870580911E-03  0.50257823474E-03  0.26256684454E-03  0.17130000000E+03  0.17130000000E+03 0. -1.
      622    1    1    2    0    0 -0.19228729293E-03 -0.19078486035E-02  0.39803271953E+01  0.39805286406E+01  0.40000000000E-01 0.  1.
</event>
<event>
 5   0  0.6200596E+07  0.9118800E+02  0.7818608E-02  0.1180000E+00
       11   -1    0    0    0    0  0.00000000000E+00  0.00000000000E+00  0.39999999673E+01  0.40000000000E+01  0.51109989000E-03 0. -1.
     -623   -1    0    0    0    0  0.00000000000E+00  0.00000000000E+00  0.12525980253E-10  0.17130000000E+03  0.17130000000E+03 0.  1.
       11    1    1    2    0    0 -0.15032506460E-03  0.43442331661E-03  0.59719877018E-02  0.60114206972E-02  0.51109989000E-03 0. -1.
     -623    1    1    2    0    0  0.90738417569E-03 -0.80450901061E-03  0.23979976290E-03  0.17130000000E+03  0.17130000000E+03 0.  1.
      622    1    1    2    0    0 -0.75705911110E-03  0.37008569400E-03  0.39937881799E+01  0.39939885748E+01  0.40000000000E-01 0. -1.
</event>
<event>
 5   0  0.6200596E+07  0.9118800E+02  0.7818608E-02  0.1180000E+00
       11   -1    0    0    0    0  0.00000000000E+00  0.00000000000E+00  0.39999999673E+01  0.40000000000E+01  0.51109989000E-03 0.  1.
     -623   -1    0    0    0    0  0.00000000000E+00  0.00000000000E+00  0.12525980253E-10  0.17130000000E+03  0.17130000000E+03 0.  1.
       11    1    1    2    0    0  0.20412934392E-01  0.34958123551E-01  0.50641770261E+00  0.50803337393E+00  0.51109989000E-03 0.  1.
     -623    1    1    2    0    0 -0.11559312305E-02 -0.25051246914E-02  0.20486980314E-02  0.17130000003E+03  0.17130000000E+03 0.  1.
      622    1    1    2    0    0 -0.19257003162E-01 -0.32452998859E-01  0.34915335667E+01  0.34919665916E+01  0.40000000000E-01 0.  1.
</event>
<event>
 5   0  0.6200596E+07  0.9118800E+02  0.7818608E-02  0.1180000E+00
       11   -1    0    0    0    0  0.00000000000E+00  0.00000000000E+00  0.39999999673E+01  0.40000000000E+01  0.51109989000E-03 0.  1.
     -623   -1    0    0    0    0  0.00000000000E+00  0.00000000000E+00  0.12525980253E-10  0.17130000000E+03  0.17130000000E+03 0. -1.
       11    1    1    2    0    0 -0.76480073421E-02 -0.52510098818E-02  0.29206828308E+00  0.29221603023E+00  0.51109989000E-03 0.  1.
     -623    1    1    2    0    0  0.42314366081E-03  0.32536351661E-05  0.37423739098E-03  0.17130000000E+03  0.17130000000E+03 0. -1.
      622    1    1    2    0    0  0.72248636813E-02  0.52477562466E-02  0.37075574469E+01  0.37077839688E+01  0.40000000000E-01 0.  1.
</event>
<event>
 5   0  0.6200596E+07  0.9118800E+02  0.7818608E-02  0.1180000E+00
       11   -1    0    0    0    0  0.00000000000E+00  0.00000000000E+00  0.39999999673E+01  0.40000000000E+01  0.51109989000E-03 0.  1.
     -623   -1    0    0    0    0  0.00000000000E+00  0.00000000000E+00  0.12525980253E-10  0.17130000000E+03  0.17130000000E+03 0. -1.
       11    1    1    2    0    0  0.20465471740E-02  0.25498698916E-02  0.85471947894E-02  0.91654760633E-02  0.51109989000E-03 0.  1.
     -623    1    1    2    0    0 -0.24501402612E-02  0.31112314400E-03  0.81977873287E-03  0.17130000002E+03  0.17130000000E+03 0. -1.
      622    1    1    2    0    0  0.40359308720E-03 -0.28609930356E-02  0.39906329938E+01  0.39908345042E+01  0.40000000000E-01 0.  1.
</event>
<event>
 5   0  0.6200596E+07  0.9118800E+02  0.7818608E-02  0.1180000E+00
       11   -1    0    0    0    0  0.00000000000E+00  0.00000000000E+00  0.39999999673E+01  0.40000000000E+01  0.51109989000E-03 0. -1.
     -623   -1    0    0    0    0  0.00000000000E+00  0.00000000000E+00  0.12525980253E-10  0.17130000000E+03  0.17130000000E+03 0. -1.
       11    1    1    2    0    0  0.91426228852E-03 -0.96401396305E-03  0.43062334231E+00  0.43062569520E+00  0.51109989000E-03 0. -1.
     -623    1    1    2    0    0 -0.52999260692E-02 -0.69519812645E-02  0.23815235769E-03  0.17130000022E+03  0.17130000000E+03 0. -1.
      622    1    1    2    0    0  0.43856637807E-02  0.79159952276E-02  0.35691384727E+01  0.35693740816E+01  0.40000000000E-01 0. -1.
</event>
<event>
 5   0  0.6200596E+07  0.9118800E+02  0.7818608E-02  0.1180000E+00
       11   -1    0    0    0    0  0.00000000000E+00  0.00000000000E+00  0.39999999673E+01  0.40000000000E+01  0.51109989000E-03 0. -1.
     -623   -1    0    0    0    0  0.00000000000E+00  0.00000000000E+00  0.12525980253E-10  0.17130000000E+03  0.17130000000E+03 0.  1.
       11    1    1    2    0    0  0.42889276848E-02 -0.52587037454E-02  0.43489579222E-01  0.44018786775E-01  0.51109989000E-03 0. -1.
     -623    1    1    2    0    0 -0.67798438240E-02  0.11397527256E-01  0.73746802542E-03  0.17130000051E+03  0.17130000000E+03 0.  1.
      622    1    1    2    0    0  0.24909161393E-02 -0.61388235105E-02  0.39557729201E+01  0.39559806983E+01  0.40000000000E-01 0. -1.
</event>
<event>
 5   0  0.6200596E+07  0.9118800E+02  0.7818608E-02  0.1180000E+00
       11   -1    0    0    0    0  0.00000000000E+00  0.00000000000E+00  0.39999999673E+01  0.40000000000E+01  0.51109989000E-03 0. -1.
     -623   -1    0    0    0    0  0.00000000000E+00  0.00000000000E+00  0.12525980253E-10  0.17130000000E+03  0.17130000000E+03 0. -1.
       11    1    1    2    0    0  0.31156154771E-02 -0.61750018814E-02  0.11979137513E+00  0.11999196842E+00  0.51109989000E-03 0. -1.
     -623    1    1    2    0    0 -0.81956639123E-03 -0.90392241594E-03  0.41389346764E-03  0.17130000000E+03  0.17130000000E+03 0. -1.
      622    1    1    2    0    0 -0.22960490858E-02  0.70789242973E-02  0.38797946988E+01  0.38800080267E+01  0.40000000000E-01 0. -1.
</event>
<event>
 5   0  0.6200596E+07  0.9118800E+02  0.7818608E-02  0.1180000E+00
       11   -1    0    0    0    0  0.00000000000E+00  0.00000000000E+00  0.39999999673E+01  0.40000000000E+01  0.51109989000E-03 0.  1.
     -623   -1    0    0    0    0  0.00000000000E+00  0.00000000000E+00  0.12525980253E-10  0.17130000000E+03  0.17130000000E+03 0. -1.
       11    1    1    2    0    0 -0.26433260766E-01  0.82048260504E-02  0.11320973246E+00  0.11654501787E+00  0.51109989000E-03 0.  1.
     -623    1    1    2    0    0  0.61372638835E-02 -0.27961709111E-02  0.35982370093E-02  0.17130000017E+03  0.17130000000E+03 0. -1.
      622    1    1    2    0    0  0.20295996883E-01 -0.54086551393E-02  0.38831919979E+01  0.38834548116E+01  0.40000000000E-01 0.  1.
</event>
<event>
 5   0  0.6200596E+07  0.9118800E+02  0.7818608E-02  0.1180000E+00
       11   -1    0    0    0    0  0.00000000000E+00  0.00000000000E+00  0.39999999673E+01  0.40000000000E+01  0.51109989000E-03 0.  1.
     -623   -1    0    0    0    0  0.00000000000E+00  0.00000000000E+00  0.12525980253E-10  0.17130000000E+03  0.17130000000E+03 0.  1.
       11    1    1    2    0    0 -0.20260137019E-01  0.21835203560E-02  0.18830858111E+01  0.18831961327E+01  0.51109989000E-03 0.  1.
     -623    1    1    2    0    0 -0.22802802215E-02 -0.34319436150E-02  0.60870349669E-03  0.17130000005E+03  0.17130000000E+03 0.  1.
      622    1    1    2    0    0  0.22540417241E-01  0.12484232591E-02  0.21163054528E+01  0.21168038167E+01  0.40000000000E-01 0.  1.
</event>
<event>
 5   0  0.6200596E+07  0.9118800E+02  0.7818608E-02  0.1180000E+00
       11   -1    0    0    0    0  0.00000000000E+00  0.00000000000E+00  0.39999999673E+01  0.40000000000E+01  0.51109989000E-03 0.  1.
     -623   -1    0    0    0    0  0.00000000000E+00  0.00000000000E+00  0.12525980253E-10  0.17130000000E+03  0.17130000000E+03 0.  1.
       11    1    1    2    0    0  0.23989801272E-02  0.13253843281E-01  0.17208124923E+00  0.17260833416E+00  0.51109989000E-03 0.  1.
     -623    1    1    2    0    0  0.12719833029E-01 -0.35871156963E-02  0.77866013571E-03  0.17130000051E+03  0.17130000000E+03 0.  1.
      622    1    1    2    0    0 -0.15118813156E-01 -0.96667275847E-02  0.38271400580E+01  0.38273911543E+01  0.40000000000E-01 0.  1.
</event>
<event>
 5   0  0.6200596E+07  0.9118800E+02  0.7818608E-02  0.1180000E+00
       11   -1    0    0    0    0  0.00000000000E+00  0.00000000000E+00  0.39999999673E+01  0.40000000000E+01  0.51109989000E-03 0. -1.
     -623   -1    0    0    0    0  0.00000000000E+00  0.00000000000E+00  0.12525980253E-10  0.17130000000E+03  0.17130000000E+03 0. -1.
       11    1    1    2    0    0  0.47085568358E-01  0.11802457700E-01  0.18980940621E+01  0.18987147439E+01  0.51109989000E-03 0. -1.
     -623    1    1    2    0    0 -0.23585309244E-01 -0.46317595784E-01  0.14242923041E-02  0.17130000789E+03  0.17130000000E+03 0. -1.
      622    1    1    2    0    0 -0.23500259114E-01  0.34515138084E-01  0.21004816130E+01  0.21012773647E+01  0.40000000000E-01 0.  1.
</event>
<event>
 5   0  0.6200596E+07  0.9118800E+02  0.7818608E-02  0.1180000E+00
       11   -1    0    0    0    0  0.00000000000E+00  0.00000000000E+00  0.39999999673E+01  0.40000000000E+01  0.51109989000E-03 0.  1.
     -623   -1    0    0    0    0  0.00000000000E+00  0.00000000000E+00  0.12525980253E-10  0.17130000000E+03  0.17130000000E+03 0. -1.
       11    1    1    2    0    0 -0.91875801846E-02  0.44982919590E-02  0.26509234913E+00  0.26529014502E+00  0.51109989000E-03 0.  1.
     -623    1    1    2    0    0 -0.34684878357E-03 -0.12404683599E-02  0.42557355934E-03  0.17130000001E+03  0.17130000000E+03 0. -1.
      622    1    1    2    0    0  0.95344289682E-02 -0.32578235990E-02  0.37344820447E+01  0.37347098496E+01  0.40000000000E-01 0.  1.
</event>
<event>
 5   0  0.6200596E+07  0.9118800E+02  0.7818608E-02  0.1180000E+00
       11   -1    0    0    0    0  0.00000000000E+00  0.00000000000E+00  0.39999999673E+01  0.40000000000E+01  0.51109989000E-03 0. -1.
     -623   -1    0    0    0    0  0.00000000000E+00  0.00000000000E+00  0.12525980253E-10  0.17130000000E+03  0.17130000000E+03 0.  1.
       11    1    1    2    0    0  0.85778097179E-02 -0.11462412620E-01  0.23353463852E+01  0.23353903240E+01  0.51109989000E-03 0. -1.
     -623    1    1    2    0    0 -0.10339693493E-01  0.15792822153E-01  0.53217698413E-03  0.17130000104E+03  0.17130000000E+03 0.  1.
      622    1    1    2    0    0  0.17618837754E-02 -0.43304095330E-02  0.16641214052E+01  0.16646086351E+01  0.40000000000E-01 0.  1.
</event>
<event>
 5   0  0.6200596E+07  0.9118800E+02  0.7818608E-02  0.1180000E+00
       11   -1    0    0    0    0  0.00000000000E+00  0.00000000000E+00  0.39999999673E+01  0.40000000000E+01  0.51109989000E-03 0.  1.
     -623   -1    0    0    0    0  0.00000000000E+00  0.00000000000E+00  0.12525980253E-10  0.17130000000E+03  0.17130000000E+03 0. -1.
       11    1    1    2    0    0 -0.35433920561E-02 -0.13611831671E-01  0.10876717743E+00  0.10967405207E+00  0.51109989000E-03 0.  1.
     -623    1    1    2    0    0 -0.15000740658E-02  0.21589630626E-02  0.11326382255E-02  0.17130000002E+03  0.17130000000E+03 0. -1.
      622    1    1    2    0    0  0.50434661219E-02  0.11452868608E-01  0.38901001517E+01  0.38903259240E+01  0.40000000000E-01 0.  1.
</event>
<event>
 5   0  0.6200596E+07  0.9118800E+02  0.7818608E-02  0.1180000E+00
       11   -1    0    0    0    0  0.00000000000E+00  0.00000000000E+00  0.39999999673E+01  0.40000000000E+01  0.51109989000E-03 0. -1.
     -623   -1    0    0    0    0  0.00000000000E+00  0.00000000000E+00  0.12525980253E-10  0.17130000000E+03  0.17130000000E+03 0. -1.
       11    1    1    2    0    0  0.44561058172E-02  0.15689632089E-02  0.27576201846E+00  0.27580295606E+00  0.51109989000E-03 0. -1.
     -623    1    1    2    0    0  0.25435386499E-02 -0.73786869582E-03  0.26241429041E-03  0.17130000002E+03  0.17130000000E+03 0. -1.
      622    1    1    2    0    0 -0.69996444671E-02 -0.83109451304E-03  0.37239755346E+01  0.37241970233E+01  0.40000000000E-01 0.  0.
</event>
<event>
 5   0  0.6200596E+07  0.9118800E+02  0.7818608E-02  0.1180000E+00
       11   -1    0    0    0    0  0.00000000000E+00  0.00000000000E+00  0.39999999673E+01  0.40000000000E+01  0.51109989000E-03 0.  1.
     -623   -1    0    0    0    0  0.00000000000E+00  0.00000000000E+00  0.12525980253E-10  0.17130000000E+03  0.17130000000E+03 0. -1.
       11    1    1    2    0    0 -0.34975646035E-03 -0.41388781129E-03  0.14153994759E-01  0.14173581796E-01  0.51109989000E-03 0.  1.
     -623    1    1    2    0    0  0.95336330448E-03 -0.98264856799E-03  0.22056663835E-03  0.17130000001E+03  0.17130000000E+03 0. -1.
      622    1    1    2    0    0 -0.60360684413E-03  0.13965363793E-02  0.39856254060E+01  0.39858264126E+01  0.40000000000E-01 0.  1.
</event>
<event>
 5   0  0.6200596E+07  0.9118800E+02  0.7818608E-02  0.1180000E+00
       11   -1    0    0    0    0  0.00000000000E+00  0.00000000000E+00  0.39999999673E+01  0.40000000000E+01  0.51109989000E-03 0. -1.
     -623   -1    0    0    0    0  0.00000000000E+00  0.00000000000E+00  0.12525980253E-10  0.17130000000E+03  0.17130000000E+03 0.  1.
       11    1    1    2    0    0 -0.50126417434E-02 -0.22346132526E-02  0.52882591900E+00  0.52885464345E+00  0.51109989000E-03 0. -1.
     -623    1    1    2    0    0 -0.69413885689E-03 -0.13445447682E-02  0.26571469111E-03  0.17130000001E+03  0.17130000000E+03 0.  1.
      622    1    1    2    0    0  0.57067806003E-02  0.35791580208E-02  0.34709083337E+01  0.34711453497E+01  0.40000000000E-01 0. -1.
</event>
<event>
 5   0  0.6200596E+07  0.9118800E+02  0.7818608E-02  0.1180000E+00
       11   -1    0    0    0    0  0.00000000000E+00  0.00000000000E+00  0.39999999673E+01  0.40000000000E+01  0.51109989000E-03 0. -1.
     -623   -1    0    0    0    0  0.00000000000E+00  0.00000000000E+00  0.12525980253E-10  0.17130000000E+03  0.17130000000E+03 0. -1.
       11    1    1    2    0    0  0.14175754978E-02  0.10813043187E-01  0.23193842937E+00  0.23219523609E+00  0.51109989000E-03 0. -1.
     -623    1    1    2    0    0 -0.37661210120E-02  0.19832432815E-02  0.49162164969E-03  0.17130000005E+03  0.17130000000E+03 0. -1.
      622    1    1    2    0    0  0.23485455142E-02 -0.12796286469E-01  0.37675699163E+01  0.37678047103E+01  0.40000000000E-01 0. -1.
</event>
<event>
 5   0  0.6200596E+07  0.9118800E+02  0.7818608E-02  0.1180000E+00
       11   -1    0    0    0    0  0.00000000000E+00  0.00000000000E+00  0.39999999673E+01  0.40000000000E+01  0.51109989000E-03 0. -1.
     -623   -1    0    0    0    0  0.00000000000E+00  0.00000000000E+00  0.12525980253E-10  0.17130000000E+03  0.17130000000E+03 0. -1.
       11    1    1    2    0    0 -0.14640454802E-01 -0.35450053659E-03  0.42981230789E+00  0.43006203021E+00  0.51109989000E-03 0. -1.
     -623    1    1    2    0    0 -0.17330935074E-02  0.12275766177E-03  0.51135859259E-03  0.17130000001E+03  0.17130000000E+03 0. -1.
      622    1    1    2    0    0  0.16373548309E-01  0.23174287481E-03  0.35696763009E+01  0.35699379602E+01  0.40000000000E-01 0.  0.
</event>
<event>
 5   0  0.6200596E+07  0.9118800E+02  0.7818608E-02  0.1180000E+00
       11   -1    0    0    0    0  0.00000000000E+00  0.00000000000E+00  0.39999999673E+01  0.40000000000E+01  0.51109989000E-03 0.  1.
     -623   -1    0    0    0    0  0.00000000000E+00  0.00000000000E+00  0.12525980253E-10  0.17130000000E+03  0.17130000000E+03 0. -1.
       11    1    1    2    0    0 -0.20130806414E-01  0.27436988698E-01  0.67181470437E+00  0.67267621925E+00  0.51109989000E-03 0.  1.
     -623    1    1    2    0    0  0.12435249388E-01 -0.43477776128E-02  0.11914532130E-02  0.17130000051E+03  0.17130000000E+03 0. -1.
      622    1    1    2    0    0  0.76955570259E-02 -0.23089211086E-01  0.33269938098E+01  0.33273232701E+01  0.40000000000E-01 0.  1.
</event>
<event>
 5   0  0.6200596E+07  0.9118800E+02  0.7818608E-02  0.1180000E+00
       11   -1    0    0    0    0  0.00000000000E+00  0.00000000000E+00  0.39999999673E+01  0.40000000000E+01  0.51109989000E-03 0. -1.
     -623   -1    0    0    0    0  0.00000000000E+00  0.00000000000E+00  0.12525980253E-10  0.17130000000E+03  0.17130000000E+03 0. -1.
       11    1    1    2    0    0 -0.70107757756E-03  0.28543592208E-03  0.13094432414E-01  0.13126247175E-01  0.51109989000E-03 0.  1.
     -623    1    1    2    0    0 -0.63794267019E-03 -0.92516590046E-05  0.23268142787E-03  0.17130000000E+03  0.17130000000E+03 0. -1.
      622    1    1    2    0    0  0.13390202478E-02 -0.27618426308E-03  0.39866728535E+01  0.39868737515E+01  0.40000000000E-01 0. -1.
</event>
<event>
 5   0  0.6200596E+07  0.9118800E+02  0.7818608E-02  0.1180000E+00
       11   -1    0    0    0    0  0.00000000000E+00  0.00000000000E+00  0.39999999673E+01  0.40000000000E+01  0.51109989000E-03 0. -1.
     -623   -1    0    0    0    0  0.00000000000E+00  0.00000000000E+00  0.12525980253E-10  0.17130000000E+03  0.17130000000E+03 0. -1.
       11    1    1    2    0    0 -0.24587589524E-02  0.98542495226E-03  0.18729671498E-01  0.18922958879E-01  0.51109989000E-03 0. -1.
     -623    1    1    2    0    0  0.44463145140E-02  0.17076712783E-02  0.39568425658E-03  0.17130000007E+03  0.17130000000E+03 0. -1.
      622    1    1    2    0    0 -0.19875555615E-02 -0.26930962306E-02  0.39808746116E+01  0.39810769744E+01  0.40000000000E-01 0. -1.
</event>
<event>
 5   0  0.6200596E+07  0.9118800E+02  0.7818608E-02  0.1180000E+00
       11   -1    0    0    0    0  0.00000000000E+00  0.00000000000E+00  0.39999999673E+01  0.40000000000E+01  0.51109989000E-03 0. -1.
     -623   -1    0    0    0    0  0.00000000000E+00  0.00000000000E+00  0.12525980253E-10  0.17130000000E+03  0.17130000000E+03 0. -1.
       11    1    1    2    0    0  0.59763197676E-02  0.40765552842E-02  0.26453231033E-01  0.27429352075E-01  0.51109989000E-03 0. -1.
     -623    1    1    2    0    0 -0.16304518945E-02 -0.47506960021E-02  0.11799865932E-02  0.17130000008E+03  0.17130000000E+03 0. -1.
      622    1    1    2    0    0 -0.43458678731E-02  0.67414071794E-03  0.39723667497E+01  0.39725705702E+01  0.40000000000E-01 0. -1.
</event>
<event>
 5   0  0.6200596E+07  0.9118800E+02  0.7818608E-02  0.1180000E+00
       11   -1    0    0    0    0  0.00000000000E+00  0.00000000000E+00  0.39999999673E+01  0.40000000000E+01  0.51109989000E-03 0.  1.
     -623   -1    0    0    0    0  0.00000000000E+00  0.00000000000E+00  0.12525980253E-10  0.17130000000E+03  0.17130000000E+03 0.  1.
       11    1    1    2    0    0 -0.52665636207E-02 -0.16683624025E+00  0.78717614718E+00  0.80467920046E+00  0.51109989000E-03 0.  1.
     -623    1    1    2    0    0  0.15732506330E-01  0.33045725049E-01  0.20578107779E-01  0.17130000515E+03  0.17130000000E+03 0.  1.
      622    1    1    2    0    0 -0.10465942710E-01  0.13379051521E+00  0.31922457124E+01  0.31953156536E+01  0.40000000000E-01 0.  1.
</event>
<event>
 5   0  0.6200596E+07  0.9118800E+02  0.7818608E-02  0.1180000E+00
       11   -1    0    0    0    0  0.00000000000E+00  0.00000000000E+00  0.39999999673E+01  0.40000000000E+01  0.51109989000E-03 0. -1.
     -623   -1    0    0    0    0  0.00000000000E+00  0.00000000000E+00  0.12525980253E-10  0.17130000000E+03  0.17130000000E+03 0. -1.
       11    1    1    2    0    0 -0.91675296167E-03 -0.20013485431E-02  0.20506534947E-01  0.20630681712E-01  0.51109989000E-03 0. -1.
     -623    1    1    2    0    0 -0.10733235690E-02  0.15835590786E-02  0.32568665249E-03  0.17130000001E+03  0.17130000000E+03 0. -1.
      622    1    1    2    0    0  0.19900765307E-02  0.41778946444E-03  0.39791677458E+01  0.39793693073E+01  0.40000000000E-01 0. -1.
</event>
<event>
 5   0  0.6200596E+07  0.9118800E+02  0.7818608E-02  0.1180000E+00
       11   -1    0    0    0    0  0.00000000000E+00  0.00000000000E+00  0.39999999673E+01  0.40000000000E+01  0.51109989000E-03 0.  1.
     -623   -1    0    0    0    0  0.00000000000E+00  0.00000000000E+00  0.12525980253E-10  0.17130000000E+03  0.17130000000E+03 0. -1.
       11    1    1    2    0    0 -0.25574986783E-01 -0.11724428976E-01  0.10665596953E+01  0.10669308258E+01  0.51109989000E-03 0.  1.
     -623    1    1    2    0    0  0.11877673870E-01 -0.57251871693E-02  0.72826962583E-03  0.17130000051E+03  0.17130000000E+03 0. -1.
      622    1    1    2    0    0  0.13697312913E-01  0.17449616146E-01  0.29327120024E+01  0.29330686652E+01  0.40000000000E-01 0.  1.
</event>
<event>
 5   0  0.6200596E+07  0.9118800E+02  0.7818608E-02  0.1180000E+00
       11   -1    0    0    0    0  0.00000000000E+00  0.00000000000E+00  0.39999999673E+01  0.40000000000E+01  0.51109989000E-03 0.  1.
     -623   -1    0    0    0    0  0.00000000000E+00  0.00000000000E+00  0.12525980253E-10  0.17130000000E+03  0.17130000000E+03 0.  1.
       11    1    1    2    0    0 -0.34303757757E-03  0.56038216814E-03  0.87527812392E-02  0.87922751551E-02  0.51109989000E-03 0.  1.
     -623    1    1    2    0    0 -0.22892574753E-03  0.98650505148E-04  0.24000263877E-03  0.17130000000E+03  0.17130000000E+03 0.  1.
      622    1    1    2    0    0  0.57196332510E-03 -0.65903267329E-03  0.39910071835E+01  0.39912077245E+01  0.40000000000E-01 0.  1.
</event>
<event>
 5   0  0.6200596E+07  0.9118800E+02  0.7818608E-02  0.1180000E+00
       11   -1    0    0    0    0  0.00000000000E+00  0.00000000000E+00  0.39999999673E+01  0.40000000000E+01  0.51109989000E-03 0.  1.
     -623   -1    0    0    0    0  0.00000000000E+00  0.00000000000E+00  0.12525980253E-10  0.17130000000E+03  0.17130000000E+03 0. -1.
       11    1    1    2    0    0  0.50279855888E-02  0.84118302424E-02  0.38406936478E-01  0.39640806228E-01  0.51109989000E-03 0.  1.
     -623    1    1    2    0    0  0.14733095024E-02 -0.73768142142E-02  0.14414871562E-02  0.17130000017E+03  0.17130000000E+03 0. -1.
      622    1    1    2    0    0 -0.65012950912E-02 -0.10350160282E-02  0.39601515437E+01  0.39603590225E+01  0.40000000000E-01 0.  1.
</event>
<event>
 5   0  0.6200596E+07  0.9118800E+02  0.7818608E-02  0.1180000E+00
       11   -1    0    0    0    0  0.00000000000E+00  0.00000000000E+00  0.39999999673E+01  0.40000000000E+01  0.51109989000E-03 0.  1.
     -623   -1    0    0    0    0  0.00000000000E+00  0.00000000000E+00  0.12525980253E-10  0.17130000000E+03  0.17130000000E+03 0.  1.
       11    1    1    2    0    0  0.78049524453E-02  0.95243402722E-02  0.15136056924E+00  0.15186149440E+00  0.51109989000E-03 0.  1.
     -623    1    1    2    0    0 -0.20580414535E-01 -0.14649783894E-01  0.73527672620E-03  0.17130000186E+03  0.17130000000E+03 0.  1.
      622    1    1    2    0    0  0.12775462090E-01  0.51254436214E-02  0.38479041214E+01  0.38481366413E+01  0.40000000000E-01 0.  1.
</event>
<event>
 5   0  0.6200596E+07  0.9118800E+02  0.7818608E-02  0.1180000E+00
       11   -1    0    0    0    0  0.00000000000E+00  0.00000000000E+00  0.39999999673E+01  0.40000000000E+01  0.51109989000E-03 0. -1.
     -623   -1    0    0    0    0  0.00000000000E+00  0.00000000000E+00  0.12525980253E-10  0.17130000000E+03  0.17130000000E+03 0.  1.
       11    1    1    2    0    0 -0.10695626219E-01 -0.12811672077E-02  0.94749740198E-01  0.95361482251E-01  0.51109989000E-03 0. -1.
     -623    1    1    2    0    0  0.10053832580E-02  0.33584819528E-02  0.82921471698E-03  0.17130000004E+03  0.17130000000E+03 0.  1.
      622    1    1    2    0    0  0.96902429608E-02 -0.20773147450E-02  0.39044210124E+01  0.39046384799E+01  0.40000000000E-01 0. -1.
</event>
<event>
 5   0  0.6200596E+07  0.9118800E+02  0.7818608E-02  0.1180000E+00
       11   -1    0    0    0    0  0.00000000000E+00  0.00000000000E+00  0.39999999673E+01  0.40000000000E+01  0.51109989000E-03 0. -1.
     -623   -1    0    0    0    0  0.00000000000E+00  0.00000000000E+00  0.12525980253E-10  0.17130000000E+03  0.17130000000E+03 0. -1.
       11    1    1    2    0    0  0.16677648607E-02  0.20137907775E-02  0.62049628163E-01  0.62106798099E-01  0.51109989000E-03 0. -1.
     -623    1    1    2    0    0  0.11890115039E-02 -0.17843875202E-02  0.26135344431E-03  0.17130000001E+03  0.17130000000E+03 0. -1.
      622    1    1    2    0    0 -0.28567763647E-02 -0.22940325734E-03  0.39376889858E+01  0.39378931883E+01  0.40000000000E-01 0. -1.
</event>
<event>
 5   0  0.6200596E+07  0.9118800E+02  0.7818608E-02  0.1180000E+00
       11   -1    0    0    0    0  0.00000000000E+00  0.00000000000E+00  0.39999999673E+01  0.40000000000E+01  0.51109989000E-03 0. -1.
     -623   -1    0    0    0    0  0.00000000000E+00  0.00000000000E+00  0.12525980253E-10  0.17130000000E+03  0.17130000000E+03 0. -1.
       11    1    1    2    0    0  0.19070864553E-02  0.16764068763E-02  0.13968627070E+00  0.13971028153E+00  0.51109989000E-03 0. -1.
     -623    1    1    2    0    0  0.13036544350E-02 -0.91778938597E-02  0.24009741537E-03  0.17130000025E+03  0.17130000000E+03 0. -1.
      622    1    1    2    0    0 -0.32107408903E-02  0.75014869833E-02  0.38600735992E+01  0.38602894675E+01  0.40000000000E-01 0. -1.
</event>
<event>
 5   0  0.6200596E+07  0.9118800E+02  0.7818608E-02  0.1180000E+00
       11   -1    0    0    0    0  0.00000000000E+00  0.00000000000E+00  0.39999999673E+01  0.40000000000E+01  0.51109989000E-03 0.  1.
     -623   -1    0    0    0    0  0.00000000000E+00  0.00000000000E+00  0.12525980253E-10  0.17130000000E+03  0.17130000000E+03 0.  1.
       11    1    1    2    0    0 -0.10425418835E-02  0.36217851808E-02  0.40739703994E-01  0.40916853795E-01  0.51109989000E-03 0.  1.
     -623    1    1    2    0    0 -0.85092449885E-03 -0.11096414866E-02  0.38044529278E-03  0.17130000001E+03  0.17130000000E+03 0.  1.
      622    1    1    2    0    0  0.18934663823E-02 -0.25121436942E-02  0.39588798181E+01  0.39590831401E+01  0.40000000000E-01 0.  1.
</event>
<event>
 5   0  0.6200596E+07  0.9118800E+02  0.7818608E-02  0.1180000E+00
       11   -1    0    0    0    0  0.00000000000E+00  0.00000000000E+00  0.39999999673E+01  0.40000000000E+01  0.51109989000E-03 0.  1.
     -623   -1    0    0    0    0  0.00000000000E+00  0.00000000000E+00  0.12525980253E-10  0.17130000000E+03  0.17130000000E+03 0.  1.
       11    1    1    2    0    0  0.26841403361E-03  0.14515626913E-02  0.44223883674E-01  0.44251465375E-01  0.51109989000E-03 0.  1.
     -623    1    1    2    0    0  0.28292015287E-02  0.78805122941E-03  0.23166380294E-03  0.17130000003E+03  0.17130000000E+03 0.  1.
      622    1    1    2    0    0 -0.30976155623E-02 -0.22396139207E-02  0.39555444199E+01  0.39557485093E+01  0.40000000000E-01 0.  1.
</event>
<event>
 5   0  0.6200596E+07  0.9118800E+02  0.7818608E-02  0.1180000E+00
       11   -1    0    0    0    0  0.00000000000E+00  0.00000000000E+00  0.39999999673E+01  0.40000000000E+01  0.51109989000E-03 0. -1.
     -623   -1    0    0    0    0  0.00000000000E+00  0.00000000000E+00  0.12525980253E-10  0.17130000000E+03  0.17130000000E+03 0. -1.
       11    1    1    2    0    0 -0.10778783373E-01  0.36643626929E-02  0.59212641866E+00  0.59223607338E+00  0.51109989000E-03 0. -1.
     -623    1    1    2    0    0  0.72351596585E-02  0.15957877807E-01  0.40362523028E-03  0.17130000090E+03  0.17130000000E+03 0. -1.
      622    1    1    2    0    0  0.35436237148E-02 -0.19622240499E-01  0.34074699235E+01  0.34077630300E+01  0.40000000000E-01 0. -1.
</event>
<event>
 5   0  0.6200596E+07  0.9118800E+02  0.7818608E-02  0.1180000E+00
       11   -1    0    0    0    0  0.00000000000E+00  0.00000000000E+00  0.39999999673E+01  0.40000000000E+01  0.51109989000E-03 0. -1.
     -623   -1    0    0    0    0  0.00000000000E+00  0.00000000000E+00  0.12525980253E-10  0.17130000000E+03  0.17130000000E+03 0.  1.
       11    1    1    2    0    0  0.58106226821E-01  0.47674164341E-01  0.21350758279E+01  0.21363984206E+01  0.51109989000E-03 0. -1.
     -623    1    1    2    0    0 -0.83955306106E-02 -0.21422710582E-01  0.26017395382E-02  0.17130000157E+03  0.17130000000E+03 0.  1.
      622    1    1    2    0    0 -0.49710696211E-01 -0.26251453760E-01  0.18623224000E+01  0.18636000144E+01  0.40000000000E-01 0. -1.
</event>
<event>
 5   0  0.6200596E+07  0.9118800E+02  0.7818608E-02  0.1180000E+00
       11   -1    0    0    0    0  0.00000000000E+00  0.00000000000E+00  0.39999999673E+01  0.40000000000E+01  0.51109989000E-03 0.  1.
     -623   -1    0    0    0    0  0.00000000000E+00  0.00000000000E+00  0.12525980253E-10  0.17130000000E+03  0.17130000000E+03 0. -1.
       11    1    1    2    0    0 -0.12989020453E-03 -0.11425178569E-02  0.22723398611E-02  0.25974926216E-02  0.51109989000E-03 0.  1.
     -623    1    1    2    0    0  0.20725303206E-02  0.16253270894E-02  0.52577736582E-03  0.17130000002E+03  0.17130000000E+03 0. -1.
      622    1    1    2    0    0 -0.19426401161E-02 -0.48280923244E-03  0.39972018501E+01  0.39974024863E+01  0.40000000000E-01 0.  1.
</event>
<event>
 5   0  0.6200596E+07  0.9118800E+02  0.7818608E-02  0.1180000E+00
       11   -1    0    0    0    0  0.00000000000E+00  0.00000000000E+00  0.39999999673E+01  0.40000000000E+01  0.51109989000E-03 0.  1.
     -623   -1    0    0    0    0  0.00000000000E+00  0.00000000000E+00  0.12525980253E-10  0.17130000000E+03  0.17130000000E+03 0.  1.
       11    1    1    2    0    0 -0.14020389354E-02 -0.26125595846E-02  0.73144817909E-02  0.79091116105E-02  0.51109989000E-03 0. -1.
     -623    1    1    2    0    0  0.53993697747E-03  0.16579099885E-02  0.79521641079E-03  0.17130000001E+03  0.17130000000E+03 0.  1.
      622    1    1    2    0    0  0.86210195798E-03  0.95464959615E-03  0.39918902692E+01  0.39920908777E+01  0.40000000000E-01 0.  1.
</event>
<event>
 5   0  0.6200596E+07  0.9118800E+02  0.7818608E-02  0.1180000E+00
       11   -1    0    0    0    0  0.00000000000E+00  0.00000000000E+00  0.39999999673E+01  0.40000000000E+01  0.51109989000E-03 0.  1.
     -623   -1    0    0    0    0  0.00000000000E+00  0.00000000000E+00  0.12525980253E-10  0.17130000000E+03  0.17130000000E+03 0. -1.
       11    1    1    2    0    0 -0.23275725866E-02  0.29934171547E-02  0.31071048757E+00  0.31073404456E+00  0.51109989000E-03 0.  1.
     -623    1    1    2    0    0 -0.37117106373E-03 -0.37717077069E-03  0.24229186829E-03  0.17130000000E+03  0.17130000000E+03 0. -1.
      622    1    1    2    0    0  0.26987436503E-02 -0.26162463840E-02  0.36890471879E+01  0.36892659544E+01  0.40000000000E-01 0.  1.
</event>
<event>
 5   0  0.6200596E+07  0.9118800E+02  0.7818608E-02  0.1180000E+00
       11   -1    0    0    0    0  0.00000000000E+00  0.00000000000E+00  0.39999999673E+01  0.40000000000E+01  0.51109989000E-03 0.  1.
     -623   -1    0    0    0    0  0.00000000000E+00  0.00000000000E+00  0.12525980253E-10  0.17130000000E+03  0.17130000000E+03 0. -1.
       11    1    1    2    0    0 -0.42291276454E-03  0.28572409653E-02  0.14363037226E-01  0.14659493178E-01  0.51109989000E-03 0.  1.
     -623    1    1    2    0    0  0.22172450594E-02 -0.18731924920E-03  0.49847755311E-03  0.17130000002E+03  0.17130000000E+03 0. -1.
      622    1    1    2    0    0 -0.17943322948E-02 -0.26699217161E-02  0.39851384526E+01  0.39853404916E+01  0.40000000000E-01 0.  1.
</event>
<event>
 5   0  0.6200596E+07  0.9118800E+02  0.7818608E-02  0.1180000E+00
       11   -1    0    0    0    0  0.00000000000E+00  0.00000000000E+00  0.39999999673E+01  0.40000000000E+01  0.51109989000E-03 0.  1.
     -623   -1    0    0    0    0  0.00000000000E+00  0.00000000000E+00  0.12525980253E-10  0.17130000000E+03  0.17130000000E+03 0.  1.
       11    1    1    2    0    0  0.86919121309E-03 -0.15906733047E-02  0.16337049141E-01  0.16445246440E-01  0.51109989000E-03 0.  1.
     -623    1    1    2    0    0  0.18068089782E-02  0.29947899850E-02  0.31017770293E-03  0.17130000004E+03  0.17130000000E+03 0.  1.
      622    1    1    2    0    0 -0.26760001913E-02 -0.14041166803E-02  0.39833527405E+01  0.39835547176E+01  0.40000000000E-01 0.  1.
</event>
<event>
 5   0  0.6200596E+07  0.9118800E+02  0.7818608E-02  0.1180000E+00
       11   -1    0    0    0    0  0.00000000000E+00  0.00000000000E+00  0.39999999673E+01  0.40000000000E+01  0.51109989000E-03 0.  1.
     -623   -1    0    0    0    0  0.00000000000E+00  0.00000000000E+00  0.12525980253E-10  0.17130000000E+03  0.17130000000E+03 0.  1.
       11    1    1    2    0    0  0.22322588087E-01 -0.36515985411E-01  0.11743560228E+01  0.11751357559E+01  0.51109989000E-03 0.  1.
     -623    1    1    2    0    0 -0.24336983707E-01  0.86500608094E-01  0.15295200384E-02  0.17130002358E+03  0.17130000000E+03 0.  1.
      622    1    1    2    0    0  0.20143956200E-02 -0.49984622684E-01  0.28241144245E+01  0.28248406686E+01  0.40000000000E-01 0.  1.
</event>
<event>
 5   0  0.6200596E+07  0.9118800E+02  0.7818608E-02  0.1180000E+00
       11   -1    0    0    0    0  0.00000000000E+00  0.00000000000E+00  0.39999999673E+01  0.40000000000E+01  0.51109989000E-03 0.  1.
     -623   -1    0    0    0    0  0.00000000000E+00  0.00000000000E+00  0.12525980253E-10  0.17130000000E+03  0.17130000000E+03 0. -1.
       11    1    1    2    0    0  0.20051217088E-02  0.30386227690E-02  0.35670758367E-01  0.35859698358E-01  0.51109989000E-03 0.  1.
     -623    1    1    2    0    0 -0.82813658341E-03  0.14190958087E-03  0.39217491597E-03  0.17130000000E+03  0.17130000000E+03 0. -1.
      622    1    1    2    0    0 -0.11769851254E-02 -0.31805323498E-02  0.39639370341E+01  0.39641402991E+01  0.40000000000E-01 0.  1.
</event>
<event>
 5   0  0.6200596E+07  0.9118800E+02  0.7818608E-02  0.1180000E+00
       11   -1    0    0    0    0  0.00000000000E+00  0.00000000000E+00  0.39999999673E+01  0.40000000000E+01  0.51109989000E-03 0.  1.
     -623   -1    0    0    0    0  0.00000000000E+00  0.00000000000E+00  0.12525980253E-10  0.17130000000E+03  0.17130000000E+03 0. -1.
       11    1    1    2    0    0 -0.29738875548E-02 -0.64234433504E-02  0.12643608471E+00  0.12663510323E+00  0.51109989000E-03 0.  1.
     -623    1    1    2    0    0  0.42958956147E-02  0.97668663740E-02  0.40753164390E-03  0.17130000033E+03  0.17130000000E+03 0. -1.
      622    1    1    2    0    0 -0.13220080599E-02 -0.33434230235E-02  0.38731563510E+01  0.38733645640E+01  0.40000000000E-01 0.  1.
</event>
<event>
 5   0  0.6200596E+07  0.9118800E+02  0.7818608E-02  0.1180000E+00
       11   -1    0    0    0    0  0.00000000000E+00  0.00000000000E+00  0.39999999673E+01  0.40000000000E+01  0.51109989000E-03 0.  1.
     -623   -1    0    0    0    0  0.00000000000E+00  0.00000000000E+00  0.12525980253E-10  0.17130000000E+03  0.17130000000E+03 0. -1.
       11    1    1    2    0    0  0.27084947480E-02  0.29484311994E-02  0.71151815251E+00  0.71152960006E+00  0.51109989000E-03 0.  1.
     -623    1    1    2    0    0 -0.47880840339E-04  0.59434197927E-03  0.25768424954E-03  0.17130000000E+03  0.17130000000E+03 0. -1.
      622    1    1    2    0    0 -0.26606139077E-02 -0.35427731787E-02  0.32882241306E+01  0.32884703987E+01  0.40000000000E-01 0.  1.
</event>
<event>
 5   0  0.6200596E+07  0.9118800E+02  0.7818608E-02  0.1180000E+00
       11   -1    0    0    0    0  0.00000000000E+00  0.00000000000E+00  0.39999999673E+01  0.40000000000E+01  0.51109989000E-03 0.  1.
     -623   -1    0    0    0    0  0.00000000000E+00  0.00000000000E+00  0.12525980253E-10  0.17130000000E+03  0.17130000000E+03 0.  1.
       11    1    1    2    0    0  0.97302204297E-03  0.34319721091E-02  0.11855581370E-01  0.12391175746E-01  0.51109989000E-03 0.  1.
     -623    1    1    2    0    0  0.34244623203E-03 -0.18318118552E-02  0.73673805349E-03  0.17130000001E+03  0.17130000000E+03 0.  1.
      622    1    1    2    0    0 -0.13154682750E-02 -0.16001602538E-02  0.39874076479E+01  0.39876088125E+01  0.40000000000E-01 0.  1.
</event>
<event>
 5   0  0.6200596E+07  0.9118800E+02  0.7818608E-02  0.1180000E+00
       11   -1    0    0    0    0  0.00000000000E+00  0.00000000000E+00  0.39999999673E+01  0.40000000000E+01  0.51109989000E-03 0.  1.
     -623   -1    0    0    0    0  0.00000000000E+00  0.00000000000E+00  0.12525980253E-10  0.17130000000E+03  0.17130000000E+03 0. -1.
       11    1    1    2    0    0 -0.90127363938E-02  0.75440630672E-02  0.32392467143E+00  0.32413823639E+00  0.51109989000E-03 0.  1.
     -623    1    1    2    0    0  0.11458731030E-01  0.63521596490E-02  0.45875861661E-03  0.17130000050E+03  0.17130000000E+03 0. -1.
      622    1    1    2    0    0 -0.24459946358E-02 -0.13896222716E-01  0.36756165373E+01  0.36758612620E+01  0.40000000000E-01 0.  1.
</event>
<event>
 5   0  0.6200596E+07  0.9118800E+02  0.7818608E-02  0.1180000E+00
       11   -1    0    0    0    0  0.00000000000E+00  0.00000000000E+00  0.39999999673E+01  0.40000000000E+01  0.51109989000E-03 0.  1.
     -623   -1    0    0    0    0  0.00000000000E+00  0.00000000000E+00  0.12525980253E-10  0.17130000000E+03  0.17130000000E+03 0.  1.
       11    1    1    2    0    0 -0.16320908984E-01  0.10424233926E-01  0.34720485384E-01  0.39759402033E-01  0.51109989000E-03 0.  1.
     -623    1    1    2    0    0  0.65156531579E-02 -0.19241136024E-01  0.52641370806E-02  0.17130000129E+03  0.17130000000E+03 0.  1.
      622    1    1    2    0    0  0.98052558258E-02  0.88169020986E-02  0.39600153449E+01  0.39602393125E+01  0.40000000000E-01 0.  1.
</event>
<event>
 5   0  0.6200596E+07  0.9118800E+02  0.7818608E-02  0.1180000E+00
       11   -1    0    0    0    0  0.00000000000E+00  0.00000000000E+00  0.39999999673E+01  0.40000000000E+01  0.51109989000E-03 0. -1.
     -623   -1    0    0    0    0  0.00000000000E+00  0.00000000000E+00  0.12525980253E-10  0.17130000000E+03  0.17130000000E+03 0.  1.
       11    1    1    2    0    0  0.25653278401E-02  0.27082084208E-02  0.10348073735E-03  0.37665938189E-02  0.51109989000E-03 0. -1.
     -623    1    1    2    0    0  0.25048757682E-02  0.22789773011E-02  0.38696798034E-02  0.17130000008E+03  0.17130000000E+03 0.  1.
      622    1    1    2    0    0 -0.50702036083E-02 -0.49871857219E-02  0.39960268068E+01  0.39962333290E+01  0.40000000000E-01 0. -1.
</event>
<event>
 5   0  0.6200596E+07  0.9118800E+02  0.7818608E-02  0.1180000E+00
       11   -1    0    0    0    0  0.00000000000E+00  0.00000000000E+00  0.39999999673E+01  0.40000000000E+01  0.51109989000E-03 0.  1.
     -623   -1    0    0    0    0  0.00000000000E+00  0.00000000000E+00  0.12525980253E-10  0.17130000000E+03  0.17130000000E+03 0. -1.
       11    1    1    2    0    0 -0.63646141141E-02 -0.93151880973E-02  0.32676209804E+00  0.32695720053E+00  0.51109989000E-03 0.  1.
     -623    1    1    2    0    0  0.20456948528E-02 -0.36798225527E-02  0.43846026578E-03  0.17130000005E+03  0.17130000000E+03 0. -1.
      622    1    1    2    0    0  0.43189192613E-02  0.12995010650E-01  0.36727994091E+01  0.36730427472E+01  0.40000000000E-01 0.  1.
</event>
<event>
 5   0  0.6200596E+07  0.9118800E+02  0.7818608E-02  0.1180000E+00
       11   -1    0    0    0    0  0.00000000000E+00  0.00000000000E+00  0.39999999673E+01  0.40000000000E+01  0.51109989000E-03 0. -1.
     -623   -1    0    0    0    0  0.00000000000E+00  0.00000000000E+00  0.12525980253E-10  0.17130000000E+03  0.17130000000E+03 0.  1.
       11    1    1    2    0    0 -0.16733817594E-02 -0.12903971511E-02  0.55916874627E-01  0.55959122763E-01  0.51109989000E-03 0. -1.
     -623    1    1    2    0    0  0.34311536171E-02 -0.18507421040E-02  0.24674553561E-03  0.17130000004E+03  0.17130000000E+03 0.  1.
      622    1    1    2    0    0 -0.17577718577E-02  0.31411392551E-02  0.39438363472E+01  0.39440408327E+01  0.40000000000E-01 0. -1.
</event>
<event>
 5   0  0.6200596E+07  0.9118800E+02  0.7818608E-02  0.1180000E+00
       11   -1    0    0    0    0  0.00000000000E+00  0.00000000000E+00  0.39999999673E+01  0.40000000000E+01  0.51109989000E-03 0.  1.
     -623   -1    0    0    0    0  0.00000000000E+00  0.00000000000E+00  0.12525980253E-10  0.17130000000E+03  0.17130000000E+03 0.  1.
       11    1    1    2    0    0 -0.49660866008E-03 -0.29378368747E-03  0.34332234763E-02  0.35186891859E-02  0.51109989000E-03 0.  1.
     -623    1    1    2    0    0 -0.84438625883E-04 -0.16540029609E-02  0.28613933433E-03  0.17130000001E+03  0.17130000000E+03 0.  1.
      622    1    1    2    0    0  0.58104728597E-03  0.19477866483E-02  0.39962806045E+01  0.39964813026E+01  0.40000000000E-01 0.  1.
</event>
<event>
 5   0  0.6200596E+07  0.9118800E+02  0.7818608E-02  0.1180000E+00
       11   -1    0    0    0    0  0.00000000000E+00  0.00000000000E+00  0.39999999673E+01  0.40000000000E+01  0.51109989000E-03 0.  1.
     -623   -1    0    0    0    0  0.00000000000E+00  0.00000000000E+00  0.12525980253E-10  0.17130000000E+03  0.17130000000E+03 0.  1.
       11    1    1    2    0    0  0.24210006458E-01 -0.34705420768E-02  0.12084055628E+00  0.12329180969E+00  0.51109989000E-03 0.  1.
     -623    1    1    2    0    0 -0.26296422874E-01  0.10675065948E-01  0.26672151527E-02  0.17130000237E+03  0.17130000000E+03 0.  1.
      622    1    1    2    0    0  0.20864164165E-02 -0.72045238707E-02  0.38764921959E+01  0.38767058185E+01  0.40000000000E-01 0.  1.
</event>
<event>
 5   0  0.6200596E+07  0.9118800E+02  0.7818608E-02  0.1180000E+00
       11   -1    0    0    0    0  0.00000000000E+00  0.00000000000E+00  0.39999999673E+01  0.40000000000E+01  0.51109989000E-03 0. -1.
     -623   -1    0    0    0    0  0.00000000000E+00  0.00000000000E+00  0.12525980253E-10  0.17130000000E+03  0.17130000000E+03 0. -1.
       11    1    1    2    0    0 -0.98380839976E-02  0.22927996433E-01  0.18972388837E+01  0.18974029946E+01  0.51109989000E-03 0. -1.
     -623    1    1    2    0    0 -0.11404841895E-01 -0.14299174649E-01  0.67061537398E-03  0.17130000098E+03  0.17130000000E+03 0. -1.
      622    1    1    2    0    0  0.21242925892E-01 -0.86288217838E-02  0.21020904683E+01  0.21025960277E+01  0.40000000000E-01 0. -1.
</event>
<event>
 5   0  0.6200596E+07  0.9118800E+02  0.7818608E-02  0.1180000E+00
       11   -1    0    0    0    0  0.00000000000E+00  0.00000000000E+00  0.39999999673E+01  0.40000000000E+01  0.51109989000E-03 0. -1.
     -623   -1    0    0    0    0  0.00000000000E+00  0.00000000000E+00  0.12525980253E-10  0.17130000000E+03  0.17130000000E+03 0.  1.
       11    1    1    2    0    0  0.36825565243E-02 -0.48671891613E-02  0.39839524819E-01  0.40307563960E-01  0.51109989000E-03 0. -1.
     -623    1    1    2    0    0  0.14462114884E-02  0.26060235448E-02  0.67404212663E-03  0.17130000003E+03  0.17130000000E+03 0.  1.
      622    1    1    2    0    0 -0.51287680127E-02  0.22611656165E-02  0.39594864004E+01  0.39596924088E+01  0.40000000000E-01 0. -1.
</event>
<event>
 5   0  0.6200596E+07  0.9118800E+02  0.7818608E-02  0.1180000E+00
       11   -1    0    0    0    0  0.00000000000E+00  0.00000000000E+00  0.39999999673E+01  0.40000000000E+01  0.51109989000E-03 0.  1.
     -623   -1    0    0    0    0  0.00000000000E+00  0.00000000000E+00  0.12525980253E-10  0.17130000000E+03  0.17130000000E+03 0.  1.
       11    1    1    2    0    0 -0.28344953774E-02 -0.27719644688E-02  0.89059568993E-01  0.89149235563E-01  0.51109989000E-03 0.  1.
     -623    1    1    2    0    0 -0.23460877993E-03  0.29221878293E-03  0.29618955038E-03  0.17130000000E+03  0.17130000000E+03 0.  1.
      622    1    1    2    0    0  0.30691041573E-02  0.24797456858E-02  0.39106442088E+01  0.39108507638E+01  0.40000000000E-01 0.  1.
</event>
<event>
 5   0  0.6200596E+07  0.9118800E+02  0.7818608E-02  0.1180000E+00
       11   -1    0    0    0    0  0.00000000000E+00  0.00000000000E+00  0.39999999673E+01  0.40000000000E+01  0.51109989000E-03 0. -1.
     -623   -1    0    0    0    0  0.00000000000E+00  0.00000000000E+00  0.12525980253E-10  0.17130000000E+03  0.17130000000E+03 0.  1.
       11    1    1    2    0    0  0.34147308448E-01 -0.62910581653E-02  0.16105850374E+00  0.16475957920E+00  0.51109989000E-03 0. -1.
     -623    1    1    2    0    0 -0.59187376596E-02  0.35700701752E-04  0.40187841189E-02  0.17130000015E+03  0.17130000000E+03 0.  1.
      622    1    1    2    0    0 -0.28228570788E-01  0.62553574636E-02  0.38349226795E+01  0.38352402714E+01  0.40000000000E-01 0. -1.
</event>
<event>
 5   0  0.6200596E+07  0.9118800E+02  0.7818608E-02  0.1180000E+00
       11   -1    0    0    0    0  0.00000000000E+00  0.00000000000E+00  0.39999999673E+01  0.40000000000E+01  0.51109989000E-03 0.  1.
     -623   -1    0    0    0    0  0.00000000000E+00  0.00000000000E+00  0.12525980253E-10  0.17130000000E+03  0.17130000000E+03 0. -1.
       11    1    1    2    0    0 -0.89078046213E-02  0.79923447550E-02  0.84706450930E-01  0.85549229155E-01  0.51109989000E-03 0.  1.
     -623    1    1    2    0    0  0.12620826571E-01 -0.97305641631E-02  0.10500134429E-02  0.17130000074E+03  0.17130000000E+03 0. -1.
      622    1    1    2    0    0 -0.37130219498E-02  0.17382194081E-02  0.39142435030E+01  0.39144500263E+01  0.40000000000E-01 0.  1.
</event>
<event>
 5   0  0.6200596E+07  0.9118800E+02  0.7818608E-02  0.1180000E+00
       11   -1    0    0    0    0  0.00000000000E+00  0.00000000000E+00  0.39999999673E+01  0.40000000000E+01  0.51109989000E-03 0. -1.
     -623   -1    0    0    0    0  0.00000000000E+00  0.00000000000E+00  0.12525980253E-10  0.17130000000E+03  0.17130000000E+03 0. -1.
       11    1    1    2    0    0 -0.15040685573E-01 -0.96705937443E-02  0.17535256681E+01  0.17536169116E+01  0.51109989000E-03 0. -1.
     -623    1    1    2    0    0  0.31705782226E-01  0.12305605879E-01  0.51411720471E-03  0.17130000338E+03  0.17130000000E+03 0. -1.
      622    1    1    2    0    0 -0.16665096653E-01 -0.26350121343E-02  0.22459601820E+01  0.22463797115E+01  0.40000000000E-01 0. -1.
</event>
<event>
 5   0  0.6200596E+07  0.9118800E+02  0.7818608E-02  0.1180000E+00
       11   -1    0    0    0    0  0.00000000000E+00  0.00000000000E+00  0.39999999673E+01  0.40000000000E+01  0.51109989000E-03 0. -1.
     -623   -1    0    0    0    0  0.00000000000E+00  0.00000000000E+00  0.12525980253E-10  0.17130000000E+03  0.17130000000E+03 0.  1.
       11    1    1    2    0    0 -0.24506852570E-02  0.13016873166E-02  0.46920755433E+00  0.46921603820E+00  0.51109989000E-03 0. -1.
     -623    1    1    2    0    0 -0.60380045911E-03 -0.13741399714E-02  0.23636586774E-03  0.17130000001E+03  0.17130000000E+03 0.  1.
      622    1    1    2    0    0  0.30544857161E-02  0.72452654751E-04  0.35305560472E+01  0.35307839551E+01  0.40000000000E-01 0. -1.
</event>
<event>
 5   0  0.6200596E+07  0.9118800E+02  0.7818608E-02  0.1180000E+00
       11   -1    0    0    0    0  0.00000000000E+00  0.00000000000E+00  0.39999999673E+01  0.40000000000E+01  0.51109989000E-03 0.  1.
     -623   -1    0    0    0    0  0.00000000000E+00  0.00000000000E+00  0.12525980253E-10  0.17130000000E+03  0.17130000000E+03 0.  1.
       11    1    1    2    0    0 -0.92675846487E-02 -0.38179304215E-03  0.24903333241E+00  0.24920653235E+00  0.51109989000E-03 0.  1.
     -623    1    1    2    0    0  0.12628830664E-01 -0.60284910387E-02  0.39401786980E-03  0.17130000057E+03  0.17130000000E+03 0.  1.
      622    1    1    2    0    0 -0.33612460150E-02  0.64102840809E-02  0.37505726171E+01  0.37507928956E+01  0.40000000000E-01 0.  1.
</event>
<event>
 5   0  0.6200596E+07  0.9118800E+02  0.7818608E-02  0.1180000E+00
       11   -1    0    0    0    0  0.00000000000E+00  0.00000000000E+00  0.39999999673E+01  0.40000000000E+01  0.51109989000E-03 0.  1.
     -623   -1    0    0    0    0  0.00000000000E+00  0.00000000000E+00  0.12525980253E-10  0.17130000000E+03  0.17130000000E+03 0. -1.
       11    1    1    2    0    0 -0.39372434799E-02  0.57880367292E-02  0.72723389581E-01  0.73061315811E-01  0.51109989000E-03 0.  1.
     -623    1    1    2    0    0 -0.10303541388E-02 -0.34949548764E-03  0.54853262622E-03  0.17130000000E+03  0.17130000000E+03 0. -1.
      622    1    1    2    0    0  0.49675976187E-02 -0.54385412416E-02  0.39267280452E+01  0.39269386799E+01  0.40000000000E-01 0.  1.
</event>
<event>
 5   0  0.6200596E+07  0.9118800E+02  0.7818608E-02  0.1180000E+00
       11   -1    0    0    0    0  0.00000000000E+00  0.00000000000E+00  0.39999999673E+01  0.40000000000E+01  0.51109989000E-03 0.  1.
     -623   -1    0    0    0    0  0.00000000000E+00  0.00000000000E+00  0.12525980253E-10  0.17130000000E+03  0.17130000000E+03 0.  1.
       11    1    1    2    0    0  0.49211211185E-02 -0.70460376164E-02  0.10401360443E+00  0.10436932119E+00  0.51109989000E-03 0.  1.
     -623    1    1    2    0    0 -0.13677096459E-02 -0.15733432930E-02  0.57221820683E-03  0.17130000001E+03  0.17130000000E+03 0.  1.
      622    1    1    2    0    0 -0.35534114726E-02  0.86193809094E-02  0.38954141447E+01  0.38956306652E+01  0.40000000000E-01 0.  1.
</event>
<event>
 5   0  0.6200596E+07  0.9118800E+02  0.7818608E-02  0.1180000E+00
       11   -1    0    0    0    0  0.00000000000E+00  0.00000000000E+00  0.39999999673E+01  0.40000000000E+01  0.51109989000E-03 0. -1.
     -623   -1    0    0    0    0  0.00000000000E+00  0.00000000000E+00  0.12525980253E-10  0.17130000000E+03  0.17130000000E+03 0.  1.
       11    1    1    2    0    0 -0.15559882069E-02  0.14610762722E-01  0.30040773107E+00  0.30076728811E+00  0.51109989000E-03 0. -1.
     -623    1    1    2    0    0 -0.12337168897E-01 -0.15939783375E-01  0.60330834052E-03  0.17130000119E+03  0.17130000000E+03 0.  1.
      622    1    1    2    0    0  0.13893157104E-01  0.13290206531E-02  0.36989889279E+01  0.36992315249E+01  0.40000000000E-01 0. -1.
</event>
<event>
 5   0  0.6200596E+07  0.9118800E+02  0.7818608E-02  0.1180000E+00
       11   -1    0    0    0    0  0.00000000000E+00  0.00000000000E+00  0.39999999673E+01  0.40000000000E+01  0.51109989000E-03 0. -1.
     -623   -1    0    0    0    0  0.00000000000E+00  0.00000000000E+00  0.12525980253E-10  0.17130000000E+03  0.17130000000E+03 0. -1.
       11    1    1    2    0    0 -0.70656917722E-03 -0.11821871199E-01  0.15166236404E+01  0.15166699653E+01  0.51109989000E-03 0. -1.
     -623    1    1    2    0    0 -0.45452668150E-03 -0.12416832483E-06  0.39687716160E-03  0.17130000000E+03  0.17130000000E+03 0. -1.
      622    1    1    2    0    0  0.11610958587E-02  0.11821995368E-01  0.24829794498E+01  0.24833300336E+01  0.40000000000E-01 0. -1.
</event>
<event>
 5   0  0.6200596E+07  0.9118800E+02  0.7818608E-02  0.1180000E+00
       11   -1    0    0    0    0  0.00000000000E+00  0.00000000000E+00  0.39999999673E+01  0.40000000000E+01  0.51109989000E-03 0. -1.
     -623   -1    0    0    0    0  0.00000000000E+00  0.00000000000E+00  0.12525980253E-10  0.17130000000E+03  0.17130000000E+03 0. -1.
       11    1    1    2    0    0 -0.14759594604E-03 -0.78132500790E-02  0.78082754785E+00  0.78086681922E+00  0.51109989000E-03 0. -1.
     -623    1    1    2    0    0  0.96958844578E-03  0.13648718845E-01  0.29370369350E-03  0.17130000055E+03  0.17130000000E+03 0. -1.
      622    1    1    2    0    0 -0.82199249974E-03 -0.58354687659E-02  0.32188787158E+01  0.32191326340E+01  0.40000000000E-01 0. -1.
</event>
<event>
 5   0  0.6200596E+07  0.9118800E+02  0.7818608E-02  0.1180000E+00
       11   -1    0    0    0    0  0.00000000000E+00  0.00000000000E+00  0.39999999673E+01  0.40000000000E+01  0.51109989000E-03 0.  1.
     -623   -1    0    0    0    0  0.00000000000E+00  0.00000000000E+00  0.12525980253E-10  0.17130000000E+03  0.17130000000E+03 0.  1.
       11    1    1    2    0    0 -0.54342120658E-03  0.36695449830E-03  0.32460162397E-01  0.32470807294E-01  0.51109989000E-03 0.  1.
     -623    1    1    2    0    0  0.56793837918E-04 -0.15067479215E-03  0.21229015524E-03  0.17130000000E+03  0.17130000000E+03 0.  1.
      622    1    1    2    0    0  0.48662736866E-03 -0.21627970615E-03  0.39673275148E+01  0.39675291925E+01  0.40000000000E-01 0.  1.
</event>
<event>
 5   0  0.6200596E+07  0.9118800E+02  0.7818608E-02  0.1180000E+00
       11   -1    0    0    0    0  0.00000000000E+00  0.00000000000E+00  0.39999999673E+01  0.40000000000E+01  0.51109989000E-03 0. -1.
     -623   -1    0    0    0    0  0.00000000000E+00  0.00000000000E+00  0.12525980253E-10  0.17130000000E+03  0.17130000000E+03 0.  1.
       11    1    1    2    0    0  0.50656676026E-03 -0.16558181395E-02  0.23278917420E-01  0.23348823560E-01  0.51109989000E-03 0. -1.
     -623    1    1    2    0    0  0.38140093629E-02  0.86991901104E-03  0.27352267782E-03  0.17130000004E+03  0.17130000000E+03 0.  1.
      622    1    1    2    0    0 -0.43205761231E-02  0.78589912851E-03  0.39764475273E+01  0.39766511316E+01  0.40000000000E-01 0. -1.
</event>
<event>
 5   0  0.6200596E+07  0.9118800E+02  0.7818608E-02  0.1180000E+00
       11   -1    0    0    0    0  0.00000000000E+00  0.00000000000E+00  0.39999999673E+01  0.40000000000E+01  0.51109989000E-03 0. -1.
     -623   -1    0    0    0    0  0.00000000000E+00  0.00000000000E+00  0.12525980253E-10  0.17130000000E+03  0.17130000000E+03 0. -1.
       11    1    1    2    0    0 -0.28066182841E-02 -0.11967977735E-02  0.49683128893E-01  0.49779352641E-01  0.51109989000E-03 0. -1.
     -623    1    1    2    0    0  0.43973774294E-02  0.34335828516E-02  0.29976138381E-03  0.17130000009E+03  0.17130000000E+03 0. -1.
      622    1    1    2    0    0 -0.15907591453E-02 -0.22367850781E-02  0.39500170771E+01  0.39502205562E+01  0.40000000000E-01 0. -1.
</event>
<event>
 5   0  0.6200596E+07  0.9118800E+02  0.7818608E-02  0.1180000E+00
       11   -1    0    0    0    0  0.00000000000E+00  0.00000000000E+00  0.39999999673E+01  0.40000000000E+01  0.51109989000E-03 0. -1.
     -623   -1    0    0    0    0  0.00000000000E+00  0.00000000000E+00  0.12525980253E-10  0.17130000000E+03  0.17130000000E+03 0.  1.
       11    1    1    2    0    0  0.15834794882E-02 -0.26409215135E-02  0.31814559457E-02  0.44569896881E-02  0.51109989000E-03 0. -1.
     -623    1    1    2    0    0  0.25340870574E-03  0.25203310226E-02  0.14761783888E-02  0.17130000003E+03  0.17130000000E+03 0.  1.
      622    1    1    2    0    0 -0.18368881939E-02  0.12059049088E-03  0.39953423330E+01  0.39955429852E+01  0.40000000000E-01 0. -1.
</event>
<event>
 5   0  0.6200596E+07  0.9118800E+02  0.7818608E-02  0.1180000E+00
       11   -1    0    0    0    0  0.00000000000E+00  0.00000000000E+00  0.39999999673E+01  0.40000000000E+01  0.51109989000E-03 0.  1.
     -623   -1    0    0    0    0  0.00000000000E+00  0.00000000000E+00  0.12525980253E-10  0.17130000000E+03  0.17130000000E+03 0.  1.
       11    1    1    2    0    0  0.21801928617E-02 -0.16600758508E-02  0.78617208513E-01  0.78666611648E-01  0.51109989000E-03 0.  1.
     -623    1    1    2    0    0 -0.36032640976E-02 -0.15770180779E-02  0.25502781585E-03  0.17130000005E+03  0.17130000000E+03 0.  1.
      622    1    1    2    0    0  0.14230712359E-02  0.32370939286E-02  0.39211277310E+01  0.39213333430E+01  0.40000000000E-01 0.  1.
</event>
<event>
 5   0  0.6200596E+07  0.9118800E+02  0.7818608E-02  0.1180000E+00
       11   -1    0    0    0    0  0.00000000000E+00  0.00000000000E+00  0.39999999673E+01  0.40000000000E+01  0.51109989000E-03 0.  1.
     -623   -1    0    0    0    0  0.00000000000E+00  0.00000000000E+00  0.12525980253E-10  0.17130000000E+03  0.17130000000E+03 0.  1.
       11    1    1    2    0    0  0.57872545650E-03 -0.57572752348E-02  0.34788341588E+00  0.34793190915E+00  0.51109989000E-03 0.  1.
     -623    1    1    2    0    0  0.68294422461E-02  0.13913985769E-01  0.28484619541E-03  0.17130000070E+03  0.17130000000E+03 0.  1.
      622    1    1    2    0    0 -0.74081677026E-02 -0.81567105342E-02  0.36518317053E+01  0.36520673894E+01  0.40000000000E-01 0.  1.
</event>
<event>
 5   0  0.6200596E+07  0.9118800E+02  0.7818608E-02  0.1180000E+00
       11   -1    0    0    0    0  0.00000000000E+00  0.00000000000E+00  0.39999999673E+01  0.40000000000E+01  0.51109989000E-03 0.  1.
     -623   -1    0    0    0    0  0.00000000000E+00  0.00000000000E+00  0.12525980253E-10  0.17130000000E+03  0.17130000000E+03 0.  1.
       11    1    1    2    0    0  0.24235048576E-02 -0.12159490109E-01  0.22618566924E+00  0.22652581480E+00  0.51109989000E-03 0.  1.
     -623    1    1    2    0    0 -0.17752810169E-02 -0.30702436632E-02  0.58295391551E-03  0.17130000004E+03  0.17130000000E+03 0.  1.
      622    1    1    2    0    0 -0.64822384075E-03  0.15229733772E-01  0.37732313442E+01  0.37734741475E+01  0.40000000000E-01 0.  1.
</event>
<event>
 5   0  0.6200596E+07  0.9118800E+02  0.7818608E-02  0.1180000E+00
       11   -1    0    0    0    0  0.00000000000E+00  0.00000000000E+00  0.39999999673E+01  0.40000000000E+01  0.51109989000E-03 0.  1.
     -623   -1    0    0    0    0  0.00000000000E+00  0.00000000000E+00  0.12525980253E-10  0.17130000000E+03  0.17130000000E+03 0. -1.
       11    1    1    2    0    0 -0.23208868764E-03  0.49887012056E-03  0.22204294828E-01  0.22216990514E-01  0.51109989000E-03 0.  1.
     -623    1    1    2    0    0  0.28538705983E-02 -0.78974649145E-03  0.21468560932E-03  0.17130000003E+03  0.17130000000E+03 0. -1.
      622    1    1    2    0    0 -0.26217819107E-02  0.29087637089E-03  0.39775809869E+01  0.39777829838E+01  0.40000000000E-01 0.  1.
</event>
<event>
 5   0  0.6200596E+07  0.9118800E+02  0.7818608E-02  0.1180000E+00
       11   -1    0    0    0    0  0.00000000000E+00  0.00000000000E+00  0.39999999673E+01  0.40000000000E+01  0.51109989000E-03 0. -1.
     -623   -1    0    0    0    0  0.00000000000E+00  0.00000000000E+00  0.12525980253E-10  0.17130000000E+03  0.17130000000E+03 0.  1.
       11    1    1    2    0    0 -0.35771060269E-02 -0.20498097173E-04  0.25745781440E+00  0.25748317134E+00  0.51109989000E-03 0. -1.
     -623    1    1    2    0    0  0.37176568642E-02 -0.23048382440E-02  0.23987140022E-03  0.17130000006E+03  0.17130000000E+03 0.  1.
      622    1    1    2    0    0 -0.14055083737E-03  0.23253363412E-02  0.37423022816E+01  0.37425167726E+01  0.40000000000E-01 0. -1.
</event>
<event>
 5   0  0.6200596E+07  0.9118800E+02  0.7818608E-02  0.1180000E+00
       11   -1    0    0    0    0  0.00000000000E+00  0.00000000000E+00  0.39999999673E+01  0.40000000000E+01  0.51109989000E-03 0.  1.
     -623   -1    0    0    0    0  0.00000000000E+00  0.00000000000E+00  0.12525980253E-10  0.17130000000E+03  0.17130000000E+03 0.  1.
       11    1    1    2    0    0 -0.46468673324E-02 -0.57761928077E-02  0.34841600215E+00  0.34849523606E+00  0.51109989000E-03 0.  1.
     -623    1    1    2    0    0 -0.27490439480E-02  0.25415259633E-02  0.30726003944E-03  0.17130000004E+03  0.17130000000E+03 0.  1.
      622    1    1    2    0    0  0.73959112804E-02  0.32346668443E-02  0.36512767052E+01  0.36515047228E+01  0.40000000000E-01 0.  1.
</event>
<event>
 5   0  0.6200596E+07  0.9118800E+02  0.7818608E-02  0.1180000E+00
       11   -1    0    0    0    0  0.00000000000E+00  0.00000000000E+00  0.39999999673E+01  0.40000000000E+01  0.51109989000E-03 0. -1.
     -623   -1    0    0    0    0  0.00000000000E+00  0.00000000000E+00  0.12525980253E-10  0.17130000000E+03  0.17130000000E+03 0.  1.
       11    1    1    2    0    0 -0.95278830464E-02 -0.15045591788E-01  0.15771619863E+01  0.15772626105E+01  0.51109989000E-03 0. -1.
     -623    1    1    2    0    0  0.17539320046E-02  0.25588744521E-02  0.47550477786E-03  0.17130000003E+03  0.17130000000E+03 0.  1.
      622    1    1    2    0    0  0.77739510418E-02  0.12486717336E-01  0.24223624763E+01  0.24227373607E+01  0.40000000000E-01 0. -1.
</event>
<event>
 5   0  0.6200596E+07  0.9118800E+02  0.7818608E-02  0.1180000E+00
       11   -1    0    0    0    0  0.00000000000E+00  0.00000000000E+00  0.39999999673E+01  0.40000000000E+01  0.51109989000E-03 0. -1.
     -623   -1    0    0    0    0  0.00000000000E+00  0.00000000000E+00  0.12525980253E-10  0.17130000000E+03  0.17130000000E+03 0.  1.
       11    1    1    2    0    0 -0.10574453128E-01 -0.49548066335E-02  0.96517656638E+00  0.96524734378E+00  0.51109989000E-03 0. -1.
     -623    1    1    2    0    0 -0.82865278814E-03  0.19951734094E-02  0.35725201453E-03  0.17130000001E+03  0.17130000000E+03 0.  1.
      622    1    1    2    0    0  0.11403105916E-01  0.29596332241E-02  0.30344661490E+01  0.30347526422E+01  0.40000000000E-01 0. -1.
</event>
<event>
 5   0  0.6200596E+07  0.9118800E+02  0.7818608E-02  0.1180000E+00
       11   -1    0    0    0    0  0.00000000000E+00  0.00000000000E+00  0.39999999673E+01  0.40000000000E+01  0.51109989000E-03 0.  1.
     -623   -1    0    0    0    0  0.00000000000E+00  0.00000000000E+00  0.12525980253E-10  0.17130000000E+03  0.17130000000E+03 0. -1.
       11    1    1    2    0    0  0.21930324582E-01  0.26825540001E-03  0.48255289809E+00  0.48305131381E+00  0.51109989000E-03 0.  1.
     -623    1    1    2    0    0 -0.14871463042E-01  0.92268508912E-02  0.74665883361E-03  0.17130000090E+03  0.17130000000E+03 0. -1.
      622    1    1    2    0    0 -0.70588615402E-02 -0.94951062912E-02  0.35167004104E+01  0.35169477905E+01  0.40000000000E-01 0.  1.
</event>
<event>
 5   0  0.6200596E+07  0.9118800E+02  0.7818608E-02  0.1180000E+00
       11   -1    0    0    0    0  0.00000000000E+00  0.00000000000E+00  0.39999999673E+01  0.40000000000E+01  0.51109989000E-03 0. -1.
     -623   -1    0    0    0    0  0.00000000000E+00  0.00000000000E+00  0.12525980253E-10  0.17130000000E+03  0.17130000000E+03 0.  1.
       11    1    1    2    0    0 -0.41307887318E-02  0.48919281359E-01  0.12138898629E+01  0.12148823071E+01  0.51109989000E-03 0. -1.
     -623    1    1    2    0    0  0.37667786822E-01 -0.29137339125E-01  0.15585074522E-02  0.17130000663E+03  0.17130000000E+03 0.  1.
      622    1    1    2    0    0 -0.33536998091E-01 -0.19781942234E-01  0.27845515970E+01  0.27851110663E+01  0.40000000000E-01 0. -1.
</event>
<event>
 5   0  0.6200596E+07  0.9118800E+02  0.7818608E-02  0.1180000E+00
       11   -1    0    0    0    0  0.00000000000E+00  0.00000000000E+00  0.39999999673E+01  0.40000000000E+01  0.51109989000E-03 0. -1.
     -623   -1    0    0    0    0  0.00000000000E+00  0.00000000000E+00  0.12525980253E-10  0.17130000000E+03  0.17130000000E+03 0.  1.
       11    1    1    2    0    0 -0.29693760656E-02 -0.82174390567E-03  0.49650472941E+00  0.49651455165E+00  0.51109989000E-03 0. -1.
     -623    1    1    2    0    0 -0.82869451667E-04 -0.17473695061E-02  0.24042186121E-03  0.17130000001E+03  0.17130000000E+03 0.  1.
      622    1    1    2    0    0  0.30522455173E-02  0.25691134118E-02  0.35032548161E+01  0.35034854392E+01  0.40000000000E-01 0. -1.
</event>
<event>
 5   0  0.6200596E+07  0.9118800E+02  0.7818608E-02  0.1180000E+00
       11   -1    0    0    0    0  0.00000000000E+00  0.00000000000E+00  0.39999999673E+01  0.40000000000E+01  0.51109989000E-03 0. -1.
     -623   -1    0    0    0    0  0.00000000000E+00  0.00000000000E+00  0.12525980253E-10  0.17130000000E+03  0.17130000000E+03 0. -1.
       11    1    1    2    0    0 -0.22284436701E-02  0.23068324889E-03  0.49448225297E-02  0.54526752506E-02  0.51109989000E-03 0. -1.
     -623    1    1    2    0    0  0.15582879451E-02  0.37508488277E-03  0.70820922270E-03  0.17130000001E+03  0.17130000000E+03 0. -1.
      622    1    1    2    0    0  0.67015572497E-03 -0.60576813165E-03  0.39943469356E+01  0.39945473158E+01  0.40000000000E-01 0. -1.
</event>
<event>
 5   0  0.6200596E+07  0.9118800E+02  0.7818608E-02  0.1180000E+00
       11   -1    0    0    0    0  0.00000000000E+00  0.00000000000E+00  0.39999999673E+01  0.40000000000E+01  0.51109989000E-03 0. -1.
     -623   -1    0    0    0    0  0.00000000000E+00  0.00000000000E+00  0.12525980253E-10  0.17130000000E+03  0.17130000000E+03 0.  1.
       11    1    1    2    0    0  0.11054960908E-01  0.62400530660E-03  0.78054158410E+00  0.78062028366E+00  0.51109989000E-03 0. -1.
     -623    1    1    2    0    0 -0.32505760635E-02  0.45770994306E-02  0.34092601734E-03  0.17130000009E+03  0.17130000000E+03 0.  1.
      622    1    1    2    0    0 -0.78043848444E-02 -0.52011047372E-02  0.32191174572E+01  0.32193796240E+01  0.40000000000E-01 0. -1.
</event>
<event>
 5   0  0.6200596E+07  0.9118800E+02  0.7818608E-02  0.1180000E+00
       11   -1    0    0    0    0  0.00000000000E+00  0.00000000000E+00  0.39999999673E+01  0.40000000000E+01  0.51109989000E-03 0. -1.
     -623   -1    0    0    0    0  0.00000000000E+00  0.00000000000E+00  0.12525980253E-10  0.17130000000E+03  0.17130000000E+03 0. -1.
       11    1    1    2    0    0  0.19774616030E-01 -0.15505935594E-01  0.16562529463E+00  0.16752154763E+00  0.51109989000E-03 0. -1.
     -623    1    1    2    0    0 -0.16035336415E-03  0.82374391786E-02  0.21622680927E-02  0.17130000021E+03  0.17130000000E+03 0. -1.
      622    1    1    2    0    0 -0.19614262666E-01  0.72684964154E-02  0.38322124046E+01  0.38324782406E+01  0.40000000000E-01 0. -1.
</event>
<event>
 5   0  0.6200596E+07  0.9118800E+02  0.7818608E-02  0.1180000E+00
       11   -1    0    0    0    0  0.00000000000E+00  0.00000000000E+00  0.39999999673E+01  0.40000000000E+01  0.51109989000E-03 0. -1.
     -623   -1    0    0    0    0  0.00000000000E+00  0.00000000000E+00  0.12525980253E-10  0.17130000000E+03  0.17130000000E+03 0.  1.
       11    1    1    2    0    0  0.20564066765E-03 -0.34836967563E-02  0.50188108047E-01  0.50311885683E-01  0.51109989000E-03 0. -1.
     -623    1    1    2    0    0 -0.23757419876E-02 -0.45423376745E-02  0.33512620626E-03  0.17130000008E+03  0.17130000000E+03 0.  1.
      622    1    1    2    0    0  0.21701013200E-02  0.80260344308E-02  0.39494767331E+01  0.39496880373E+01  0.40000000000E-01 0.  0.
</event>
<event>
 5   0  0.6200596E+07  0.9118800E+02  0.7818608E-02  0.1180000E+00
       11   -1    0    0    0    0  0.00000000000E+00  0.00000000000E+00  0.39999999673E+01  0.40000000000E+01  0.51109989000E-03 0. -1.
     -623   -1    0    0    0    0  0.00000000000E+00  0.00000000000E+00  0.12525980253E-10  0.17130000000E+03  0.17130000000E+03 0.  1.
       11    1    1    2    0    0 -0.13942936152E-02 -0.12675379170E-02  0.15830981850E-01  0.15950922113E-01  0.51109989000E-03 0. -1.
     -623    1    1    2    0    0 -0.62515586208E-04  0.49075994717E-03  0.32105652817E-03  0.17130000000E+03  0.17130000000E+03 0.  1.
      622    1    1    2    0    0  0.14568092014E-02  0.77677796980E-03  0.39838479290E+01  0.39840490769E+01  0.40000000000E-01 0. -1.
</event>
<event>
 5   0  0.6200596E+07  0.9118800E+02  0.7818608E-02  0.1180000E+00
       11   -1    0    0    0    0  0.00000000000E+00  0.00000000000E+00  0.39999999673E+01  0.40000000000E+01  0.51109989000E-03 0.  1.
     -623   -1    0    0    0    0  0.00000000000E+00  0.00000000000E+00  0.12525980253E-10  0.17130000000E+03  0.17130000000E+03 0. -1.
       11    1    1    2    0    0  0.93535213726E-03  0.19030814571E-03  0.16024285838E-01  0.16060823750E-01  0.51109989000E-03 0.  1.
     -623    1    1    2    0    0  0.34985319984E-04  0.17346583274E-02  0.23790881611E-03  0.17130000001E+03  0.17130000000E+03 0. -1.
      622    1    1    2    0    0 -0.97033745725E-03 -0.19249664731E-02  0.39837377727E+01  0.39839391673E+01  0.40000000000E-01 0.  1.
</event>
<event>
 5   0  0.6200596E+07  0.9118800E+02  0.7818608E-02  0.1180000E+00
       11   -1    0    0    0    0  0.00000000000E+00  0.00000000000E+00  0.39999999673E+01  0.40000000000E+01  0.51109989000E-03 0. -1.
     -623   -1    0    0    0    0  0.00000000000E+00  0.00000000000E+00  0.12525980253E-10  0.17130000000E+03  0.17130000000E+03 0. -1.
       11    1    1    2    0    0 -0.72866524840E-02 -0.31920160621E-01  0.29885406566E+01  0.29887200454E+01  0.51109989000E-03 0. -1.
     -623    1    1    2    0    0  0.44234603854E-02 -0.50074187913E-03  0.14951016189E-02  0.17130000006E+03  0.17130000000E+03 0. -1.
      622    1    1    2    0    0  0.28631920986E-02  0.32420902500E-01  0.10099642091E+01  0.10112798903E+01  0.40000000000E-01 0. -1.
</event>
<event>
 5   0  0.6200596E+07  0.9118800E+02  0.7818608E-02  0.1180000E+00
       11   -1    0    0    0    0  0.00000000000E+00  0.00000000000E+00  0.39999999673E+01  0.40000000000E+01  0.51109989000E-03 0.  1.
     -623   -1    0    0    0    0  0.00000000000E+00  0.00000000000E+00  0.12525980253E-10  0.17130000000E+03  0.17130000000E+03 0. -1.
       11    1    1    2    0    0  0.13510486190E-02 -0.15992855824E-02  0.82410477765E-01  0.82438650610E-01  0.51109989000E-03 0.  1.
     -623    1    1    2    0    0 -0.44253335858E-02 -0.20649950821E-02  0.23534407789E-03  0.17130000007E+03  0.17130000000E+03 0. -1.
      622    1    1    2    0    0  0.30742849668E-02  0.36642806645E-02  0.39173541455E+01  0.39175612796E+01  0.40000000000E-01 0.  1.
</event>
<event>
 5   0  0.6200596E+07  0.9118800E+02  0.7818608E-02  0.1180000E+00
       11   -1    0    0    0    0  0.00000000000E+00  0.00000000000E+00  0.39999999673E+01  0.40000000000E+01  0.51109989000E-03 0. -1.
     -623   -1    0    0    0    0  0.00000000000E+00  0.00000000000E+00  0.12525980253E-10  0.17130000000E+03  0.17130000000E+03 0.  1.
       11    1    1    2    0    0 -0.59823001589E-02  0.57851526895E-02  0.12070813672E+00  0.12099574950E+00  0.51109989000E-03 0. -1.
     -623    1    1    2    0    0  0.14193389616E-02  0.23110300573E-02  0.50497979753E-03  0.17130000002E+03  0.17130000000E+03 0.  1.
      622    1    1    2    0    0  0.45629611973E-02 -0.80961827469E-02  0.38787868508E+01  0.38790042283E+01  0.40000000000E-01 0. -1.
</event>
<event>
 5   0  0.6200596E+07  0.9118800E+02  0.7818608E-02  0.1180000E+00
       11   -1    0    0    0    0  0.00000000000E+00  0.00000000000E+00  0.39999999673E+01  0.40000000000E+01  0.51109989000E-03 0. -1.
     -623   -1    0    0    0    0  0.00000000000E+00  0.00000000000E+00  0.12525980253E-10  0.17130000000E+03  0.17130000000E+03 0. -1.
       11    1    1    2    0    0  0.27587574813E-04  0.35349479934E-02  0.73479535085E-01  0.73566296056E-01  0.51109989000E-03 0. -1.
     -623    1    1    2    0    0  0.85644320043E-03 -0.11008410685E-02  0.29134082566E-03  0.17130000001E+03  0.17130000000E+03 0. -1.
      622    1    1    2    0    0 -0.88403077524E-03 -0.24341069250E-02  0.39262290914E+01  0.39264336980E+01  0.40000000000E-01 0. -1.
</event>
<event>
 5   0  0.6200596E+07  0.9118800E+02  0.7818608E-02  0.1180000E+00
       11   -1    0    0    0    0  0.00000000000E+00  0.00000000000E+00  0.39999999673E+01  0.40000000000E+01  0.51109989000E-03 0. -1.
     -623   -1    0    0    0    0  0.00000000000E+00  0.00000000000E+00  0.12525980253E-10  0.17130000000E+03  0.17130000000E+03 0. -1.
       11    1    1    2    0    0  0.11331670997E-01 -0.33268316842E-02  0.32834214221E+00  0.32855486322E+00  0.51109989000E-03 0. -1.
     -623    1    1    2    0    0  0.10623829924E-02  0.12043696744E-02  0.45213556334E-03  0.17130000001E+03  0.17130000000E+03 0. -1.
      622    1    1    2    0    0 -0.12394053989E-01  0.21224620098E-02  0.36712056896E+01  0.36714451287E+01  0.40000000000E-01 0. -1.
</event>
<event>
 5   0  0.6200596E+07  0.9118800E+02  0.7818608E-02  0.1180000E+00
       11   -1    0    0    0    0  0.00000000000E+00  0.00000000000E+00  0.39999999673E+01  0.40000000000E+01  0.51109989000E-03 0.  1.
     -623   -1    0    0    0    0  0.00000000000E+00  0.00000000000E+00  0.12525980253E-10  0.17130000000E+03  0.17130000000E+03 0. -1.
       11    1    1    2    0    0 -0.41458303474E-02  0.13175365069E-01  0.18208843786E+00  0.18261226295E+00  0.51109989000E-03 0.  1.
     -623    1    1    2    0    0 -0.15340199384E-01 -0.75286697442E-02  0.78813309191E-03  0.17130000085E+03  0.17130000000E+03 0. -1.
      622    1    1    2    0    0  0.19486029732E-01 -0.56466953248E-02  0.38171233964E+01  0.38173868829E+01  0.40000000000E-01 0.  1.
</event>
<event>
 5   0  0.6200596E+07  0.9118800E+02  0.7818608E-02  0.1180000E+00
       11   -1    0    0    0    0  0.00000000000E+00  0.00000000000E+00  0.39999999673E+01  0.40000000000E+01  0.51109989000E-03 0.  1.
     -623   -1    0    0    0    0  0.00000000000E+00  0.00000000000E+00  0.12525980253E-10  0.17130000000E+03  0.17130000000E+03 0.  1.
       11    1    1    2    0    0  0.42134849140E-02  0.33044243641E-01  0.42585429238E+00  0.42715549283E+00  0.51109989000E-03 0.  1.
     -623    1    1    2    0    0 -0.22325657900E-02 -0.39750314160E-02  0.16439689761E-02  0.17130000007E+03  0.17130000000E+03 0.  1.
      622    1    1    2    0    0 -0.19809191240E-02 -0.29069212225E-01  0.35725017060E+01  0.35728444386E+01  0.40000000000E-01 0.  1.
</event>
<event>
 5   0  0.6200596E+07  0.9118800E+02  0.7818608E-02  0.1180000E+00
       11   -1    0    0    0    0  0.00000000000E+00  0.00000000000E+00  0.39999999673E+01  0.40000000000E+01  0.51109989000E-03 0.  1.
     -623   -1    0    0    0    0  0.00000000000E+00  0.00000000000E+00  0.12525980253E-10  0.17130000000E+03  0.17130000000E+03 0.  1.
       11    1    1    2    0    0 -0.91160132903E-02  0.10923478529E-02  0.11687171910E-01  0.14870982871E-01  0.51109989000E-03 0. -1.
     -623    1    1    2    0    0  0.97479650702E-02 -0.12921115347E-02  0.33849005071E-02  0.17130000032E+03  0.17130000000E+03 0.  1.
      622    1    1    2    0    0 -0.63195177987E-03  0.19976368172E-03  0.39849278949E+01  0.39851287015E+01  0.40000000000E-01 0.  1.
</event>
<event>
 5   0  0.6200596E+07  0.9118800E+02  0.7818608E-02  0.1180000E+00
       11   -1    0    0    0    0  0.00000000000E+00  0.00000000000E+00  0.39999999673E+01  0.40000000000E+01  0.51109989000E-03 0.  1.
     -623   -1    0    0    0    0  0.00000000000E+00  0.00000000000E+00  0.12525980253E-10  0.17130000000E+03  0.17130000000E+03 0.  1.
       11    1    1    2    0    0 -0.26814853746E-02 -0.26791403629E-02  0.44729883679E-01  0.44893116098E-01  0.51109989000E-03 0.  1.
     -623    1    1    2    0    0 -0.57753551570E-03  0.96363733106E-03  0.36719401676E-03  0.17130000000E+03  0.17130000000E+03 0.  1.
      622    1    1    2    0    0  0.32590208903E-02  0.17155030318E-02  0.39549028897E+01  0.39551068798E+01  0.40000000000E-01 0.  1.
</event>
<event>
 5   0  0.6200596E+07  0.9118800E+02  0.7818608E-02  0.1180000E+00
       11   -1    0    0    0    0  0.00000000000E+00  0.00000000000E+00  0.39999999673E+01  0.40000000000E+01  0.51109989000E-03 0.  1.
     -623   -1    0    0    0    0  0.00000000000E+00  0.00000000000E+00  0.12525980253E-10  0.17130000000E+03  0.17130000000E+03 0. -1.
       11    1    1    2    0    0 -0.68341513224E-02  0.97677907924E-02  0.85656748758E-01  0.86483843530E-01  0.51109989000E-03 0.  1.
     -623    1    1    2    0    0  0.12879540220E-02 -0.88182751351E-02  0.10357675950E-02  0.17130000023E+03  0.17130000000E+03 0. -1.
      622    1    1    2    0    0  0.55461973003E-02 -0.94951565731E-03  0.39133074510E+01  0.39135159215E+01  0.40000000000E-01 0.  1.
</event>
<event>
 5   0  0.6200596E+07  0.9118800E+02  0.7818608E-02  0.1180000E+00
       11   -1    0    0    0    0  0.00000000000E+00  0.00000000000E+00  0.39999999673E+01  0.40000000000E+01  0.51109989000E-03 0.  1.
     -623   -1    0    0    0    0  0.00000000000E+00  0.00000000000E+00  0.12525980253E-10  0.17130000000E+03  0.17130000000E+03 0. -1.
       11    1    1    2    0    0 -0.11605059523E-01  0.22219369920E-01  0.64609202936E+00  0.64657833974E+00  0.51109989000E-03 0.  1.
     -623    1    1    2    0    0  0.11695536936E-01 -0.29458988324E-01  0.73559916855E-03  0.17130000293E+03  0.17130000000E+03 0. -1.
      622    1    1    2    0    0 -0.90477413005E-04  0.72396184039E-02  0.33531723388E+01  0.33534187263E+01  0.40000000000E-01 0.  1.
</event>
<event>
 5   0  0.6200596E+07  0.9118800E+02  0.7818608E-02  0.1180000E+00
       11   -1    0    0    0    0  0.00000000000E+00  0.00000000000E+00  0.39999999673E+01  0.40000000000E+01  0.51109989000E-03 0.  1.
     -623   -1    0    0    0    0  0.00000000000E+00  0.00000000000E+00  0.12525980253E-10  0.17130000000E+03  0.17130000000E+03 0. -1.
       11    1    1    2    0    0  0.94480797457E-02 -0.81952121614E-02  0.10659236971E+00  0.10732484435E+00  0.51109989000E-03 0.  1.
     -623    1    1    2    0    0 -0.14194623636E-03  0.77565499191E-02  0.94928923410E-03  0.17130000018E+03  0.17130000000E+03 0. -1.
      622    1    1    2    0    0 -0.93061335094E-02  0.43866224228E-03  0.38924583084E+01  0.38926749774E+01  0.40000000000E-01 0.  1.
</event>
<event>
 5   0  0.6200596E+07  0.9118800E+02  0.7818608E-02  0.1180000E+00
       11   -1    0    0    0    0  0.00000000000E+00  0.00000000000E+00  0.39999999673E+01  0.40000000000E+01  0.51109989000E-03 0.  1.
     -623   -1    0    0    0    0  0.00000000000E+00  0.00000000000E+00  0.12525980253E-10  0.17130000000E+03  0.17130000000E+03 0. -1.
       11    1    1    2    0    0  0.25142828401E-02 -0.38696353226E-02  0.39728368964E+00  0.39731081910E+00  0.51109989000E-03 0.  1.
     -623    1    1    2    0    0 -0.38340788097E-02 -0.28170742743E-02  0.25567379926E-03  0.17130000007E+03  0.17130000000E+03 0. -1.
      622    1    1    2    0    0  0.13197959696E-02  0.66867095969E-02  0.36024606039E+01  0.36026891146E+01  0.40000000000E-01 0.  1.
</event>
<event>
 5   0  0.6200596E+07  0.9118800E+02  0.7818608E-02  0.1180000E+00
       11   -1    0    0    0    0  0.00000000000E+00  0.00000000000E+00  0.39999999673E+01  0.40000000000E+01  0.51109989000E-03 0. -1.
     -623   -1    0    0    0    0  0.00000000000E+00  0.00000000000E+00  0.12525980253E-10  0.17130000000E+03  0.17130000000E+03 0.  1.
       11    1    1    2    0    0 -0.10477871873E-01  0.19649359765E-01  0.34946883567E+00  0.35017797113E+00  0.51109989000E-03 0. -1.
     -623    1    1    2    0    0  0.19412868127E-01 -0.34920401240E-01  0.97584759081E-03  0.17130000466E+03  0.17130000000E+03 0.  1.
      622    1    1    2    0    0 -0.89349962534E-02  0.15271041475E-01  0.36495552841E+01  0.36498173667E+01  0.40000000000E-01 0. -1.
</event>
<event>
 5   0  0.6200596E+07  0.9118800E+02  0.7818608E-02  0.1180000E+00
       11   -1    0    0    0    0  0.00000000000E+00  0.00000000000E+00  0.39999999673E+01  0.40000000000E+01  0.51109989000E-03 0.  1.
     -623   -1    0    0    0    0  0.00000000000E+00  0.00000000000E+00  0.12525980253E-10  0.17130000000E+03  0.17130000000E+03 0. -1.
       11    1    1    2    0    0 -0.65891862293E-03 -0.39721393569E-03  0.61773930816E-02  0.62460675073E-02  0.51109989000E-03 0.  1.
     -623    1    1    2    0    0  0.17993976029E-03  0.20273743837E-03  0.26899348601E-03  0.17130000000E+03  0.17130000000E+03 0. -1.
      622    1    1    2    0    0  0.47897886264E-03  0.19447649732E-03  0.39935535808E+01  0.39937539321E+01  0.40000000000E-01 0.  1.
</event>
<event>
 5   0  0.6200596E+07  0.9118800E+02  0.7818608E-02  0.1180000E+00
       11   -1    0    0    0    0  0.00000000000E+00  0.00000000000E+00  0.39999999673E+01  0.40000000000E+01  0.51109989000E-03 0. -1.
     -623   -1    0    0    0    0  0.00000000000E+00  0.00000000000E+00  0.12525980253E-10  0.17130000000E+03  0.17130000000E+03 0.  1.
       11    1    1    2    0    0 -0.10434146012E-01 -0.31149376127E-02  0.17246736307E+00  0.17281153545E+00  0.51109989000E-03 0. -1.
     -623    1    1    2    0    0  0.68404279004E-02  0.39775708508E-02  0.55514440502E-03  0.17130000018E+03  0.17130000000E+03 0.  1.
      622    1    1    2    0    0  0.35937181116E-02 -0.86263323808E-03  0.38269774599E+01  0.38271882809E+01  0.40000000000E-01 0. -1.
</event>
<event>
 5   0  0.6200596E+07  0.9118800E+02  0.7818608E-02  0.1180000E+00
       11   -1    0    0    0    0  0.00000000000E+00  0.00000000000E+00  0.39999999673E+01  0.40000000000E+01  0.51109989000E-03 0. -1.
     -623   -1    0    0    0    0  0.00000000000E+00  0.00000000000E+00  0.12525980253E-10  0.17130000000E+03  0.17130000000E+03 0. -1.
       11    1    1    2    0    0  0.84188578129E-02  0.41983159749E-01  0.10662093030E+01  0.10670688834E+01  0.51109989000E-03 0. -1.
     -623    1    1    2    0    0  0.15118677640E-01  0.73522781830E-02  0.16426379975E-02  0.17130000083E+03  0.17130000000E+03 0. -1.
      622    1    1    2    0    0 -0.23537535453E-01 -0.49335437932E-01  0.29321480264E+01  0.29329302838E+01  0.40000000000E-01 0. -1.
</event>
<event>
 5   0  0.6200596E+07  0.9118800E+02  0.7818608E-02  0.1180000E+00
       11   -1    0    0    0    0  0.00000000000E+00  0.00000000000E+00  0.39999999673E+01  0.40000000000E+01  0.51109989000E-03 0. -1.
     -623   -1    0    0    0    0  0.00000000000E+00  0.00000000000E+00  0.12525980253E-10  0.17130000000E+03  0.17130000000E+03 0.  1.
       11    1    1    2    0    0 -0.34671965841E-04 -0.15932735589E-02  0.10760754859E-02  0.19896942160E-02  0.51109989000E-03 0. -1.
     -623    1    1    2    0    0  0.14964480916E-02  0.32983938410E-02  0.11143634237E-02  0.17130000004E+03  0.17130000000E+03 0.  1.
      622    1    1    2    0    0 -0.14617761258E-02 -0.17051202821E-02  0.39978095285E+01  0.39980102639E+01  0.40000000000E-01 0. -1.
</event>
<event>
 5   0  0.6200596E+07  0.9118800E+02  0.7818608E-02  0.1180000E+00
       11   -1    0    0    0    0  0.00000000000E+00  0.00000000000E+00  0.39999999673E+01  0.40000000000E+01  0.51109989000E-03 0. -1.
     -623   -1    0    0    0    0  0.00000000000E+00  0.00000000000E+00  0.12525980253E-10  0.17130000000E+03  0.17130000000E+03 0. -1.
       11    1    1    2    0    0 -0.80114620080E-03  0.27220345247E-02  0.39866143611E-03  0.29105769984E-02  0.51109989000E-03 0. -1.
     -623    1    1    2    0    0  0.21517377713E-02 -0.15285593708E-02  0.27124817565E-02  0.17130000004E+03  0.17130000000E+03 0. -1.
      622    1    1    2    0    0 -0.13505915705E-02 -0.11934751539E-02  0.39968888242E+01  0.39970893812E+01  0.40000000000E-01 0. -1.
</event>
<event>
 5   0  0.6200596E+07  0.9118800E+02  0.7818608E-02  0.1180000E+00
       11   -1    0    0    0    0  0.00000000000E+00  0.00000000000E+00  0.39999999673E+01  0.40000000000E+01  0.51109989000E-03 0.  1.
     -623   -1    0    0    0    0  0.00000000000E+00  0.00000000000E+00  0.12525980253E-10  0.17130000000E+03  0.17130000000E+03 0. -1.
       11    1    1    2    0    0  0.44773170468E-02  0.62271769810E-03  0.12437066034E+00  0.12445383288E+00  0.51109989000E-03 0.  1.
     -623    1    1    2    0    0 -0.91014798536E-02 -0.36291632356E-02  0.29377344672E-03  0.17130000028E+03  0.17130000000E+03 0. -1.
      622    1    1    2    0    0  0.46241628067E-02  0.30064455375E-02  0.38753355336E+01  0.38755458866E+01  0.40000000000E-01 0.  1.
</event>
<event>
 5   0  0.6200596E+07  0.9118800E+02  0.7818608E-02  0.1180000E+00
       11   -1    0    0    0    0  0.00000000000E+00  0.00000000000E+00  0.39999999673E+01  0.40000000000E+01  0.51109989000E-03 0.  1.
     -623   -1    0    0    0    0  0.00000000000E+00  0.00000000000E+00  0.12525980253E-10  0.17130000000E+03  0.17130000000E+03 0. -1.
       11    1    1    2    0    0 -0.23326118945E-01  0.30969093926E-02  0.15795179717E+01  0.15796933192E+01  0.51109989000E-03 0.  1.
     -623    1    1    2    0    0  0.20361761168E-01  0.14884998928E-01  0.57635711721E-03  0.17130000186E+03  0.17130000000E+03 0. -1.
      622    1    1    2    0    0  0.29643577774E-02 -0.17981908321E-01  0.24199056386E+01  0.24203048229E+01  0.40000000000E-01 0.  1.
</event>
<event>
 5   0  0.6200596E+07  0.9118800E+02  0.7818608E-02  0.1180000E+00
       11   -1    0    0    0    0  0.00000000000E+00  0.00000000000E+00  0.39999999673E+01  0.40000000000E+01  0.51109989000E-03 0. -1.
     -623   -1    0    0    0    0  0.00000000000E+00  0.00000000000E+00  0.12525980253E-10  0.17130000000E+03  0.17130000000E+03 0. -1.
       11    1    1    2    0    0 -0.79179990112E-01 -0.12072127678E-01  0.33021160816E+01  0.33030873565E+01  0.51109989000E-03 0. -1.
     -623    1    1    2    0    0 -0.19985329634E-01  0.84455906647E-02  0.92344407028E-02  0.17130000162E+03  0.17130000000E+03 0. -1.
      622    1    1    2    0    0  0.99165319746E-01  0.36265370132E-02  0.68864944506E+00  0.69691102057E+00  0.40000000000E-01 0.  1.
</event>
<event>
 5   0  0.6200596E+07  0.9118800E+02  0.7818608E-02  0.1180000E+00
       11   -1    0    0    0    0  0.00000000000E+00  0.00000000000E+00  0.39999999673E+01  0.40000000000E+01  0.51109989000E-03 0. -1.
     -623   -1    0    0    0    0  0.00000000000E+00  0.00000000000E+00  0.12525980253E-10  0.17130000000E+03  0.17130000000E+03 0. -1.
       11    1    1    2    0    0 -0.59872951208E-02 -0.69143261934E-02  0.58215837685E-01  0.58932169386E-01  0.51109989000E-03 0. -1.
     -623    1    1    2    0    0  0.12784051789E-01  0.69452571824E-03  0.93054541071E-03  0.17130000048E+03  0.17130000000E+03 0. -1.
      622    1    1    2    0    0 -0.67967566682E-02  0.62198004752E-02  0.39408535843E+01  0.39410673496E+01  0.40000000000E-01 0. -1.
</event>
<event>
 5   0  0.6200596E+07  0.9118800E+02  0.7818608E-02  0.1180000E+00
       11   -1    0    0    0    0  0.00000000000E+00  0.00000000000E+00  0.39999999673E+01  0.40000000000E+01  0.51109989000E-03 0.  1.
     -623   -1    0    0    0    0  0.00000000000E+00  0.00000000000E+00  0.12525980253E-10  0.17130000000E+03  0.17130000000E+03 0. -1.
       11    1    1    2    0    0  0.79308204074E-02 -0.12962512641E-01  0.11503349949E+00  0.11603401171E+00  0.51109989000E-03 0.  1.
     -623    1    1    2    0    0 -0.77604249314E-02  0.16383250312E-01  0.12089338150E-02  0.17130000096E+03  0.17130000000E+03 0. -1.
      622    1    1    2    0    0 -0.17039547606E-03 -0.34207376707E-02  0.38837575341E+01  0.38839650248E+01  0.40000000000E-01 0.  1.
</event>
<event>
 5   0  0.6200596E+07  0.9118800E+02  0.7818608E-02  0.1180000E+00
       11   -1    0    0    0    0  0.00000000000E+00  0.00000000000E+00  0.39999999673E+01  0.40000000000E+01  0.51109989000E-03 0. -1.
     -623   -1    0    0    0    0  0.00000000000E+00  0.00000000000E+00  0.12525980253E-10  0.17130000000E+03  0.17130000000E+03 0. -1.
       11    1    1    2    0    0  0.27912695757E-02  0.61507385673E-02  0.46953954847E+00  0.46958840655E+00  0.51109989000E-03 0. -1.
     -623    1    1    2    0    0  0.91508809048E-03 -0.27095064293E-02  0.27908221474E-03  0.17130000002E+03  0.17130000000E+03 0. -1.
      622    1    1    2    0    0 -0.37063576662E-02 -0.34412321380E-02  0.35301813367E+01  0.35304115693E+01  0.40000000000E-01 0. -1.
</event>
<event>
 5   0  0.6200596E+07  0.9118800E+02  0.7818608E-02  0.1180000E+00
       11   -1    0    0    0    0  0.00000000000E+00  0.00000000000E+00  0.39999999673E+01  0.40000000000E+01  0.51109989000E-03 0.  1.
     -623   -1    0    0    0    0  0.00000000000E+00  0.00000000000E+00  0.12525980253E-10  0.17130000000E+03  0.17130000000E+03 0. -1.
       11    1    1    2    0    0 -0.96126138923E-02 -0.10113349154E-01  0.51720451951E+00  0.51739294390E+00  0.51109989000E-03 0.  1.
     -623    1    1    2    0    0  0.67300035042E-02 -0.48029162966E-02  0.45145151418E-03  0.17130000020E+03  0.17130000000E+03 0. -1.
      622    1    1    2    0    0  0.28826103881E-02  0.14916265451E-01  0.34823439963E+01  0.34826068560E+01  0.40000000000E-01 0.  1.
</event>
<event>
 5   0  0.6200596E+07  0.9118800E+02  0.7818608E-02  0.1180000E+00
       11   -1    0    0    0    0  0.00000000000E+00  0.00000000000E+00  0.39999999673E+01  0.40000000000E+01  0.51109989000E-03 0. -1.
     -623   -1    0    0    0    0  0.00000000000E+00  0.00000000000E+00  0.12525980253E-10  0.17130000000E+03  0.17130000000E+03 0.  1.
       11    1    1    2    0    0 -0.29681274388E-01 -0.10657937367E-01  0.84247211123E+00  0.84306232813E+00  0.51109989000E-03 0. -1.
     -623    1    1    2    0    0 -0.85592019678E-02 -0.97796389655E-02  0.11419008321E-02  0.17130000050E+03  0.17130000000E+03 0.  1.
      622    1    1    2    0    0  0.38240476356E-01  0.20437576333E-01  0.31563859553E+01  0.31569371751E+01  0.40000000000E-01 0.  0.
</event>
<event>
 5   0  0.6200596E+07  0.9118800E+02  0.7818608E-02  0.1180000E+00
       11   -1    0    0    0    0  0.00000000000E+00  0.00000000000E+00  0.39999999673E+01  0.40000000000E+01  0.51109989000E-03 0. -1.
     -623   -1    0    0    0    0  0.00000000000E+00  0.00000000000E+00  0.12525980253E-10  0.17130000000E+03  0.17130000000E+03 0. -1.
       11    1    1    2    0    0  0.20292434076E-02 -0.51663169756E-02  0.60518894938E-01  0.60775048558E-01  0.51109989000E-03 0. -1.
     -623    1    1    2    0    0  0.58460399719E-03  0.21784022361E-03  0.46318917203E-03  0.17130000000E+03  0.17130000000E+03 0. -1.
      622    1    1    2    0    0 -0.26138474048E-02  0.49484767520E-02  0.39390178832E+01  0.39392249497E+01  0.40000000000E-01 0. -1.
</event>
<event>
 5   0  0.6200596E+07  0.9118800E+02  0.7818608E-02  0.1180000E+00
       11   -1    0    0    0    0  0.00000000000E+00  0.00000000000E+00  0.39999999673E+01  0.40000000000E+01  0.51109989000E-03 0. -1.
     -623   -1    0    0    0    0  0.00000000000E+00  0.00000000000E+00  0.12525980253E-10  0.17130000000E+03  0.17130000000E+03 0. -1.
       11    1    1    2    0    0  0.23164826993E-02  0.39111664152E-02  0.14143154266E-01  0.14864499666E-01  0.51109989000E-03 0. -1.
     -623    1    1    2    0    0  0.12131408364E-02 -0.13765756374E-02  0.92444535887E-03  0.17130000001E+03  0.17130000000E+03 0. -1.
      622    1    1    2    0    0 -0.35296235357E-02 -0.25345907778E-02  0.39849323677E+01  0.39851354880E+01  0.40000000000E-01 0. -1.
</event>
<event>
 5   0  0.6200596E+07  0.9118800E+02  0.7818608E-02  0.1180000E+00
       11   -1    0    0    0    0  0.00000000000E+00  0.00000000000E+00  0.39999999673E+01  0.40000000000E+01  0.51109989000E-03 0. -1.
     -623   -1    0    0    0    0  0.00000000000E+00  0.00000000000E+00  0.12525980253E-10  0.17130000000E+03  0.17130000000E+03 0. -1.
       11    1    1    2    0    0 -0.48264925069E-02 -0.17286939525E-02  0.12337425733E+01  0.12337533310E+01  0.51109989000E-03 0. -1.
     -623    1    1    2    0    0  0.19529121231E-02  0.11560514516E-01  0.31930905838E-03  0.17130000040E+03  0.17130000000E+03 0. -1.
      622    1    1    2    0    0  0.28735803838E-02 -0.98318205631E-02  0.27659380850E+01  0.27662462674E+01  0.40000000000E-01 0. -1.
</event>
<event>
 5   0  0.6200596E+07  0.9118800E+02  0.7818608E-02  0.1180000E+00
       11   -1    0    0    0    0  0.00000000000E+00  0.00000000000E+00  0.39999999673E+01  0.40000000000E+01  0.51109989000E-03 0. -1.
     -623   -1    0    0    0    0  0.00000000000E+00  0.00000000000E+00  0.12525980253E-10  0.17130000000E+03  0.17130000000E+03 0. -1.
       11    1    1    2    0    0  0.23304573346E-01  0.25530401198E-01  0.10277187489E+01  0.10283000499E+01  0.51109989000E-03 0. -1.
     -623    1    1    2    0    0 -0.28990692139E-01 -0.39139860497E-01  0.89402148365E-03  0.17130000693E+03  0.17130000000E+03 0. -1.
      622    1    1    2    0    0  0.56861187928E-02  0.13609459299E-01  0.29713871970E+01  0.29716930231E+01  0.40000000000E-01 0. -1.
</event>
<event>
 5   0  0.6200596E+07  0.9118800E+02  0.7818608E-02  0.1180000E+00
       11   -1    0    0    0    0  0.00000000000E+00  0.00000000000E+00  0.39999999673E+01  0.40000000000E+01  0.51109989000E-03 0.  1.
     -623   -1    0    0    0    0  0.00000000000E+00  0.00000000000E+00  0.12525980253E-10  0.17130000000E+03  0.17130000000E+03 0. -1.
       11    1    1    2    0    0 -0.20415293285E-02  0.45481008408E-03  0.17518492206E-01  0.17650311163E-01  0.51109989000E-03 0.  1.
     -623    1    1    2    0    0 -0.30487892224E-04 -0.78136391937E-03  0.33323237210E-03  0.17130000000E+03  0.17130000000E+03 0. -1.
      622    1    1    2    0    0  0.20720172207E-02  0.32655383530E-03  0.39821482428E+01  0.39823496867E+01  0.40000000000E-01 0.  1.
</event>
<event>
 5   0  0.6200596E+07  0.9118800E+02  0.7818608E-02  0.1180000E+00
       11   -1    0    0    0    0  0.00000000000E+00  0.00000000000E+00  0.39999999673E+01  0.40000000000E+01  0.51109989000E-03 0.  1.
     -623   -1    0    0    0    0  0.00000000000E+00  0.00000000000E+00  0.12525980253E-10  0.17130000000E+03  0.17130000000E+03 0. -1.
       11    1    1    2    0    0 -0.40660385624E-02  0.84785011353E-02  0.21587637224E+00  0.21608166734E+00  0.51109989000E-03 0.  1.
     -623    1    1    2    0    0 -0.36082865579E-02 -0.11401282167E-01  0.42601903215E-03  0.17130000042E+03  0.17130000000E+03 0. -1.
      622    1    1    2    0    0  0.76743251203E-02  0.29227810312E-02  0.37836975761E+01  0.37839179147E+01  0.40000000000E-01 0.  1.
</event>
<event>
 5   0  0.6200596E+07  0.9118800E+02  0.7818608E-02  0.1180000E+00
       11   -1    0    0    0    0  0.00000000000E+00  0.00000000000E+00  0.39999999673E+01  0.40000000000E+01  0.51109989000E-03 0.  1.
     -623   -1    0    0    0    0  0.00000000000E+00  0.00000000000E+00  0.12525980253E-10  0.17130000000E+03  0.17130000000E+03 0.  1.
       11    1    1    2    0    0 -0.37428818651E-02 -0.14678197654E-01  0.40577585238E+00  0.40605881624E+00  0.51109989000E-03 0.  1.
     -623    1    1    2    0    0  0.24812349605E-01  0.89128384696E-03  0.59554623398E-03  0.17130000180E+03  0.17130000000E+03 0.  1.
      622    1    1    2    0    0 -0.21069467740E-01  0.13786913807E-01  0.35936285687E+01  0.35939393834E+01  0.40000000000E-01 0.  0.
</event>
<event>
 5   0  0.6200596E+07  0.9118800E+02  0.7818608E-02  0.1180000E+00
       11   -1    0    0    0    0  0.00000000000E+00  0.00000000000E+00  0.39999999673E+01  0.40000000000E+01  0.51109989000E-03 0. -1.
     -623   -1    0    0    0    0  0.00000000000E+00  0.00000000000E+00  0.12525980253E-10  0.17130000000E+03  0.17130000000E+03 0.  1.
       11    1    1    2    0    0 -0.35427838532E-01  0.45301592048E-01  0.17061232510E+01  0.17070923158E+01  0.51109989000E-03 0. -1.
     -623    1    1    2    0    0  0.15623102096E-01 -0.56455827705E-02  0.17473380727E-02  0.17130000081E+03  0.17130000000E+03 0.  1.
      622    1    1    2    0    0  0.19804736435E-01 -0.39656009277E-01  0.22921293783E+01  0.22929068698E+01  0.40000000000E-01 0. -1.
</event>
<event>
 5   0  0.6200596E+07  0.9118800E+02  0.7818608E-02  0.1180000E+00
       11   -1    0    0    0    0  0.00000000000E+00  0.00000000000E+00  0.39999999673E+01  0.40000000000E+01  0.51109989000E-03 0.  1.
     -623   -1    0    0    0    0  0.00000000000E+00  0.00000000000E+00  0.12525980253E-10  0.17130000000E+03  0.17130000000E+03 0. -1.
       11    1    1    2    0    0 -0.48394606556E-02  0.18214645290E-02  0.35626423523E+00  0.35630212550E+00  0.51109989000E-03 0.  1.
     -623    1    1    2    0    0  0.65798915368E-03 -0.13093481265E-02  0.25986332769E-03  0.17130000001E+03  0.17130000000E+03 0. -1.
      622    1    1    2    0    0  0.41814715020E-02 -0.51211640250E-03  0.36434758688E+01  0.36436978680E+01  0.40000000000E-01 0.  1.
</event>
<event>
 5   0  0.6200596E+07  0.9118800E+02  0.7818608E-02  0.1180000E+00
       11   -1    0    0    0    0  0.00000000000E+00  0.00000000000E+00  0.39999999673E+01  0.40000000000E+01  0.51109989000E-03 0. -1.
     -623   -1    0    0    0    0  0.00000000000E+00  0.00000000000E+00  0.12525980253E-10  0.17130000000E+03  0.17130000000E+03 0.  1.
       11    1    1    2    0    0 -0.40643647653E-01 -0.37034671257E-01  0.19650148329E+01  0.19657840746E+01  0.51109989000E-03 0. -1.
     -623    1    1    2    0    0  0.78018540071E-02  0.35595354594E-01  0.14320903989E-02  0.17130000388E+03  0.17130000000E+03 0.  1.
      622    1    1    2    0    0  0.32841793646E-01  0.14393166632E-02  0.20335530440E+01  0.20342120435E+01  0.40000000000E-01 0.  1.
</event>
<event>
 5   0  0.6200596E+07  0.9118800E+02  0.7818608E-02  0.1180000E+00
       11   -1    0    0    0    0  0.00000000000E+00  0.00000000000E+00  0.39999999673E+01  0.40000000000E+01  0.51109989000E-03 0.  1.
     -623   -1    0    0    0    0  0.00000000000E+00  0.00000000000E+00  0.12525980253E-10  0.17130000000E+03  0.17130000000E+03 0. -1.
       11    1    1    2    0    0 -0.17723080671E-02  0.10448532285E-03  0.25230101809E-01  0.25297653085E-01  0.51109989000E-03 0.  1.
     -623    1    1    2    0    0  0.26998524628E-02  0.11204379441E-02  0.26911880835E-03  0.17130000003E+03  0.17130000000E+03 0. -1.
      622    1    1    2    0    0 -0.92754439571E-03 -0.12249232669E-02  0.39745007467E+01  0.39747023218E+01  0.40000000000E-01 0.  1.
</event>
<event>
 5   0  0.6200596E+07  0.9118800E+02  0.7818608E-02  0.1180000E+00
       11   -1    0    0    0    0  0.00000000000E+00  0.00000000000E+00  0.39999999673E+01  0.40000000000E+01  0.51109989000E-03 0. -1.
     -623   -1    0    0    0    0  0.00000000000E+00  0.00000000000E+00  0.12525980253E-10  0.17130000000E+03  0.17130000000E+03 0.  1.
       11    1    1    2    0    0 -0.52290877055E-02  0.13195096811E-03  0.35372991786E-01  0.35761299440E-01  0.51109989000E-03 0. -1.
     -623    1    1    2    0    0  0.17988638103E-04  0.70988734319E-03  0.59360147729E-03  0.17130000000E+03  0.17130000000E+03 0.  1.
      622    1    1    2    0    0  0.52110990674E-02 -0.84183831129E-03  0.39640333741E+01  0.39642386981E+01  0.40000000000E-01 0. -1.
</event>
<event>
 5   0  0.6200596E+07  0.9118800E+02  0.7818608E-02  0.1180000E+00
       11   -1    0    0    0    0  0.00000000000E+00  0.00000000000E+00  0.39999999673E+01  0.40000000000E+01  0.51109989000E-03 0.  1.
     -623   -1    0    0    0    0  0.00000000000E+00  0.00000000000E+00  0.12525980253E-10  0.17130000000E+03  0.17130000000E+03 0. -1.
       11    1    1    2    0    0 -0.46234192379E-02  0.13261020922E-03  0.74894397027E-01  0.75038826732E-01  0.51109989000E-03 0.  1.
     -623    1    1    2    0    0 -0.11527121601E-01  0.49469554434E-02  0.38520309031E-03  0.17130000046E+03  0.17130000000E+03 0. -1.
      622    1    1    2    0    0  0.16150540839E-01 -0.50795656526E-02  0.39247203672E+01  0.39249607136E+01  0.40000000000E-01 0.  0.
</event>
<event>
 5   0  0.6200596E+07  0.9118800E+02  0.7818608E-02  0.1180000E+00
       11   -1    0    0    0    0  0.00000000000E+00  0.00000000000E+00  0.39999999673E+01  0.40000000000E+01  0.51109989000E-03 0. -1.
     -623   -1    0    0    0    0  0.00000000000E+00  0.00000000000E+00  0.12525980253E-10  0.17130000000E+03  0.17130000000E+03 0.  1.
       11    1    1    2    0    0  0.51723462570E-03 -0.81066865975E-03  0.13680816577E-01  0.13724091168E-01  0.51109989000E-03 0. -1.
     -623    1    1    2    0    0  0.96741830081E-04  0.82889682954E-03  0.24398510328E-03  0.17130000000E+03  0.17130000000E+03 0.  1.
      622    1    1    2    0    0 -0.61397645578E-03 -0.18228169793E-04  0.39860751657E+01  0.39862759066E+01  0.40000000000E-01 0. -1.
</event>
<event>
 5   0  0.6200596E+07  0.9118800E+02  0.7818608E-02  0.1180000E+00
       11   -1    0    0    0    0  0.00000000000E+00  0.00000000000E+00  0.39999999673E+01  0.40000000000E+01  0.51109989000E-03 0. -1.
     -623   -1    0    0    0    0  0.00000000000E+00  0.00000000000E+00  0.12525980253E-10  0.17130000000E+03  0.17130000000E+03 0. -1.
       11    1    1    2    0    0  0.76631032424E-02 -0.37096607754E-02  0.30627766740E+00  0.30639640256E+00  0.51109989000E-03 0. -1.
     -623    1    1    2    0    0 -0.12691977936E-01  0.20055334478E-02  0.33959859110E-03  0.17130000048E+03  0.17130000000E+03 0. -1.
      622    1    1    2    0    0  0.50288746939E-02  0.17041273276E-02  0.36933827014E+01  0.36936031152E+01  0.40000000000E-01 0. -1.
</event>
<event>
 5   0  0.6200596E+07  0.9118800E+02  0.7818608E-02  0.1180000E+00
       11   -1    0    0    0    0  0.00000000000E+00  0.00000000000E+00  0.39999999673E+01  0.40000000000E+01  0.51109989000E-03 0.  1.
     -623   -1    0    0    0    0  0.00000000000E+00  0.00000000000E+00  0.12525980253E-10  0.17130000000E+03  0.17130000000E+03 0.  1.
       11    1    1    2    0    0  0.21927542469E-01  0.24321528786E-01  0.10744327204E+01  0.10749317587E+01  0.51109989000E-03 0.  1.
     -623    1    1    2    0    0  0.13341468055E-03 -0.10242749037E-01  0.88991204924E-03  0.17130000031E+03  0.17130000000E+03 0.  1.
      622    1    1    2    0    0 -0.22060957150E-01 -0.14078779749E-01  0.29246773349E+01  0.29250679327E+01  0.40000000000E-01 0.  1.
</event>
<event>
 5   0  0.6200596E+07  0.9118800E+02  0.7818608E-02  0.1180000E+00
       11   -1    0    0    0    0  0.00000000000E+00  0.00000000000E+00  0.39999999673E+01  0.40000000000E+01  0.51109989000E-03 0.  1.
     -623   -1    0    0    0    0  0.00000000000E+00  0.00000000000E+00  0.12525980253E-10  0.17130000000E+03  0.17130000000E+03 0.  1.
       11    1    1    2    0    0 -0.21932860574E-01  0.46860800870E-01  0.10142214312E+01  0.10155404265E+01  0.51109989000E-03 0.  1.
     -623    1    1    2    0    0  0.53847502916E-02  0.53173771657E-02  0.20892979696E-02  0.17130000018E+03  0.17130000000E+03 0.  1.
      622    1    1    2    0    0  0.16548110282E-01 -0.52178178036E-01  0.29836892381E+01  0.29844593936E+01  0.40000000000E-01 0.  1.
</event>
<event>
 5   0  0.6200596E+07  0.9118800E+02  0.7818608E-02  0.1180000E+00
       11   -1    0    0    0    0  0.00000000000E+00  0.00000000000E+00  0.39999999673E+01  0.40000000000E+01  0.51109989000E-03 0.  1.
     -623   -1    0    0    0    0  0.00000000000E+00  0.00000000000E+00  0.12525980253E-10  0.17130000000E+03  0.17130000000E+03 0.  1.
       11    1    1    2    0    0 -0.12993306900E-02 -0.10550848472E-02  0.74748505268E-01  0.74768989062E-01  0.51109989000E-03 0.  1.
     -623    1    1    2    0    0 -0.15955964628E-02 -0.82497399034E-02  0.23656916090E-03  0.17130000021E+03  0.17130000000E+03 0.  1.
      622    1    1    2    0    0  0.28949271529E-02  0.93048247506E-02  0.39250148929E+01  0.39252308047E+01  0.40000000000E-01 0.  1.
</event>
<event>
 5   0  0.6200596E+07  0.9118800E+02  0.7818608E-02  0.1180000E+00
       11   -1    0    0    0    0  0.00000000000E+00  0.00000000000E+00  0.39999999673E+01  0.40000000000E+01  0.51109989000E-03 0. -1.
     -623   -1    0    0    0    0  0.00000000000E+00  0.00000000000E+00  0.12525980253E-10  0.17130000000E+03  0.17130000000E+03 0.  1.
       11    1    1    2    0    0  0.80519112030E-02  0.25418067506E-01  0.56639420744E-01  0.62603487391E-01  0.51109989000E-03 0. -1.
     -623    1    1    2    0    0  0.56303045354E-02 -0.23221787033E-02  0.62589577107E-02  0.17130000022E+03  0.17130000000E+03 0.  1.
      622    1    1    2    0    0 -0.13682215738E-01 -0.23095888803E-01  0.39371015889E+01  0.39373962900E+01  0.40000000000E-01 0. -1.
</event>
<event>
 5   0  0.6200596E+07  0.9118800E+02  0.7818608E-02  0.1180000E+00
       11   -1    0    0    0    0  0.00000000000E+00  0.00000000000E+00  0.39999999673E+01  0.40000000000E+01  0.51109989000E-03 0.  1.
     -623   -1    0    0    0    0  0.00000000000E+00  0.00000000000E+00  0.12525980253E-10  0.17130000000E+03  0.17130000000E+03 0. -1.
       11    1    1    2    0    0  0.45675988235E-06  0.29879187832E-02  0.91019073333E-02  0.95934142366E-02  0.51109989000E-03 0.  1.
     -623    1    1    2    0    0 -0.82108350787E-03 -0.17932087498E-03  0.69303642036E-03  0.17130000000E+03  0.17130000000E+03 0. -1.
      622    1    1    2    0    0  0.82062674798E-03 -0.28085979082E-02  0.39902050236E+01  0.39904065823E+01  0.40000000000E-01 0.  1.
</event>
<event>
 5   0  0.6200596E+07  0.9118800E+02  0.7818608E-02  0.1180000E+00
       11   -1    0    0    0    0  0.00000000000E+00  0.00000000000E+00  0.39999999673E+01  0.40000000000E+01  0.51109989000E-03 0.  1.
     -623   -1    0    0    0    0  0.00000000000E+00  0.00000000000E+00  0.12525980253E-10  0.17130000000E+03  0.17130000000E+03 0.  1.
       11    1    1    2    0    0 -0.48644478580E-02 -0.50319386681E-02  0.11428193854E+00  0.11449718755E+00  0.51109989000E-03 0.  1.
     -623    1    1    2    0    0  0.63765865478E-03  0.17599162260E-03  0.42645089014E-03  0.17130000000E+03  0.17130000000E+03 0.  1.
      622    1    1    2    0    0  0.42267892032E-02  0.48559470455E-02  0.38852915779E+01  0.38855028106E+01  0.40000000000E-01 0.  0.
</event>
<event>
 5   0  0.6200596E+07  0.9118800E+02  0.7818608E-02  0.1180000E+00
       11   -1    0    0    0    0  0.00000000000E+00  0.00000000000E+00  0.39999999673E+01  0.40000000000E+01  0.51109989000E-03 0.  1.
     -623   -1    0    0    0    0  0.00000000000E+00  0.00000000000E+00  0.12525980253E-10  0.17130000000E+03  0.17130000000E+03 0.  1.
       11    1    1    2    0    0 -0.73334708142E-01  0.89532589635E-02  0.30087883852E+00  0.30981684420E+00  0.51109989000E-03 0.  1.
     -623    1    1    2    0    0  0.12080648013E-01 -0.50935262123E-02  0.96660131968E-02  0.17130000077E+03  0.17130000000E+03 0.  1.
      622    1    1    2    0    0  0.61254060129E-01 -0.38597327513E-02  0.36894551156E+01  0.36901823814E+01  0.40000000000E-01 0.  1.
</event>
<event>
 5   0  0.6200596E+07  0.9118800E+02  0.7818608E-02  0.1180000E+00
       11   -1    0    0    0    0  0.00000000000E+00  0.00000000000E+00  0.39999999673E+01  0.40000000000E+01  0.51109989000E-03 0. -1.
     -623   -1    0    0    0    0  0.00000000000E+00  0.00000000000E+00  0.12525980253E-10  0.17130000000E+03  0.17130000000E+03 0. -1.
       11    1    1    2    0    0  0.99311793125E-02  0.79462403891E-02  0.14624005668E-01  0.19387981371E-01  0.51109989000E-03 0. -1.
     -623    1    1    2    0    0 -0.10756080216E-01 -0.49884299568E-02  0.49665890455E-02  0.17130000048E+03  0.17130000000E+03 0. -1.
      622    1    1    2    0    0  0.82490090344E-03 -0.29578104323E-02  0.39804093726E+01  0.39806115363E+01  0.40000000000E-01 0. -1.
</event>
<event>
 5   0  0.6200596E+07  0.9118800E+02  0.7818608E-02  0.1180000E+00
       11   -1    0    0    0    0  0.00000000000E+00  0.00000000000E+00  0.39999999673E+01  0.40000000000E+01  0.51109989000E-03 0.  1.
     -623   -1    0    0    0    0  0.00000000000E+00  0.00000000000E+00  0.12525980253E-10  0.17130000000E+03  0.17130000000E+03 0. -1.
       11    1    1    2    0    0 -0.20400070546E-02  0.19596402013E-03  0.33685112044E-01  0.33751267009E-01  0.51109989000E-03 0.  1.
     -623    1    1    2    0    0  0.12454849813E-02  0.88345030180E-04  0.26792391215E-03  0.17130000000E+03  0.17130000000E+03 0. -1.
      622    1    1    2    0    0  0.79452207324E-03 -0.28430905031E-03  0.39660469314E+01  0.39662487282E+01  0.40000000000E-01 0.  1.
</event>
<event>
 5   0  0.6200596E+07  0.9118800E+02  0.7818608E-02  0.1180000E+00
       11   -1    0    0    0    0  0.00000000000E+00  0.00000000000E+00  0.39999999673E+01  0.40000000000E+01  0.51109989000E-03 0.  1.
     -623   -1    0    0    0    0  0.00000000000E+00  0.00000000000E+00  0.12525980253E-10  0.17130000000E+03  0.17130000000E+03 0.  1.
       11    1    1    2    0    0  0.10777237984E-02  0.22535363580E-02  0.32882283925E-01  0.32980990486E-01  0.51109989000E-03 0.  1.
     -623    1    1    2    0    0  0.17256422940E-02 -0.29194031400E-02  0.30142210348E-03  0.17130000003E+03  0.17130000000E+03 0.  1.
      622    1    1    2    0    0 -0.28033660923E-02  0.66586678193E-03  0.39668162613E+01  0.39670189757E+01  0.40000000000E-01 0.  1.
</event>
<event>
 5   0  0.6200596E+07  0.9118800E+02  0.7818608E-02  0.1180000E+00
       11   -1    0    0    0    0  0.00000000000E+00  0.00000000000E+00  0.39999999673E+01  0.40000000000E+01  0.51109989000E-03 0.  1.
     -623   -1    0    0    0    0  0.00000000000E+00  0.00000000000E+00  0.12525980253E-10  0.17130000000E+03  0.17130000000E+03 0.  1.
       11    1    1    2    0    0 -0.10375899690E-02  0.93717134122E-02  0.12907787199E+01  0.12908132594E+01  0.51109989000E-03 0.  1.
     -623    1    1    2    0    0 -0.96107839196E-03 -0.28103735251E-02  0.33852419592E-03  0.17130000003E+03  0.17130000000E+03 0.  1.
      622    1    1    2    0    0  0.19986683610E-02 -0.65613398871E-02  0.27088827233E+01  0.27091867145E+01  0.40000000000E-01 0.  1.
</event>
<event>
 5   0  0.6200596E+07  0.9118800E+02  0.7818608E-02  0.1180000E+00
       11   -1    0    0    0    0  0.00000000000E+00  0.00000000000E+00  0.39999999673E+01  0.40000000000E+01  0.51109989000E-03 0. -1.
     -623   -1    0    0    0    0  0.00000000000E+00  0.00000000000E+00  0.12525980253E-10  0.17130000000E+03  0.17130000000E+03 0.  1.
       11    1    1    2    0    0 -0.97622846321E-03  0.15127898099E-03  0.41088625791E+00  0.41088776335E+00  0.51109989000E-03 0. -1.
     -623    1    1    2    0    0 -0.11266313994E-02 -0.25622915731E-02  0.22582501175E-03  0.17130000002E+03  0.17130000000E+03 0.  1.
      622    1    1    2    0    0  0.21028598626E-02  0.24110125921E-02  0.35888878844E+01  0.35891122136E+01  0.40000000000E-01 0. -1.
</event>
<event>
 5   0  0.6200596E+07  0.9118800E+02  0.7818608E-02  0.1180000E+00
       11   -1    0    0    0    0  0.00000000000E+00  0.00000000000E+00  0.39999999673E+01  0.40000000000E+01  0.51109989000E-03 0. -1.
     -623   -1    0    0    0    0  0.00000000000E+00  0.00000000000E+00  0.12525980253E-10  0.17130000000E+03  0.17130000000E+03 0. -1.
       11    1    1    2    0    0  0.29889138807E-02  0.17180128992E-02  0.21939733509E-01  0.22214821684E-01  0.51109989000E-03 0. -1.
     -623    1    1    2    0    0  0.63685594479E-03 -0.40413269477E-02  0.47855815251E-03  0.17130000005E+03  0.17130000000E+03 0. -1.
      622    1    1    2    0    0 -0.36257698255E-02  0.23233140485E-02  0.39775816757E+01  0.39777851288E+01  0.40000000000E-01 0. -1.
</event>
<event>
 5   0  0.6200596E+07  0.9118800E+02  0.7818608E-02  0.1180000E+00
       11   -1    0    0    0    0  0.00000000000E+00  0.00000000000E+00  0.39999999673E+01  0.40000000000E+01  0.51109989000E-03 0.  1.
     -623   -1    0    0    0    0  0.00000000000E+00  0.00000000000E+00  0.12525980253E-10  0.17130000000E+03  0.17130000000E+03 0.  1.
       11    1    1    2    0    0  0.26595643542E-01 -0.10057738269E-01  0.60528793914E+00  0.60595563934E+00  0.51109989000E-03 0.  1.
     -623    1    1    2    0    0 -0.42255387553E-01  0.16915888591E-02  0.95504662989E-03  0.17130000522E+03  0.17130000000E+03 0.  1.
      622    1    1    2    0    0  0.15659744011E-01  0.83661494100E-02  0.33937569816E+01  0.33940391380E+01  0.40000000000E-01 0.  1.
</event>
<event>
 5   0  0.6200596E+07  0.9118800E+02  0.7818608E-02  0.1180000E+00
       11   -1    0    0    0    0  0.00000000000E+00  0.00000000000E+00  0.39999999673E+01  0.40000000000E+01  0.51109989000E-03 0. -1.
     -623   -1    0    0    0    0  0.00000000000E+00  0.00000000000E+00  0.12525980253E-10  0.17130000000E+03  0.17130000000E+03 0. -1.
       11    1    1    2    0    0 -0.83164315702E-03  0.14188982568E-02  0.43393831142E-02  0.46686583174E-02  0.51109989000E-03 0. -1.
     -623    1    1    2    0    0  0.53452498625E-03 -0.57133031794E-03  0.52958484644E-03  0.17130000000E+03  0.17130000000E+03 0. -1.
      622    1    1    2    0    0  0.29711817077E-03 -0.84756793881E-03  0.39951309994E+01  0.39953313391E+01  0.40000000000E-01 0. -1.
</event>
<event>
 5   0  0.6200596E+07  0.9118800E+02  0.7818608E-02  0.1180000E+00
       11   -1    0    0    0    0  0.00000000000E+00  0.00000000000E+00  0.39999999673E+01  0.40000000000E+01  0.51109989000E-03 0. -1.
     -623   -1    0    0    0    0  0.00000000000E+00  0.00000000000E+00  0.12525980253E-10  0.17130000000E+03  0.17130000000E+03 0. -1.
       11    1    1    2    0    0 -0.10121794630E+00 -0.17622906200E-01  0.23397689602E+01  0.23420236309E+01  0.51109989000E-03 0. -1.
     -623    1    1    2    0    0  0.10112275325E-01 -0.15693159013E-01  0.55794540402E-02  0.17130000111E+03  0.17130000000E+03 0. -1.
      622    1    1    2    0    0  0.91105670978E-01  0.33316065213E-01  0.16546515531E+01  0.16579752609E+01  0.40000000000E-01 0.  1.
</event>
<event>
 5   0  0.6200596E+07  0.9118800E+02  0.7818608E-02  0.1180000E+00
       11   -1    0    0    0    0  0.00000000000E+00  0.00000000000E+00  0.39999999673E+01  0.40000000000E+01  0.51109989000E-03 0. -1.
     -623   -1    0    0    0    0  0.00000000000E+00  0.00000000000E+00  0.12525980253E-10  0.17130000000E+03  0.17130000000E+03 0. -1.
       11    1    1    2    0    0 -0.12404702555E-01  0.12277853398E-02  0.22621458658E+00  0.22655834680E+00  0.51109989000E-03 0. -1.
     -623    1    1    2    0    0  0.28024390285E-04  0.82554854455E-03  0.57660184909E-03  0.17130000000E+03  0.17130000000E+03 0. -1.
      622    1    1    2    0    0  0.12376678165E-01 -0.20533338843E-02  0.37732087789E+01  0.37734416502E+01  0.40000000000E-01 0. -1.
</event>
<event>
 5   0  0.6200596E+07  0.9118800E+02  0.7818608E-02  0.1180000E+00
       11   -1    0    0    0    0  0.00000000000E+00  0.00000000000E+00  0.39999999673E+01  0.40000000000E+01  0.51109989000E-03 0.  1.
     -623   -1    0    0    0    0  0.00000000000E+00  0.00000000000E+00  0.12525980253E-10  0.17130000000E+03  0.17130000000E+03 0.  1.
       11    1    1    2    0    0  0.19313952114E-01  0.17376437845E-02  0.10717944773E+00  0.10892081247E+00  0.51109989000E-03 0.  1.
     -623    1    1    2    0    0  0.48045087003E-02  0.89924403476E-02  0.20367999434E-02  0.17130000032E+03  0.17130000000E+03 0.  1.
      622    1    1    2    0    0 -0.24118460814E-01 -0.10730084132E-01  0.38907837197E+01  0.38910788720E+01  0.40000000000E-01 0.  1.
</event>
<event>
 5   0  0.6200596E+07  0.9118800E+02  0.7818608E-02  0.1180000E+00
       11   -1    0    0    0    0  0.00000000000E+00  0.00000000000E+00  0.39999999673E+01  0.40000000000E+01  0.51109989000E-03 0.  1.
     -623   -1    0    0    0    0  0.00000000000E+00  0.00000000000E+00  0.12525980253E-10  0.17130000000E+03  0.17130000000E+03 0. -1.
       11    1    1    2    0    0  0.28477174229E-03 -0.11018332199E-02  0.63897177111E-02  0.65103645539E-02  0.51109989000E-03 0.  1.
     -623    1    1    2    0    0  0.15604631591E-02 -0.11005496636E-03  0.32156294071E-03  0.17130000001E+03  0.17130000000E+03 0. -1.
      622    1    1    2    0    0 -0.18452349014E-02  0.12118881863E-02  0.39932886867E+01  0.39934896280E+01  0.40000000000E-01 0.  1.
</event>
<event>
 5   0  0.6200596E+07  0.9118800E+02  0.7818608E-02  0.1180000E+00
       11   -1    0    0    0    0  0.00000000000E+00  0.00000000000E+00  0.39999999673E+01  0.40000000000E+01  0.51109989000E-03 0.  1.
     -623   -1    0    0    0    0  0.00000000000E+00  0.00000000000E+00  0.12525980253E-10  0.17130000000E+03  0.17130000000E+03 0.  1.
       11    1    1    2    0    0 -0.11679384723E-02 -0.39212405296E-03  0.37393904721E-02  0.39701516954E-02  0.51109989000E-03 0.  1.
     -623    1    1    2    0    0  0.99069824412E-03  0.14735886735E-02  0.43109232809E-03  0.17130000001E+03  0.17130000000E+03 0.  1.
      622    1    1    2    0    0  0.17724022815E-03 -0.10814646206E-02  0.39958294846E+01  0.39960298386E+01  0.40000000000E-01 0.  1.
</event>
<event>
 5   0  0.6200596E+07  0.9118800E+02  0.7818608E-02  0.1180000E+00
       11   -1    0    0    0    0  0.00000000000E+00  0.00000000000E+00  0.39999999673E+01  0.40000000000E+01  0.51109989000E-03 0.  1.
     -623   -1    0    0    0    0  0.00000000000E+00  0.00000000000E+00  0.12525980253E-10  0.17130000000E+03  0.17130000000E+03 0.  1.
       11    1    1    2    0    0 -0.67652077743E-03  0.99067359973E-02  0.12330992709E+00  0.12371014687E+00  0.51109989000E-03 0.  1.
     -623    1    1    2    0    0 -0.44698980409E-02 -0.58899413542E-03  0.62125207015E-03  0.17130000006E+03  0.17130000000E+03 0.  1.
      622    1    1    2    0    0  0.51464188183E-02 -0.93177418619E-02  0.38760687882E+01  0.38762897927E+01  0.40000000000E-01 0.  1.
</event>
<event>
 5   0  0.6200596E+07  0.9118800E+02  0.7818608E-02  0.1180000E+00
       11   -1    0    0    0    0  0.00000000000E+00  0.00000000000E+00  0.39999999673E+01  0.40000000000E+01  0.51109989000E-03 0.  1.
     -623   -1    0    0    0    0  0.00000000000E+00  0.00000000000E+00  0.12525980253E-10  0.17130000000E+03  0.17130000000E+03 0.  1.
       11    1    1    2    0    0  0.61169388928E-02 -0.31439915784E-02  0.33468067672E+00  0.33475172623E+00  0.51109989000E-03 0.  1.
     -623    1    1    2    0    0  0.78833375087E-03  0.43506121921E-03  0.29679848143E-03  0.17130000000E+03  0.17130000000E+03 0.  1.
      622    1    1    2    0    0 -0.69052726437E-02  0.27089303592E-02  0.36650224922E+01  0.36652482711E+01  0.40000000000E-01 0.  1.
</event>
<event>
 5   0  0.6200596E+07  0.9118800E+02  0.7818608E-02  0.1180000E+00
       11   -1    0    0    0    0  0.00000000000E+00  0.00000000000E+00  0.39999999673E+01  0.40000000000E+01  0.51109989000E-03 0.  1.
     -623   -1    0    0    0    0  0.00000000000E+00  0.00000000000E+00  0.12525980253E-10  0.17130000000E+03  0.17130000000E+03 0. -1.
       11    1    1    2    0    0  0.12087151595E-02  0.14431490108E-04  0.35040409395E-02  0.37417542308E-02  0.51109989000E-03 0.  1.
     -623    1    1    2    0    0 -0.65178211118E-03 -0.13926417218E-02  0.43815686712E-03  0.17130000001E+03  0.17130000000E+03 0. -1.
      622    1    1    2    0    0 -0.55693304828E-03  0.13782102317E-02  0.39960577696E+01  0.39962582383E+01  0.40000000000E-01 0.  1.
</event>
<event>
 5   0  0.6200596E+07  0.9118800E+02  0.7818608E-02  0.1180000E+00
       11   -1    0    0    0    0  0.00000000000E+00  0.00000000000E+00  0.39999999673E+01  0.40000000000E+01  0.51109989000E-03 0. -1.
     -623   -1    0    0    0    0  0.00000000000E+00  0.00000000000E+00  0.12525980253E-10  0.17130000000E+03  0.17130000000E+03 0. -1.
       11    1    1    2    0    0  0.27239438980E-03  0.31863364129E-03  0.70125956014E-02  0.70436811769E-02  0.51109989000E-03 0. -1.
     -623    1    1    2    0    0 -0.14586990175E-04 -0.39127691544E-03  0.23142035516E-03  0.17130000000E+03  0.17130000000E+03 0. -1.
      622    1    1    2    0    0 -0.25780739962E-03  0.72643274148E-04  0.39927559514E+01  0.39929563182E+01  0.40000000000E-01 0. -1.
</event>
<event>
 5   0  0.6200596E+07  0.9118800E+02  0.7818608E-02  0.1180000E+00
       11   -1    0    0    0    0  0.00000000000E+00  0.00000000000E+00  0.39999999673E+01  0.40000000000E+01  0.51109989000E-03 0.  1.
     -623   -1    0    0    0    0  0.00000000000E+00  0.00000000000E+00  0.12525980253E-10  0.17130000000E+03  0.17130000000E+03 0. -1.
       11    1    1    2    0    0 -0.29239679022E-03 -0.41653039874E-03  0.41308911959E-02  0.41933849598E-02  0.51109989000E-03 0.  1.
     -623    1    1    2    0    0  0.12104535018E-02 -0.26754400752E-03  0.26284474492E-03  0.17130000000E+03  0.17130000000E+03 0. -1.
      622    1    1    2    0    0 -0.91805671155E-03  0.68407440625E-03  0.39956062314E+01  0.39958066104E+01  0.40000000000E-01 0.  1.
</event>
<event>
 5   0  0.6200596E+07  0.9118800E+02  0.7818608E-02  0.1180000E+00
       11   -1    0    0    0    0  0.00000000000E+00  0.00000000000E+00  0.39999999673E+01  0.40000000000E+01  0.51109989000E-03 0. -1.
     -623   -1    0    0    0    0  0.00000000000E+00  0.00000000000E+00  0.12525980253E-10  0.17130000000E+03  0.17130000000E+03 0.  1.
       11    1    1    2    0    0 -0.79547424777E-02 -0.68842963640E-02  0.12340105102E+00  0.12384971569E+00  0.51109989000E-03 0. -1.
     -623    1    1    2    0    0 -0.24582572981E-02  0.30371032952E-02  0.67097074981E-03  0.17130000005E+03  0.17130000000E+03 0.  1.
      622    1    1    2    0    0  0.10412999776E-01  0.38471930689E-02  0.38759279456E+01  0.38761502384E+01  0.40000000000E-01 0. -1.
</event>
<event>
 5   0  0.6200596E+07  0.9118800E+02  0.7818608E-02  0.1180000E+00
       11   -1    0    0    0    0  0.00000000000E+00  0.00000000000E+00  0.39999999673E+01  0.40000000000E+01  0.51109989000E-03 0.  1.
     -623   -1    0    0    0    0  0.00000000000E+00  0.00000000000E+00  0.12525980253E-10  0.17130000000E+03  0.17130000000E+03 0.  1.
       11    1    1    2    0    0 -0.49594143213E-02  0.13418477839E-02  0.20001732394E-02  0.55369900925E-02  0.51109989000E-03 0.  1.
     -623    1    1    2    0    0  0.87754548765E-02 -0.62009292572E-02  0.37422228359E-02  0.17130000038E+03  0.17130000000E+03 0.  1.
      622    1    1    2    0    0 -0.38160405551E-02  0.48590814733E-02  0.39942575713E+01  0.39944626320E+01  0.40000000000E-01 0.  1.
</event>
<event>
 5   0  0.6200596E+07  0.9118800E+02  0.7818608E-02  0.1180000E+00
       11   -1    0    0    0    0  0.00000000000E+00  0.00000000000E+00  0.39999999673E+01  0.40000000000E+01  0.51109989000E-03 0.  1.
     -623   -1    0    0    0    0  0.00000000000E+00  0.00000000000E+00  0.12525980253E-10  0.17130000000E+03  0.17130000000E+03 0.  1.
       11    1    1    2    0    0 -0.24978178082E-01  0.22826801775E-02  0.15474573286E+01  0.15476606751E+01  0.51109989000E-03 0.  1.
     -623    1    1    2    0    0 -0.15388271231E-02 -0.62352791548E-03  0.67351206749E-03  0.17130000001E+03  0.17130000000E+03 0.  1.
      622    1    1    2    0    0  0.26517005205E-01 -0.16591522620E-02  0.24518691267E+01  0.24523393156E+01  0.40000000000E-01 0.  1.
</event>
<event>
 5   0  0.6200596E+07  0.9118800E+02  0.7818608E-02  0.1180000E+00
       11   -1    0    0    0    0  0.00000000000E+00  0.00000000000E+00  0.39999999673E+01  0.40000000000E+01  0.51109989000E-03 0. -1.
     -623   -1    0    0    0    0  0.00000000000E+00  0.00000000000E+00  0.12525980253E-10  0.17130000000E+03  0.17130000000E+03 0. -1.
       11    1    1    2    0    0  0.71435142534E-03  0.49031695389E-02  0.36642074975E-01  0.36979105577E-01  0.51109989000E-03 0. -1.
     -623    1    1    2    0    0 -0.19105005219E-02 -0.73139500801E-03  0.54125878243E-03  0.17130000001E+03  0.17130000000E+03 0. -1.
      622    1    1    2    0    0  0.11961490965E-02 -0.41717745309E-02  0.39628166336E+01  0.39630208814E+01  0.40000000000E-01 0. -1.
</event>
<event>
 5   0  0.6200596E+07  0.9118800E+02  0.7818608E-02  0.1180000E+00
       11   -1    0    0    0    0  0.00000000000E+00  0.00000000000E+00  0.39999999673E+01  0.40000000000E+01  0.51109989000E-03 0.  1.
     -623   -1    0    0    0    0  0.00000000000E+00  0.00000000000E+00  0.12525980253E-10  0.17130000000E+03  0.17130000000E+03 0. -1.
       11    1    1    2    0    0 -0.74722531710E-02 -0.16591870250E-01  0.57417838723E+00  0.57446688878E+00  0.51109989000E-03 0.  1.
     -623    1    1    2    0    0 -0.43935328488E-02 -0.98000977867E-02  0.64458495243E-03  0.17130000034E+03  0.17130000000E+03 0. -1.
      622    1    1    2    0    0  0.11865786020E-01  0.26391968037E-01  0.34251769952E+01  0.34255327733E+01  0.40000000000E-01 0.  0.
</event>
<event>
 5   0  0.6200596E+07  0.9118800E+02  0.7818608E-02  0.1180000E+00
       11   -1    0    0    0    0  0.00000000000E+00  0.00000000000E+00  0.39999999673E+01  0.40000000000E+01  0.51109989000E-03 0.  1.
     -623   -1    0    0    0    0  0.00000000000E+00  0.00000000000E+00  0.12525980253E-10  0.17130000000E+03  0.17130000000E+03 0.  1.
       11    1    1    2    0    0  0.11285932213E-01  0.26315851655E-01  0.33535308237E+01  0.33536531042E+01  0.51109989000E-03 0.  1.
     -623    1    1    2    0    0  0.32512237407E-02 -0.11553247497E-04  0.20616570333E-02  0.17130000004E+03  0.17130000000E+03 0.  1.
      622    1    1    2    0    0 -0.14537155954E-01 -0.26304298408E-01  0.64440748663E+00  0.64634685258E+00  0.40000000000E-01 0.  0.
</event>
<event>
 5   0  0.6200596E+07  0.9118800E+02  0.7818608E-02  0.1180000E+00
       11   -1    0    0    0    0  0.00000000000E+00  0.00000000000E+00  0.39999999673E+01  0.40000000000E+01  0.51109989000E-03 0.  1.
     -623   -1    0    0    0    0  0.00000000000E+00  0.00000000000E+00  0.12525980253E-10  0.17130000000E+03  0.17130000000E+03 0. -1.
       11    1    1    2    0    0 -0.96561434321E-02 -0.74092681045E-02  0.51685909139E-01  0.53102097745E-01  0.51109989000E-03 0.  1.
     -623    1    1    2    0    0 -0.12404198869E-02  0.35625132998E-02  0.16358183989E-02  0.17130000005E+03  0.17130000000E+03 0. -1.
      622    1    1    2    0    0  0.10896563319E-01  0.38467548047E-02  0.39466782398E+01  0.39468978529E+01  0.40000000000E-01 0.  1.
</event>
<event>
 5   0  0.6200596E+07  0.9118800E+02  0.7818608E-02  0.1180000E+00
       11   -1    0    0    0    0  0.00000000000E+00  0.00000000000E+00  0.39999999673E+01  0.40000000000E+01  0.51109989000E-03 0. -1.
     -623   -1    0    0    0    0  0.00000000000E+00  0.00000000000E+00  0.12525980253E-10  0.17130000000E+03  0.17130000000E+03 0.  1.
       11    1    1    2    0    0  0.10686666102E-01  0.14785079888E-01  0.16058245733E+00  0.16161618188E+00  0.51109989000E-03 0. -1.
     -623    1    1    2    0    0 -0.17948498331E-03 -0.16406173545E-01  0.12576333350E-02  0.17130000079E+03  0.17130000000E+03 0.  1.
      622    1    1    2    0    0 -0.10507181118E-01  0.16210936571E-02  0.38381598767E+01  0.38383830278E+01  0.40000000000E-01 0. -1.
</event>
<event>
 5   0  0.6200596E+07  0.9118800E+02  0.7818608E-02  0.1180000E+00
       11   -1    0    0    0    0  0.00000000000E+00  0.00000000000E+00  0.39999999673E+01  0.40000000000E+01  0.51109989000E-03 0. -1.
     -623   -1    0    0    0    0  0.00000000000E+00  0.00000000000E+00  0.12525980253E-10  0.17130000000E+03  0.17130000000E+03 0. -1.
       11    1    1    2    0    0  0.16608482104E-04 -0.36977850090E-03  0.60862008968E-02  0.61188295995E-02  0.51109989000E-03 0. -1.
     -623    1    1    2    0    0  0.16129142318E-02  0.38557586862E-03  0.23324815701E-03  0.17130000001E+03  0.17130000000E+03 0. -1.
      622    1    1    2    0    0 -0.16295227139E-02 -0.15797367727E-04  0.39936805183E+01  0.39938811622E+01  0.40000000000E-01 0. -1.
</event>
<event>
 5   0  0.6200596E+07  0.9118800E+02  0.7818608E-02  0.1180000E+00
       11   -1    0    0    0    0  0.00000000000E+00  0.00000000000E+00  0.39999999673E+01  0.40000000000E+01  0.51109989000E-03 0. -1.
     -623   -1    0    0    0    0  0.00000000000E+00  0.00000000000E+00  0.12525980253E-10  0.17130000000E+03  0.17130000000E+03 0.  1.
       11    1    1    2    0    0 -0.56915598979E-02  0.12783962274E-02  0.23623209712E+00  0.23630466157E+00  0.51109989000E-03 0. -1.
     -623    1    1    2    0    0  0.16261469505E-03 -0.16082173305E-02  0.28917849563E-03  0.17130000001E+03  0.17130000000E+03 0.  1.
      622    1    1    2    0    0  0.55289452028E-02  0.32982110307E-03  0.37634786917E+01  0.37636953306E+01  0.40000000000E-01 0. -1.
</event>
<event>
 5   0  0.6200596E+07  0.9118800E+02  0.7818608E-02  0.1180000E+00
       11   -1    0    0    0    0  0.00000000000E+00  0.00000000000E+00  0.39999999673E+01  0.40000000000E+01  0.51109989000E-03 0.  1.
     -623   -1    0    0    0    0  0.00000000000E+00  0.00000000000E+00  0.12525980253E-10  0.17130000000E+03  0.17130000000E+03 0. -1.
       11    1    1    2    0    0 -0.45343344271E-01 -0.61647012384E-02  0.26611244512E+00  0.27001873468E+00  0.51109989000E-03 0.  1.
     -623    1    1    2    0    0  0.75469730247E-02 -0.11483118620E-01  0.43546152883E-02  0.17130000061E+03  0.17130000000E+03 0. -1.
      622    1    1    2    0    0  0.37796371246E-01  0.17647819858E-01  0.37295329070E+01  0.37299806588E+01  0.40000000000E-01 0.  1.
</event>
<event>
 5   0  0.6200596E+07  0.9118800E+02  0.7818608E-02  0.1180000E+00
       11   -1    0    0    0    0  0.00000000000E+00  0.00000000000E+00  0.39999999673E+01  0.40000000000E+01  0.51109989000E-03 0. -1.
     -623   -1    0    0    0    0  0.00000000000E+00  0.00000000000E+00  0.12525980253E-10  0.17130000000E+03  0.17130000000E+03 0. -1.
       11    1    1    2    0    0  0.47026540872E-02 -0.97511756909E-04  0.20438000164E+00  0.20443475916E+00  0.51109989000E-03 0. -1.
     -623    1    1    2    0    0 -0.13914482979E-02  0.22449467815E-02  0.26757553031E-03  0.17130000002E+03  0.17130000000E+03 0. -1.
      622    1    1    2    0    0 -0.33112057892E-02 -0.21474350246E-02  0.37953523902E+01  0.37955652203E+01  0.40000000000E-01 0. -1.
</event>
<event>
 5   0  0.6200596E+07  0.9118800E+02  0.7818608E-02  0.1180000E+00
       11   -1    0    0    0    0  0.00000000000E+00  0.00000000000E+00  0.39999999673E+01  0.40000000000E+01  0.51109989000E-03 0. -1.
     -623   -1    0    0    0    0  0.00000000000E+00  0.00000000000E+00  0.12525980253E-10  0.17130000000E+03  0.17130000000E+03 0. -1.
       11    1    1    2    0    0  0.41832381513E-02 -0.27514749351E-02  0.34412627437E-01  0.34778732630E-01  0.51109989000E-03 0. -1.
     -623    1    1    2    0    0  0.17394351738E-03  0.23251924457E-02  0.57026567511E-03  0.17130000002E+03  0.17130000000E+03 0. -1.
      622    1    1    2    0    0 -0.43571816687E-02  0.42628248942E-03  0.39650170742E+01  0.39652212506E+01  0.40000000000E-01 0. -1.
</event>
<event>
 5   0  0.6200596E+07  0.9118800E+02  0.7818608E-02  0.1180000E+00
       11   -1    0    0    0    0  0.00000000000E+00  0.00000000000E+00  0.39999999673E+01  0.40000000000E+01  0.51109989000E-03 0.  1.
     -623   -1    0    0    0    0  0.00000000000E+00  0.00000000000E+00  0.12525980253E-10  0.17130000000E+03  0.17130000000E+03 0. -1.
       11    1    1    2    0    0  0.75644651341E-02 -0.34179471763E-02  0.21251746852E-01  0.22821074905E-01  0.51109989000E-03 0.  1.
     -623    1    1    2    0    0 -0.72534555411E-02  0.11657856058E-01  0.17795559433E-02  0.17130000056E+03  0.17130000000E+03 0. -1.
      622    1    1    2    0    0 -0.31100959301E-03 -0.82399088819E-02  0.39769686646E+01  0.39771783656E+01  0.40000000000E-01 0.  1.
</event>
<event>
 5   0  0.6200596E+07  0.9118800E+02  0.7818608E-02  0.1180000E+00
       11   -1    0    0    0    0  0.00000000000E+00  0.00000000000E+00  0.39999999673E+01  0.40000000000E+01  0.51109989000E-03 0. -1.
     -623   -1    0    0    0    0  0.00000000000E+00  0.00000000000E+00  0.12525980253E-10  0.17130000000E+03  0.17130000000E+03 0.  1.
       11    1    1    2    0    0 -0.10985807349E-01  0.27738581370E-02  0.19429623131E+01  0.19429954178E+01  0.51109989000E-03 0. -1.
     -623    1    1    2    0    0 -0.21379986539E-02  0.27584470869E-03  0.46617293514E-03  0.17130000001E+03  0.17130000000E+03 0.  1.
      622    1    1    2    0    0  0.13123806002E-01 -0.30497028456E-02  0.20565714813E+01  0.20570045680E+01  0.40000000000E-01 0. -1.
</event>
<event>
 5   0  0.6200596E+07  0.9118800E+02  0.7818608E-02  0.1180000E+00
       11   -1    0    0    0    0  0.00000000000E+00  0.00000000000E+00  0.39999999673E+01  0.40000000000E+01  0.51109989000E-03 0.  1.
     -623   -1    0    0    0    0  0.00000000000E+00  0.00000000000E+00  0.12525980253E-10  0.17130000000E+03  0.17130000000E+03 0. -1.
       11    1    1    2    0    0 -0.26196256824E-02 -0.35074185318E-02  0.13056770823E-01  0.13780599045E-01  0.51109989000E-03 0.  1.
     -623    1    1    2    0    0  0.89585584869E-04  0.13561445894E-02  0.92588341174E-03  0.17130000001E+03  0.17130000000E+03 0. -1.
      622    1    1    2    0    0  0.25300400976E-02  0.21512739424E-02  0.39860173131E+01  0.39862193931E+01  0.40000000000E-01 0.  1.
</event>
<event>
 5   0  0.6200596E+07  0.9118800E+02  0.7818608E-02  0.1180000E+00
       11   -1    0    0    0    0  0.00000000000E+00  0.00000000000E+00  0.39999999673E+01  0.40000000000E+01  0.51109989000E-03 0.  1.
     -623   -1    0    0    0    0  0.00000000000E+00  0.00000000000E+00  0.12525980253E-10  0.17130000000E+03  0.17130000000E+03 0. -1.
       11    1    1    2    0    0 -0.40657786914E-02 -0.18721010201E-02  0.15779513955E+00  0.15785943940E+00  0.51109989000E-03 0.  1.
     -623    1    1    2    0    0  0.36590771359E-02  0.76574034084E-03  0.27271195004E-03  0.17130000004E+03  0.17130000000E+03 0. -1.
      622    1    1    2    0    0  0.40670155556E-03  0.11063606792E-02  0.38419321159E+01  0.38421405196E+01  0.40000000000E-01 0.  1.
</event>
<event>
 5   0  0.6200596E+07  0.9118800E+02  0.7818608E-02  0.1180000E+00
       11   -1    0    0    0    0  0.00000000000E+00  0.00000000000E+00  0.39999999673E+01  0.40000000000E+01  0.51109989000E-03 0. -1.
     -623   -1    0    0    0    0  0.00000000000E+00  0.00000000000E+00  0.12525980253E-10  0.17130000000E+03  0.17130000000E+03 0. -1.
       11    1    1    2    0    0 -0.23648564488E-02  0.98790425582E-03  0.46557506709E-02  0.53390764436E-02  0.51109989000E-03 0. -1.
     -623    1    1    2    0    0  0.28922363429E-02 -0.22621038068E-02  0.88384514209E-03  0.17130000004E+03  0.17130000000E+03 0. -1.
      622    1    1    2    0    0 -0.52737989409E-03  0.12741995510E-02  0.39944603715E+01  0.39946608819E+01  0.40000000000E-01 0. -1.
</event>
<event>
 5   0  0.6200596E+07  0.9118800E+02  0.7818608E-02  0.1180000E+00
       11   -1    0    0    0    0  0.00000000000E+00  0.00000000000E+00  0.39999999673E+01  0.40000000000E+01  0.51109989000E-03 0. -1.
     -623   -1    0    0    0    0  0.00000000000E+00  0.00000000000E+00  0.12525980253E-10  0.17130000000E+03  0.17130000000E+03 0.  1.
       11    1    1    2    0    0  0.85790939231E-02 -0.25613588598E-01  0.23959663376E+00  0.24111504495E+00  0.51109989000E-03 0. -1.
     -623    1    1    2    0    0  0.41468764199E-02  0.56351525942E-02  0.18060059664E-02  0.17130000015E+03  0.17130000000E+03 0.  1.
      622    1    1    2    0    0 -0.12725970343E-01  0.19978436004E-01  0.37585973276E+01  0.37588848026E+01  0.40000000000E-01 0. -1.
</event>
<event>
 5   0  0.6200596E+07  0.9118800E+02  0.7818608E-02  0.1180000E+00
       11   -1    0    0    0    0  0.00000000000E+00  0.00000000000E+00  0.39999999673E+01  0.40000000000E+01  0.51109989000E-03 0. -1.
     -623   -1    0    0    0    0  0.00000000000E+00  0.00000000000E+00  0.12525980253E-10  0.17130000000E+03  0.17130000000E+03 0. -1.
       11    1    1    2    0    0  0.17145056910E-01  0.22307740046E-01  0.57665804379E+00  0.57734422049E+00  0.51109989000E-03 0. -1.
     -623    1    1    2    0    0 -0.74028699155E-02  0.40806050020E-03  0.10093055203E-02  0.17130000016E+03  0.17130000000E+03 0. -1.
      622    1    1    2    0    0 -0.97421869943E-02 -0.22715800546E-01  0.34223326180E+01  0.34226556161E+01  0.40000000000E-01 0. -1.
</event>
<event>
 5   0  0.6200596E+07  0.9118800E+02  0.7818608E-02  0.1180000E+00
       11   -1    0    0    0    0  0.00000000000E+00  0.00000000000E+00  0.39999999673E+01  0.40000000000E+01  0.51109989000E-03 0. -1.
     -623   -1    0    0    0    0  0.00000000000E+00  0.00000000000E+00  0.12525980253E-10  0.17130000000E+03  0.17130000000E+03 0. -1.
       11    1    1    2    0    0  0.18310333990E-01  0.10644613018E-01  0.25875447891E+01  0.25876315180E+01  0.51109989000E-03 0. -1.
     -623    1    1    2    0    0  0.19262782777E-02  0.23365549151E-01  0.12096385529E-02  0.17130000161E+03  0.17130000000E+03 0. -1.
      622    1    1    2    0    0 -0.20236612268E-01 -0.34010162169E-01  0.14112455397E+01  0.14123668733E+01  0.40000000000E-01 0.  0.
</event>
<event>
 5   0  0.6200596E+07  0.9118800E+02  0.7818608E-02  0.1180000E+00
       11   -1    0    0    0    0  0.00000000000E+00  0.00000000000E+00  0.39999999673E+01  0.40000000000E+01  0.51109989000E-03 0. -1.
     -623   -1    0    0    0    0  0.00000000000E+00  0.00000000000E+00  0.12525980253E-10  0.17130000000E+03  0.17130000000E+03 0.  1.
       11    1    1    2    0    0  0.32219809326E-02  0.66431949154E-02  0.32043349377E+00  0.32051895162E+00  0.51109989000E-03 0. -1.
     -623    1    1    2    0    0 -0.39251189821E-03  0.22440436651E-03  0.31035188749E-03  0.17130000000E+03  0.17130000000E+03 0.  1.
      622    1    1    2    0    0 -0.28294690344E-02 -0.68675992820E-02  0.36792561217E+01  0.36794810475E+01  0.40000000000E-01 0. -1.
</event>
<event>
 5   0  0.6200596E+07  0.9118800E+02  0.7818608E-02  0.1180000E+00
       11   -1    0    0    0    0  0.00000000000E+00  0.00000000000E+00  0.39999999673E+01  0.40000000000E+01  0.51109989000E-03 0. -1.
     -623   -1    0    0    0    0  0.00000000000E+00  0.00000000000E+00  0.12525980253E-10  0.17130000000E+03  0.17130000000E+03 0. -1.
       11    1    1    2    0    0  0.73443914370E-02 -0.43796457795E-02  0.46790458886E+00  0.46798299850E+00  0.51109989000E-03 0. -1.
     -623    1    1    2    0    0  0.48614349392E-02  0.10722842609E-01  0.33207665596E-03  0.17130000040E+03  0.17130000000E+03 0. -1.
      622    1    1    2    0    0 -0.12205826376E-01 -0.63431968291E-02  0.35317633018E+01  0.35320165966E+01  0.40000000000E-01 0. -1.
</event>
<event>
 5   0  0.6200596E+07  0.9118800E+02  0.7818608E-02  0.1180000E+00
       11   -1    0    0    0    0  0.00000000000E+00  0.00000000000E+00  0.39999999673E+01  0.40000000000E+01  0.51109989000E-03 0.  1.
     -623   -1    0    0    0    0  0.00000000000E+00  0.00000000000E+00  0.12525980253E-10  0.17130000000E+03  0.17130000000E+03 0. -1.
       11    1    1    2    0    0  0.49799515911E-02 -0.85028105554E-02  0.49543871836E+00  0.49553696389E+00  0.51109989000E-03 0.  1.
     -623    1    1    2    0    0 -0.28280314597E-02  0.13550292391E-01  0.33135621498E-03  0.17130000056E+03  0.17130000000E+03 0. -1.
      622    1    1    2    0    0 -0.21519201315E-02 -0.50474818351E-02  0.35042298928E+01  0.35044624765E+01  0.40000000000E-01 0.  1.
</event>
<event>
 5   0  0.6200596E+07  0.9118800E+02  0.7818608E-02  0.1180000E+00
       11   -1    0    0    0    0  0.00000000000E+00  0.00000000000E+00  0.39999999673E+01  0.40000000000E+01  0.51109989000E-03 0.  1.
     -623   -1    0    0    0    0  0.00000000000E+00  0.00000000000E+00  0.12525980253E-10  0.17130000000E+03  0.17130000000E+03 0.  1.
       11    1    1    2    0    0 -0.37884953677E-02 -0.19136845702E-01  0.24250740855E+00  0.24329133972E+00  0.51109989000E-03 0.  1.
     -623    1    1    2    0    0  0.29021762797E-02 -0.11026743465E-02  0.10515172311E-02  0.17130000003E+03  0.17130000000E+03 0.  1.
      622    1    1    2    0    0  0.88631908803E-03  0.20239520048E-01  0.37564410416E+01  0.37567086289E+01  0.40000000000E-01 0.  1.
</event>
<event>
 5   0  0.6200596E+07  0.9118800E+02  0.7818608E-02  0.1180000E+00
       11   -1    0    0    0    0  0.00000000000E+00  0.00000000000E+00  0.39999999673E+01  0.40000000000E+01  0.51109989000E-03 0.  1.
     -623   -1    0    0    0    0  0.00000000000E+00  0.00000000000E+00  0.12525980253E-10  0.17130000000E+03  0.17130000000E+03 0. -1.
       11    1    1    2    0    0 -0.82696075921E-02  0.53461333405E-02  0.28420263563E-01  0.30082223204E-01  0.51109989000E-03 0.  1.
     -623    1    1    2    0    0  0.47603873686E-02 -0.85688600511E-02  0.18665974944E-02  0.17130000029E+03  0.17130000000E+03 0. -1.
      622    1    1    2    0    0  0.35092202235E-02  0.32227267106E-02  0.39697131063E+01  0.39699174862E+01  0.40000000000E-01 0.  1.
</event>
<event>
 5   0  0.6200596E+07  0.9118800E+02  0.7818608E-02  0.1180000E+00
       11   -1    0    0    0    0  0.00000000000E+00  0.00000000000E+00  0.39999999673E+01  0.40000000000E+01  0.51109989000E-03 0. -1.
     -623   -1    0    0    0    0  0.00000000000E+00  0.00000000000E+00  0.12525980253E-10  0.17130000000E+03  0.17130000000E+03 0.  1.
       11    1    1    2    0    0 -0.42086424312E-02  0.29618664651E-02  0.18317867383E+00  0.18325166600E+00  0.51109989000E-03 0. -1.
     -623    1    1    2    0    0 -0.46799452475E-03 -0.44041004309E-03  0.28626743953E-03  0.17130000000E+03  0.17130000000E+03 0.  1.
      622    1    1    2    0    0  0.46766369560E-02 -0.25214564220E-02  0.38165350261E+01  0.38167483326E+01  0.40000000000E-01 0. -1.
</event>
<event>
 5   0  0.6200596E+07  0.9118800E+02  0.7818608E-02  0.1180000E+00
       11   -1    0    0    0    0  0.00000000000E+00  0.00000000000E+00  0.39999999673E+01  0.40000000000E+01  0.51109989000E-03 0. -1.
     -623   -1    0    0    0    0  0.00000000000E+00  0.00000000000E+00  0.12525980253E-10  0.17130000000E+03  0.17130000000E+03 0. -1.
       11    1    1    2    0    0 -0.11292620493E-01 -0.71845269018E-02  0.45401736325E-01  0.47336239691E-01  0.51109989000E-03 0. -1.
     -623    1    1    2    0    0  0.55077582953E-02  0.32566074272E-02  0.21431891401E-02  0.17130000013E+03  0.17130000000E+03 0. -1.
      622    1    1    2    0    0  0.57848621980E-02  0.39279194746E-02  0.39524550419E+01  0.39526636274E+01  0.40000000000E-01 0. -1.
</event>
<event>
 5   0  0.6200596E+07  0.9118800E+02  0.7818608E-02  0.1180000E+00
       11   -1    0    0    0    0  0.00000000000E+00  0.00000000000E+00  0.39999999673E+01  0.40000000000E+01  0.51109989000E-03 0. -1.
     -623   -1    0    0    0    0  0.00000000000E+00  0.00000000000E+00  0.12525980253E-10  0.17130000000E+03  0.17130000000E+03 0. -1.
       11    1    1    2    0    0 -0.70816736978E-02 -0.72961297207E-03  0.14630308990E+00  0.14647708959E+00  0.51109989000E-03 0. -1.
     -623    1    1    2    0    0  0.41726610287E-04  0.20926720312E-03  0.38804153084E-03  0.17130000000E+03  0.17130000000E+03 0. -1.
      622    1    1    2    0    0  0.70399470875E-02  0.52034576896E-03  0.38533088359E+01  0.38535229098E+01  0.40000000000E-01 0. -1.
</event>
<event>
 5   0  0.6200596E+07  0.9118800E+02  0.7818608E-02  0.1180000E+00
       11   -1    0    0    0    0  0.00000000000E+00  0.00000000000E+00  0.39999999673E+01  0.40000000000E+01  0.51109989000E-03 0.  1.
     -623   -1    0    0    0    0  0.00000000000E+00  0.00000000000E+00  0.12525980253E-10  0.17130000000E+03  0.17130000000E+03 0.  1.
       11    1    1    2    0    0 -0.46970415361E-02 -0.37206690514E-01  0.17458991973E+01  0.17463019981E+01  0.51109989000E-03 0.  1.
     -623    1    1    2    0    0  0.11232128185E-02  0.29393554819E-01  0.77667547505E-03  0.17130000253E+03  0.17130000000E+03 0.  1.
      622    1    1    2    0    0  0.35738287176E-02  0.78131356949E-02  0.22533240946E+01  0.22536954747E+01  0.40000000000E-01 0.  0.
</event>
<event>
 5   0  0.6200596E+07  0.9118800E+02  0.7818608E-02  0.1180000E+00
       11   -1    0    0    0    0  0.00000000000E+00  0.00000000000E+00  0.39999999673E+01  0.40000000000E+01  0.51109989000E-03 0. -1.
     -623   -1    0    0    0    0  0.00000000000E+00  0.00000000000E+00  0.12525980253E-10  0.17130000000E+03  0.17130000000E+03 0.  1.
       11    1    1    2    0    0  0.11405133475E-02 -0.58442516160E-03  0.11599960032E+01  0.11599968237E+01  0.51109989000E-03 0. -1.
     -623    1    1    2    0    0  0.98396828660E-02 -0.81858737022E-02  0.31774192178E-03  0.17130000048E+03  0.17130000000E+03 0.  1.
      622    1    1    2    0    0 -0.10980196213E-01  0.87702988638E-02  0.28396862222E+01  0.28400026978E+01  0.40000000000E-01 0.  1.
</event>
<event>
 5   0  0.6200596E+07  0.9118800E+02  0.7818608E-02  0.1180000E+00
       11   -1    0    0    0    0  0.00000000000E+00  0.00000000000E+00  0.39999999673E+01  0.40000000000E+01  0.51109989000E-03 0.  1.
     -623   -1    0    0    0    0  0.00000000000E+00  0.00000000000E+00  0.12525980253E-10  0.17130000000E+03  0.17130000000E+03 0.  1.
       11    1    1    2    0    0  0.24214057250E-02  0.21523038875E-03  0.48114389334E+00  0.48115030588E+00  0.51109989000E-03 0.  1.
     -623    1    1    2    0    0  0.90057009819E-04 -0.22007764213E-02  0.23520510440E-03  0.17130000001E+03  0.17130000000E+03 0.  1.
      622    1    1    2    0    0 -0.25114627349E-02  0.19855460326E-02  0.35186208689E+01  0.35188496798E+01  0.40000000000E-01 0.  1.
</event>
<event>
 5   0  0.6200596E+07  0.9118800E+02  0.7818608E-02  0.1180000E+00
       11   -1    0    0    0    0  0.00000000000E+00  0.00000000000E+00  0.39999999673E+01  0.40000000000E+01  0.51109989000E-03 0. -1.
     -623   -1    0    0    0    0  0.00000000000E+00  0.00000000000E+00  0.12525980253E-10  0.17130000000E+03  0.17130000000E+03 0.  1.
       11    1    1    2    0    0 -0.74464692518E-02  0.49649346725E-02  0.16973699333E+00  0.16997355267E+00  0.51109989000E-03 0. -1.
     -623    1    1    2    0    0  0.54242485576E-02  0.14214187663E-02  0.45135923786E-03  0.17130000009E+03  0.17130000000E+03 0.  1.
      622    1    1    2    0    0  0.20222206941E-02 -0.63863534388E-02  0.38298116148E+01  0.38300263550E+01  0.40000000000E-01 0. -1.
</event>
<event>
 5   0  0.6200596E+07  0.9118800E+02  0.7818608E-02  0.1180000E+00
       11   -1    0    0    0    0  0.00000000000E+00  0.00000000000E+00  0.39999999673E+01  0.40000000000E+01  0.51109989000E-03 0.  1.
     -623   -1    0    0    0    0  0.00000000000E+00  0.00000000000E+00  0.12525980253E-10  0.17130000000E+03  0.17130000000E+03 0.  1.
       11    1    1    2    0    0 -0.12553280134E-01 -0.11535547948E-02  0.59116566887E-01  0.60447872028E-01  0.51109989000E-03 0.  1.
     -623    1    1    2    0    0 -0.12703696674E-02  0.10299126233E-01  0.15695387668E-02  0.17130000032E+03  0.17130000000E+03 0.  1.
      622    1    1    2    0    0  0.13823649802E-01 -0.91455714381E-02  0.39393138617E+01  0.39395518065E+01  0.40000000000E-01 0.  1.
</event>
<event>
 5   0  0.6200596E+07  0.9118800E+02  0.7818608E-02  0.1180000E+00
       11   -1    0    0    0    0  0.00000000000E+00  0.00000000000E+00  0.39999999673E+01  0.40000000000E+01  0.51109989000E-03 0. -1.
     -623   -1    0    0    0    0  0.00000000000E+00  0.00000000000E+00  0.12525980253E-10  0.17130000000E+03  0.17130000000E+03 0.  1.
       11    1    1    2    0    0 -0.12457984921E-01  0.22893242720E-01  0.88345464498E+00  0.88383916688E+00  0.51109989000E-03 0. -1.
     -623    1    1    2    0    0 -0.16734517495E-01  0.11506108304E-02  0.87157557391E-03  0.17130000082E+03  0.17130000000E+03 0.  1.
      622    1    1    2    0    0  0.29192502415E-01 -0.24043853550E-01  0.31156737468E+01  0.31161600096E+01  0.40000000000E-01 0. -1.
</event>
<event>
 5   0  0.6200596E+07  0.9118800E+02  0.7818608E-02  0.1180000E+00
       11   -1    0    0    0    0  0.00000000000E+00  0.00000000000E+00  0.39999999673E+01  0.40000000000E+01  0.51109989000E-03 0. -1.
     -623   -1    0    0    0    0  0.00000000000E+00  0.00000000000E+00  0.12525980253E-10  0.17130000000E+03  0.17130000000E+03 0. -1.
       11    1    1    2    0    0 -0.68943688045E-02  0.12972027970E-02  0.45386655285E+00  0.45392105489E+00  0.51109989000E-03 0. -1.
     -623    1    1    2    0    0  0.10422357885E-02  0.80226346587E-02  0.29734646830E-03  0.17130000019E+03  0.17130000000E+03 0. -1.
      622    1    1    2    0    0  0.58521330160E-02 -0.93198374558E-02  0.35458360680E+01  0.35460787538E+01  0.40000000000E-01 0. -1.
</event>
<event>
 5   0  0.6200596E+07  0.9118800E+02  0.7818608E-02  0.1180000E+00
       11   -1    0    0    0    0  0.00000000000E+00  0.00000000000E+00  0.39999999673E+01  0.40000000000E+01  0.51109989000E-03 0.  1.
     -623   -1    0    0    0    0  0.00000000000E+00  0.00000000000E+00  0.12525980253E-10  0.17130000000E+03  0.17130000000E+03 0.  1.
       11    1    1    2    0    0 -0.12290258283E-01 -0.30857330146E-01  0.30412522404E+01  0.30414336548E+01  0.51109989000E-03 0.  1.
     -623    1    1    2    0    0  0.78650530742E-02  0.87906133763E-02  0.12812115864E-02  0.17130000041E+03  0.17130000000E+03 0.  1.
      622    1    1    2    0    0  0.44252052090E-02  0.22066716770E-01  0.95746651533E+00  0.95856593430E+00  0.40000000000E-01 0.  0.
</event>
<event>
 5   0  0.6200596E+07  0.9118800E+02  0.7818608E-02  0.1180000E+00
       11   -1    0    0    0    0  0.00000000000E+00  0.00000000000E+00  0.39999999673E+01  0.40000000000E+01  0.51109989000E-03 0.  1.
     -623   -1    0    0    0    0  0.00000000000E+00  0.00000000000E+00  0.12525980253E-10  0.17130000000E+03  0.17130000000E+03 0. -1.
       11    1    1    2    0    0 -0.40739384171E-02  0.24495540463E-03  0.96406946865E-02  0.10481469048E-01  0.51109989000E-03 0.  1.
     -623    1    1    2    0    0  0.11783045890E-03 -0.16394249606E-02  0.10434885827E-02  0.17130000001E+03  0.17130000000E+03 0. -1.
      622    1    1    2    0    0  0.39561079582E-02  0.13944695560E-02  0.39893157841E+01  0.39895185199E+01  0.40000000000E-01 0.  1.
</event>
<event>
 5   0  0.6200596E+07  0.9118800E+02  0.7818608E-02  0.1180000E+00
       11   -1    0    0    0    0  0.00000000000E+00  0.00000000000E+00  0.39999999673E+01  0.40000000000E+01  0.51109989000E-03 0.  1.
     -623   -1    0    0    0    0  0.00000000000E+00  0.00000000000E+00  0.12525980253E-10  0.17130000000E+03  0.17130000000E+03 0.  1.
       11    1    1    2    0    0 -0.76032147168E-01 -0.79461937654E-01  0.17477378515E+00  0.20649751606E+00  0.51109989000E-03 0.  1.
     -623    1    1    2    0    0  0.24823191965E-01 -0.44531347853E-01  0.34318538791E-01  0.17130001102E+03  0.17130000000E+03 0.  1.
      622    1    1    2    0    0  0.51208955203E-01  0.12399328551E+00  0.37909076434E+01  0.37934914594E+01  0.40000000000E-01 0.  1.
</event>
<event>
 5   0  0.6200596E+07  0.9118800E+02  0.7818608E-02  0.1180000E+00
       11   -1    0    0    0    0  0.00000000000E+00  0.00000000000E+00  0.39999999673E+01  0.40000000000E+01  0.51109989000E-03 0.  1.
     -623   -1    0    0    0    0  0.00000000000E+00  0.00000000000E+00  0.12525980253E-10  0.17130000000E+03  0.17130000000E+03 0.  1.
       11    1    1    2    0    0  0.35379054784E-01  0.49771033333E-02  0.11275351614E+00  0.11827960813E+00  0.51109989000E-03 0.  1.
     -623    1    1    2    0    0  0.10937239144E-01  0.73465970028E-02  0.60286821835E-02  0.17130000061E+03  0.17130000000E+03 0.  1.
      622    1    1    2    0    0 -0.46316293927E-01 -0.12323700336E-01  0.38812177690E+01  0.38817197791E+01  0.40000000000E-01 0.  1.
</event>
<event>
 5   0  0.6200596E+07  0.9118800E+02  0.7818608E-02  0.1180000E+00
       11   -1    0    0    0    0  0.00000000000E+00  0.00000000000E+00  0.39999999673E+01  0.40000000000E+01  0.51109989000E-03 0. -1.
     -623   -1    0    0    0    0  0.00000000000E+00  0.00000000000E+00  0.12525980253E-10  0.17130000000E+03  0.17130000000E+03 0.  1.
       11    1    1    2    0    0  0.38110813548E-02  0.10881249121E-01  0.17024182405E+01  0.17024573571E+01  0.51109989000E-03 0. -1.
     -623    1    1    2    0    0  0.53648687897E-02 -0.74969567806E-02  0.40837633562E-03  0.17130000025E+03  0.17130000000E+03 0.  1.
      622    1    1    2    0    0 -0.91759501445E-02 -0.33842923407E-02  0.22971733506E+01  0.22975423944E+01  0.40000000000E-01 0. -1.
</event>
<event>
 5   0  0.6200596E+07  0.9118800E+02  0.7818608E-02  0.1180000E+00
       11   -1    0    0    0    0  0.00000000000E+00  0.00000000000E+00  0.39999999673E+01  0.40000000000E+01  0.51109989000E-03 0. -1.
     -623   -1    0    0    0    0  0.00000000000E+00  0.00000000000E+00  0.12525980253E-10  0.17130000000E+03  0.17130000000E+03 0.  1.
       11    1    1    2    0    0 -0.39667580585E-02  0.17597068483E-02  0.60813637350E-01  0.60970414515E-01  0.51109989000E-03 0. -1.
     -623    1    1    2    0    0  0.24193767438E-03  0.48761755924E-03  0.36224905067E-03  0.17130000000E+03  0.17130000000E+03 0.  1.
      622    1    1    2    0    0  0.37248203841E-02 -0.22473244075E-02  0.39388240810E+01  0.39390295842E+01  0.40000000000E-01 0. -1.
</event>
<event>
 5   0  0.6200596E+07  0.9118800E+02  0.7818608E-02  0.1180000E+00
       11   -1    0    0    0    0  0.00000000000E+00  0.00000000000E+00  0.39999999673E+01  0.40000000000E+01  0.51109989000E-03 0.  1.
     -623   -1    0    0    0    0  0.00000000000E+00  0.00000000000E+00  0.12525980253E-10  0.17130000000E+03  0.17130000000E+03 0. -1.
       11    1    1    2    0    0 -0.13879557755E-01 -0.30709734065E-01  0.25512689527E+01  0.25514915756E+01  0.51109989000E-03 0.  1.
     -623    1    1    2    0    0  0.11658346003E-01 -0.34333618909E-02  0.11797339970E-02  0.17130000044E+03  0.17130000000E+03 0. -1.
      622    1    1    2    0    0  0.22212117524E-02  0.34143095956E-01  0.14475512806E+01  0.14485079892E+01  0.40000000000E-01 0.  1.
</event>
<event>
 5   0  0.6200596E+07  0.9118800E+02  0.7818608E-02  0.1180000E+00
       11   -1    0    0    0    0  0.00000000000E+00  0.00000000000E+00  0.39999999673E+01  0.40000000000E+01  0.51109989000E-03 0. -1.
     -623   -1    0    0    0    0  0.00000000000E+00  0.00000000000E+00  0.12525980253E-10  0.17130000000E+03  0.17130000000E+03 0.  1.
       11    1    1    2    0    0  0.73684473249E-02 -0.84789105166E-02  0.39536779794E+00  0.39552767642E+00  0.51109989000E-03 0. -1.
     -623    1    1    2    0    0 -0.92397812283E-02  0.16881337665E-01  0.39316060564E-03  0.17130000108E+03  0.17130000000E+03 0.  1.
      622    1    1    2    0    0  0.18713339034E-02 -0.84024271482E-02  0.36042390088E+01  0.36044712421E+01  0.40000000000E-01 0. -1.
</event>
<event>
 5   0  0.6200596E+07  0.9118800E+02  0.7818608E-02  0.1180000E+00
       11   -1    0    0    0    0  0.00000000000E+00  0.00000000000E+00  0.39999999673E+01  0.40000000000E+01  0.51109989000E-03 0. -1.
     -623   -1    0    0    0    0  0.00000000000E+00  0.00000000000E+00  0.12525980253E-10  0.17130000000E+03  0.17130000000E+03 0. -1.
       11    1    1    2    0    0  0.20360017041E-01 -0.75847736984E-02  0.14862883807E+00  0.15020935994E+00  0.51109989000E-03 0. -1.
     -623    1    1    2    0    0 -0.20732728833E-02  0.67684483617E-02  0.18319751454E-02  0.17130000016E+03  0.17130000000E+03 0. -1.
      622    1    1    2    0    0 -0.18286744157E-01  0.81632533671E-03  0.38495391541E+01  0.38497904840E+01  0.40000000000E-01 0. -1.
</event>
<event>
 5   0  0.6200596E+07  0.9118800E+02  0.7818608E-02  0.1180000E+00
       11   -1    0    0    0    0  0.00000000000E+00  0.00000000000E+00  0.39999999673E+01  0.40000000000E+01  0.51109989000E-03 0.  1.
     -623   -1    0    0    0    0  0.00000000000E+00  0.00000000000E+00  0.12525980253E-10  0.17130000000E+03  0.17130000000E+03 0. -1.
       11    1    1    2    0    0  0.11043805791E-02 -0.43078016793E-03  0.52819274044E-02  0.54373896058E-02  0.51109989000E-03 0.  1.
     -623    1    1    2    0    0 -0.16075046363E-02 -0.72372030162E-03  0.35591479336E-03  0.17130000001E+03  0.17130000000E+03 0. -1.
      622    1    1    2    0    0  0.50312405730E-03  0.11545004695E-02  0.39943621252E+01  0.39945626010E+01  0.40000000000E-01 0.  1.
</event>
<event>
 5   0  0.6200596E+07  0.9118800E+02  0.7818608E-02  0.1180000E+00
       11   -1    0    0    0    0  0.00000000000E+00  0.00000000000E+00  0.39999999673E+01  0.40000000000E+01  0.51109989000E-03 0.  1.
     -623   -1    0    0    0    0  0.00000000000E+00  0.00000000000E+00  0.12525980253E-10  0.17130000000E+03  0.17130000000E+03 0. -1.
       11    1    1    2    0    0  0.30803607171E-01 -0.11340329163E-01  0.82421815893E+00  0.82487168700E+00  0.51109989000E-03 0.  1.
     -623    1    1    2    0    0 -0.31421876488E-01 -0.38537709514E-03  0.93006227164E-03  0.17130000288E+03  0.17130000000E+03 0. -1.
      622    1    1    2    0    0  0.61826931665E-03  0.11725706258E-01  0.31748517462E+01  0.31751254282E+01  0.40000000000E-01 0.  1.
</event>
<event>
 5   0  0.6200596E+07  0.9118800E+02  0.7818608E-02  0.1180000E+00
       11   -1    0    0    0    0  0.00000000000E+00  0.00000000000E+00  0.39999999673E+01  0.40000000000E+01  0.51109989000E-03 0.  1.
     -623   -1    0    0    0    0  0.00000000000E+00  0.00000000000E+00  0.12525980253E-10  0.17130000000E+03  0.17130000000E+03 0.  1.
       11    1    1    2    0    0  0.95670494348E-02  0.46597564178E-01  0.26656226146E+01  0.26660470825E+01  0.51109989000E-03 0.  1.
     -623    1    1    2    0    0 -0.19630184480E-01 -0.16267942730E-01  0.14091774471E-02  0.17130000190E+03  0.17130000000E+03 0.  1.
      622    1    1    2    0    0  0.10063135045E-01 -0.30329621448E-01  0.13329681753E+01  0.13339510145E+01  0.40000000000E-01 0.  1.
</event>
<event>
 5   0  0.6200596E+07  0.9118800E+02  0.7818608E-02  0.1180000E+00
       11   -1    0    0    0    0  0.00000000000E+00  0.00000000000E+00  0.39999999673E+01  0.40000000000E+01  0.51109989000E-03 0. -1.
     -623   -1    0    0    0    0  0.00000000000E+00  0.00000000000E+00  0.12525980253E-10  0.17130000000E+03  0.17130000000E+03 0. -1.
       11    1    1    2    0    0 -0.30404636695E-02  0.57877018911E-03  0.30879051085E-01  0.31037983360E-01  0.51109989000E-03 0. -1.
     -623    1    1    2    0    0 -0.42383575800E-03 -0.50542369026E-03  0.36198309911E-03  0.17130000000E+03  0.17130000000E+03 0. -1.
      622    1    1    2    0    0  0.34642994275E-02 -0.73346498850E-04  0.39687589332E+01  0.39689620150E+01  0.40000000000E-01 0. -1.
</event>
<event>
 5   0  0.6200596E+07  0.9118800E+02  0.7818608E-02  0.1180000E+00
       11   -1    0    0    0    0  0.00000000000E+00  0.00000000000E+00  0.39999999673E+01  0.40000000000E+01  0.51109989000E-03 0.  1.
     -623   -1    0    0    0    0  0.00000000000E+00  0.00000000000E+00  0.12525980253E-10  0.17130000000E+03  0.17130000000E+03 0. -1.
       11    1    1    2    0    0 -0.96837601568E-03  0.46705829595E-02  0.22107422144E-01  0.22621923732E-01  0.51109989000E-03 0.  1.
     -623    1    1    2    0    0 -0.67623615018E-02 -0.15527226327E-02  0.72448914066E-03  0.17130000014E+03  0.17130000000E+03 0. -1.
      622    1    1    2    0    0  0.77307375175E-02 -0.31178603268E-02  0.39771680561E+01  0.39773779342E+01  0.40000000000E-01 0.  1.
</event>
<event>
 5   0  0.6200596E+07  0.9118800E+02  0.7818608E-02  0.1180000E+00
       11   -1    0    0    0    0  0.00000000000E+00  0.00000000000E+00  0.39999999673E+01  0.40000000000E+01  0.51109989000E-03 0.  1.
     -623   -1    0    0    0    0  0.00000000000E+00  0.00000000000E+00  0.12525980253E-10  0.17130000000E+03  0.17130000000E+03 0.  1.
       11    1    1    2    0    0 -0.11172354541E-02 -0.49528264482E-02  0.10417118154E+01  0.10417243139E+01  0.51109989000E-03 0.  1.
     -623    1    1    2    0    0  0.15088914691E-01 -0.14168194527E-01  0.37895584853E-03  0.17130000125E+03  0.17130000000E+03 0.  1.
      622    1    1    2    0    0 -0.13971679237E-01  0.19121020975E-01  0.29579091961E+01  0.29582744352E+01  0.40000000000E-01 0.  1.
</event>
<event>
 5   0  0.6200596E+07  0.9118800E+02  0.7818608E-02  0.1180000E+00
       11   -1    0    0    0    0  0.00000000000E+00  0.00000000000E+00  0.39999999673E+01  0.40000000000E+01  0.51109989000E-03 0.  1.
     -623   -1    0    0    0    0  0.00000000000E+00  0.00000000000E+00  0.12525980253E-10  0.17130000000E+03  0.17130000000E+03 0.  1.
       11    1    1    2    0    0  0.51370105667E-01  0.16124636257E-02  0.80015852746E+00  0.80180759418E+00  0.51109989000E-03 0.  1.
     -623    1    1    2    0    0 -0.10341407722E-01  0.22057774003E-02  0.21650090194E-02  0.17130000034E+03  0.17130000000E+03 0.  1.
      622    1    1    2    0    0 -0.41028697944E-01 -0.38182410260E-02  0.31976764309E+01  0.31981920658E+01  0.40000000000E-01 0.  1.
</event>
<event>
 5   0  0.6200596E+07  0.9118800E+02  0.7818608E-02  0.1180000E+00
       11   -1    0    0    0    0  0.00000000000E+00  0.00000000000E+00  0.39999999673E+01  0.40000000000E+01  0.51109989000E-03 0.  1.
     -623   -1    0    0    0    0  0.00000000000E+00  0.00000000000E+00  0.12525980253E-10  0.17130000000E+03  0.17130000000E+03 0.  1.
       11    1    1    2    0    0  0.31265577052E-03  0.14027853239E-02  0.45115309938E-02  0.47624252811E-02  0.51109989000E-03 0.  1.
     -623    1    1    2    0    0 -0.46541810314E-04 -0.21076291955E-02  0.45118967825E-03  0.17130000001E+03  0.17130000000E+03 0.  1.
      622    1    1    2    0    0 -0.26611396021E-03  0.70484387158E-03  0.39950372467E+01  0.39952375612E+01  0.40000000000E-01 0.  1.
</event>
<event>
 5   0  0.6200596E+07  0.9118800E+02  0.7818608E-02  0.1180000E+00
       11   -1    0    0    0    0  0.00000000000E+00  0.00000000000E+00  0.39999999673E+01  0.40000000000E+01  0.51109989000E-03 0.  1.
     -623   -1    0    0    0    0  0.00000000000E+00  0.00000000000E+00  0.12525980253E-10  0.17130000000E+03  0.17130000000E+03 0. -1.
       11    1    1    2    0    0  0.23219220008E-02  0.16479976698E-02  0.66367344458E-01  0.66430360908E-01  0.51109989000E-03 0.  1.
     -623    1    1    2    0    0 -0.40854204645E-03 -0.44455866889E-02  0.26788533166E-03  0.17130000006E+03  0.17130000000E+03 0. -1.
      622    1    1    2    0    0 -0.19133799543E-02  0.27975890191E-02  0.39333647376E+01  0.39335695807E+01  0.40000000000E-01 0.  1.
</event>
<event>
 5   0  0.6200596E+07  0.9118800E+02  0.7818608E-02  0.1180000E+00
       11   -1    0    0    0    0  0.00000000000E+00  0.00000000000E+00  0.39999999673E+01  0.40000000000E+01  0.51109989000E-03 0. -1.
     -623   -1    0    0    0    0  0.00000000000E+00  0.00000000000E+00  0.12525980253E-10  0.17130000000E+03  0.17130000000E+03 0. -1.
       11    1    1    2    0    0  0.70404820271E-02  0.39736865140E-02  0.11124619853E+00  0.11154073911E+00  0.51109989000E-03 0. -1.
     -623    1    1    2    0    0  0.15006320185E-02 -0.10357607798E-01  0.51519254112E-03  0.17130000032E+03  0.17130000000E+03 0. -1.
      622    1    1    2    0    0 -0.85411140457E-02  0.63839212844E-02  0.38882385763E+01  0.38884589404E+01  0.40000000000E-01 0. -1.
</event>
<event>
 5   0  0.6200596E+07  0.9118800E+02  0.7818608E-02  0.1180000E+00
       11   -1    0    0    0    0  0.00000000000E+00  0.00000000000E+00  0.39999999673E+01  0.40000000000E+01  0.51109989000E-03 0. -1.
     -623   -1    0    0    0    0  0.00000000000E+00  0.00000000000E+00  0.12525980253E-10  0.17130000000E+03  0.17130000000E+03 0. -1.
       11    1    1    2    0    0 -0.14345913480E-01 -0.11118645185E-01  0.81681384328E+00  0.81701563344E+00  0.51109989000E-03 0. -1.
     -623    1    1    2    0    0 -0.11180338841E-02  0.10611303229E-02  0.50657038341E-03  0.17130000001E+03  0.17130000000E+03 0. -1.
      622    1    1    2    0    0  0.15463947364E-01  0.10057514862E-01  0.31826795537E+01  0.31829843589E+01  0.40000000000E-01 0.  0.
</event>
<event>
 5   0  0.6200596E+07  0.9118800E+02  0.7818608E-02  0.1180000E+00
       11   -1    0    0    0    0  0.00000000000E+00  0.00000000000E+00  0.39999999673E+01  0.40000000000E+01  0.51109989000E-03 0.  1.
     -623   -1    0    0    0    0  0.00000000000E+00  0.00000000000E+00  0.12525980253E-10  0.17130000000E+03  0.17130000000E+03 0.  1.
       11    1    1    2    0    0 -0.42674394393E-02 -0.31037019892E-02  0.97890037556E-01  0.98033487546E-01  0.51109989000E-03 0.  1.
     -623    1    1    2    0    0  0.17125533938E-02 -0.11607100421E-02  0.35162727603E-03  0.17130000001E+03  0.17130000000E+03 0.  1.
      622    1    1    2    0    0  0.25548860455E-02  0.42644120313E-02  0.39017583025E+01  0.39019664996E+01  0.40000000000E-01 0.  1.
</event>
<event>
 5   0  0.6200596E+07  0.9118800E+02  0.7818608E-02  0.1180000E+00
       11   -1    0    0    0    0  0.00000000000E+00  0.00000000000E+00  0.39999999673E+01  0.40000000000E+01  0.51109989000E-03 0.  1.
     -623   -1    0    0    0    0  0.00000000000E+00  0.00000000000E+00  0.12525980253E-10  0.17130000000E+03  0.17130000000E+03 0.  1.
       11    1    1    2    0    0 -0.80773650536E-01 -0.37287869576E-01  0.24756310545E+01  0.24772291269E+01  0.51109989000E-03 0.  1.
     -623    1    1    2    0    0  0.34422706257E-01  0.14889762918E-01  0.29983259579E-02  0.17130000413E+03  0.17130000000E+03 0.  1.
      622    1    1    2    0    0  0.46350944279E-01  0.22398106658E-01  0.15213705869E+01  0.15227667411E+01  0.40000000000E-01 0.  0.
</event>
<event>
 5   0  0.6200596E+07  0.9118800E+02  0.7818608E-02  0.1180000E+00
       11   -1    0    0    0    0  0.00000000000E+00  0.00000000000E+00  0.39999999673E+01  0.40000000000E+01  0.51109989000E-03 0.  1.
     -623   -1    0    0    0    0  0.00000000000E+00  0.00000000000E+00  0.12525980253E-10  0.17130000000E+03  0.17130000000E+03 0. -1.
       11    1    1    2    0    0  0.14475480357E-01 -0.93665799307E-02  0.35456513837E+00  0.35498446575E+00  0.51109989000E-03 0.  1.
     -623    1    1    2    0    0 -0.94898950138E-02 -0.19802125928E-02  0.66012673681E-03  0.17130000028E+03  0.17130000000E+03 0. -1.
      622    1    1    2    0    0 -0.49855853433E-02  0.11346792523E-01  0.36447747022E+01  0.36450152587E+01  0.40000000000E-01 0.  1.
</event>
<event>
 5   0  0.6200596E+07  0.9118800E+02  0.7818608E-02  0.1180000E+00
       11   -1    0    0    0    0  0.00000000000E+00  0.00000000000E+00  0.39999999673E+01  0.40000000000E+01  0.51109989000E-03 0.  1.
     -623   -1    0    0    0    0  0.00000000000E+00  0.00000000000E+00  0.12525980253E-10  0.17130000000E+03  0.17130000000E+03 0. -1.
       11    1    1    2    0    0  0.44462849868E-02  0.33375097388E-03  0.20985284708E+00  0.20990083251E+00  0.51109989000E-03 0.  1.
     -623    1    1    2    0    0 -0.15275801116E-03 -0.12089243501E-02  0.26157257330E-03  0.17130000000E+03  0.17130000000E+03 0. -1.
      622    1    1    2    0    0 -0.42935269757E-02  0.87517337618E-03  0.37898855477E+01  0.37900991630E+01  0.40000000000E-01 0.  1.
</event>
<event>
 5   0  0.6200596E+07  0.9118800E+02  0.7818608E-02  0.1180000E+00
       11   -1    0    0    0    0  0.00000000000E+00  0.00000000000E+00  0.39999999673E+01  0.40000000000E+01  0.51109989000E-03 0. -1.
     -623   -1    0    0    0    0  0.00000000000E+00  0.00000000000E+00  0.12525980253E-10  0.17130000000E+03  0.17130000000E+03 0. -1.
       11    1    1    2    0    0 -0.63506126410E-04  0.30481142583E-03  0.61963740114E-02  0.62252080290E-02  0.51109989000E-03 0. -1.
     -623    1    1    2    0    0  0.34280556009E-02 -0.43958323013E-03  0.23057274407E-03  0.17130000004E+03  0.17130000000E+03 0. -1.
      622    1    1    2    0    0 -0.33645494745E-02  0.13477180430E-03  0.39935730206E+01  0.39937747570E+01  0.40000000000E-01 0. -1.
</event>
<event>
 5   0  0.6200596E+07  0.9118800E+02  0.7818608E-02  0.1180000E+00
       11   -1    0    0    0    0  0.00000000000E+00  0.00000000000E+00  0.39999999673E+01  0.40000000000E+01  0.51109989000E-03 0.  1.
     -623   -1    0    0    0    0  0.00000000000E+00  0.00000000000E+00  0.12525980253E-10  0.17130000000E+03  0.17130000000E+03 0. -1.
       11    1    1    2    0    0  0.80290646267E-04 -0.20666306256E-02  0.60738607862E-02  0.64366462287E-02  0.51109989000E-03 0.  1.
     -623    1    1    2    0    0  0.19096849696E-02  0.10425535829E-02  0.56372205628E-03  0.17130000001E+03  0.17130000000E+03 0. -1.
      622    1    1    2    0    0 -0.19899756158E-02  0.10240770426E-02  0.39933623845E+01  0.39935633390E+01  0.40000000000E-01 0.  1.
</event>
<event>
 5   0  0.6200596E+07  0.9118800E+02  0.7818608E-02  0.1180000E+00
       11   -1    0    0    0    0  0.00000000000E+00  0.00000000000E+00  0.39999999673E+01  0.40000000000E+01  0.51109989000E-03 0.  1.
     -623   -1    0    0    0    0  0.00000000000E+00  0.00000000000E+00  0.12525980253E-10  0.17130000000E+03  0.17130000000E+03 0. -1.
       11    1    1    2    0    0  0.12332882026E-01  0.29532875864E-01  0.24555841396E+01  0.24557927474E+01  0.51109989000E-03 0.  1.
     -623    1    1    2    0    0  0.84697140422E-02 -0.75513047908E-02  0.10238065663E-02  0.17130000038E+03  0.17130000000E+03 0. -1.
      622    1    1    2    0    0 -0.20802596068E-01 -0.21981571073E-01  0.15433920212E+01  0.15442068737E+01  0.40000000000E-01 0. -1.
</event>
<event>
 5   0  0.6200596E+07  0.9118800E+02  0.7818608E-02  0.1180000E+00
       11   -1    0    0    0    0  0.00000000000E+00  0.00000000000E+00  0.39999999673E+01  0.40000000000E+01  0.51109989000E-03 0. -1.
     -623   -1    0    0    0    0  0.00000000000E+00  0.00000000000E+00  0.12525980253E-10  0.17130000000E+03  0.17130000000E+03 0.  1.
       11    1    1    2    0    0 -0.13096126005E-03 -0.30071323655E-02  0.13141228759E-01  0.13491223505E-01  0.51109989000E-03 0. -1.
     -623    1    1    2    0    0  0.12363329675E-02  0.50738248372E-03  0.55158713373E-03  0.17130000001E+03  0.17130000000E+03 0.  1.
      622    1    1    2    0    0 -0.11053717074E-02  0.24997498818E-02  0.39863071515E+01  0.39865087704E+01  0.40000000000E-01 0. -1.
</event>
<event>
 5   0  0.6200596E+07  0.9118800E+02  0.7818608E-02  0.1180000E+00
       11   -1    0    0    0    0  0.00000000000E+00  0.00000000000E+00  0.39999999673E+01  0.40000000000E+01  0.51109989000E-03 0.  1.
     -623   -1    0    0    0    0  0.00000000000E+00  0.00000000000E+00  0.12525980253E-10  0.17130000000E+03  0.17130000000E+03 0. -1.
       11    1    1    2    0    0  0.26078662094E-02  0.26062110214E-02  0.26772340891E-02  0.45849869365E-02  0.51109989000E-03 0.  1.
     -623    1    1    2    0    0 -0.32281051352E-02 -0.27886978216E-02  0.21080731400E-02  0.17130000007E+03  0.17130000000E+03 0. -1.
      622    1    1    2    0    0  0.62023892578E-03  0.18248680020E-03  0.39952146601E+01  0.39954149470E+01  0.40000000000E-01 0.  1.
</event>
<event>
 5   0  0.6200596E+07  0.9118800E+02  0.7818608E-02  0.1180000E+00
       11   -1    0    0    0    0  0.00000000000E+00  0.00000000000E+00  0.39999999673E+01  0.40000000000E+01  0.51109989000E-03 0.  1.
     -623   -1    0    0    0    0  0.00000000000E+00  0.00000000000E+00  0.12525980253E-10  0.17130000000E+03  0.17130000000E+03 0.  1.
       11    1    1    2    0    0 -0.89354721852E-03  0.12440561969E-02  0.40019418356E-02  0.43154214645E-02  0.51109989000E-03 0.  1.
     -623    1    1    2    0    0  0.19947992656E-02 -0.35780342839E-03  0.51393082679E-03  0.17130000001E+03  0.17130000000E+03 0.  1.
      622    1    1    2    0    0 -0.11012520471E-02 -0.88625276855E-03  0.39954840947E+01  0.39956845658E+01  0.40000000000E-01 0.  1.
</event>
<event>
 5   0  0.6200596E+07  0.9118800E+02  0.7818608E-02  0.1180000E+00
       11   -1    0    0    0    0  0.00000000000E+00  0.00000000000E+00  0.39999999673E+01  0.40000000000E+01  0.51109989000E-03 0.  1.
     -623   -1    0    0    0    0  0.00000000000E+00  0.00000000000E+00  0.12525980253E-10  0.17130000000E+03  0.17130000000E+03 0.  1.
       11    1    1    2    0    0 -0.23100564596E-02  0.37990627648E-03  0.99644902815E-01  0.99673710517E-01  0.51109989000E-03 0.  1.
     -623    1    1    2    0    0  0.80292139970E-03  0.11054939329E-03  0.23421561945E-03  0.17130000000E+03  0.17130000000E+03 0.  1.
      622    1    1    2    0    0  0.15071350599E-02 -0.49045566977E-03  0.39001208489E+01  0.39003262874E+01  0.40000000000E-01 0.  1.
</event>
<event>
 5   0  0.6200596E+07  0.9118800E+02  0.7818608E-02  0.1180000E+00
       11   -1    0    0    0    0  0.00000000000E+00  0.00000000000E+00  0.39999999673E+01  0.40000000000E+01  0.51109989000E-03 0.  1.
     -623   -1    0    0    0    0  0.00000000000E+00  0.00000000000E+00  0.12525980253E-10  0.17130000000E+03  0.17130000000E+03 0. -1.
       11    1    1    2    0    0  0.26966478810E-01  0.32583220080E-01  0.28497833205E+01  0.28500972075E+01  0.51109989000E-03 0.  1.
     -623    1    1    2    0    0 -0.24046589454E-01 -0.44283731181E-01  0.10804708725E-02  0.17130000742E+03  0.17130000000E+03 0. -1.
      622    1    1    2    0    0 -0.29198893558E-02  0.11700511101E-01  0.11491361760E+01  0.11498953772E+01  0.40000000000E-01 0.  1.
</event>
<event>
 5   0  0.6200596E+07  0.9118800E+02  0.7818608E-02  0.1180000E+00
       11   -1    0    0    0    0  0.00000000000E+00  0.00000000000E+00  0.39999999673E+01  0.40000000000E+01  0.51109989000E-03 0.  1.
     -623   -1    0    0    0    0  0.00000000000E+00  0.00000000000E+00  0.12525980253E-10  0.17130000000E+03  0.17130000000E+03 0.  1.
       11    1    1    2    0    0  0.11222892424E-02 -0.19699948537E-02  0.72189670337E+00  0.72190044464E+00  0.51109989000E-03 0.  1.
     -623    1    1    2    0    0  0.17088396424E-02  0.29746937202E-03  0.24941986335E-03  0.17130000001E+03  0.17130000000E+03 0.  1.
      622    1    1    2    0    0 -0.28311288848E-02  0.16725254817E-02  0.32778538441E+01  0.32780995464E+01  0.40000000000E-01 0.  1.
</event>
<event>
 5   0  0.6200596E+07  0.9118800E+02  0.7818608E-02  0.1180000E+00
       11   -1    0    0    0    0  0.00000000000E+00  0.00000000000E+00  0.39999999673E+01  0.40000000000E+01  0.51109989000E-03 0.  1.
     -623   -1    0    0    0    0  0.00000000000E+00  0.00000000000E+00  0.12525980253E-10  0.17130000000E+03  0.17130000000E+03 0. -1.
       11    1    1    2    0    0  0.32928770445E-02 -0.44709728032E-02  0.17679177067E-01  0.18537722648E-01  0.51109989000E-03 0.  1.
     -623    1    1    2    0    0 -0.21465396078E-03 -0.14396720048E-02  0.10650362387E-02  0.17130000001E+03  0.17130000000E+03 0. -1.
      622    1    1    2    0    0 -0.30782230837E-02  0.59106448080E-02  0.39812557541E+01  0.39814622679E+01  0.40000000000E-01 0.  1.
</event>
<event>
 5   0  0.6200596E+07  0.9118800E+02  0.7818608E-02  0.1180000E+00
       11   -1    0    0    0    0  0.00000000000E+00  0.00000000000E+00  0.39999999673E+01  0.40000000000E+01  0.51109989000E-03 0.  1.
     -623   -1    0    0    0    0  0.00000000000E+00  0.00000000000E+00  0.12525980253E-10  0.17130000000E+03  0.17130000000E+03 0.  1.
       11    1    1    2    0    0 -0.29699806764E-02  0.12329303573E-01  0.38719324296E+00  0.38740121467E+00  0.51109989000E-03 0.  1.
     -623    1    1    2    0    0 -0.47445270224E-03 -0.91956036111E-03  0.44905792071E-03  0.17130000000E+03  0.17130000000E+03 0.  1.
      622    1    1    2    0    0  0.34444333787E-02 -0.11409743212E-01  0.36123576665E+01  0.36125987816E+01  0.40000000000E-01 0.  0.
</event>
<event>
 5   0  0.6200596E+07  0.9118800E+02  0.7818608E-02  0.1180000E+00
       11   -1    0    0    0    0  0.00000000000E+00  0.00000000000E+00  0.39999999673E+01  0.40000000000E+01  0.51109989000E-03 0.  1.
     -623   -1    0    0    0    0  0.00000000000E+00  0.00000000000E+00  0.12525980253E-10  0.17130000000E+03  0.17130000000E+03 0.  1.
       11    1    1    2    0    0 -0.13002979031E-01 -0.38974309613E-02  0.22344120549E+00  0.22385374906E+00  0.51109989000E-03 0.  1.
     -623    1    1    2    0    0  0.19030065705E-01 -0.15021120106E-02  0.63410875501E-03  0.17130000106E+03  0.17130000000E+03 0.  1.
      622    1    1    2    0    0 -0.60270866733E-02  0.53995429719E-02  0.37759246531E+01  0.37761451861E+01  0.40000000000E-01 0.  1.
</event>
<event>
 5   0  0.6200596E+07  0.9118800E+02  0.7818608E-02  0.1180000E+00
       11   -1    0    0    0    0  0.00000000000E+00  0.00000000000E+00  0.39999999673E+01  0.40000000000E+01  0.51109989000E-03 0.  1.
     -623   -1    0    0    0    0  0.00000000000E+00  0.00000000000E+00  0.12525980253E-10  0.17130000000E+03  0.17130000000E+03 0.  1.
       11    1    1    2    0    0 -0.80999812241E-02 -0.23359948498E-02  0.10393207988E+01  0.10393551129E+01  0.51109989000E-03 0.  1.
     -623    1    1    2    0    0  0.46067061788E-02 -0.35778921395E-02  0.31257283950E-03  0.17130000010E+03  0.17130000000E+03 0.  1.
      622    1    1    2    0    0  0.34932750453E-02  0.59138869894E-02  0.29603665957E+01  0.29606447875E+01  0.40000000000E-01 0.  1.
</event>
<event>
 5   0  0.6200596E+07  0.9118800E+02  0.7818608E-02  0.1180000E+00
       11   -1    0    0    0    0  0.00000000000E+00  0.00000000000E+00  0.39999999673E+01  0.40000000000E+01  0.51109989000E-03 0. -1.
     -623   -1    0    0    0    0  0.00000000000E+00  0.00000000000E+00  0.12525980253E-10  0.17130000000E+03  0.17130000000E+03 0. -1.
       11    1    1    2    0    0  0.21577233769E-02  0.94237078030E-03  0.17947515342E-01  0.18108516270E-01  0.51109989000E-03 0. -1.
     -623    1    1    2    0    0 -0.38575870019E-02  0.11272948232E-03  0.36242940616E-03  0.17130000004E+03  0.17130000000E+03 0. -1.
      622    1    1    2    0    0  0.16998636250E-02 -0.10551002626E-02  0.39816900226E+01  0.39818914399E+01  0.40000000000E-01 0. -1.
</event>
<event>
 5   0  0.6200596E+07  0.9118800E+02  0.7818608E-02  0.1180000E+00
       11   -1    0    0    0    0  0.00000000000E+00  0.00000000000E+00  0.39999999673E+01  0.40000000000E+01  0.51109989000E-03 0.  1.
     -623   -1    0    0    0    0  0.00000000000E+00  0.00000000000E+00  0.12525980253E-10  0.17130000000E+03  0.17130000000E+03 0. -1.
       11    1    1    2    0    0 -0.14142116533E-02 -0.70333531527E-02  0.24823333228E+00  0.24833750528E+00  0.51109989000E-03 0.  1.
     -623    1    1    2    0    0 -0.41396285434E-02  0.13666555312E-02  0.32583198228E-03  0.17130000006E+03  0.17130000000E+03 0. -1.
      622    1    1    2    0    0  0.55538401967E-02  0.56666976215E-02  0.37514408031E+01  0.37516624389E+01  0.40000000000E-01 0.  1.
</event>
<event>
 5   0  0.6200596E+07  0.9118800E+02  0.7818608E-02  0.1180000E+00
       11   -1    0    0    0    0  0.00000000000E+00  0.00000000000E+00  0.39999999673E+01  0.40000000000E+01  0.51109989000E-03 0.  1.
     -623   -1    0    0    0    0  0.00000000000E+00  0.00000000000E+00  0.12525980253E-10  0.17130000000E+03  0.17130000000E+03 0.  1.
       11    1    1    2    0    0 -0.15428174964E-03 -0.14306896077E-01  0.33607731565E-01  0.36530150830E-01  0.51109989000E-03 0.  1.
     -623    1    1    2    0    0 -0.13823902671E-01  0.37353221732E-02  0.31636123786E-02  0.17130000063E+03  0.17130000000E+03 0.  1.
      622    1    1    2    0    0  0.13978184420E-01  0.10571573904E-01  0.39632286234E+01  0.39634692214E+01  0.40000000000E-01 0.  1.
</event>
<event>
 5   0  0.6200596E+07  0.9118800E+02  0.7818608E-02  0.1180000E+00
       11   -1    0    0    0    0  0.00000000000E+00  0.00000000000E+00  0.39999999673E+01  0.40000000000E+01  0.51109989000E-03 0.  1.
     -623   -1    0    0    0    0  0.00000000000E+00  0.00000000000E+00  0.12525980253E-10  0.17130000000E+03  0.17130000000E+03 0. -1.
       11    1    1    2    0    0  0.40611730546E-02 -0.47978484840E-02  0.77381783578E-01  0.77638354748E-01  0.51109989000E-03 0.  1.
     -623    1    1    2    0    0 -0.21823038797E-03  0.33248087493E-02  0.46269489792E-03  0.17130000003E+03  0.17130000000E+03 0. -1.
      622    1    1    2    0    0 -0.38429426667E-02  0.14730397347E-02  0.39221554889E+01  0.39223616122E+01  0.40000000000E-01 0.  1.
</event>
<event>
 5   0  0.6200596E+07  0.9118800E+02  0.7818608E-02  0.1180000E+00
       11   -1    0    0    0    0  0.00000000000E+00  0.00000000000E+00  0.39999999673E+01  0.40000000000E+01  0.51109989000E-03 0.  1.
     -623   -1    0    0    0    0  0.00000000000E+00  0.00000000000E+00  0.12525980253E-10  0.17130000000E+03  0.17130000000E+03 0. -1.
       11    1    1    2    0    0  0.33620173624E-01  0.60585387819E-02  0.22384889288E+01  0.22387496438E+01  0.51109989000E-03 0.  1.
     -623    1    1    2    0    0  0.32851245501E-02 -0.47997406955E-03  0.11106381284E-02  0.17130000004E+03  0.17130000000E+03 0. -1.
      622    1    1    2    0    0 -0.36905298174E-01 -0.55785647123E-02  0.17604004004E+01  0.17612503204E+01  0.40000000000E-01 0.  0.
</event>
<event>
 5   0  0.6200596E+07  0.9118800E+02  0.7818608E-02  0.1180000E+00
       11   -1    0    0    0    0  0.00000000000E+00  0.00000000000E+00  0.39999999673E+01  0.40000000000E+01  0.51109989000E-03 0.  1.
     -623   -1    0    0    0    0  0.00000000000E+00  0.00000000000E+00  0.12525980253E-10  0.17130000000E+03  0.17130000000E+03 0. -1.
       11    1    1    2    0    0 -0.43768066657E-03  0.15058516496E-02  0.53894318974E-01  0.53919551121E-01  0.51109989000E-03 0.  1.
     -623    1    1    2    0    0  0.41449462474E-02 -0.83851814109E-03  0.22978786002E-03  0.17130000005E+03  0.17130000000E+03 0. -1.
      622    1    1    2    0    0 -0.37072655809E-02 -0.66733350852E-03  0.39458758605E+01  0.39460803965E+01  0.40000000000E-01 0.  1.
</event>
<event>
 5   0  0.6200596E+07  0.9118800E+02  0.7818608E-02  0.1180000E+00
       11   -1    0    0    0    0  0.00000000000E+00  0.00000000000E+00  0.39999999673E+01  0.40000000000E+01  0.51109989000E-03 0.  1.
     -623   -1    0    0    0    0  0.00000000000E+00  0.00000000000E+00  0.12525980253E-10  0.17130000000E+03  0.17130000000E+03 0. -1.
       11    1    1    2    0    0  0.23966366472E-02 -0.14692027402E-02  0.20818768603E-01  0.21013918498E-01  0.51109989000E-03 0.  1.
     -623    1    1    2    0    0 -0.60847341680E-02  0.23871342890E-02  0.39811896000E-03  0.17130000013E+03  0.17130000000E+03 0. -1.
      622    1    1    2    0    0  0.36880975209E-02 -0.91793154877E-03  0.39787830798E+01  0.39789859563E+01  0.40000000000E-01 0.  1.
</event>
<event>
 5   0  0.6200596E+07  0.9118800E+02  0.7818608E-02  0.1180000E+00
       11   -1    0    0    0    0  0.00000000000E+00  0.00000000000E+00  0.39999999673E+01  0.40000000000E+01  0.51109989000E-03 0. -1.
     -623   -1    0    0    0    0  0.00000000000E+00  0.00000000000E+00  0.12525980253E-10  0.17130000000E+03  0.17130000000E+03 0.  1.
       11    1    1    2    0    0  0.47049488355E-02 -0.30489341166E-03  0.31320380896E-01  0.31677389164E-01  0.51109989000E-03 0. -1.
     -623    1    1    2    0    0 -0.45486725489E-02 -0.45832379154E-02  0.56171369704E-03  0.17130000012E+03  0.17130000000E+03 0.  1.
      622    1    1    2    0    0 -0.15627628655E-03  0.48881313271E-02  0.39681178728E+01  0.39683224882E+01  0.40000000000E-01 0. -1.
</event>
<event>
 5   0  0.6200596E+07  0.9118800E+02  0.7818608E-02  0.1180000E+00
       11   -1    0    0    0    0  0.00000000000E+00  0.00000000000E+00  0.39999999673E+01  0.40000000000E+01  0.51109989000E-03 0. -1.
     -623   -1    0    0    0    0  0.00000000000E+00  0.00000000000E+00  0.12525980253E-10  0.17130000000E+03  0.17130000000E+03 0.  1.
       11    1    1    2    0    0 -0.10758471670E-02  0.66347088959E-03  0.24519986550E-01  0.24557862362E-01  0.51109989000E-03 0. -1.
     -623    1    1    2    0    0  0.24072155503E-02 -0.27766370520E-02  0.23990793987E-03  0.17130000004E+03  0.17130000000E+03 0.  1.
      622    1    1    2    0    0 -0.13313683833E-02  0.21131661625E-02  0.39752400729E+01  0.39754420981E+01  0.40000000000E-01 0. -1.
</event>
<event>
 5   0  0.6200596E+07  0.9118800E+02  0.7818608E-02  0.1180000E+00
       11   -1    0    0    0    0  0.00000000000E+00  0.00000000000E+00  0.39999999673E+01  0.40000000000E+01  0.51109989000E-03 0.  1.
     -623   -1    0    0    0    0  0.00000000000E+00  0.00000000000E+00  0.12525980253E-10  0.17130000000E+03  0.17130000000E+03 0.  1.
       11    1    1    2    0    0 -0.56921485808E-03 -0.25273607504E-02  0.36773722959E-01  0.36868407603E-01  0.51109989000E-03 0.  1.
     -623    1    1    2    0    0 -0.57958801604E-02  0.33732507563E-02  0.30185120926E-03  0.17130000013E+03  0.17130000000E+03 0.  1.
      622    1    1    2    0    0  0.63650950185E-02 -0.84589000584E-03  0.39629243932E+01  0.39631314609E+01  0.40000000000E-01 0.  1.
</event>
<event>
 5   0  0.6200596E+07  0.9118800E+02  0.7818608E-02  0.1180000E+00
       11   -1    0    0    0    0  0.00000000000E+00  0.00000000000E+00  0.39999999673E+01  0.40000000000E+01  0.51109989000E-03 0.  1.
     -623   -1    0    0    0    0  0.00000000000E+00  0.00000000000E+00  0.12525980253E-10  0.17130000000E+03  0.17130000000E+03 0.  1.
       11    1    1    2    0    0  0.75734027931E-04 -0.76506453557E-04  0.10050100297E-01  0.10063663672E-01  0.51109989000E-03 0.  1.
     -623    1    1    2    0    0 -0.34194993153E-03  0.13798171765E-03  0.21405011168E-03  0.17130000000E+03  0.17130000000E+03 0.  1.
      622    1    1    2    0    0  0.26621590359E-03 -0.61475264098E-04  0.39897358170E+01  0.39899363358E+01  0.40000000000E-01 0.  1.
</event>
<event>
 5   0  0.6200596E+07  0.9118800E+02  0.7818608E-02  0.1180000E+00
       11   -1    0    0    0    0  0.00000000000E+00  0.00000000000E+00  0.39999999673E+01  0.40000000000E+01  0.51109989000E-03 0. -1.
     -623   -1    0    0    0    0  0.00000000000E+00  0.00000000000E+00  0.12525980253E-10  0.17130000000E+03  0.17130000000E+03 0.  1.
       11    1    1    2    0    0  0.72637712865E-01 -0.26051368213E-01  0.16982603480E+01  0.17000127593E+01  0.51109989000E-03 0. -1.
     -623    1    1    2    0    0 -0.28493160578E-03 -0.75881984115E-02  0.34851024489E-02  0.17130000020E+03  0.17130000000E+03 0.  1.
      622    1    1    2    0    0 -0.72352781259E-01  0.33639566624E-01  0.22982545169E+01  0.22999870369E+01  0.40000000000E-01 0. -1.
</event>
<event>
 5   0  0.6200596E+07  0.9118800E+02  0.7818608E-02  0.1180000E+00
       11   -1    0    0    0    0  0.00000000000E+00  0.00000000000E+00  0.39999999673E+01  0.40000000000E+01  0.51109989000E-03 0.  1.
     -623   -1    0    0    0    0  0.00000000000E+00  0.00000000000E+00  0.12525980253E-10  0.17130000000E+03  0.17130000000E+03 0. -1.
       11    1    1    2    0    0  0.85430317642E-02  0.14658512284E-01  0.10403573917E-01  0.19908564649E-01  0.51109989000E-03 0.  1.
     -623    1    1    2    0    0 -0.13350934639E-01 -0.13569177054E-01  0.97103497447E-02  0.17130000133E+03  0.17130000000E+03 0. -1.
      622    1    1    2    0    0  0.48079028748E-02 -0.10893352300E-02  0.39798860437E+01  0.39800901024E+01  0.40000000000E-01 0.  1.
</event>
<event>
 5   0  0.6200596E+07  0.9118800E+02  0.7818608E-02  0.1180000E+00
       11   -1    0    0    0    0  0.00000000000E+00  0.00000000000E+00  0.39999999673E+01  0.40000000000E+01  0.51109989000E-03 0.  1.
     -623   -1    0    0    0    0  0.00000000000E+00  0.00000000000E+00  0.12525980253E-10  0.17130000000E+03  0.17130000000E+03 0.  1.
       11    1    1    2    0    0 -0.30542121672E-02  0.13848173867E-02  0.24189798739E-01  0.24426492083E-01  0.51109989000E-03 0.  1.
     -623    1    1    2    0    0  0.10481092924E-02  0.27628136242E-02  0.44059053002E-03  0.17130000003E+03  0.17130000000E+03 0.  1.
      622    1    1    2    0    0  0.20061028748E-02 -0.41476310108E-02  0.39753695781E+01  0.39755734819E+01  0.40000000000E-01 0.  1.
</event>
<event>
 5   0  0.6200596E+07  0.9118800E+02  0.7818608E-02  0.1180000E+00
       11   -1    0    0    0    0  0.00000000000E+00  0.00000000000E+00  0.39999999673E+01  0.40000000000E+01  0.51109989000E-03 0.  1.
     -623   -1    0    0    0    0  0.00000000000E+00  0.00000000000E+00  0.12525980253E-10  0.17130000000E+03  0.17130000000E+03 0. -1.
       11    1    1    2    0    0  0.21033447945E-01 -0.51351990046E-01  0.11798853478E+01  0.11811897087E+01  0.51109989000E-03 0.  1.
     -623    1    1    2    0    0 -0.11446671761E-02 -0.57183791994E-02  0.22362996833E-02  0.17130000011E+03  0.17130000000E+03 0. -1.
      622    1    1    2    0    0 -0.19888780768E-01  0.57070369246E-01  0.28178783199E+01  0.28188101774E+01  0.40000000000E-01 0.  0.
</event>
<event>
 5   0  0.6200596E+07  0.9118800E+02  0.7818608E-02  0.1180000E+00
       11   -1    0    0    0    0  0.00000000000E+00  0.00000000000E+00  0.39999999673E+01  0.40000000000E+01  0.51109989000E-03 0. -1.
     -623   -1    0    0    0    0  0.00000000000E+00  0.00000000000E+00  0.12525980253E-10  0.17130000000E+03  0.17130000000E+03 0. -1.
       11    1    1    2    0    0  0.23911503527E-02 -0.38088179148E-03  0.75176358968E-02  0.79144640328E-02  0.51109989000E-03 0. -1.
     -623    1    1    2    0    0  0.11158618610E-03 -0.59904386434E-03  0.59810399037E-03  0.17130000000E+03  0.17130000000E+03 0. -1.
      622    1    1    2    0    0 -0.25027365388E-02  0.97992565582E-03  0.39918842275E+01  0.39920855338E+01  0.40000000000E-01 0. -1.
</event>
<event>
 5   0  0.6200596E+07  0.9118800E+02  0.7818608E-02  0.1180000E+00
       11   -1    0    0    0    0  0.00000000000E+00  0.00000000000E+00  0.39999999673E+01  0.40000000000E+01  0.51109989000E-03 0.  1.
     -623   -1    0    0    0    0  0.00000000000E+00  0.00000000000E+00  0.12525980253E-10  0.17130000000E+03  0.17130000000E+03 0.  1.
       11    1    1    2    0    0 -0.32619135151E-02 -0.69752841865E-02  0.70352510745E-01  0.70774512779E-01  0.51109989000E-03 0.  1.
     -623    1    1    2    0    0 -0.36475697975E-02 -0.85501156869E-04  0.63803704220E-03  0.17130000004E+03  0.17130000000E+03 0.  1.
      622    1    1    2    0    0  0.69094833126E-02  0.70607853434E-02  0.39290094196E+01  0.39292254472E+01  0.40000000000E-01 0.  1.
</event>
<event>
 5   0  0.6200596E+07  0.9118800E+02  0.7818608E-02  0.1180000E+00
       11   -1    0    0    0    0  0.00000000000E+00  0.00000000000E+00  0.39999999673E+01  0.40000000000E+01  0.51109989000E-03 0.  1.
     -623   -1    0    0    0    0  0.00000000000E+00  0.00000000000E+00  0.12525980253E-10  0.17130000000E+03  0.17130000000E+03 0. -1.
       11    1    1    2    0    0 -0.16701999073E-02 -0.10220800523E-02  0.35528596758E+00  0.35529173111E+00  0.51109989000E-03 0.  1.
     -623    1    1    2    0    0 -0.28294458379E-03  0.39088415835E-03  0.22581265663E-03  0.17130000000E+03  0.17130000000E+03 0. -1.
      622    1    1    2    0    0  0.19531444911E-02  0.63119589396E-03  0.36444881871E+01  0.36447082681E+01  0.40000000000E-01 0.  1.
</event>
<event>
 5   0  0.6200596E+07  0.9118800E+02  0.7818608E-02  0.1180000E+00
       11   -1    0    0    0    0  0.00000000000E+00  0.00000000000E+00  0.39999999673E+01  0.40000000000E+01  0.51109989000E-03 0.  1.
     -623   -1    0    0    0    0  0.00000000000E+00  0.00000000000E+00  0.12525980253E-10  0.17130000000E+03  0.17130000000E+03 0.  1.
       11    1    1    2    0    0 -0.40932908072E-03  0.46294202904E-01  0.13044563029E+01  0.13052776824E+01  0.51109989000E-03 0.  1.
     -623    1    1    2    0    0 -0.57965747319E-03  0.65638296690E-03  0.15275203737E-02  0.17130000001E+03  0.17130000000E+03 0.  1.
      622    1    1    2    0    0  0.98898655391E-03 -0.46950585870E-01  0.26940161441E+01  0.26947223085E+01  0.40000000000E-01 0.  1.
</event>
<event>
 5   0  0.6200596E+07  0.9118800E+02  0.7818608E-02  0.1180000E+00
       11   -1    0    0    0    0  0.00000000000E+00  0.00000000000E+00  0.39999999673E+01  0.40000000000E+01  0.51109989000E-03 0. -1.
     -623   -1    0    0    0    0  0.00000000000E+00  0.00000000000E+00  0.12525980253E-10  0.17130000000E+03  0.17130000000E+03 0.  1.
       11    1    1    2    0    0  0.18360536148E-01 -0.19585715329E-01  0.10138311438E+00  0.10487853276E+00  0.51109989000E-03 0. -1.
     -623    1    1    2    0    0 -0.17923081623E-01  0.83227743559E-02  0.37182656751E-02  0.17130000118E+03  0.17130000000E+03 0.  1.
      622    1    1    2    0    0 -0.43745452500E-03  0.11262940973E-01  0.38948985873E+01  0.38951202871E+01  0.40000000000E-01 0. -1.
</event>
<event>
 5   0  0.6200596E+07  0.9118800E+02  0.7818608E-02  0.1180000E+00
       11   -1    0    0    0    0  0.00000000000E+00  0.00000000000E+00  0.39999999673E+01  0.40000000000E+01  0.51109989000E-03 0. -1.
     -623   -1    0    0    0    0  0.00000000000E+00  0.00000000000E+00  0.12525980253E-10  0.17130000000E+03  0.17130000000E+03 0. -1.
       11    1    1    2    0    0  0.28477400074E-02  0.86881038384E-02  0.45106497544E-01  0.46026623951E-01  0.51109989000E-03 0. -1.
     -623    1    1    2    0    0  0.23707086391E-02 -0.61816128909E-02  0.11267970413E-02  0.17130000013E+03  0.17130000000E+03 0. -1.
      622    1    1    2    0    0 -0.52184486465E-02 -0.25064909475E-02  0.39537666728E+01  0.39539732444E+01  0.40000000000E-01 0. -1.
</event>
<event>
 5   0  0.6200596E+07  0.9118800E+02  0.7818608E-02  0.1180000E+00
       11   -1    0    0    0    0  0.00000000000E+00  0.00000000000E+00  0.39999999673E+01  0.40000000000E+01  0.51109989000E-03 0. -1.
     -623   -1    0    0    0    0  0.00000000000E+00  0.00000000000E+00  0.12525980253E-10  0.17130000000E+03  0.17130000000E+03 0. -1.
       11    1    1    2    0    0 -0.20685248284E-02  0.23023727811E-02  0.21572127382E-01  0.21799027862E-01  0.51109989000E-03 0. -1.
     -623    1    1    2    0    0  0.40868239842E-02 -0.24629186840E-02  0.42855109042E-03  0.17130000007E+03  0.17130000000E+03 0. -1.
      622    1    1    2    0    0 -0.20182991558E-02  0.16054590288E-03  0.39779992889E+01  0.39782009051E+01  0.40000000000E-01 0. -1.
</event>
<event>
 5   0  0.6200596E+07  0.9118800E+02  0.7818608E-02  0.1180000E+00
       11   -1    0    0    0    0  0.00000000000E+00  0.00000000000E+00  0.39999999673E+01  0.40000000000E+01  0.51109989000E-03 0. -1.
     -623   -1    0    0    0    0  0.00000000000E+00  0.00000000000E+00  0.12525980253E-10  0.17130000000E+03  0.17130000000E+03 0.  1.
       11    1    1    2    0    0  0.14946467852E-01  0.25648277387E-02  0.24603468530E+00  0.24650213556E+00  0.51109989000E-03 0. -1.
     -623    1    1    2    0    0 -0.11516434338E-02  0.36699923888E-03  0.70705984732E-03  0.17130000001E+03  0.17130000000E+03 0.  1.
      622    1    1    2    0    0 -0.13794824419E-01 -0.29318269776E-02  0.37532582222E+01  0.37534978587E+01  0.40000000000E-01 0. -1.
</event>
<event>
 5   0  0.6200596E+07  0.9118800E+02  0.7818608E-02  0.1180000E+00
       11   -1    0    0    0    0  0.00000000000E+00  0.00000000000E+00  0.39999999673E+01  0.40000000000E+01  0.51109989000E-03 0.  1.
     -623   -1    0    0    0    0  0.00000000000E+00  0.00000000000E+00  0.12525980253E-10  0.17130000000E+03  0.17130000000E+03 0. -1.
       11    1    1    2    0    0 -0.51245786174E-02 -0.17153998996E-02  0.35777519335E+00  0.35781636925E+00  0.51109989000E-03 0.  1.
     -623    1    1    2    0    0  0.24767172963E-03 -0.13175935584E-02  0.26533201255E-03  0.17130000001E+03  0.17130000000E+03 0. -1.
      622    1    1    2    0    0  0.48769068878E-02  0.30329934580E-02  0.36419594420E+01  0.36421836253E+01  0.40000000000E-01 0.  1.
</event>
<event>
 5   0  0.6200596E+07  0.9118800E+02  0.7818608E-02  0.1180000E+00
       11   -1    0    0    0    0  0.00000000000E+00  0.00000000000E+00  0.39999999673E+01  0.40000000000E+01  0.51109989000E-03 0. -1.
     -623   -1    0    0    0    0  0.00000000000E+00  0.00000000000E+00  0.12525980253E-10  0.17130000000E+03  0.17130000000E+03 0.  1.
       11    1    1    2    0    0  0.12189406396E-01  0.73097636670E-02  0.20157337226E+00  0.20207449097E+00  0.51109989000E-03 0. -1.
     -623    1    1    2    0    0 -0.21536995703E-01 -0.17062801118E-01  0.73796619895E-03  0.17130000221E+03  0.17130000000E+03 0.  1.
      622    1    1    2    0    0  0.93475893075E-02  0.97530374506E-02  0.37976886289E+01  0.37979233038E+01  0.40000000000E-01 0. -1.
</event>
<event>
 5   0  0.6200596E+07  0.9118800E+02  0.7818608E-02  0.1180000E+00
       11   -1    0    0    0    0  0.00000000000E+00  0.00000000000E+00  0.39999999673E+01  0.40000000000E+01  0.51109989000E-03 0.  1.
     -623   -1    0    0    0    0  0.00000000000E+00  0.00000000000E+00  0.12525980253E-10  0.17130000000E+03  0.17130000000E+03 0. -1.
       11    1    1    2    0    0  0.63858039843E-03 -0.38225596331E-02  0.14759149452E+00  0.14764325323E+00  0.51109989000E-03 0.  1.
     -623    1    1    2    0    0 -0.37968773734E-02  0.81480924806E-02  0.26335609247E-03  0.17130000024E+03  0.17130000000E+03 0. -1.
      622    1    1    2    0    0  0.31582969750E-02 -0.43255328475E-02  0.38521451168E+01  0.38523565107E+01  0.40000000000E-01 0.  1.
</event>
<event>
 5   0  0.6200596E+07  0.9118800E+02  0.7818608E-02  0.1180000E+00
       11   -1    0    0    0    0  0.00000000000E+00  0.00000000000E+00  0.39999999673E+01  0.40000000000E+01  0.51109989000E-03 0. -1.
     -623   -1    0    0    0    0  0.00000000000E+00  0.00000000000E+00  0.12525980253E-10  0.17130000000E+03  0.17130000000E+03 0.  1.
       11    1    1    2    0    0 -0.86013051986E-01 -0.24979192969E-01  0.10885374188E+00  0.14096667527E+00  0.51109989000E-03 0. -1.
     -623    1    1    2    0    0  0.87656842546E-01 -0.23962499857E-01  0.32658160236E-01  0.17130002722E+03  0.17130000000E+03 0.  1.
      622    1    1    2    0    0 -0.16437905604E-02  0.48941692826E-01  0.38584880652E+01  0.38590061079E+01  0.40000000000E-01 0. -1.
</event>
<event>
 5   0  0.6200596E+07  0.9118800E+02  0.7818608E-02  0.1180000E+00
       11   -1    0    0    0    0  0.00000000000E+00  0.00000000000E+00  0.39999999673E+01  0.40000000000E+01  0.51109989000E-03 0. -1.
     -623   -1    0    0    0    0  0.00000000000E+00  0.00000000000E+00  0.12525980253E-10  0.17130000000E+03  0.17130000000E+03 0.  1.
       11    1    1    2    0    0 -0.98062152889E-03 -0.23639971294E-02  0.16919093851E+01  0.16919113981E+01  0.51109989000E-03 0. -1.
     -623    1    1    2    0    0  0.35230589020E-03 -0.20937944174E-02  0.35301799171E-03  0.17130000001E+03  0.17130000000E+03 0.  1.
      622    1    1    2    0    0  0.62831563869E-03  0.44577915468E-02  0.23077375642E+01  0.23080885884E+01  0.40000000000E-01 0. -1.
</event>
<event>
 5   0  0.6200596E+07  0.9118800E+02  0.7818608E-02  0.1180000E+00
       11   -1    0    0    0    0  0.00000000000E+00  0.00000000000E+00  0.39999999673E+01  0.40000000000E+01  0.51109989000E-03 0. -1.
     -623   -1    0    0    0    0  0.00000000000E+00  0.00000000000E+00  0.12525980253E-10  0.17130000000E+03  0.17130000000E+03 0. -1.
       11    1    1    2    0    0  0.14682159924E-01  0.20288147758E-01  0.34046584643E+00  0.34138604038E+00  0.51109989000E-03 0. -1.
     -623    1    1    2    0    0 -0.21816183102E-01  0.12298189803E-01  0.12927523691E-02  0.17130000184E+03  0.17130000000E+03 0. -1.
      622    1    1    2    0    0  0.71340231784E-02 -0.32586337561E-01  0.36582413686E+01  0.36586121241E+01  0.40000000000E-01 0.  0.
</event>
<event>
 5   0  0.6200596E+07  0.9118800E+02  0.7818608E-02  0.1180000E+00
       11   -1    0    0    0    0  0.00000000000E+00  0.00000000000E+00  0.39999999673E+01  0.40000000000E+01  0.51109989000E-03 0. -1.
     -623   -1    0    0    0    0  0.00000000000E+00  0.00000000000E+00  0.12525980253E-10  0.17130000000E+03  0.17130000000E+03 0.  1.
       11    1    1    2    0    0  0.78778783840E-03  0.10326028234E-03  0.14252091478E+00  0.14252404584E+00  0.51109989000E-03 0. -1.
     -623    1    1    2    0    0 -0.12645398979E-02  0.35845789857E-03  0.21055576834E-03  0.17130000001E+03  0.17130000000E+03 0.  1.
      622    1    1    2    0    0  0.47675205952E-03 -0.46171818092E-03  0.38572684968E+01  0.38574759490E+01  0.40000000000E-01 0. -1.
</event>
<event>
 5   0  0.6200596E+07  0.9118800E+02  0.7818608E-02  0.1180000E+00
       11   -1    0    0    0    0  0.00000000000E+00  0.00000000000E+00  0.39999999673E+01  0.40000000000E+01  0.51109989000E-03 0. -1.
     -623   -1    0    0    0    0  0.00000000000E+00  0.00000000000E+00  0.12525980253E-10  0.17130000000E+03  0.17130000000E+03 0.  1.
       11    1    1    2    0    0  0.27660877534E-01 -0.72391857119E-01  0.14560311138E+01  0.14580920995E+01  0.51109989000E-03 0. -1.
     -623    1    1    2    0    0  0.35928585035E-02  0.77408136790E-02  0.33905788804E-02  0.17130000025E+03  0.17130000000E+03 0.  1.
      622    1    1    2    0    0 -0.31253736038E-01  0.64651043440E-01  0.25405782747E+01  0.25419076544E+01  0.40000000000E-01 0. -1.
</event>
<event>
 5   0  0.6200596E+07  0.9118800E+02  0.7818608E-02  0.1180000E+00
       11   -1    0    0    0    0  0.00000000000E+00  0.00000000000E+00  0.39999999673E+01  0.40000000000E+01  0.51109989000E-03 0.  1.
     -623   -1    0    0    0    0  0.00000000000E+00  0.00000000000E+00  0.12525980253E-10  0.17130000000E+03  0.17130000000E+03 0.  1.
       11    1    1    2    0    0  0.20479027068E-02  0.13138867304E-03  0.18326494082E-01  0.18448110335E-01  0.51109989000E-03 0.  1.
     -623    1    1    2    0    0  0.80482763730E-04 -0.57019356790E-03  0.32310972211E-03  0.17130000000E+03  0.17130000000E+03 0.  1.
      622    1    1    2    0    0 -0.21283854706E-02  0.43880489486E-03  0.39813503636E+01  0.39815518884E+01  0.40000000000E-01 0.  1.
</event>
<event>
 5   0  0.6200596E+07  0.9118800E+02  0.7818608E-02  0.1180000E+00
       11   -1    0    0    0    0  0.00000000000E+00  0.00000000000E+00  0.39999999673E+01  0.40000000000E+01  0.51109989000E-03 0.  1.
     -623   -1    0    0    0    0  0.00000000000E+00  0.00000000000E+00  0.12525980253E-10  0.17130000000E+03  0.17130000000E+03 0. -1.
       11    1    1    2    0    0  0.25640530459E-02 -0.25277270301E-02  0.30612469179E-01  0.30827719070E-01  0.51109989000E-03 0.  1.
     -623    1    1    2    0    0 -0.10884887015E-02  0.31794388415E-02  0.41713699502E-03  0.17130000003E+03  0.17130000000E+03 0. -1.
      622    1    1    2    0    0 -0.14755643444E-02 -0.65171181135E-03  0.39689703612E+01  0.39691722475E+01  0.40000000000E-01 0.  1.
</event>
<event>
 5   0  0.6200596E+07  0.9118800E+02  0.7818608E-02  0.1180000E+00
       11   -1    0    0    0    0  0.00000000000E+00  0.00000000000E+00  0.39999999673E+01  0.40000000000E+01  0.51109989000E-03 0. -1.
     -623   -1    0    0    0    0  0.00000000000E+00  0.00000000000E+00  0.12525980253E-10  0.17130000000E+03  0.17130000000E+03 0. -1.
       11    1    1    2    0    0  0.28063997829E-01 -0.18357224455E-01  0.26153410902E+01  0.26155561273E+01  0.51109989000E-03 0. -1.
     -623    1    1    2    0    0 -0.19269098687E-02  0.31154587841E-02  0.11238182422E-02  0.17130000004E+03  0.17130000000E+03 0. -1.
      622    1    1    2    0    0 -0.26137087960E-01  0.15241765671E-01  0.13835350589E+01  0.13844438299E+01  0.40000000000E-01 0.  0.
</event>
<event>
 5   0  0.6200596E+07  0.9118800E+02  0.7818608E-02  0.1180000E+00
       11   -1    0    0    0    0  0.00000000000E+00  0.00000000000E+00  0.39999999673E+01  0.40000000000E+01  0.51109989000E-03 0. -1.
     -623   -1    0    0    0    0  0.00000000000E+00  0.00000000000E+00  0.12525980253E-10  0.17130000000E+03  0.17130000000E+03 0. -1.
       11    1    1    2    0    0 -0.44917164431E-02  0.23822531880E-02  0.39612369327E+00  0.39615665114E+00  0.51109989000E-03 0. -1.
     -623    1    1    2    0    0 -0.33997675112E-02 -0.12074654519E-03  0.26430159728E-03  0.17130000003E+03  0.17130000000E+03 0. -1.
      622    1    1    2    0    0  0.78914839543E-02 -0.22615066428E-02  0.36036119725E+01  0.36038433149E+01  0.40000000000E-01 0. -1.
</event>
<event>
 5   0  0.6200596E+07  0.9118800E+02  0.7818608E-02  0.1180000E+00
       11   -1    0    0    0    0  0.00000000000E+00  0.00000000000E+00  0.39999999673E+01  0.40000000000E+01  0.51109989000E-03 0. -1.
     -623   -1    0    0    0    0  0.00000000000E+00  0.00000000000E+00  0.12525980253E-10  0.17130000000E+03  0.17130000000E+03 0. -1.
       11    1    1    2    0    0  0.32262437298E-02 -0.11222822790E-01  0.21676050955E+01  0.21676366097E+01  0.51109989000E-03 0. -1.
     -623    1    1    2    0    0 -0.47073569150E-02 -0.30567165705E-03  0.50506799176E-03  0.17130000007E+03  0.17130000000E+03 0. -1.
      622    1    1    2    0    0  0.14811131852E-02  0.11528494448E-01  0.18318898039E+01  0.18323633246E+01  0.40000000000E-01 0. -1.
</event>
<event>
 5   0  0.6200596E+07  0.9118800E+02  0.7818608E-02  0.1180000E+00
       11   -1    0    0    0    0  0.00000000000E+00  0.00000000000E+00  0.39999999673E+01  0.40000000000E+01  0.51109989000E-03 0. -1.
     -623   -1    0    0    0    0  0.00000000000E+00  0.00000000000E+00  0.12525980253E-10  0.17130000000E+03  0.17130000000E+03 0. -1.
       11    1    1    2    0    0 -0.59383901070E-02  0.39057146169E-02  0.23178531333E+00  0.23189482913E+00  0.51109989000E-03 0. -1.
     -623    1    1    2    0    0 -0.66084255733E-02 -0.29935149934E-05  0.34483653222E-03  0.17130000013E+03  0.17130000000E+03 0. -1.
      622    1    1    2    0    0  0.12546815680E-01 -0.39027211019E-02  0.37678698175E+01  0.37681050430E+01  0.40000000000E-01 0. -1.
</event>
<event>
 5   0  0.6200596E+07  0.9118800E+02  0.7818608E-02  0.1180000E+00
       11   -1    0    0    0    0  0.00000000000E+00  0.00000000000E+00  0.39999999673E+01  0.40000000000E+01  0.51109989000E-03 0. -1.
     -623   -1    0    0    0    0  0.00000000000E+00  0.00000000000E+00  0.12525980253E-10  0.17130000000E+03  0.17130000000E+03 0.  1.
       11    1    1    2    0    0 -0.34381252283E-02  0.71285306000E-02  0.14039130176E+01  0.14039354183E+01  0.51109989000E-03 0. -1.
     -623    1    1    2    0    0  0.29214737803E-02  0.80664815425E-03  0.34275258166E-03  0.17130000003E+03  0.17130000000E+03 0.  1.
      622    1    1    2    0    0  0.51665144800E-03 -0.79351787542E-02  0.25957441972E+01  0.25960645545E+01  0.40000000000E-01 0. -1.
</event>
<event>
 5   0  0.6200596E+07  0.9118800E+02  0.7818608E-02  0.1180000E+00
       11   -1    0    0    0    0  0.00000000000E+00  0.00000000000E+00  0.39999999673E+01  0.40000000000E+01  0.51109989000E-03 0.  1.
     -623   -1    0    0    0    0  0.00000000000E+00  0.00000000000E+00  0.12525980253E-10  0.17130000000E+03  0.17130000000E+03 0.  1.
       11    1    1    2    0    0 -0.43315722932E-02 -0.47060967844E-01  0.87748452335E+00  0.87875642083E+00  0.51109989000E-03 0.  1.
     -623    1    1    2    0    0  0.19904776467E-01  0.51192504123E-01  0.15785861577E-02  0.17130000881E+03  0.17130000000E+03 0.  1.
      622    1    1    2    0    0 -0.15573204174E-01 -0.41315362783E-02  0.31209368578E+01  0.31212347661E+01  0.40000000000E-01 0.  1.
</event>
<event>
 5   0  0.6200596E+07  0.9118800E+02  0.7818608E-02  0.1180000E+00
       11   -1    0    0    0    0  0.00000000000E+00  0.00000000000E+00  0.39999999673E+01  0.40000000000E+01  0.51109989000E-03 0. -1.
     -623   -1    0    0    0    0  0.00000000000E+00  0.00000000000E+00  0.12525980253E-10  0.17130000000E+03  0.17130000000E+03 0. -1.
       11    1    1    2    0    0  0.11576236304E-02  0.37014892772E-03  0.94091443787E-01  0.94100680748E-01  0.51109989000E-03 0. -1.
     -623    1    1    2    0    0 -0.69416562169E-04 -0.98632035458E-03  0.21423126884E-03  0.17130000000E+03  0.17130000000E+03 0. -1.
      622    1    1    2    0    0 -0.10882070683E-02  0.61617142686E-03  0.39056942923E+01  0.39058993163E+01  0.40000000000E-01 0. -1.
</event>
<event>
 5   0  0.6200596E+07  0.9118800E+02  0.7818608E-02  0.1180000E+00
       11   -1    0    0    0    0  0.00000000000E+00  0.00000000000E+00  0.39999999673E+01  0.40000000000E+01  0.51109989000E-03 0.  1.
     -623   -1    0    0    0    0  0.00000000000E+00  0.00000000000E+00  0.12525980253E-10  0.17130000000E+03  0.17130000000E+03 0. -1.
       11    1    1    2    0    0  0.12899858644E-01 -0.12084547638E-02  0.57252369227E+00  0.57267050400E+00  0.51109989000E-03 0.  1.
     -623    1    1    2    0    0 -0.40422797100E-03 -0.79827086683E-03  0.40357566162E-03  0.17130000000E+03  0.17130000000E+03 0. -1.
      622    1    1    2    0    0 -0.12495630673E-01  0.20067256307E-02  0.34270726994E+01  0.34273294932E+01  0.40000000000E-01 0.  1.
</event>
<event>
 5   0  0.6200596E+07  0.9118800E+02  0.7818608E-02  0.1180000E+00
       11   -1    0    0    0    0  0.00000000000E+00  0.00000000000E+00  0.39999999673E+01  0.40000000000E+01  0.51109989000E-03 0.  1.
     -623   -1    0    0    0    0  0.00000000000E+00  0.00000000000E+00  0.12525980253E-10  0.17130000000E+03  0.17130000000E+03 0.  1.
       11    1    1    2    0    0  0.21722824417E-02 -0.16421155955E-02  0.87288823686E-01  0.87332784888E-01  0.51109989000E-03 0.  1.
     -623    1    1    2    0    0  0.24530045968E-04  0.82194064768E-03  0.24910287653E-03  0.17130000000E+03  0.17130000000E+03 0.  1.
      622    1    1    2    0    0 -0.21968124877E-02  0.82017494787E-03  0.39124620408E+01  0.39126672130E+01  0.40000000000E-01 0.  1.
</event>
<event>
 5   0  0.6200596E+07  0.9118800E+02  0.7818608E-02  0.1180000E+00
       11   -1    0    0    0    0  0.00000000000E+00  0.00000000000E+00  0.39999999673E+01  0.40000000000E+01  0.51109989000E-03 0. -1.
     -623   -1    0    0    0    0  0.00000000000E+00  0.00000000000E+00  0.12525980253E-10  0.17130000000E+03  0.17130000000E+03 0. -1.
       11    1    1    2    0    0 -0.47548576303E-02 -0.11346192822E-02  0.78749390555E+00  0.78750924346E+00  0.51109989000E-03 0. -1.
     -623    1    1    2    0    0  0.14812125671E-03 -0.90979053764E-02  0.28418589708E-03  0.17130000024E+03  0.17130000000E+03 0. -1.
      622    1    1    2    0    0  0.46067363735E-02  0.10232524659E-01  0.32122218759E+01  0.32124905146E+01  0.40000000000E-01 0.  0.
</event>
<event>
 5   0  0.6200596E+07  0.9118800E+02  0.7818608E-02  0.1180000E+00
       11   -1    0    0    0    0  0.00000000000E+00  0.00000000000E+00  0.39999999673E+01  0.40000000000E+01  0.51109989000E-03 0.  1.
     -623   -1    0    0    0    0  0.00000000000E+00  0.00000000000E+00  0.12525980253E-10  0.17130000000E+03  0.17130000000E+03 0. -1.
       11    1    1    2    0    0  0.31332491490E-02  0.62865179674E-02  0.48766466458E-01  0.49272375941E-01  0.51109989000E-03 0.  1.
     -623    1    1    2    0    0  0.10246729052E-02 -0.26134874989E-02  0.71229648001E-03  0.17130000002E+03  0.17130000000E+03 0. -1.
      622    1    1    2    0    0 -0.41579220541E-02 -0.36730304685E-02  0.39505212044E+01  0.39507275996E+01  0.40000000000E-01 0.  1.
</event>
<event>
 5   0  0.6200596E+07  0.9118800E+02  0.7818608E-02  0.1180000E+00
       11   -1    0    0    0    0  0.00000000000E+00  0.00000000000E+00  0.39999999673E+01  0.40000000000E+01  0.51109989000E-03 0.  1.
     -623   -1    0    0    0    0  0.00000000000E+00  0.00000000000E+00  0.12525980253E-10  0.17130000000E+03  0.17130000000E+03 0.  1.
       11    1    1    2    0    0  0.25306034562E-02 -0.10368350027E-01  0.18343799702E+00  0.18374892274E+00  0.51109989000E-03 0.  1.
     -623    1    1    2    0    0  0.13862866960E-01 -0.48196603816E-02  0.58659612796E-03  0.17130000063E+03  0.17130000000E+03 0.  1.
      622    1    1    2    0    0 -0.16393470416E-01  0.15188010409E-01  0.38159753742E+01  0.38162504475E+01  0.40000000000E-01 0.  1.
</event>
<event>
 5   0  0.6200596E+07  0.9118800E+02  0.7818608E-02  0.1180000E+00
       11   -1    0    0    0    0  0.00000000000E+00  0.00000000000E+00  0.39999999673E+01  0.40000000000E+01  0.51109989000E-03 0. -1.
     -623   -1    0    0    0    0  0.00000000000E+00  0.00000000000E+00  0.12525980253E-10  0.17130000000E+03  0.17130000000E+03 0.  1.
       11    1    1    2    0    0  0.30960033373E-01  0.35342633560E-02  0.10954460599E+01  0.10958892946E+01  0.51109989000E-03 0. -1.
     -623    1    1    2    0    0 -0.49083724236E-03 -0.14419779895E-02  0.87930669842E-03  0.17130000001E+03  0.17130000000E+03 0.  1.
      622    1    1    2    0    0 -0.30469196130E-01 -0.20922853665E-02  0.29036746008E+01  0.29041106964E+01  0.40000000000E-01 0. -1.
</event>
<event>
 5   0  0.6200596E+07  0.9118800E+02  0.7818608E-02  0.1180000E+00
       11   -1    0    0    0    0  0.00000000000E+00  0.00000000000E+00  0.39999999673E+01  0.40000000000E+01  0.51109989000E-03 0.  1.
     -623   -1    0    0    0    0  0.00000000000E+00  0.00000000000E+00  0.12525980253E-10  0.17130000000E+03  0.17130000000E+03 0. -1.
       11    1    1    2    0    0 -0.45557160472E-02  0.38472683230E-02  0.33229710896E-01  0.33764344060E-01  0.51109989000E-03 0.  1.
     -623    1    1    2    0    0  0.57815250347E-03 -0.17904624330E-02  0.73884806698E-03  0.17130000001E+03  0.17130000000E+03 0. -1.
      622    1    1    2    0    0  0.39775635437E-02 -0.20568058900E-02  0.39660314084E+01  0.39662356440E+01  0.40000000000E-01 0.  1.
</event>
<event>
 5   0  0.6200596E+07  0.9118800E+02  0.7818608E-02  0.1180000E+00
       11   -1    0    0    0    0  0.00000000000E+00  0.00000000000E+00  0.39999999673E+01  0.40000000000E+01  0.51109989000E-03 0.  1.
     -623   -1    0    0    0    0  0.00000000000E+00  0.00000000000E+00  0.12525980253E-10  0.17130000000E+03  0.17130000000E+03 0.  1.
       11    1    1    2    0    0  0.64467670962E-03 -0.18249425276E-01  0.28323292439E+00  0.28382143649E+00  0.51109989000E-03 0.  1.
     -623    1    1    2    0    0  0.58535854845E-03 -0.63187140651E-04  0.84909070499E-03  0.17130000000E+03  0.17130000000E+03 0.  1.
      622    1    1    2    0    0 -0.12300352581E-02  0.18312612417E-01  0.37159179523E+01  0.37161785604E+01  0.40000000000E-01 0.  1.
</event>
<event>
 5   0  0.6200596E+07  0.9118800E+02  0.7818608E-02  0.1180000E+00
       11   -1    0    0    0    0  0.00000000000E+00  0.00000000000E+00  0.39999999673E+01  0.40000000000E+01  0.51109989000E-03 0. -1.
     -623   -1    0    0    0    0  0.00000000000E+00  0.00000000000E+00  0.12525980253E-10  0.17130000000E+03  0.17130000000E+03 0.  1.
       11    1    1    2    0    0 -0.20542134546E-01  0.66396665865E-02  0.17673857745E+00  0.17805294282E+00  0.51109989000E-03 0. -1.
     -623    1    1    2    0    0  0.70556709836E-02 -0.11594139856E-01  0.15512082209E-02  0.17130000054E+03  0.17130000000E+03 0.  1.
      622    1    1    2    0    0  0.13486463562E-01  0.49544732692E-02  0.38217101817E+01  0.38219465125E+01  0.40000000000E-01 0. -1.
</event>
<event>
 5   0  0.6200596E+07  0.9118800E+02  0.7818608E-02  0.1180000E+00
       11   -1    0    0    0    0  0.00000000000E+00  0.00000000000E+00  0.39999999673E+01  0.40000000000E+01  0.51109989000E-03 0. -1.
     -623   -1    0    0    0    0  0.00000000000E+00  0.00000000000E+00  0.12525980253E-10  0.17130000000E+03  0.17130000000E+03 0. -1.
       11    1    1    2    0    0 -0.21824261922E-01 -0.13431963958E-01  0.67082497497E+00  0.67131447498E+00  0.51109989000E-03 0. -1.
     -623    1    1    2    0    0 -0.33712196520E-02 -0.34056756361E-02  0.86783331401E-03  0.17130000007E+03  0.17130000000E+03 0. -1.
      622    1    1    2    0    0  0.25195481574E-01  0.16837639595E-01  0.33283071591E+01  0.33286854558E+01  0.40000000000E-01 0.  0.
</event>
<event>
 5   0  0.6200596E+07  0.9118800E+02  0.7818608E-02  0.1180000E+00
       11   -1    0    0    0    0  0.00000000000E+00  0.00000000000E+00  0.39999999673E+01  0.40000000000E+01  0.51109989000E-03 0.  1.
     -623   -1    0    0    0    0  0.00000000000E+00  0.00000000000E+00  0.12525980253E-10  0.17130000000E+03  0.17130000000E+03 0. -1.
       11    1    1    2    0    0  0.26185968922E-02  0.27616138946E-02  0.34053405076E-01  0.34269216227E-01  0.51109989000E-03 0.  1.
     -623    1    1    2    0    0 -0.19780825490E-02 -0.32831120123E-02  0.41764132158E-03  0.17130000004E+03  0.17130000000E+03 0. -1.
      622    1    1    2    0    0 -0.64051434328E-03  0.52149811768E-03  0.39655289210E+01  0.39657307404E+01  0.40000000000E-01 0.  1.
</event>
<event>
 5   0  0.6200596E+07  0.9118800E+02  0.7818608E-02  0.1180000E+00
       11   -1    0    0    0    0  0.00000000000E+00  0.00000000000E+00  0.39999999673E+01  0.40000000000E+01  0.51109989000E-03 0.  1.
     -623   -1    0    0    0    0  0.00000000000E+00  0.00000000000E+00  0.12525980253E-10  0.17130000000E+03  0.17130000000E+03 0.  1.
       11    1    1    2    0    0 -0.10861174990E-01  0.17534817600E-02  0.37286352428E+00  0.37302615027E+00  0.51109989000E-03 0.  1.
     -623    1    1    2    0    0  0.80831641101E-03  0.13093507721E-03  0.39759417753E-03  0.17130000000E+03  0.17130000000E+03 0.  1.
      622    1    1    2    0    0  0.10052858579E-01 -0.18844168372E-02  0.36267388489E+01  0.36269738473E+01  0.40000000000E-01 0.  0.
</event>
<event>
 5   0  0.6200596E+07  0.9118800E+02  0.7818608E-02  0.1180000E+00
       11   -1    0    0    0    0  0.00000000000E+00  0.00000000000E+00  0.39999999673E+01  0.40000000000E+01  0.51109989000E-03 0. -1.
     -623   -1    0    0    0    0  0.00000000000E+00  0.00000000000E+00  0.12525980253E-10  0.17130000000E+03  0.17130000000E+03 0.  1.
       11    1    1    2    0    0 -0.72792132257E-02 -0.66162523387E-02  0.10287829148E+00  0.10334875819E+00  0.51109989000E-03 0. -1.
     -623    1    1    2    0    0 -0.10143445460E-02  0.51891786545E-02  0.68491468086E-03  0.17130000008E+03  0.17130000000E+03 0.  1.
      622    1    1    2    0    0  0.82935577717E-02  0.14270736842E-02  0.38964367612E+01  0.38966511588E+01  0.40000000000E-01 0. -1.
</event>
<event>
 5   0  0.6200596E+07  0.9118800E+02  0.7818608E-02  0.1180000E+00
       11   -1    0    0    0    0  0.00000000000E+00  0.00000000000E+00  0.39999999673E+01  0.40000000000E+01  0.51109989000E-03 0. -1.
     -623   -1    0    0    0    0  0.00000000000E+00  0.00000000000E+00  0.12525980253E-10  0.17130000000E+03  0.17130000000E+03 0.  1.
       11    1    1    2    0    0 -0.53854343606E-01  0.17400892069E-02  0.22884948660E+01  0.22891291644E+01  0.51109989000E-03 0. -1.
     -623    1    1    2    0    0 -0.14550679288E-03 -0.93502908506E-02  0.19717717742E-02  0.17130000027E+03  0.17130000000E+03 0.  1.
      622    1    1    2    0    0  0.53999850399E-01  0.76102016436E-02  0.17095333296E+01  0.17108705690E+01  0.40000000000E-01 0. -1.
</event>
<event>
 5   0  0.6200596E+07  0.9118800E+02  0.7818608E-02  0.1180000E+00
       11   -1    0    0    0    0  0.00000000000E+00  0.00000000000E+00  0.39999999673E+01  0.40000000000E+01  0.51109989000E-03 0.  1.
     -623   -1    0    0    0    0  0.00000000000E+00  0.00000000000E+00  0.12525980253E-10  0.17130000000E+03  0.17130000000E+03 0. -1.
       11    1    1    2    0    0  0.20938943908E-01  0.84879261322E-02  0.92456638139E+00  0.92484254826E+00  0.51109989000E-03 0.  1.
     -623    1    1    2    0    0 -0.11924095795E-01  0.12991762970E-02  0.56550593865E-03  0.17130000042E+03  0.17130000000E+03 0. -1.
      622    1    1    2    0    0 -0.90148481128E-02 -0.97871024292E-02  0.30748680800E+01  0.30751570309E+01  0.40000000000E-01 0.  1.
</event>
<event>
 5   0  0.6200596E+07  0.9118800E+02  0.7818608E-02  0.1180000E+00
       11   -1    0    0    0    0  0.00000000000E+00  0.00000000000E+00  0.39999999673E+01  0.40000000000E+01  0.51109989000E-03 0. -1.
     -623   -1    0    0    0    0  0.00000000000E+00  0.00000000000E+00  0.12525980253E-10  0.17130000000E+03  0.17130000000E+03 0. -1.
       11    1    1    2    0    0  0.25609234314E-02  0.43281028068E-02  0.24284328295E-01  0.24804850819E-01  0.51109989000E-03 0. -1.
     -623    1    1    2    0    0  0.14281173017E-02 -0.47900207235E-03  0.72561628735E-03  0.17130000001E+03  0.17130000000E+03 0. -1.
      622    1    1    2    0    0 -0.39890407331E-02 -0.38491007344E-02  0.39749900228E+01  0.39751951410E+01  0.40000000000E-01 0. -1.
</event>
<event>
 5   0  0.6200596E+07  0.9118800E+02  0.7818608E-02  0.1180000E+00
       11   -1    0    0    0    0  0.00000000000E+00  0.00000000000E+00  0.39999999673E+01  0.40000000000E+01  0.51109989000E-03 0.  1.
     -623   -1    0    0    0    0  0.00000000000E+00  0.00000000000E+00  0.12525980253E-10  0.17130000000E+03  0.17130000000E+03 0.  1.
       11    1    1    2    0    0 -0.34087929979E-02 -0.55844505195E-03  0.14720152839E-01  0.15128643433E-01  0.51109989000E-03 0.  1.
     -623    1    1    2    0    0  0.12160324160E-02 -0.33481052743E-03  0.60993150357E-03  0.17130000001E+03  0.17130000000E+03 0.  1.
      622    1    1    2    0    0  0.21927605819E-02  0.89325557939E-03  0.39846698830E+01  0.39848713508E+01  0.40000000000E-01 0.  1.
</event>
<event>
 5   0  0.6200596E+07  0.9118800E+02  0.7818608E-02  0.1180000E+00
       11   -1    0    0    0    0  0.00000000000E+00  0.00000000000E+00  0.39999999673E+01  0.40000000000E+01  0.51109989000E-03 0. -1.
     -623   -1    0    0    0    0  0.00000000000E+00  0.00000000000E+00  0.12525980253E-10  0.17130000000E+03  0.17130000000E+03 0.  1.
       11    1    1    2    0    0 -0.70374308248E-02 -0.19583926327E-01  0.34945937585E+00  0.35007880855E+00  0.51109989000E-03 0. -1.
     -623    1    1    2    0    0  0.13467296907E-01  0.16647445698E-01  0.84677517804E-03  0.17130000134E+03  0.17130000000E+03 0.  1.
      622    1    1    2    0    0 -0.64298660820E-02  0.29364806286E-02  0.36496938163E+01  0.36499198510E+01  0.40000000000E-01 0. -1.
</event>
<event>
 5   0  0.6200596E+07  0.9118800E+02  0.7818608E-02  0.1180000E+00
       11   -1    0    0    0    0  0.00000000000E+00  0.00000000000E+00  0.39999999673E+01  0.40000000000E+01  0.51109989000E-03 0. -1.
     -623   -1    0    0    0    0  0.00000000000E+00  0.00000000000E+00  0.12525980253E-10  0.17130000000E+03  0.17130000000E+03 0. -1.
       11    1    1    2    0    0  0.54275327569E-01  0.47832672611E-01  0.16168001931E+01  0.16184180243E+01  0.51109989000E-03 0. -1.
     -623    1    1    2    0    0 -0.19349806936E-01 -0.43759742793E-02  0.26076495775E-02  0.17130000117E+03  0.17130000000E+03 0. -1.
      622    1    1    2    0    0 -0.34925520633E-01 -0.43456698332E-01  0.23805921247E+01  0.23815808071E+01  0.40000000000E-01 0.  0.
</event>
<event>
 5   0  0.6200596E+07  0.9118800E+02  0.7818608E-02  0.1180000E+00
       11   -1    0    0    0    0  0.00000000000E+00  0.00000000000E+00  0.39999999673E+01  0.40000000000E+01  0.51109989000E-03 0. -1.
     -623   -1    0    0    0    0  0.00000000000E+00  0.00000000000E+00  0.12525980253E-10  0.17130000000E+03  0.17130000000E+03 0.  1.
       11    1    1    2    0    0  0.48840049261E-02 -0.82572333577E-02  0.16494158260E+00  0.16522113151E+00  0.51109989000E-03 0. -1.
     -623    1    1    2    0    0 -0.15413021000E-01  0.25004869925E-02  0.50762802217E-03  0.17130000071E+03  0.17130000000E+03 0.  1.
      622    1    1    2    0    0  0.10529016074E-01  0.57567463651E-02  0.38345507567E+01  0.38347781561E+01  0.40000000000E-01 0. -1.
</event>
<event>
 5   0  0.6200596E+07  0.9118800E+02  0.7818608E-02  0.1180000E+00
       11   -1    0    0    0    0  0.00000000000E+00  0.00000000000E+00  0.39999999673E+01  0.40000000000E+01  0.51109989000E-03 0. -1.
     -623   -1    0    0    0    0  0.00000000000E+00  0.00000000000E+00  0.12525980253E-10  0.17130000000E+03  0.17130000000E+03 0. -1.
       11    1    1    2    0    0 -0.91230253721E-02 -0.59187870838E-02  0.33614777003E+00  0.33632401959E+00  0.51109989000E-03 0. -1.
     -623    1    1    2    0    0 -0.49977151893E-03  0.81845752966E-02  0.40811888965E-03  0.17130000020E+03  0.17130000000E+03 0. -1.
      622    1    1    2    0    0  0.96227968910E-02 -0.22657882128E-02  0.36634440784E+01  0.36636757837E+01  0.40000000000E-01 0. -1.
</event>
<event>
 5   0  0.6200596E+07  0.9118800E+02  0.7818608E-02  0.1180000E+00
       11   -1    0    0    0    0  0.00000000000E+00  0.00000000000E+00  0.39999999673E+01  0.40000000000E+01  0.51109989000E-03 0. -1.
     -623   -1    0    0    0    0  0.00000000000E+00  0.00000000000E+00  0.12525980253E-10  0.17130000000E+03  0.17130000000E+03 0. -1.
       11    1    1    2    0    0  0.31428654201E-02  0.65069916712E-02  0.12237142225E+00  0.12258566291E+00  0.51109989000E-03 0. -1.
     -623    1    1    2    0    0 -0.29234941180E-02 -0.10994146016E-01  0.42351759693E-03  0.17130000038E+03  0.17130000000E+03 0. -1.
      622    1    1    2    0    0 -0.21937130209E-03  0.44871543453E-02  0.38772050275E+01  0.38774139588E+01  0.40000000000E-01 0. -1.
</event>
<event>
 5   0  0.6200596E+07  0.9118800E+02  0.7818608E-02  0.1180000E+00
       11   -1    0    0    0    0  0.00000000000E+00  0.00000000000E+00  0.39999999673E+01  0.40000000000E+01  0.51109989000E-03 0. -1.
     -623   -1    0    0    0    0  0.00000000000E+00  0.00000000000E+00  0.12525980253E-10  0.17130000000E+03  0.17130000000E+03 0.  1.
       11    1    1    2    0    0 -0.22253832914E-02 -0.14640746605E-02  0.25171398117E-01  0.25317115784E-01  0.51109989000E-03 0. -1.
     -623    1    1    2    0    0  0.32121703945E-02  0.85919137824E-03  0.34716519682E-03  0.17130000003E+03  0.17130000000E+03 0.  1.
      622    1    1    2    0    0 -0.98678710307E-03  0.60488328230E-03  0.39744814040E+01  0.39746828516E+01  0.40000000000E-01 0. -1.
</event>
<event>
 5   0  0.6200596E+07  0.9118800E+02  0.7818608E-02  0.1180000E+00
       11   -1    0    0    0    0  0.00000000000E+00  0.00000000000E+00  0.39999999673E+01  0.40000000000E+01  0.51109989000E-03 0.  1.
     -623   -1    0    0    0    0  0.00000000000E+00  0.00000000000E+00  0.12525980253E-10  0.17130000000E+03  0.17130000000E+03 0.  1.
       11    1    1    2    0    0  0.55103868999E-02 -0.31378907163E-03  0.97657249790E+00  0.97658822832E+00  0.51109989000E-03 0.  1.
     -623    1    1    2    0    0 -0.37823309543E-02  0.37755504519E-02  0.28287059840E-03  0.17130000008E+03  0.17130000000E+03 0.  1.
      622    1    1    2    0    0 -0.17280559457E-02 -0.34617613803E-02  0.30231445989E+01  0.30234116881E+01  0.40000000000E-01 0.  1.
</event>
<event>
 5   0  0.6200596E+07  0.9118800E+02  0.7818608E-02  0.1180000E+00
       11   -1    0    0    0    0  0.00000000000E+00  0.00000000000E+00  0.39999999673E+01  0.40000000000E+01  0.51109989000E-03 0.  1.
     -623   -1    0    0    0    0  0.00000000000E+00  0.00000000000E+00  0.12525980253E-10  0.17130000000E+03  0.17130000000E+03 0.  1.
       11    1    1    2    0    0 -0.10893542968E-01 -0.20067155537E-01  0.69459233190E+00  0.69496771779E+00  0.51109989000E-03 0.  1.
     -623    1    1    2    0    0 -0.36592988765E-02  0.60595308700E-02  0.67929382149E-03  0.17130000015E+03  0.17130000000E+03 0.  1.
      622    1    1    2    0    0  0.14552841845E-01  0.14007624666E-01  0.33047283416E+01  0.33050321346E+01  0.40000000000E-01 0.  1.
</event>
<event>
 5   0  0.6200596E+07  0.9118800E+02  0.7818608E-02  0.1180000E+00
       11   -1    0    0    0    0  0.00000000000E+00  0.00000000000E+00  0.39999999673E+01  0.40000000000E+01  0.51109989000E-03 0.  1.
     -623   -1    0    0    0    0  0.00000000000E+00  0.00000000000E+00  0.12525980253E-10  0.17130000000E+03  0.17130000000E+03 0.  1.
       11    1    1    2    0    0  0.27027180396E-02 -0.16647517890E-03  0.21002064557E-02  0.34647492886E-02  0.51109989000E-03 0.  1.
     -623    1    1    2    0    0 -0.49537254967E-03  0.20999889611E-02  0.15657866824E-02  0.17130000002E+03  0.17130000000E+03 0.  1.
      622    1    1    2    0    0 -0.22073454900E-02 -0.19335137822E-02  0.39963339742E+01  0.39965352300E+01  0.40000000000E-01 0.  1.
</event>
<event>
 5   0  0.6200596E+07  0.9118800E+02  0.7818608E-02  0.1180000E+00
       11   -1    0    0    0    0  0.00000000000E+00  0.00000000000E+00  0.39999999673E+01  0.40000000000E+01  0.51109989000E-03 0.  1.
     -623   -1    0    0    0    0  0.00000000000E+00  0.00000000000E+00  0.12525980253E-10  0.17130000000E+03  0.17130000000E+03 0. -1.
       11    1    1    2    0    0 -0.46596303811E-02 -0.84958172470E-02  0.94454058015E-01  0.94951152499E-01  0.51109989000E-03 0.  1.
     -623    1    1    2    0    0 -0.14597548471E-03  0.33688358126E-02  0.70828776102E-03  0.17130000003E+03  0.17130000000E+03 0. -1.
      622    1    1    2    0    0  0.48056058658E-02  0.51269814344E-02  0.39048376216E+01  0.39050488128E+01  0.40000000000E-01 0.  1.
</event>
<event>
 5   0  0.6200596E+07  0.9118800E+02  0.7818608E-02  0.1180000E+00
       11   -1    0    0    0    0  0.00000000000E+00  0.00000000000E+00  0.39999999673E+01  0.40000000000E+01  0.51109989000E-03 0.  1.
     -623   -1    0    0    0    0  0.00000000000E+00  0.00000000000E+00  0.12525980253E-10  0.17130000000E+03  0.17130000000E+03 0. -1.
       11    1    1    2    0    0  0.32304674195E-03  0.35278365654E-02  0.46548233858E-01  0.46685643260E-01  0.51109989000E-03 0.  1.
     -623    1    1    2    0    0 -0.31811771992E-02 -0.88170544160E-03  0.34169479866E-03  0.17130000003E+03  0.17130000000E+03 0. -1.
      622    1    1    2    0    0  0.28581304572E-02 -0.26461311238E-02  0.39531100387E+01  0.39533143246E+01  0.40000000000E-01 0.  1.
</event>
<event>
 5   0  0.6200596E+07  0.9118800E+02  0.7818608E-02  0.1180000E+00
       11   -1    0    0    0    0  0.00000000000E+00  0.00000000000E+00  0.39999999673E+01  0.40000000000E+01  0.51109989000E-03 0. -1.
     -623   -1    0    0    0    0  0.00000000000E+00  0.00000000000E+00  0.12525980253E-10  0.17130000000E+03  0.17130000000E+03 0. -1.
       11    1    1    2    0    0  0.74494320571E-02 -0.38529296575E-02  0.12710192999E+01  0.12710470727E+01  0.51109989000E-03 0. -1.
     -623    1    1    2    0    0 -0.38462088954E-03  0.17031217751E-02  0.33091056082E-03  0.17130000001E+03  0.17130000000E+03 0. -1.
      622    1    1    2    0    0 -0.70648111676E-02  0.21498078824E-02  0.27286497569E+01  0.27289529181E+01  0.40000000000E-01 0. -1.
</event>
<event>
 5   0  0.6200596E+07  0.9118800E+02  0.7818608E-02  0.1180000E+00
       11   -1    0    0    0    0  0.00000000000E+00  0.00000000000E+00  0.39999999673E+01  0.40000000000E+01  0.51109989000E-03 0.  1.
     -623   -1    0    0    0    0  0.00000000000E+00  0.00000000000E+00  0.12525980253E-10  0.17130000000E+03  0.17130000000E+03 0.  1.
       11    1    1    2    0    0 -0.15208166886E-02 -0.17576863723E-02  0.27721347841E-01  0.27823312020E-01  0.51109989000E-03 0.  1.
     -623    1    1    2    0    0  0.30337199585E-03  0.37159563597E-03  0.30376692515E-03  0.17130000000E+03  0.17130000000E+03 0.  1.
      622    1    1    2    0    0  0.12174446928E-02  0.13860907363E-02  0.39719748526E+01  0.39721766870E+01  0.40000000000E-01 0.  1.
</event>
<event>
 5   0  0.6200596E+07  0.9118800E+02  0.7818608E-02  0.1180000E+00
       11   -1    0    0    0    0  0.00000000000E+00  0.00000000000E+00  0.39999999673E+01  0.40000000000E+01  0.51109989000E-03 0. -1.
     -623   -1    0    0    0    0  0.00000000000E+00  0.00000000000E+00  0.12525980253E-10  0.17130000000E+03  0.17130000000E+03 0. -1.
       11    1    1    2    0    0  0.43436777545E-02 -0.77448094754E-02  0.12931594342E-01  0.15695125449E-01  0.51109989000E-03 0. -1.
     -623    1    1    2    0    0 -0.16055570146E-02  0.91115206791E-02  0.29657422293E-02  0.17130000028E+03  0.17130000000E+03 0. -1.
      622    1    1    2    0    0 -0.27381207399E-02 -0.13667112037E-02  0.39841026308E+01  0.39843045990E+01  0.40000000000E-01 0. -1.
</event>
<event>
 5   0  0.6200596E+07  0.9118800E+02  0.7818608E-02  0.1180000E+00
       11   -1    0    0    0    0  0.00000000000E+00  0.00000000000E+00  0.39999999673E+01  0.40000000000E+01  0.51109989000E-03 0.  1.
     -623   -1    0    0    0    0  0.00000000000E+00  0.00000000000E+00  0.12525980253E-10  0.17130000000E+03  0.17130000000E+03 0. -1.
       11    1    1    2    0    0  0.30159364628E-02 -0.17321660767E-02  0.56682013762E-01  0.56790916325E-01  0.51109989000E-03 0.  1.
     -623    1    1    2    0    0 -0.18460238777E-02  0.20453216406E-01  0.35760381010E-03  0.17130000123E+03  0.17130000000E+03 0. -1.
      622    1    1    2    0    0 -0.11699125850E-02 -0.18721050329E-01  0.39429603498E+01  0.39432078523E+01  0.40000000000E-01 0.  1.
</event>
<event>
 5   0  0.6200596E+07  0.9118800E+02  0.7818608E-02  0.1180000E+00
       11   -1    0    0    0    0  0.00000000000E+00  0.00000000000E+00  0.39999999673E+01  0.40000000000E+01  0.51109989000E-03 0. -1.
     -623   -1    0    0    0    0  0.00000000000E+00  0.00000000000E+00  0.12525980253E-10  0.17130000000E+03  0.17130000000E+03 0. -1.
       11    1    1    2    0    0 -0.24344324412E-02  0.22012539444E-02  0.14026774504E-01  0.14414700940E-01  0.51109989000E-03 0. -1.
     -623    1    1    2    0    0  0.15966937554E-02 -0.42238822989E-02  0.58928402730E-03  0.17130000006E+03  0.17130000000E+03 0. -1.
      622    1    1    2    0    0  0.83773868586E-03  0.20226283545E-02  0.39853839088E+01  0.39855852385E+01  0.40000000000E-01 0. -1.
</event>
<event>
 5   0  0.6200596E+07  0.9118800E+02  0.7818608E-02  0.1180000E+00
       11   -1    0    0    0    0  0.00000000000E+00  0.00000000000E+00  0.39999999673E+01  0.40000000000E+01  0.51109989000E-03 0.  1.
     -623   -1    0    0    0    0  0.00000000000E+00  0.00000000000E+00  0.12525980253E-10  0.17130000000E+03  0.17130000000E+03 0.  1.
       11    1    1    2    0    0 -0.27289188109E-03  0.86286408384E-03  0.45776006250E-01  0.45787803759E-01  0.51109989000E-03 0.  1.
     -623    1    1    2    0    0 -0.12111694549E-03 -0.29300838862E-02  0.21467120217E-03  0.17130000003E+03  0.17130000000E+03 0.  1.
      622    1    1    2    0    0  0.39400882658E-03  0.20672198023E-02  0.39540092899E+01  0.39542121710E+01  0.40000000000E-01 0.  1.
</event>
<event>
 5   0  0.6200596E+07  0.9118800E+02  0.7818608E-02  0.1180000E+00
       11   -1    0    0    0    0  0.00000000000E+00  0.00000000000E+00  0.39999999673E+01  0.40000000000E+01  0.51109989000E-03 0.  1.
     -623   -1    0    0    0    0  0.00000000000E+00  0.00000000000E+00  0.12525980253E-10  0.17130000000E+03  0.17130000000E+03 0.  1.
       11    1    1    2    0    0 -0.44984056336E-02 -0.17600448519E-01  0.11356867122E+00  0.11501354592E+00  0.51109989000E-03 0.  1.
     -623    1    1    2    0    0 -0.13701334096E-03 -0.26360466477E-02  0.17062709301E-02  0.17130000003E+03  0.17130000000E+03 0.  1.
      622    1    1    2    0    0  0.46354189746E-02  0.20236495167E-01  0.38847250252E+01  0.38849864252E+01  0.40000000000E-01 0.  1.
</event>
<event>
 5   0  0.6200596E+07  0.9118800E+02  0.7818608E-02  0.1180000E+00
       11   -1    0    0    0    0  0.00000000000E+00  0.00000000000E+00  0.39999999673E+01  0.40000000000E+01  0.51109989000E-03 0. -1.
     -623   -1    0    0    0    0  0.00000000000E+00  0.00000000000E+00  0.12525980253E-10  0.17130000000E+03  0.17130000000E+03 0. -1.
       11    1    1    2    0    0  0.59833974534E-03  0.52454400544E-04  0.85496698207E-02  0.85859674395E-02  0.51109989000E-03 0. -1.
     -623    1    1    2    0    0  0.77169061505E-04  0.34636600437E-03  0.23677785487E-03  0.17130000000E+03  0.17130000000E+03 0. -1.
      622    1    1    2    0    0 -0.67550880685E-03 -0.39882040492E-03  0.39912135197E+01  0.39914140320E+01  0.40000000000E-01 0. -1.
</event>
<event>
 5   0  0.6200596E+07  0.9118800E+02  0.7818608E-02  0.1180000E+00
       11   -1    0    0    0    0  0.00000000000E+00  0.00000000000E+00  0.39999999673E+01  0.40000000000E+01  0.51109989000E-03 0.  1.
     -623   -1    0    0    0    0  0.00000000000E+00  0.00000000000E+00  0.12525980253E-10  0.17130000000E+03  0.17130000000E+03 0.  1.
       11    1    1    2    0    0 -0.16548030776E-04  0.10970796156E-02  0.45566191758E-02  0.47146428786E-02  0.51109989000E-03 0.  1.
     -623    1    1    2    0    0 -0.58539950575E-03  0.55361541042E-04  0.35844504284E-03  0.17130000000E+03  0.17130000000E+03 0.  1.
      622    1    1    2    0    0  0.60194753653E-03 -0.11524411566E-02  0.39950849031E+01  0.39952853557E+01  0.40000000000E-01 0.  1.
</event>
<event>
 5   0  0.6200596E+07  0.9118800E+02  0.7818608E-02  0.1180000E+00
       11   -1    0    0    0    0  0.00000000000E+00  0.00000000000E+00  0.39999999673E+01  0.40000000000E+01  0.51109989000E-03 0. -1.
     -623   -1    0    0    0    0  0.00000000000E+00  0.00000000000E+00  0.12525980253E-10  0.17130000000E+03  0.17130000000E+03 0.  1.
       11    1    1    2    0    0 -0.57978385457E-02  0.13895666114E-03  0.43061299186E-01  0.43453089072E-01  0.51109989000E-03 0. -1.
     -623    1    1    2    0    0 -0.46530740514E-03  0.26624963937E-02  0.59993063077E-03  0.17130000002E+03  0.17130000000E+03 0.  1.
      622    1    1    2    0    0  0.62631459508E-02 -0.28014530548E-02  0.39563387375E+01  0.39565468886E+01  0.40000000000E-01 0. -1.
</event>
<event>
 5   0  0.6200596E+07  0.9118800E+02  0.7818608E-02  0.1180000E+00
       11   -1    0    0    0    0  0.00000000000E+00  0.00000000000E+00  0.39999999673E+01  0.40000000000E+01  0.51109989000E-03 0. -1.
     -623   -1    0    0    0    0  0.00000000000E+00  0.00000000000E+00  0.12525980253E-10  0.17130000000E+03  0.17130000000E+03 0. -1.
       11    1    1    2    0    0  0.33230759059E-01  0.72148533828E-02  0.11836702104E+01  0.11841586742E+01  0.51109989000E-03 0. -1.
     -623    1    1    2    0    0 -0.26673397866E-01  0.11129365023E-01  0.84238887126E-03  0.17130000244E+03  0.17130000000E+03 0. -1.
      622    1    1    2    0    0 -0.65573611930E-02 -0.18344218406E-01  0.28154873681E+01  0.28158388855E+01  0.40000000000E-01 0. -1.
</event>
<event>
 5   0  0.6200596E+07  0.9118800E+02  0.7818608E-02  0.1180000E+00
       11   -1    0    0    0    0  0.00000000000E+00  0.00000000000E+00  0.39999999673E+01  0.40000000000E+01  0.51109989000E-03 0.  1.
     -623   -1    0    0    0    0  0.00000000000E+00  0.00000000000E+00  0.12525980253E-10  0.17130000000E+03  0.17130000000E+03 0. -1.
       11    1    1    2    0    0 -0.46680556185E-02  0.28068979602E-02  0.89012530939E-01  0.89180498452E-01  0.51109989000E-03 0.  1.
     -623    1    1    2    0    0  0.65069229473E-03 -0.26328105426E-02  0.37459019747E-03  0.17130000002E+03  0.17130000000E+03 0. -1.
      622    1    1    2    0    0  0.40173633238E-02 -0.17408741754E-03  0.39106128462E+01  0.39108194797E+01  0.40000000000E-01 0.  1.
</event>
<event>
 5   0  0.6200596E+07  0.9118800E+02  0.7818608E-02  0.1180000E+00
       11   -1    0    0    0    0  0.00000000000E+00  0.00000000000E+00  0.39999999673E+01  0.40000000000E+01  0.51109989000E-03 0. -1.
     -623   -1    0    0    0    0  0.00000000000E+00  0.00000000000E+00  0.12525980253E-10  0.17130000000E+03  0.17130000000E+03 0. -1.
       11    1    1    2    0    0 -0.17364313180E-01 -0.80396269046E-02  0.98012381468E+00  0.98031072028E+00  0.51109989000E-03 0. -1.
     -623    1    1    2    0    0 -0.45354938584E-02  0.59305844745E-02  0.53213305873E-03  0.17130000016E+03  0.17130000000E+03 0. -1.
      622    1    1    2    0    0  0.21899807038E-01  0.21090424301E-02  0.30193440196E+01  0.30196891162E+01  0.40000000000E-01 0. -1.
</event>
<event>
 5   0  0.6200596E+07  0.9118800E+02  0.7818608E-02  0.1180000E+00
       11   -1    0    0    0    0  0.00000000000E+00  0.00000000000E+00  0.39999999673E+01  0.40000000000E+01  0.51109989000E-03 0.  1.
     -623   -1    0    0    0    0  0.00000000000E+00  0.00000000000E+00  0.12525980253E-10  0.17130000000E+03  0.17130000000E+03 0.  1.
       11    1    1    2    0    0  0.92224218246E-02  0.11045802913E-01  0.50211169106E+00  0.50231810075E+00  0.51109989000E-03 0.  1.
     -623    1    1    2    0    0 -0.91567887010E-02  0.13571719246E-01  0.52253004423E-03  0.17130000078E+03  0.17130000000E+03 0.  1.
      622    1    1    2    0    0 -0.65633123595E-04 -0.24617522159E-01  0.34973657463E+01  0.34976811161E+01  0.40000000000E-01 0.  1.
</event>
<event>
 5   0  0.6200596E+07  0.9118800E+02  0.7818608E-02  0.1180000E+00
       11   -1    0    0    0    0  0.00000000000E+00  0.00000000000E+00  0.39999999673E+01  0.40000000000E+01  0.51109989000E-03 0.  1.
     -623   -1    0    0    0    0  0.00000000000E+00  0.00000000000E+00  0.12525980253E-10  0.17130000000E+03  0.17130000000E+03 0. -1.
       11    1    1    2    0    0 -0.99248640391E-03  0.63780145031E-03  0.27283616646E-02  0.30161232382E-02  0.51109989000E-03 0.  1.
     -623    1    1    2    0    0 -0.55924953391E-04 -0.11295485638E-02  0.48805705145E-03  0.17130000000E+03  0.17130000000E+03 0. -1.
      622    1    1    2    0    0  0.10484113573E-02  0.49174711351E-03  0.39967835486E+01  0.39969838723E+01  0.40000000000E-01 0.  1.
</event>
<event>
 5   0  0.6200596E+07  0.9118800E+02  0.7818608E-02  0.1180000E+00
       11   -1    0    0    0    0  0.00000000000E+00  0.00000000000E+00  0.39999999673E+01  0.40000000000E+01  0.51109989000E-03 0.  1.
     -623   -1    0    0    0    0  0.00000000000E+00  0.00000000000E+00  0.12525980253E-10  0.17130000000E+03  0.17130000000E+03 0.  1.
       11    1    1    2    0    0  0.23330934441E-02  0.41731392107E-02  0.13127040671E+00  0.13135843831E+00  0.51109989000E-03 0.  1.
     -623    1    1    2    0    0 -0.10505200470E-02  0.16275902138E-03  0.29744152462E-03  0.17130000000E+03  0.17130000000E+03 0.  1.
      622    1    1    2    0    0 -0.12825733971E-02 -0.43358982321E-02  0.38684321191E+01  0.38686415581E+01  0.40000000000E-01 0.  1.
</event>
<event>
 5   0  0.6200596E+07  0.9118800E+02  0.7818608E-02  0.1180000E+00
       11   -1    0    0    0    0  0.00000000000E+00  0.00000000000E+00  0.39999999673E+01  0.40000000000E+01  0.51109989000E-03 0.  1.
     -623   -1    0    0    0    0  0.00000000000E+00  0.00000000000E+00  0.12525980253E-10  0.17130000000E+03  0.17130000000E+03 0.  1.
       11    1    1    2    0    0  0.27786253814E-02  0.37231717289E-02  0.44802681818E-01  0.45045802095E-01  0.51109989000E-03 0.  1.
     -623    1    1    2    0    0 -0.16064068844E-02  0.37079898019E-03  0.44767204521E-03  0.17130000001E+03  0.17130000000E+03 0.  1.
      622    1    1    2    0    0 -0.11722184970E-02 -0.40939707091E-02  0.39547496135E+01  0.39549541894E+01  0.40000000000E-01 0.  1.
</event>
<event>
 5   0  0.6200596E+07  0.9118800E+02  0.7818608E-02  0.1180000E+00
       11   -1    0    0    0    0  0.00000000000E+00  0.00000000000E+00  0.39999999673E+01  0.40000000000E+01  0.51109989000E-03 0. -1.
     -623   -1    0    0    0    0  0.00000000000E+00  0.00000000000E+00  0.12525980253E-10  0.17130000000E+03  0.17130000000E+03 0.  1.
       11    1    1    2    0    0 -0.18987601882E-02  0.72212223757E-03  0.11114881089E-02  0.23713662945E-02  0.51109989000E-03 0.  1.
     -623    1    1    2    0    0  0.36665102625E-03 -0.31476457264E-03  0.14602904639E-02  0.17130000001E+03  0.17130000000E+03 0.  1.
      622    1    1    2    0    0  0.15321091620E-02 -0.40735766494E-03  0.39974281888E+01  0.39976286268E+01  0.40000000000E-01 0. -1.
</event>
<event>
 5   0  0.6200596E+07  0.9118800E+02  0.7818608E-02  0.1180000E+00
       11   -1    0    0    0    0  0.00000000000E+00  0.00000000000E+00  0.39999999673E+01  0.40000000000E+01  0.51109989000E-03 0. -1.
     -623   -1    0    0    0    0  0.00000000000E+00  0.00000000000E+00  0.12525980253E-10  0.17130000000E+03  0.17130000000E+03 0. -1.
       11    1    1    2    0    0 -0.30216754834E-01 -0.24003714196E-01  0.50417093817E+00  0.50564594994E+00  0.51109989000E-03 0. -1.
     -623    1    1    2    0    0 -0.43082276248E-02  0.65082246325E-02  0.19184918555E-02  0.17130000019E+03  0.17130000000E+03 0. -1.
      622    1    1    2    0    0  0.34524982459E-01  0.17495489563E-01  0.34939105373E+01  0.34943538615E+01  0.40000000000E-01 0. -1.
</event>
<event>
 5   0  0.6200596E+07  0.9118800E+02  0.7818608E-02  0.1180000E+00
       11   -1    0    0    0    0  0.00000000000E+00  0.00000000000E+00  0.39999999673E+01  0.40000000000E+01  0.51109989000E-03 0.  1.
     -623   -1    0    0    0    0  0.00000000000E+00  0.00000000000E+00  0.12525980253E-10  0.17130000000E+03  0.17130000000E+03 0. -1.
       11    1    1    2    0    0  0.39884710184E-01 -0.28771577157E-01  0.30018675065E+01  0.30022703711E+01  0.51109989000E-03 0.  1.
     -623    1    1    2    0    0 -0.32777028278E-01  0.14093026699E-01  0.13421074897E-02  0.17130000372E+03  0.17130000000E+03 0. -1.
      622    1    1    2    0    0 -0.71076819062E-02  0.14678550458E-01  0.99679035339E+00  0.99772590805E+00  0.40000000000E-01 0.  0.
</event>
<event>
 5   0  0.6200596E+07  0.9118800E+02  0.7818608E-02  0.1180000E+00
       11   -1    0    0    0    0  0.00000000000E+00  0.00000000000E+00  0.39999999673E+01  0.40000000000E+01  0.51109989000E-03 0. -1.
     -623   -1    0    0    0    0  0.00000000000E+00  0.00000000000E+00  0.12525980253E-10  0.17130000000E+03  0.17130000000E+03 0.  1.
       11    1    1    2    0    0 -0.51561839093E-02 -0.18844613985E-01  0.24399347557E+00  0.24477496411E+00  0.51109989000E-03 0. -1.
     -623    1    1    2    0    0  0.15704291093E-02 -0.10940728732E-02  0.10491608822E-02  0.17130000001E+03  0.17130000000E+03 0.  1.
      622    1    1    2    0    0  0.35857548000E-02  0.19938686859E-01  0.37549573309E+01  0.37552250220E+01  0.40000000000E-01 0. -1.
</event>
<event>
 5   0  0.6200596E+07  0.9118800E+02  0.7818608E-02  0.1180000E+00
       11   -1    0    0    0    0  0.00000000000E+00  0.00000000000E+00  0.39999999673E+01  0.40000000000E+01  0.51109989000E-03 0. -1.
     -623   -1    0    0    0    0  0.00000000000E+00  0.00000000000E+00  0.12525980253E-10  0.17130000000E+03  0.17130000000E+03 0. -1.
       11    1    1    2    0    0  0.39252572710E-03  0.54659300362E-02  0.29046239398E-01  0.29563080234E-01  0.51109989000E-03 0. -1.
     -623    1    1    2    0    0  0.13228370696E-02 -0.19127655835E-02  0.72028029090E-03  0.17130000002E+03  0.17130000000E+03 0. -1.
      622    1    1    2    0    0 -0.17153627967E-02 -0.35531644527E-02  0.39702334477E+01  0.39704369025E+01  0.40000000000E-01 0. -1.
</event>
<event>
 5   0  0.6200596E+07  0.9118800E+02  0.7818608E-02  0.1180000E+00
       11   -1    0    0    0    0  0.00000000000E+00  0.00000000000E+00  0.39999999673E+01  0.40000000000E+01  0.51109989000E-03 0.  1.
     -623   -1    0    0    0    0  0.00000000000E+00  0.00000000000E+00  0.12525980253E-10  0.17130000000E+03  0.17130000000E+03 0.  1.
       11    1    1    2    0    0 -0.19353226942E-02 -0.25002609335E-02  0.41384420083E+00  0.41385659420E+00  0.51109989000E-03 0.  1.
     -623    1    1    2    0    0 -0.16109221770E-03  0.73265680877E-03  0.23649880404E-03  0.17130000000E+03  0.17130000000E+03 0.  1.
      622    1    1    2    0    0  0.20964149119E-02  0.17676041247E-02  0.35859192677E+01  0.35861434040E+01  0.40000000000E-01 0.  1.
</event>
<event>
 5   0  0.6200596E+07  0.9118800E+02  0.7818608E-02  0.1180000E+00
       11   -1    0    0    0    0  0.00000000000E+00  0.00000000000E+00  0.39999999673E+01  0.40000000000E+01  0.51109989000E-03 0.  1.
     -623   -1    0    0    0    0  0.00000000000E+00  0.00000000000E+00  0.12525980253E-10  0.17130000000E+03  0.17130000000E+03 0. -1.
       11    1    1    2    0    0  0.40670957771E-02  0.23447506041E-02  0.32454662298E+00  0.32458097731E+00  0.51109989000E-03 0.  1.
     -623    1    1    2    0    0 -0.18262772800E-02 -0.92059046552E-02  0.25933531474E-03  0.17130000026E+03  0.17130000000E+03 0. -1.
      622    1    1    2    0    0 -0.22408184971E-02  0.68611540511E-02  0.36751940091E+01  0.36754187654E+01  0.40000000000E-01 0.  1.
</event>
<event>
 5   0  0.6200596E+07  0.9118800E+02  0.7818608E-02  0.1180000E+00
       11   -1    0    0    0    0  0.00000000000E+00  0.00000000000E+00  0.39999999673E+01  0.40000000000E+01  0.51109989000E-03 0.  1.
     -623   -1    0    0    0    0  0.00000000000E+00  0.00000000000E+00  0.12525980253E-10  0.17130000000E+03  0.17130000000E+03 0.  1.
       11    1    1    2    0    0  0.10726041163E-02 -0.13544498729E-02  0.63096402775E-01  0.63122121940E-01  0.51109989000E-03 0.  1.
     -623    1    1    2    0    0 -0.24842100377E-03  0.88750206231E-04  0.22918858152E-03  0.17130000000E+03  0.17130000000E+03 0.  1.
      622    1    1    2    0    0 -0.82418311258E-03  0.12656996667E-02  0.39366743760E+01  0.39368778777E+01  0.40000000000E-01 0.  1.
</event>
<event>
 5   0  0.6200596E+07  0.9118800E+02  0.7818608E-02  0.1180000E+00
       11   -1    0    0    0    0  0.00000000000E+00  0.00000000000E+00  0.39999999673E+01  0.40000000000E+01  0.51109989000E-03 0.  1.
     -623   -1    0    0    0    0  0.00000000000E+00  0.00000000000E+00  0.12525980253E-10  0.17130000000E+03  0.17130000000E+03 0.  1.
       11    1    1    2    0    0  0.11285895433E-03 -0.78277818425E-04  0.33758940186E-02  0.34171254510E-02  0.51109989000E-03 0.  1.
     -623    1    1    2    0    0  0.14587564267E-02  0.37661533805E-03  0.24170176573E-03  0.17130000001E+03  0.17130000000E+03 0.  1.
      622    1    1    2    0    0 -0.15716153810E-02 -0.29833751962E-03  0.39963823716E+01  0.39965828678E+01  0.40000000000E-01 0.  1.
</event>
<event>
 5   0  0.6200596E+07  0.9118800E+02  0.7818608E-02  0.1180000E+00
       11   -1    0    0    0    0  0.00000000000E+00  0.00000000000E+00  0.39999999673E+01  0.40000000000E+01  0.51109989000E-03 0.  1.
     -623   -1    0    0    0    0  0.00000000000E+00  0.00000000000E+00  0.12525980253E-10  0.17130000000E+03  0.17130000000E+03 0. -1.
       11    1    1    2    0    0 -0.15502855639E-02  0.20948891873E-02  0.11996919315E+00  0.11999858529E+00  0.51109989000E-03 0.  1.
     -623    1    1    2    0    0 -0.12126623717E-03 -0.11257658166E-03  0.23641721270E-03  0.17130000000E+03  0.17130000000E+03 0. -1.
      622    1    1    2    0    0  0.16715518011E-02 -0.19823126057E-02  0.38797943570E+01  0.38800014145E+01  0.40000000000E-01 0.  1.
</event>
<event>
 5   0  0.6200596E+07  0.9118800E+02  0.7818608E-02  0.1180000E+00
       11   -1    0    0    0    0  0.00000000000E+00  0.00000000000E+00  0.39999999673E+01  0.40000000000E+01  0.51109989000E-03 0. -1.
     -623   -1    0    0    0    0  0.00000000000E+00  0.00000000000E+00  0.12525980253E-10  0.17130000000E+03  0.17130000000E+03 0.  1.
       11    1    1    2    0    0  0.88457458285E-03  0.10993603229E-01  0.25161252347E+00  0.25185465049E+00  0.51109989000E-03 0. -1.
     -623    1    1    2    0    0 -0.35549816411E-02 -0.62018574638E-03  0.47088499924E-03  0.17130000004E+03  0.17130000000E+03 0.  1.
      622    1    1    2    0    0  0.26704070583E-02 -0.10373417483E-01  0.37479165589E+01  0.37481453108E+01  0.40000000000E-01 0. -1.
</event>
<event>
 5   0  0.6200596E+07  0.9118800E+02  0.7818608E-02  0.1180000E+00
       11   -1    0    0    0    0  0.00000000000E+00  0.00000000000E+00  0.39999999673E+01  0.40000000000E+01  0.51109989000E-03 0. -1.
     -623   -1    0    0    0    0  0.00000000000E+00  0.00000000000E+00  0.12525980253E-10  0.17130000000E+03  0.17130000000E+03 0. -1.
       11    1    1    2    0    0 -0.59214822053E-02  0.40296440794E-01  0.27363358055E+01  0.27366389548E+01  0.51109989000E-03 0. -1.
     -623    1    1    2    0    0 -0.37071681153E-01 -0.49332152273E-01  0.17121149812E-02  0.17130001112E+03  0.17130000000E+03 0. -1.
      622    1    1    2    0    0  0.42993163359E-01  0.90357114791E-02  0.12619520469E+01  0.12633499218E+01  0.40000000000E-01 0. -1.
</event>
<event>
 5   0  0.6200596E+07  0.9118800E+02  0.7818608E-02  0.1180000E+00
       11   -1    0    0    0    0  0.00000000000E+00  0.00000000000E+00  0.39999999673E+01  0.40000000000E+01  0.51109989000E-03 0.  1.
     -623   -1    0    0    0    0  0.00000000000E+00  0.00000000000E+00  0.12525980253E-10  0.17130000000E+03  0.17130000000E+03 0. -1.
       11    1    1    2    0    0  0.17708599858E-03 -0.90142122000E-02  0.11077487054E+00  0.11114234362E+00  0.51109989000E-03 0.  1.
     -623    1    1    2    0    0 -0.10063308584E-02  0.75835439919E-03  0.58201972665E-03  0.17130000001E+03  0.17130000000E+03 0. -1.
      622    1    1    2    0    0  0.82924485979E-03  0.82558578008E-02  0.38886430771E+01  0.38888576508E+01  0.40000000000E-01 0.  1.
</event>
<event>
 5   0  0.6200596E+07  0.9118800E+02  0.7818608E-02  0.1180000E+00
       11   -1    0    0    0    0  0.00000000000E+00  0.00000000000E+00  0.39999999673E+01  0.40000000000E+01  0.51109989000E-03 0.  1.
     -623   -1    0    0    0    0  0.00000000000E+00  0.00000000000E+00  0.12525980253E-10  0.17130000000E+03  0.17130000000E+03 0.  1.
       11    1    1    2    0    0  0.21046415429E-01 -0.19274700381E-01  0.18715986260E+00  0.18932390517E+00  0.51109989000E-03 0.  1.
     -623    1    1    2    0    0 -0.27155269498E-01  0.88643751102E-02  0.23954683712E-02  0.17130000240E+03  0.17130000000E+03 0.  1.
      622    1    1    2    0    0  0.61088540687E-02  0.10410325270E-01  0.38104446364E+01  0.38106736963E+01  0.40000000000E-01 0.  1.
</event>
<event>
 5   0  0.6200596E+07  0.9118800E+02  0.7818608E-02  0.1180000E+00
       11   -1    0    0    0    0  0.00000000000E+00  0.00000000000E+00  0.39999999673E+01  0.40000000000E+01  0.51109989000E-03 0. -1.
     -623   -1    0    0    0    0  0.00000000000E+00  0.00000000000E+00  0.12525980253E-10  0.17130000000E+03  0.17130000000E+03 0.  1.
       11    1    1    2    0    0  0.31859522083E-02  0.27082719610E-02  0.61645787712E-01  0.61789557302E-01  0.51109989000E-03 0. -1.
     -623    1    1    2    0    0  0.10981298867E-02 -0.35337188303E-03  0.34991877512E-03  0.17130000000E+03  0.17130000000E+03 0.  1.
      622    1    1    2    0    0 -0.42840820950E-02 -0.23549000780E-02  0.39380042609E+01  0.39382104385E+01  0.40000000000E-01 0. -1.
</event>
<event>
 5   0  0.6200596E+07  0.9118800E+02  0.7818608E-02  0.1180000E+00
       11   -1    0    0    0    0  0.00000000000E+00  0.00000000000E+00  0.39999999673E+01  0.40000000000E+01  0.51109989000E-03 0.  1.
     -623   -1    0    0    0    0  0.00000000000E+00  0.00000000000E+00  0.12525980253E-10  0.17130000000E+03  0.17130000000E+03 0. -1.
       11    1    1    2    0    0 -0.13827855536E-01 -0.31302059420E-02  0.16293220395E+01  0.16293838030E+01  0.51109989000E-03 0.  1.
     -623    1    1    2    0    0  0.10934576741E-02  0.75455842443E-03  0.43462432225E-03  0.17130000001E+03  0.17130000000E+03 0. -1.
      622    1    1    2    0    0  0.12734397862E-01  0.23756475176E-02  0.23702433035E+01  0.23706161913E+01  0.40000000000E-01 0.  1.
</event>
<event>
 5   0  0.6200596E+07  0.9118800E+02  0.7818608E-02  0.1180000E+00
       11   -1    0    0    0    0  0.00000000000E+00  0.00000000000E+00  0.39999999673E+01  0.40000000000E+01  0.51109989000E-03 0. -1.
     -623   -1    0    0    0    0  0.00000000000E+00  0.00000000000E+00  0.12525980253E-10  0.17130000000E+03  0.17130000000E+03 0. -1.
       11    1    1    2    0    0 -0.42828846146E-02 -0.80581539193E-02  0.19923432675E+01  0.19923642322E+01  0.51109989000E-03 0. -1.
     -623    1    1    2    0    0 -0.50192213658E-04  0.68870884212E-03  0.43765748507E-03  0.17130000000E+03  0.17130000000E+03 0. -1.
      622    1    1    2    0    0  0.43330768283E-02  0.73694450772E-02  0.20072190423E+01  0.20076357658E+01  0.40000000000E-01 0. -1.
</event>
<event>
 5   0  0.6200596E+07  0.9118800E+02  0.7818608E-02  0.1180000E+00
       11   -1    0    0    0    0  0.00000000000E+00  0.00000000000E+00  0.39999999673E+01  0.40000000000E+01  0.51109989000E-03 0.  1.
     -623   -1    0    0    0    0  0.00000000000E+00  0.00000000000E+00  0.12525980253E-10  0.17130000000E+03  0.17130000000E+03 0. -1.
       11    1    1    2    0    0  0.12763938242E-01 -0.12940189566E-01  0.12310148425E+01  0.12311491259E+01  0.51109989000E-03 0.  1.
     -623    1    1    2    0    0 -0.45235723485E-03  0.13720535340E-02  0.47474405867E-03  0.17130000001E+03  0.17130000000E+03 0. -1.
      622    1    1    2    0    0 -0.12311581007E-01  0.11568136032E-01  0.27685103808E+01  0.27688508673E+01  0.40000000000E-01 0.  1.
</event>
<event>
 5   0  0.6200596E+07  0.9118800E+02  0.7818608E-02  0.1180000E+00
       11   -1    0    0    0    0  0.00000000000E+00  0.00000000000E+00  0.39999999673E+01  0.40000000000E+01  0.51109989000E-03 0. -1.
     -623   -1    0    0    0    0  0.00000000000E+00  0.00000000000E+00  0.12525980253E-10  0.17130000000E+03  0.17130000000E+03 0. -1.
       11    1    1    2    0    0  0.23832232548E-01 -0.78603431239E-01  0.21406401963E+01  0.21422154854E+01  0.51109989000E-03 0. -1.
     -623    1    1    2    0    0 -0.22266737420E-01  0.32030538681E-01  0.25950469541E-02  0.17130000446E+03  0.17130000000E+03 0. -1.
      622    1    1    2    0    0 -0.15654951280E-02  0.46572892557E-01  0.18567647241E+01  0.18577800531E+01  0.40000000000E-01 0. -1.
</event>
<event>
 5   0  0.6200596E+07  0.9118800E+02  0.7818608E-02  0.1180000E+00
       11   -1    0    0    0    0  0.00000000000E+00  0.00000000000E+00  0.39999999673E+01  0.40000000000E+01  0.51109989000E-03 0. -1.
     -623   -1    0    0    0    0  0.00000000000E+00  0.00000000000E+00  0.12525980253E-10  0.17130000000E+03  0.17130000000E+03 0.  1.
       11    1    1    2    0    0  0.17939236432E-01  0.27079118564E-02  0.18899349035E+01  0.18900220501E+01  0.51109989000E-03 0. -1.
     -623    1    1    2    0    0 -0.34504346581E-02 -0.20965538191E-02  0.51619121738E-03  0.17130000005E+03  0.17130000000E+03 0.  1.
      622    1    1    2    0    0 -0.14488801774E-01 -0.61135803732E-03  0.21095488726E+01  0.21099779016E+01  0.40000000000E-01 0.  0.
</event>
<event>
 5   0  0.6200596E+07  0.9118800E+02  0.7818608E-02  0.1180000E+00
       11   -1    0    0    0    0  0.00000000000E+00  0.00000000000E+00  0.39999999673E+01  0.40000000000E+01  0.51109989000E-03 0. -1.
     -623   -1    0    0    0    0  0.00000000000E+00  0.00000000000E+00  0.12525980253E-10  0.17130000000E+03  0.17130000000E+03 0.  1.
       11    1    1    2    0    0 -0.98068995834E-03  0.12530307942E-02  0.11350791304E-01  0.11473165326E-01  0.51109989000E-03 0. -1.
     -623    1    1    2    0    0 -0.29837756862E-03 -0.18908041518E-02  0.32318882728E-03  0.17130000001E+03  0.17130000000E+03 0.  1.
      622    1    1    2    0    0  0.12790675270E-02  0.63777335768E-03  0.39883259872E+01  0.39885268237E+01  0.40000000000E-01 0. -1.
</event>
<event>
 5   0  0.6200596E+07  0.9118800E+02  0.7818608E-02  0.1180000E+00
       11   -1    0    0    0    0  0.00000000000E+00  0.00000000000E+00  0.39999999673E+01  0.40000000000E+01  0.51109989000E-03 0.  1.
     -623   -1    0    0    0    0  0.00000000000E+00  0.00000000000E+00  0.12525980253E-10  0.17130000000E+03  0.17130000000E+03 0. -1.
       11    1    1    2    0    0  0.43781149880E-02 -0.41557615967E-02  0.84098531620E-01  0.84316442566E-01  0.51109989000E-03 0.  1.
     -623    1    1    2    0    0  0.27476002489E-03  0.79691219432E-03  0.42639809161E-03  0.17130000000E+03  0.17130000000E+03 0. -1.
      622    1    1    2    0    0 -0.46528750129E-02  0.33588494024E-02  0.39154750376E+01  0.39156835548E+01  0.40000000000E-01 0.  1.
</event>
<event>
 5   0  0.6200596E+07  0.9118800E+02  0.7818608E-02  0.1180000E+00
       11   -1    0    0    0    0  0.00000000000E+00  0.00000000000E+00  0.39999999673E+01  0.40000000000E+01  0.51109989000E-03 0. -1.
     -623   -1    0    0    0    0  0.00000000000E+00  0.00000000000E+00  0.12525980253E-10  0.17130000000E+03  0.17130000000E+03 0.  1.
       11    1    1    2    0    0 -0.80323916868E-02  0.94333357599E-03  0.17225912308E+00  0.17244963293E+00  0.51109989000E-03 0. -1.
     -623    1    1    2    0    0  0.50202512375E-02  0.46195089772E-02  0.40485816934E-03  0.17130000014E+03  0.17130000000E+03 0.  1.
      622    1    1    2    0    0  0.30121404493E-02 -0.55628425532E-02  0.38273359861E+01  0.38275502307E+01  0.40000000000E-01 0. -1.
</event>
<event>
 5   0  0.6200596E+07  0.9118800E+02  0.7818608E-02  0.1180000E+00
       11   -1    0    0    0    0  0.00000000000E+00  0.00000000000E+00  0.39999999673E+01  0.40000000000E+01  0.51109989000E-03 0.  1.
     -623   -1    0    0    0    0  0.00000000000E+00  0.00000000000E+00  0.12525980253E-10  0.17130000000E+03  0.17130000000E+03 0. -1.
       11    1    1    2    0    0  0.50354560316E-01 -0.26002591685E-01  0.12464624981E+01  0.12477502702E+01  0.51109989000E-03 0.  1.
     -623    1    1    2    0    0  0.14020079144E-01 -0.52300392803E-02  0.25094242076E-02  0.17130000067E+03  0.17130000000E+03 0. -1.
      622    1    1    2    0    0 -0.64374639461E-01  0.31232630965E-01  0.27510280451E+01  0.27522490578E+01  0.40000000000E-01 0.  1.
</event>
<event>
 5   0  0.6200596E+07  0.9118800E+02  0.7818608E-02  0.1180000E+00
       11   -1    0    0    0    0  0.00000000000E+00  0.00000000000E+00  0.39999999673E+01  0.40000000000E+01  0.51109989000E-03 0. -1.
     -623   -1    0    0    0    0  0.00000000000E+00  0.00000000000E+00  0.12525980253E-10  0.17130000000E+03  0.17130000000E+03 0. -1.
       11    1    1    2    0    0  0.64641789559E-02 -0.94144649289E-02  0.60472566767E+00  0.60483370617E+00  0.51109989000E-03 0. -1.
     -623    1    1    2    0    0 -0.39115869137E-02  0.71658244615E-02  0.34554236832E-03  0.17130000019E+03  0.17130000000E+03 0. -1.
      622    1    1    2    0    0 -0.25525920423E-02  0.22486404675E-02  0.33949287573E+01  0.33951660989E+01  0.40000000000E-01 0. -1.
</event>
<event>
 5   0  0.6200596E+07  0.9118800E+02  0.7818608E-02  0.1180000E+00
       11   -1    0    0    0    0  0.00000000000E+00  0.00000000000E+00  0.39999999673E+01  0.40000000000E+01  0.51109989000E-03 0. -1.
     -623   -1    0    0    0    0  0.00000000000E+00  0.00000000000E+00  0.12525980253E-10  0.17130000000E+03  0.17130000000E+03 0. -1.
       11    1    1    2    0    0 -0.12922940224E-02 -0.15561309546E-02  0.40260354950E-02  0.45345065805E-02  0.51109989000E-03 0. -1.
     -623    1    1    2    0    0 -0.66033725352E-04  0.14223967435E-02  0.70891097405E-03  0.17130000001E+03  0.17130000000E+03 0. -1.
      622    1    1    2    0    0  0.13583277478E-02  0.13373421115E-03  0.39952650209E+01  0.39954654860E+01  0.40000000000E-01 0. -1.
</event>
<event>
 5   0  0.6200596E+07  0.9118800E+02  0.7818608E-02  0.1180000E+00
       11   -1    0    0    0    0  0.00000000000E+00  0.00000000000E+00  0.39999999673E+01  0.40000000000E+01  0.51109989000E-03 0. -1.
     -623   -1    0    0    0    0  0.00000000000E+00  0.00000000000E+00  0.12525980253E-10  0.17130000000E+03  0.17130000000E+03 0. -1.
       11    1    1    2    0    0 -0.65567584237E-02  0.72593899614E-03  0.15240701122E+01  0.15240844747E+01  0.51109989000E-03 0. -1.
     -623    1    1    2    0    0  0.16841478892E-02  0.20378481839E-02  0.34382260815E-03  0.17130000002E+03  0.17130000000E+03 0. -1.
      622    1    1    2    0    0  0.48726105344E-02 -0.27637871801E-02  0.24755860326E+01  0.24759155045E+01  0.40000000000E-01 0.  1.
</event>
<event>
 5   0  0.6200596E+07  0.9118800E+02  0.7818608E-02  0.1180000E+00
       11   -1    0    0    0    0  0.00000000000E+00  0.00000000000E+00  0.39999999673E+01  0.40000000000E+01  0.51109989000E-03 0.  1.
     -623   -1    0    0    0    0  0.00000000000E+00  0.00000000000E+00  0.12525980253E-10  0.17130000000E+03  0.17130000000E+03 0.  1.
       11    1    1    2    0    0 -0.15050328269E-02  0.11272057376E-01  0.10756921172E+01  0.10757523491E+01  0.51109989000E-03 0.  1.
     -623    1    1    2    0    0  0.52921867010E-03  0.23954954518E-03  0.35661143184E-03  0.17130000000E+03  0.17130000000E+03 0.  1.
      622    1    1    2    0    0  0.97581415679E-03 -0.11511606921E-01  0.29239512388E+01  0.29242476496E+01  0.40000000000E-01 0.  1.
</event>
<event>
 5   0  0.6200596E+07  0.9118800E+02  0.7818608E-02  0.1180000E+00
       11   -1    0    0    0    0  0.00000000000E+00  0.00000000000E+00  0.39999999673E+01  0.40000000000E+01  0.51109989000E-03 0.  1.
     -623   -1    0    0    0    0  0.00000000000E+00  0.00000000000E+00  0.12525980253E-10  0.17130000000E+03  0.17130000000E+03 0.  1.
       11    1    1    2    0    0 -0.14765988797E-03  0.54869067566E-03  0.77306482301E-03  0.10870680492E-02  0.51109989000E-03 0.  1.
     -623    1    1    2    0    0  0.14889310368E-02  0.47833588016E-03  0.51439470887E-03  0.17130000001E+03  0.17130000000E+03 0.  1.
      622    1    1    2    0    0 -0.13412711488E-02 -0.10270265558E-02  0.39987125078E+01  0.39989129240E+01  0.40000000000E-01 0.  1.
</event>
<event>
 5   0  0.6200596E+07  0.9118800E+02  0.7818608E-02  0.1180000E+00
       11   -1    0    0    0    0  0.00000000000E+00  0.00000000000E+00  0.39999999673E+01  0.40000000000E+01  0.51109989000E-03 0. -1.
     -623   -1    0    0    0    0  0.00000000000E+00  0.00000000000E+00  0.12525980253E-10  0.17130000000E+03  0.17130000000E+03 0. -1.
       11    1    1    2    0    0  0.29607674704E-03 -0.20869712181E-01  0.21706398056E+00  0.21806573648E+00  0.51109989000E-03 0. -1.
     -623    1    1    2    0    0 -0.64599589726E-02  0.29658508236E-02  0.12608181401E-02  0.17130000015E+03  0.17130000000E+03 0. -1.
      622    1    1    2    0    0  0.61638822256E-02  0.17903861357E-01  0.37816751687E+01  0.37819341114E+01  0.40000000000E-01 0. -1.
</event>
<event>
 5   0  0.6200596E+07  0.9118800E+02  0.7818608E-02  0.1180000E+00
       11   -1    0    0    0    0  0.00000000000E+00  0.00000000000E+00  0.39999999673E+01  0.40000000000E+01  0.51109989000E-03 0.  1.
     -623   -1    0    0    0    0  0.00000000000E+00  0.00000000000E+00  0.12525980253E-10  0.17130000000E+03  0.17130000000E+03 0.  1.
       11    1    1    2    0    0  0.30165787474E-02  0.47622017863E-03  0.31082437263E+00  0.31083979535E+00  0.51109989000E-03 0.  1.
     -623    1    1    2    0    0 -0.43300499327E-02 -0.41704348593E-02  0.23443721890E-03  0.17130000011E+03  0.17130000000E+03 0.  1.
      622    1    1    2    0    0  0.13134711854E-02  0.36942146807E-02  0.36889411575E+01  0.36891600990E+01  0.40000000000E-01 0.  1.
</event>
<event>
 5   0  0.6200596E+07  0.9118800E+02  0.7818608E-02  0.1180000E+00
       11   -1    0    0    0    0  0.00000000000E+00  0.00000000000E+00  0.39999999673E+01  0.40000000000E+01  0.51109989000E-03 0. -1.
     -623   -1    0    0    0    0  0.00000000000E+00  0.00000000000E+00  0.12525980253E-10  0.17130000000E+03  0.17130000000E+03 0. -1.
       11    1    1    2    0    0 -0.27205621111E-02 -0.14688462509E-02  0.18455407438E-01  0.18719568701E-01  0.51109989000E-03 0. -1.
     -623    1    1    2    0    0  0.15921355482E-02  0.14504360532E-02  0.46524821304E-03  0.17130000001E+03  0.17130000000E+03 0. -1.
      622    1    1    2    0    0  0.11284265629E-02  0.18410197645E-04  0.39810793117E+01  0.39812804171E+01  0.40000000000E-01 0. -1.
</event>
<event>
 5   0  0.6200596E+07  0.9118800E+02  0.7818608E-02  0.1180000E+00
       11   -1    0    0    0    0  0.00000000000E+00  0.00000000000E+00  0.39999999673E+01  0.40000000000E+01  0.51109989000E-03 0. -1.
     -623   -1    0    0    0    0  0.00000000000E+00  0.00000000000E+00  0.12525980253E-10  0.17130000000E+03  0.17130000000E+03 0.  1.
       11    1    1    2    0    0  0.14079280150E-01  0.53434952991E-01  0.18800223076E+01  0.18808342986E+01  0.51109989000E-03 0. -1.
     -623    1    1    2    0    0 -0.39719499900E-02  0.13611588349E-02  0.19223643599E-02  0.17130000006E+03  0.17130000000E+03 0.  1.
      622    1    1    2    0    0 -0.10107330160E-01 -0.54796111826E-01  0.21180552954E+01  0.21191656392E+01  0.40000000000E-01 0. -1.
</event>
<event>
 5   0  0.6200596E+07  0.9118800E+02  0.7818608E-02  0.1180000E+00
       11   -1    0    0    0    0  0.00000000000E+00  0.00000000000E+00  0.39999999673E+01  0.40000000000E+01  0.51109989000E-03 0.  1.
     -623   -1    0    0    0    0  0.00000000000E+00  0.00000000000E+00  0.12525980253E-10  0.17130000000E+03  0.17130000000E+03 0.  1.
       11    1    1    2    0    0 -0.98693932212E-02 -0.12754509735E-02  0.23562977893E+00  0.23584038169E+00  0.51109989000E-03 0.  1.
     -623    1    1    2    0    0  0.62414052103E-02  0.84338848499E-02  0.43198443340E-03  0.17130000032E+03  0.17130000000E+03 0.  1.
      622    1    1    2    0    0  0.36279880109E-02 -0.71584338765E-02  0.37639382040E+01  0.37641592964E+01  0.40000000000E-01 0.  1.
</event>
<event>
 5   0  0.6200596E+07  0.9118800E+02  0.7818608E-02  0.1180000E+00
       11   -1    0    0    0    0  0.00000000000E+00  0.00000000000E+00  0.39999999673E+01  0.40000000000E+01  0.51109989000E-03 0.  1.
     -623   -1    0    0    0    0  0.00000000000E+00  0.00000000000E+00  0.12525980253E-10  0.17130000000E+03  0.17130000000E+03 0.  1.
       11    1    1    2    0    0  0.11116794817E-01  0.29816159087E-02  0.53992434292E-01  0.55207946380E-01  0.51109989000E-03 0.  1.
     -623    1    1    2    0    0 -0.94818225192E-02  0.16067229120E-02  0.14215669689E-02  0.17130000028E+03  0.17130000000E+03 0.  1.
      622    1    1    2    0    0 -0.16349722982E-02 -0.45883388208E-02  0.39445859661E+01  0.39447917778E+01  0.40000000000E-01 0.  1.
</event>
<event>
 5   0  0.6200596E+07  0.9118800E+02  0.7818608E-02  0.1180000E+00
       11   -1    0    0    0    0  0.00000000000E+00  0.00000000000E+00  0.39999999673E+01  0.40000000000E+01  0.51109989000E-03 0.  1.
     -623   -1    0    0    0    0  0.00000000000E+00  0.00000000000E+00  0.12525980253E-10  0.17130000000E+03  0.17130000000E+03 0.  1.
       11    1    1    2    0    0 -0.12930691204E-01  0.12160510257E-02  0.25964315852E+01  0.25964641187E+01  0.51109989000E-03 0.  1.
     -623    1    1    2    0    0  0.17239101120E-01  0.41501813349E-02  0.62040302671E-03  0.17130000092E+03  0.17130000000E+03 0.  1.
      622    1    1    2    0    0 -0.43084099161E-02 -0.53662323606E-02  0.14029479791E+01  0.14035349625E+01  0.40000000000E-01 0.  1.
</event>
<event>
 5   0  0.6200596E+07  0.9118800E+02  0.7818608E-02  0.1180000E+00
       11   -1    0    0    0    0  0.00000000000E+00  0.00000000000E+00  0.39999999673E+01  0.40000000000E+01  0.51109989000E-03 0. -1.
     -623   -1    0    0    0    0  0.00000000000E+00  0.00000000000E+00  0.12525980253E-10  0.17130000000E+03  0.17130000000E+03 0. -1.
       11    1    1    2    0    0  0.57444558704E-02  0.87826873367E-02  0.20186292236E+01  0.20186565676E+01  0.51109989000E-03 0. -1.
     -623    1    1    2    0    0  0.78185976164E-03 -0.99291308182E-02  0.44249157926E-03  0.17130000029E+03  0.17130000000E+03 0. -1.
      622    1    1    2    0    0 -0.65263156320E-02  0.11464434815E-02  0.19809282522E+01  0.19813431423E+01  0.40000000000E-01 0. -1.
</event>
<event>
 5   0  0.6200596E+07  0.9118800E+02  0.7818608E-02  0.1180000E+00
       11   -1    0    0    0    0  0.00000000000E+00  0.00000000000E+00  0.39999999673E+01  0.40000000000E+01  0.51109989000E-03 0.  1.
     -623   -1    0    0    0    0  0.00000000000E+00  0.00000000000E+00  0.12525980253E-10  0.17130000000E+03  0.17130000000E+03 0. -1.
       11    1    1    2    0    0  0.16453494793E-03  0.19235504494E-02  0.10115161520E-01  0.10310423498E-01  0.51109989000E-03 0.  1.
     -623    1    1    2    0    0 -0.15941130864E-02  0.50524479607E-03  0.39675531103E-03  0.17130000001E+03  0.17130000000E+03 0. -1.
      622    1    1    2    0    0  0.14295781384E-02 -0.24287952454E-02  0.39894880505E+01  0.39896895679E+01  0.40000000000E-01 0.  1.
</event>
<event>
 5   0  0.6200596E+07  0.9118800E+02  0.7818608E-02  0.1180000E+00
       11   -1    0    0    0    0  0.00000000000E+00  0.00000000000E+00  0.39999999673E+01  0.40000000000E+01  0.51109989000E-03 0. -1.
     -623   -1    0    0    0    0  0.00000000000E+00  0.00000000000E+00  0.12525980253E-10  0.17130000000E+03  0.17130000000E+03 0. -1.
       11    1    1    2    0    0  0.19281643068E-01 -0.80365170878E-02  0.35823212965E+00  0.35884103347E+00  0.51109989000E-03 0. -1.
     -623    1    1    2    0    0 -0.64656166281E-02 -0.20089584059E-02  0.86513821985E-03  0.17130000014E+03  0.17130000000E+03 0. -1.
      622    1    1    2    0    0 -0.12816026440E-01  0.10045475494E-01  0.36409026995E+01  0.36411588305E+01  0.40000000000E-01 0. -1.
</event>
<event>
 5   0  0.6200596E+07  0.9118800E+02  0.7818608E-02  0.1180000E+00
       11   -1    0    0    0    0  0.00000000000E+00  0.00000000000E+00  0.39999999673E+01  0.40000000000E+01  0.51109989000E-03 0. -1.
     -623   -1    0    0    0    0  0.00000000000E+00  0.00000000000E+00  0.12525980253E-10  0.17130000000E+03  0.17130000000E+03 0.  1.
       11    1    1    2    0    0 -0.73098952595E-02  0.25221569484E-01  0.24711358922E+01  0.24712754644E+01  0.51109989000E-03 0. -1.
     -623    1    1    2    0    0 -0.46372340058E-02 -0.83798733656E-03  0.90425657236E-03  0.17130000007E+03  0.17130000000E+03 0.  1.
      622    1    1    2    0    0  0.11947129265E-01 -0.24383582147E-01  0.15279598186E+01  0.15287244684E+01  0.40000000000E-01 0. -1.
</event>
<event>
 5   0  0.6200596E+07  0.9118800E+02  0.7818608E-02  0.1180000E+00
       11   -1    0    0    0    0  0.00000000000E+00  0.00000000000E+00  0.39999999673E+01  0.40000000000E+01  0.51109989000E-03 0. -1.
     -623   -1    0    0    0    0  0.00000000000E+00  0.00000000000E+00  0.12525980253E-10  0.17130000000E+03  0.17130000000E+03 0.  1.
       11    1    1    2    0    0 -0.22876576892E-02 -0.42024604725E-03  0.31450409988E-01  0.31540442193E-01  0.51109989000E-03 0. -1.
     -623    1    1    2    0    0 -0.64715890316E-03  0.10452366487E-02  0.29273337576E-03  0.17130000000E+03  0.17130000000E+03 0.  1.
      622    1    1    2    0    0  0.29348165924E-02 -0.62499060147E-03  0.39682568240E+01  0.39684595531E+01  0.40000000000E-01 0. -1.
</event>
<event>
 5   0  0.6200596E+07  0.9118800E+02  0.7818608E-02  0.1180000E+00
       11   -1    0    0    0    0  0.00000000000E+00  0.00000000000E+00  0.39999999673E+01  0.40000000000E+01  0.51109989000E-03 0.  1.
     -623   -1    0    0    0    0  0.00000000000E+00  0.00000000000E+00  0.12525980253E-10  0.17130000000E+03  0.17130000000E+03 0.  1.
       11    1    1    2    0    0 -0.35686218672E-03  0.58450206896E-04  0.15110670175E-02  0.16356377637E-02  0.51109989000E-03 0.  1.
     -623    1    1    2    0    0 -0.50696363250E-05  0.13264061756E-02  0.32488659209E-03  0.17130000001E+03  0.17130000000E+03 0.  1.
      622    1    1    2    0    0  0.36193182304E-03 -0.13848563825E-02  0.39981640138E+01  0.39983643568E+01  0.40000000000E-01 0.  1.
</event>
<event>
 5   0  0.6200596E+07  0.9118800E+02  0.7818608E-02  0.1180000E+00
       11   -1    0    0    0    0  0.00000000000E+00  0.00000000000E+00  0.39999999673E+01  0.40000000000E+01  0.51109989000E-03 0.  1.
     -623   -1    0    0    0    0  0.00000000000E+00  0.00000000000E+00  0.12525980253E-10  0.17130000000E+03  0.17130000000E+03 0. -1.
       11    1    1    2    0    0  0.31937767925E-03 -0.61359204805E-02  0.12259263248E+01  0.12259418284E+01  0.51109989000E-03 0.  1.
     -623    1    1    2    0    0  0.26940055735E-03  0.21829440444E-03  0.31024763100E-03  0.17130000000E+03  0.17130000000E+03 0. -1.
      622    1    1    2    0    0 -0.58877823660E-03  0.59176260760E-02  0.27737633950E+01  0.27740581710E+01  0.40000000000E-01 0.  1.
</event>
<event>
 5   0  0.6200596E+07  0.9118800E+02  0.7818608E-02  0.1180000E+00
       11   -1    0    0    0    0  0.00000000000E+00  0.00000000000E+00  0.39999999673E+01  0.40000000000E+01  0.51109989000E-03 0. -1.
     -623   -1    0    0    0    0  0.00000000000E+00  0.00000000000E+00  0.12525980253E-10  0.17130000000E+03  0.17130000000E+03 0.  1.
       11    1    1    2    0    0 -0.31635537544E-02  0.25348498590E-02  0.10483817767E+01  0.10483897388E+01  0.51109989000E-03 0. -1.
     -623    1    1    2    0    0 -0.40783736559E-03 -0.30647032746E-03  0.28198353091E-03  0.17130000000E+03  0.17130000000E+03 0.  1.
      622    1    1    2    0    0  0.35713911200E-02 -0.22283795315E-02  0.29513362072E+01  0.29516102602E+01  0.40000000000E-01 0. -1.
</event>
<event>
 5   0  0.6200596E+07  0.9118800E+02  0.7818608E-02  0.1180000E+00
       11   -1    0    0    0    0  0.00000000000E+00  0.00000000000E+00  0.39999999673E+01  0.40000000000E+01  0.51109989000E-03 0. -1.
     -623   -1    0    0    0    0  0.00000000000E+00  0.00000000000E+00  0.12525980253E-10  0.17130000000E+03  0.17130000000E+03 0.  1.
       11    1    1    2    0    0 -0.33017811706E-03 -0.14862475721E-02  0.11939275448E-01  0.12046803296E-01  0.51109989000E-03 0. -1.
     -623    1    1    2    0    0 -0.20189676423E-02  0.19374112943E-02  0.30884499785E-03  0.17130000002E+03  0.17130000000E+03 0.  1.
      622    1    1    2    0    0  0.23491457594E-02 -0.45116372220E-03  0.39877518469E+01  0.39879531736E+01  0.40000000000E-01 0. -1.
</event>
<event>
 5   0  0.6200596E+07  0.9118800E+02  0.7818608E-02  0.1180000E+00
       11   -1    0    0    0    0  0.00000000000E+00  0.00000000000E+00  0.39999999673E+01  0.40000000000E+01  0.51109989000E-03 0. -1.
     -623   -1    0    0    0    0  0.00000000000E+00  0.00000000000E+00  0.12525980253E-10  0.17130000000E+03  0.17130000000E+03 0.  1.
       11    1    1    2    0    0 -0.72838578759E-03 -0.18738411411E-02  0.94502680014E-01  0.94525444080E-01  0.51109989000E-03 0. -1.
     -623    1    1    2    0    0  0.28340408137E-02 -0.14632383918E-02  0.22960075558E-03  0.17130000003E+03  0.17130000000E+03 0.  1.
      622    1    1    2    0    0 -0.21056550261E-02  0.33370795329E-02  0.39052676866E+01  0.39054745261E+01  0.40000000000E-01 0. -1.
</event>
<event>
 5   0  0.6200596E+07  0.9118800E+02  0.7818608E-02  0.1180000E+00
       11   -1    0    0    0    0  0.00000000000E+00  0.00000000000E+00  0.39999999673E+01  0.40000000000E+01  0.51109989000E-03 0.  1.
     -623   -1    0    0    0    0  0.00000000000E+00  0.00000000000E+00  0.12525980253E-10  0.17130000000E+03  0.17130000000E+03 0. -1.
       11    1    1    2    0    0 -0.58989322898E-03 -0.71600932829E-03  0.39843061411E-01  0.39857137458E-01  0.51109989000E-03 0.  1.
     -623    1    1    2    0    0 -0.63827469806E-03  0.80945180751E-03  0.21625627157E-03  0.17130000000E+03  0.17130000000E+03 0. -1.
      622    1    1    2    0    0  0.12281679270E-02 -0.93442479223E-04  0.39599406497E+01  0.39601428593E+01  0.40000000000E-01 0.  1.
</event>
<event>
 5   0  0.6200596E+07  0.9118800E+02  0.7818608E-02  0.1180000E+00
       11   -1    0    0    0    0  0.00000000000E+00  0.00000000000E+00  0.39999999673E+01  0.40000000000E+01  0.51109989000E-03 0. -1.
     -623   -1    0    0    0    0  0.00000000000E+00  0.00000000000E+00  0.12525980253E-10  0.17130000000E+03  0.17130000000E+03 0. -1.
       11    1    1    2    0    0  0.17883494532E-01 -0.26245273244E-01  0.11009202046E+01  0.11013783146E+01  0.51109989000E-03 0. -1.
     -623    1    1    2    0    0 -0.90481352567E-02  0.28570126786E-01  0.75110650768E-03  0.17130000262E+03  0.17130000000E+03 0. -1.
      622    1    1    2    0    0 -0.88353592755E-02 -0.23248535425E-02  0.28983286562E+01  0.28986190623E+01  0.40000000000E-01 0. -1.
</event>
<event>
 5   0  0.6200596E+07  0.9118800E+02  0.7818608E-02  0.1180000E+00
       11   -1    0    0    0    0  0.00000000000E+00  0.00000000000E+00  0.39999999673E+01  0.40000000000E+01  0.51109989000E-03 0.  1.
     -623   -1    0    0    0    0  0.00000000000E+00  0.00000000000E+00  0.12525980253E-10  0.17130000000E+03  0.17130000000E+03 0. -1.
       11    1    1    2    0    0 -0.75994290806E-03  0.51572775661E-01  0.26520290505E+01  0.26525306171E+01  0.51109989000E-03 0.  1.
     -623    1    1    2    0    0  0.15605040218E-01 -0.42203336128E-01  0.12156915574E-02  0.17130000591E+03  0.17130000000E+03 0. -1.
      622    1    1    2    0    0 -0.14845097310E-01 -0.93694395325E-02  0.13467552253E+01  0.13474634690E+01  0.40000000000E-01 0.  1.
</event>
<event>
 5   0  0.6200596E+07  0.9118800E+02  0.7818608E-02  0.1180000E+00
       11   -1    0    0    0    0  0.00000000000E+00  0.00000000000E+00  0.39999999673E+01  0.40000000000E+01  0.51109989000E-03 0. -1.
     -623   -1    0    0    0    0  0.00000000000E+00  0.00000000000E+00  0.12525980253E-10  0.17130000000E+03  0.17130000000E+03 0. -1.
       11    1    1    2    0    0  0.97606022909E-02 -0.27742173552E-01  0.18285200759E+00  0.18520263349E+00  0.51109989000E-03 0. -1.
     -623    1    1    2    0    0  0.10569343140E-01  0.14814251806E-01  0.26373778368E-02  0.17130000099E+03  0.17130000000E+03 0. -1.
      622    1    1    2    0    0 -0.20329945431E-01  0.12927921746E-01  0.38145105819E+01  0.38147963796E+01  0.40000000000E-01 0. -1.
</event>
<event>
 5   0  0.6200596E+07  0.9118800E+02  0.7818608E-02  0.1180000E+00
       11   -1    0    0    0    0  0.00000000000E+00  0.00000000000E+00  0.39999999673E+01  0.40000000000E+01  0.51109989000E-03 0.  1.
     -623   -1    0    0    0    0  0.00000000000E+00  0.00000000000E+00  0.12525980253E-10  0.17130000000E+03  0.17130000000E+03 0.  1.
       11    1    1    2    0    0  0.25111432011E-02  0.29517685143E-01  0.14424962871E+00  0.14726104774E+00  0.51109989000E-03 0.  1.
     -623    1    1    2    0    0 -0.71860508728E-02 -0.14887583889E-01  0.32504806823E-02  0.17130000083E+03  0.17130000000E+03 0.  1.
      622    1    1    2    0    0  0.46749076717E-02 -0.14630101254E-01  0.38524998580E+01  0.38527381238E+01  0.40000000000E-01 0.  1.
</event>
<event>
 5   0  0.6200596E+07  0.9118800E+02  0.7818608E-02  0.1180000E+00
       11   -1    0    0    0    0  0.00000000000E+00  0.00000000000E+00  0.39999999673E+01  0.40000000000E+01  0.51109989000E-03 0. -1.
     -623   -1    0    0    0    0  0.00000000000E+00  0.00000000000E+00  0.12525980253E-10  0.17130000000E+03  0.17130000000E+03 0. -1.
       11    1    1    2    0    0  0.22876387608E-01  0.19526403082E-01  0.20969290102E+01  0.20971447601E+01  0.51109989000E-03 0. -1.
     -623    1    1    2    0    0  0.21700652211E-02  0.94339627708E-03  0.91122271734E-03  0.17130000002E+03  0.17130000000E+03 0. -1.
      622    1    1    2    0    0 -0.25046452830E-01 -0.20469799359E-01  0.19021597344E+01  0.19028552212E+01  0.40000000000E-01 0.  0.
</event>
<event>
 5   0  0.6200596E+07  0.9118800E+02  0.7818608E-02  0.1180000E+00
       11   -1    0    0    0    0  0.00000000000E+00  0.00000000000E+00  0.39999999673E+01  0.40000000000E+01  0.51109989000E-03 0.  1.
     -623   -1    0    0    0    0  0.00000000000E+00  0.00000000000E+00  0.12525980253E-10  0.17130000000E+03  0.17130000000E+03 0. -1.
       11    1    1    2    0    0  0.80829447323E-02  0.48248751069E-04  0.16463665899E+00  0.16483575773E+00  0.51109989000E-03 0.  1.
     -623    1    1    2    0    0 -0.88137142346E-04 -0.16938256885E-02  0.41636323906E-03  0.17130000001E+03  0.17130000000E+03 0. -1.
      622    1    1    2    0    0 -0.79948075900E-02  0.16455769375E-02  0.38349469451E+01  0.38351642334E+01  0.40000000000E-01 0.  1.
</event>
<event>
 5   0  0.6200596E+07  0.9118800E+02  0.7818608E-02  0.1180000E+00
       11   -1    0    0    0    0  0.00000000000E+00  0.00000000000E+00  0.39999999673E+01  0.40000000000E+01  0.51109989000E-03 0. -1.
     -623   -1    0    0    0    0  0.00000000000E+00  0.00000000000E+00  0.12525980253E-10  0.17130000000E+03  0.17130000000E+03 0.  1.
       11    1    1    2    0    0 -0.24988099555E-02  0.28914268576E-03  0.76489329782E-02  0.80681504247E-02  0.51109989000E-03 0. -1.
     -623    1    1    2    0    0  0.23072951831E-02 -0.29196421771E-02  0.62050693289E-03  0.17130000004E+03  0.17130000000E+03 0.  1.
      622    1    1    2    0    0  0.19151477237E-03  0.26304994913E-02  0.39917305274E+01  0.39919318080E+01  0.40000000000E-01 0. -1.
</event>
<event>
 5   0  0.6200596E+07  0.9118800E+02  0.7818608E-02  0.1180000E+00
       11   -1    0    0    0    0  0.00000000000E+00  0.00000000000E+00  0.39999999673E+01  0.40000000000E+01  0.51109989000E-03 0.  1.
     -623   -1    0    0    0    0  0.00000000000E+00  0.00000000000E+00  0.12525980253E-10  0.17130000000E+03  0.17130000000E+03 0. -1.
       11    1    1    2    0    0 -0.80210395468E-03 -0.32521391971E-03  0.53091836129E-02  0.54034977282E-02  0.51109989000E-03 0.  1.
     -623    1    1    2    0    0  0.89425843572E-03  0.73594002206E-03  0.29458338426E-03  0.17130000000E+03  0.17130000000E+03 0. -1.
      622    1    1    2    0    0 -0.92154481037E-04 -0.41072610235E-03  0.39943962004E+01  0.39945964981E+01  0.40000000000E-01 0.  1.
</event>
<event>
 5   0  0.6200596E+07  0.9118800E+02  0.7818608E-02  0.1180000E+00
       11   -1    0    0    0    0  0.00000000000E+00  0.00000000000E+00  0.39999999673E+01  0.40000000000E+01  0.51109989000E-03 0.  1.
     -623   -1    0    0    0    0  0.00000000000E+00  0.00000000000E+00  0.12525980253E-10  0.17130000000E+03  0.17130000000E+03 0. -1.
       11    1    1    2    0    0 -0.58649350783E-02 -0.30755892070E-03  0.18896069165E+00  0.18905262830E+00  0.51109989000E-03 0.  1.
     -623    1    1    2    0    0  0.70105300994E-03  0.20191206446E-03  0.30533339512E-03  0.17130000000E+03  0.17130000000E+03 0. -1.
      622    1    1    2    0    0  0.51638820684E-02  0.10564685624E-03  0.38107339423E+01  0.38109473699E+01  0.40000000000E-01 0.  1.
</event>
<event>
 5   0  0.6200596E+07  0.9118800E+02  0.7818608E-02  0.1180000E+00
       11   -1    0    0    0    0  0.00000000000E+00  0.00000000000E+00  0.39999999673E+01  0.40000000000E+01  0.51109989000E-03 0.  1.
     -623   -1    0    0    0    0  0.00000000000E+00  0.00000000000E+00  0.12525980253E-10  0.17130000000E+03  0.17130000000E+03 0.  1.
       11    1    1    2    0    0  0.97132694900E-03  0.23877081875E-02  0.22086205056E+00  0.22087768386E+00  0.51109989000E-03 0.  1.
     -623    1    1    2    0    0  0.10263690464E-01 -0.63574027442E-02  0.24650802963E-03  0.17130000043E+03  0.17130000000E+03 0.  1.
      622    1    1    2    0    0 -0.11235017413E-01  0.39696945567E-02  0.37788914088E+01  0.37791218905E+01  0.40000000000E-01 0.  1.
</event>
<event>
 5   0  0.6200596E+07  0.9118800E+02  0.7818608E-02  0.1180000E+00
       11   -1    0    0    0    0  0.00000000000E+00  0.00000000000E+00  0.39999999673E+01  0.40000000000E+01  0.51109989000E-03 0.  1.
     -623   -1    0    0    0    0  0.00000000000E+00  0.00000000000E+00  0.12525980253E-10  0.17130000000E+03  0.17130000000E+03 0. -1.
       11    1    1    2    0    0  0.72697323621E-03 -0.13418086062E-02  0.31467902899E-01  0.31509031633E-01  0.51109989000E-03 0.  1.
     -623    1    1    2    0    0  0.86572771668E-03  0.47377331191E-03  0.24310674922E-03  0.17130000000E+03  0.17130000000E+03 0. -1.
      622    1    1    2    0    0 -0.15927009529E-02  0.86803529425E-03  0.39682889577E+01  0.39684909654E+01  0.40000000000E-01 0.  1.
</event>
<event>
 5   0  0.6200596E+07  0.9118800E+02  0.7818608E-02  0.1180000E+00
       11   -1    0    0    0    0  0.00000000000E+00  0.00000000000E+00  0.39999999673E+01  0.40000000000E+01  0.51109989000E-03 0. -1.
     -623   -1    0    0    0    0  0.00000000000E+00  0.00000000000E+00  0.12525980253E-10  0.17130000000E+03  0.17130000000E+03 0. -1.
       11    1    1    2    0    0 -0.19743997689E-02 -0.19270512759E-02  0.16913766842E+00  0.16916094076E+00  0.51109989000E-03 0. -1.
     -623    1    1    2    0    0  0.89574682253E-02 -0.86012677005E-03  0.23969237101E-03  0.17130000024E+03  0.17130000000E+03 0. -1.
      622    1    1    2    0    0 -0.69830684564E-02  0.27871780460E-02  0.38306226066E+01  0.38308388227E+01  0.40000000000E-01 0. -1.
</event>
<event>
 5   0  0.6200596E+07  0.9118800E+02  0.7818608E-02  0.1180000E+00
       11   -1    0    0    0    0  0.00000000000E+00  0.00000000000E+00  0.39999999673E+01  0.40000000000E+01  0.51109989000E-03 0. -1.
     -623   -1    0    0    0    0  0.00000000000E+00  0.00000000000E+00  0.12525980253E-10  0.17130000000E+03  0.17130000000E+03 0. -1.
       11    1    1    2    0    0  0.15764381218E-01  0.39854294522E-01  0.59397373495E+00  0.59551821092E+00  0.51109989000E-03 0. -1.
     -623    1    1    2    0    0  0.10452526426E-01  0.22609698917E-02  0.21412657405E-02  0.17130000035E+03  0.17130000000E+03 0. -1.
      622    1    1    2    0    0 -0.26216907644E-01 -0.42115264414E-01  0.34038849667E+01  0.34044814419E+01  0.40000000000E-01 0.  1.
</event>
<event>
 5   0  0.6200596E+07  0.9118800E+02  0.7818608E-02  0.1180000E+00
       11   -1    0    0    0    0  0.00000000000E+00  0.00000000000E+00  0.39999999673E+01  0.40000000000E+01  0.51109989000E-03 0.  1.
     -623   -1    0    0    0    0  0.00000000000E+00  0.00000000000E+00  0.12525980253E-10  0.17130000000E+03  0.17130000000E+03 0.  1.
       11    1    1    2    0    0  0.99467975107E-03 -0.87725885039E-03  0.19759767293E+00  0.19760278475E+00  0.51109989000E-03 0.  1.
     -623    1    1    2    0    0  0.19627514832E-02  0.14293659981E-03  0.21671111663E-03  0.17130000001E+03  0.17130000000E+03 0.  1.
      622    1    1    2    0    0 -0.29574312343E-02  0.73432225058E-03  0.38021855833E+01  0.38023972038E+01  0.40000000000E-01 0.  1.
</event>
<event>
 5   0  0.6200596E+07  0.9118800E+02  0.7818608E-02  0.1180000E+00
       11   -1    0    0    0    0  0.00000000000E+00  0.00000000000E+00  0.39999999673E+01  0.40000000000E+01  0.51109989000E-03 0.  1.
     -623   -1    0    0    0    0  0.00000000000E+00  0.00000000000E+00  0.12525980253E-10  0.17130000000E+03  0.17130000000E+03 0.  1.
       11    1    1    2    0    0  0.39276119237E-01 -0.90722590877E-03  0.89288456907E+00  0.89374859524E+00  0.51109989000E-03 0.  1.
     -623    1    1    2    0    0 -0.10234234607E-01  0.98382163606E-02  0.12707608081E-02  0.17130000059E+03  0.17130000000E+03 0.  1.
      622    1    1    2    0    0 -0.29041884630E-01 -0.89309904518E-02  0.31058446375E+01  0.31062508118E+01  0.40000000000E-01 0.  0.
</event>
<event>
 5   0  0.6200596E+07  0.9118800E+02  0.7818608E-02  0.1180000E+00
       11   -1    0    0    0    0  0.00000000000E+00  0.00000000000E+00  0.39999999673E+01  0.40000000000E+01  0.51109989000E-03 0.  1.
     -623   -1    0    0    0    0  0.00000000000E+00  0.00000000000E+00  0.12525980253E-10  0.17130000000E+03  0.17130000000E+03 0. -1.
       11    1    1    2    0    0 -0.53535670932E-01  0.52910728087E-01  0.22561929219E+01  0.22574482000E+01  0.51109989000E-03 0.  1.
     -623    1    1    2    0    0  0.35246205998E-01 -0.18821283466E-01  0.21486709450E-02  0.17130000467E+03  0.17130000000E+03 0. -1.
      622    1    1    2    0    0  0.18289464934E-01 -0.34089444621E-01  0.17416583745E+01  0.17425471265E+01  0.40000000000E-01 0.  1.
</event>
<event>
 5   0  0.6200596E+07  0.9118800E+02  0.7818608E-02  0.1180000E+00
       11   -1    0    0    0    0  0.00000000000E+00  0.00000000000E+00  0.39999999673E+01  0.40000000000E+01  0.51109989000E-03 0. -1.
     -623   -1    0    0    0    0  0.00000000000E+00  0.00000000000E+00  0.12525980253E-10  0.17130000000E+03  0.17130000000E+03 0. -1.
       11    1    1    2    0    0  0.22833928551E-02 -0.48229359442E-02  0.97597214335E+00  0.97598686488E+00  0.51109989000E-03 0. -1.
     -623    1    1    2    0    0  0.90865978760E-03  0.17300667816E-02  0.28252760438E-03  0.17130000001E+03  0.17130000000E+03 0. -1.
      622    1    1    2    0    0 -0.31920526427E-02  0.30928691626E-02  0.30237452964E+01  0.30240131237E+01  0.40000000000E-01 0.  1.
</event>
<event>
 5   0  0.6200596E+07  0.9118800E+02  0.7818608E-02  0.1180000E+00
       11   -1    0    0    0    0  0.00000000000E+00  0.00000000000E+00  0.39999999673E+01  0.40000000000E+01  0.51109989000E-03 0.  1.
     -623   -1    0    0    0    0  0.00000000000E+00  0.00000000000E+00  0.12525980253E-10  0.17130000000E+03  0.17130000000E+03 0. -1.
       11    1    1    2    0    0 -0.14959511726E-01 -0.69088339795E-02  0.31325815213E-01  0.35398967469E-01  0.51109989000E-03 0.  1.
     -623    1    1    2    0    0  0.83500101161E-02  0.93838813223E-02  0.42817069187E-02  0.17130000051E+03  0.17130000000E+03 0. -1.
      622    1    1    2    0    0  0.66095016102E-02 -0.24750473428E-02  0.39643924452E+01  0.39646005185E+01  0.40000000000E-01 0.  1.
</event>
<event>
 5   0  0.6200596E+07  0.9118800E+02  0.7818608E-02  0.1180000E+00
       11   -1    0    0    0    0  0.00000000000E+00  0.00000000000E+00  0.39999999673E+01  0.40000000000E+01  0.51109989000E-03 0. -1.
     -623   -1    0    0    0    0  0.00000000000E+00  0.00000000000E+00  0.12525980253E-10  0.17130000000E+03  0.17130000000E+03 0. -1.
       11    1    1    2    0    0  0.53985652953E-01 -0.87439740665E-03  0.45968606398E+00  0.46284636105E+00  0.51109989000E-03 0. -1.
     -623    1    1    2    0    0 -0.28002824245E-01 -0.53238473465E-02  0.34897189975E-02  0.17130000241E+03  0.17130000000E+03 0. -1.
      622    1    1    2    0    0 -0.25982828708E-01  0.61982447531E-02  0.35368241844E+01  0.35371512318E+01  0.40000000000E-01 0. -1.
</event>
<event>
 5   0  0.6200596E+07  0.9118800E+02  0.7818608E-02  0.1180000E+00
       11   -1    0    0    0    0  0.00000000000E+00  0.00000000000E+00  0.39999999673E+01  0.40000000000E+01  0.51109989000E-03 0.  1.
     -623   -1    0    0    0    0  0.00000000000E+00  0.00000000000E+00  0.12525980253E-10  0.17130000000E+03  0.17130000000E+03 0. -1.
       11    1    1    2    0    0 -0.38890353381E-03  0.24806122305E-02  0.86802290400E-02  0.90505404102E-02  0.51109989000E-03 0.  1.
     -623    1    1    2    0    0  0.17439951604E-02 -0.11269362515E-02  0.57121050733E-03  0.17130000001E+03  0.17130000000E+03 0. -1.
      622    1    1    2    0    0 -0.13550916265E-02 -0.13536759790E-02  0.39907485278E+01  0.39909494461E+01  0.40000000000E-01 0.  1.
</event>
<event>
 5   0  0.6200596E+07  0.9118800E+02  0.7818608E-02  0.1180000E+00
       11   -1    0    0    0    0  0.00000000000E+00  0.00000000000E+00  0.39999999673E+01  0.40000000000E+01  0.51109989000E-03 0.  1.
     -623   -1    0    0    0    0  0.00000000000E+00  0.00000000000E+00  0.12525980253E-10  0.17130000000E+03  0.17130000000E+03 0. -1.
       11    1    1    2    0    0  0.95335176161E-03  0.52786641301E-02  0.10864383507E-01  0.12127210084E-01  0.51109989000E-03 0.  1.
     -623    1    1    2    0    0 -0.18483326995E-02 -0.23177461567E-02  0.14646388030E-02  0.17130000003E+03  0.17130000000E+03 0. -1.
      622    1    1    2    0    0  0.89498093788E-03 -0.29609179734E-02  0.39876709450E+01  0.39878727580E+01  0.40000000000E-01 0.  1.
</event>
<event>
 5   0  0.6200596E+07  0.9118800E+02  0.7818608E-02  0.1180000E+00
       11   -1    0    0    0    0  0.00000000000E+00  0.00000000000E+00  0.39999999673E+01  0.40000000000E+01  0.51109989000E-03 0.  1.
     -623   -1    0    0    0    0  0.00000000000E+00  0.00000000000E+00  0.12525980253E-10  0.17130000000E+03  0.17130000000E+03 0.  1.
       11    1    1    2    0    0  0.15287844971E-02  0.20971144893E-03  0.70967664252E-02  0.72805546430E-02  0.51109989000E-03 0.  1.
     -623    1    1    2    0    0 -0.16886872475E-02 -0.76705017677E-03  0.38417787234E-03  0.17130000001E+03  0.17130000000E+03 0.  1.
      622    1    1    2    0    0  0.15990275036E-03  0.55733872783E-03  0.39925190231E+01  0.39927194349E+01  0.40000000000E-01 0.  1.
</event>
<event>
 5   0  0.6200596E+07  0.9118800E+02  0.7818608E-02  0.1180000E+00
       11   -1    0    0    0    0  0.00000000000E+00  0.00000000000E+00  0.39999999673E+01  0.40000000000E+01  0.51109989000E-03 0. -1.
     -623   -1    0    0    0    0  0.00000000000E+00  0.00000000000E+00  0.12525980253E-10  0.17130000000E+03  0.17130000000E+03 0. -1.
       11    1    1    2    0    0  0.45297760599E-01  0.23774288397E-02  0.20202187890E+01  0.20207280262E+01  0.51109989000E-03 0. -1.
     -623    1    1    2    0    0 -0.20443727865E-01  0.42197624058E-01  0.15780907546E-02  0.17130000642E+03  0.17130000000E+03 0. -1.
      622    1    1    2    0    0 -0.24854032733E-01 -0.44575052897E-01  0.19782030876E+01  0.19792655492E+01  0.40000000000E-01 0. -1.
</event>
<event>
 5   0  0.6200596E+07  0.9118800E+02  0.7818608E-02  0.1180000E+00
       11   -1    0    0    0    0  0.00000000000E+00  0.00000000000E+00  0.39999999673E+01  0.40000000000E+01  0.51109989000E-03 0. -1.
     -623   -1    0    0    0    0  0.00000000000E+00  0.00000000000E+00  0.12525980253E-10  0.17130000000E+03  0.17130000000E+03 0. -1.
       11    1    1    2    0    0 -0.67657303016E-02  0.95379546887E-03  0.19984076373E+00  0.19995818788E+00  0.51109989000E-03 0. -1.
     -623    1    1    2    0    0  0.16496224257E-02 -0.44777954135E-02  0.33306641323E-03  0.17130000007E+03  0.17130000000E+03 0. -1.
      622    1    1    2    0    0  0.51161078759E-02  0.35239999446E-02  0.37998261372E+01  0.38000417453E+01  0.40000000000E-01 0. -1.
</event>
<event>
 5   0  0.6200596E+07  0.9118800E+02  0.7818608E-02  0.1180000E+00
       11   -1    0    0    0    0  0.00000000000E+00  0.00000000000E+00  0.39999999673E+01  0.40000000000E+01  0.51109989000E-03 0. -1.
     -623   -1    0    0    0    0  0.00000000000E+00  0.00000000000E+00  0.12525980253E-10  0.17130000000E+03  0.17130000000E+03 0. -1.
       11    1    1    2    0    0 -0.13446358097E-02 -0.20356221991E-01  0.46964896125E+00  0.47009210996E+00  0.51109989000E-03 0. -1.
     -623    1    1    2    0    0 -0.28705097480E-02  0.18430379002E-02  0.72086171173E-03  0.17130000004E+03  0.17130000000E+03 0. -1.
      622    1    1    2    0    0  0.42151455577E-02  0.18513184091E-01  0.35296301444E+01  0.35299078546E+01  0.40000000000E-01 0. -1.
</event>
<event>
 5   0  0.6200596E+07  0.9118800E+02  0.7818608E-02  0.1180000E+00
       11   -1    0    0    0    0  0.00000000000E+00  0.00000000000E+00  0.39999999673E+01  0.40000000000E+01  0.51109989000E-03 0. -1.
     -623   -1    0    0    0    0  0.00000000000E+00  0.00000000000E+00  0.12525980253E-10  0.17130000000E+03  0.17130000000E+03 0.  1.
       11    1    1    2    0    0 -0.92902013443E-02 -0.25349020753E-01  0.10092015794E+01  0.10095627617E+01  0.51109989000E-03 0. -1.
     -623    1    1    2    0    0  0.45646706924E-02 -0.19507857632E-02  0.75711298614E-03  0.17130000007E+03  0.17130000000E+03 0.  1.
      622    1    1    2    0    0  0.47255306519E-02  0.27299806516E-01  0.29900412750E+01  0.29904371647E+01  0.40000000000E-01 0. -1.
</event>
<event>
 5   0  0.6200596E+07  0.9118800E+02  0.7818608E-02  0.1180000E+00
       11   -1    0    0    0    0  0.00000000000E+00  0.00000000000E+00  0.39999999673E+01  0.40000000000E+01  0.51109989000E-03 0. -1.
     -623   -1    0    0    0    0  0.00000000000E+00  0.00000000000E+00  0.12525980253E-10  0.17130000000E+03  0.17130000000E+03 0. -1.
       11    1    1    2    0    0  0.87776768437E-03 -0.24120336077E-02  0.24251353887E+01  0.24251368009E+01  0.51109989000E-03 0. -1.
     -623    1    1    2    0    0  0.22781202358E-02 -0.26726740186E-02  0.52085313882E-03  0.17130000004E+03  0.17130000000E+03 0. -1.
      622    1    1    2    0    0 -0.31558879202E-02  0.50847076263E-02  0.15743437256E+01  0.15748631623E+01  0.40000000000E-01 0.  0.
</event>
<event>
 5   0  0.6200596E+07  0.9118800E+02  0.7818608E-02  0.1180000E+00
       11   -1    0    0    0    0  0.00000000000E+00  0.00000000000E+00  0.39999999673E+01  0.40000000000E+01  0.51109989000E-03 0.  1.
     -623   -1    0    0    0    0  0.00000000000E+00  0.00000000000E+00  0.12525980253E-10  0.17130000000E+03  0.17130000000E+03 0.  1.
       11    1    1    2    0    0  0.17544108076E-03 -0.11589586361E-01  0.55788929615E-01  0.56982586639E-01  0.51109989000E-03 0.  1.
     -623    1    1    2    0    0  0.59005109307E-02  0.44574081092E-02  0.14078176303E-02  0.17130000017E+03  0.17130000000E+03 0.  1.
      622    1    1    2    0    0 -0.60759520114E-02  0.71321782517E-02  0.39428032201E+01  0.39430172480E+01  0.40000000000E-01 0.  1.
</event>
<event>
 5   0  0.6200596E+07  0.9118800E+02  0.7818608E-02  0.1180000E+00
       11   -1    0    0    0    0  0.00000000000E+00  0.00000000000E+00  0.39999999673E+01  0.40000000000E+01  0.51109989000E-03 0. -1.
     -623   -1    0    0    0    0  0.00000000000E+00  0.00000000000E+00  0.12525980253E-10  0.17130000000E+03  0.17130000000E+03 0. -1.
       11    1    1    2    0    0 -0.27463596421E-01  0.26010331022E-01  0.13489288077E+01  0.13494591420E+01  0.51109989000E-03 0. -1.
     -623    1    1    2    0    0  0.52571932799E-01 -0.36598733365E-01  0.98421921249E-03  0.17130001198E+03  0.17130000000E+03 0. -1.
      622    1    1    2    0    0 -0.25108336378E-01  0.10588402343E-01  0.26500869405E+01  0.26505288783E+01  0.40000000000E-01 0. -1.
</event>
<event>
 5   0  0.6200596E+07  0.9118800E+02  0.7818608E-02  0.1180000E+00
       11   -1    0    0    0    0  0.00000000000E+00  0.00000000000E+00  0.39999999673E+01  0.40000000000E+01  0.51109989000E-03 0.  1.
     -623   -1    0    0    0    0  0.00000000000E+00  0.00000000000E+00  0.12525980253E-10  0.17130000000E+03  0.17130000000E+03 0.  1.
       11    1    1    2    0    0  0.29690497755E-02  0.70333773320E-02  0.39680365622E-01  0.40411338629E-01  0.51109989000E-03 0.  1.
     -623    1    1    2    0    0  0.83308430752E-03  0.11611745198E-02  0.94330078097E-03  0.17130000001E+03  0.17130000000E+03 0.  1.
      622    1    1    2    0    0 -0.38021340830E-02 -0.81945518518E-02  0.39593763010E+01  0.39595886528E+01  0.40000000000E-01 0.  1.
</event>
<event>
 5   0  0.6200596E+07  0.9118800E+02  0.7818608E-02  0.1180000E+00
       11   -1    0    0    0    0  0.00000000000E+00  0.00000000000E+00  0.39999999673E+01  0.40000000000E+01  0.51109989000E-03 0.  1.
     -623   -1    0    0    0    0  0.00000000000E+00  0.00000000000E+00  0.12525980253E-10  0.17130000000E+03  0.17130000000E+03 0. -1.
       11    1    1    2    0    0 -0.25409352900E-01 -0.18002194870E-02  0.22637764597E+01  0.22639198300E+01  0.51109989000E-03 0.  1.
     -623    1    1    2    0    0  0.27358939604E-02  0.22101037025E-03  0.75305418517E-03  0.17130000002E+03  0.17130000000E+03 0. -1.
      622    1    1    2    0    0  0.22673458940E-01  0.15792091167E-02  0.17354704535E+01  0.17360801463E+01  0.40000000000E-01 0.  0.
</event>
<event>
 5   0  0.6200596E+07  0.9118800E+02  0.7818608E-02  0.1180000E+00
       11   -1    0    0    0    0  0.00000000000E+00  0.00000000000E+00  0.39999999673E+01  0.40000000000E+01  0.51109989000E-03 0.  1.
     -623   -1    0    0    0    0  0.00000000000E+00  0.00000000000E+00  0.12525980253E-10  0.17130000000E+03  0.17130000000E+03 0.  1.
       11    1    1    2    0    0 -0.58588713700E-02  0.93846416095E-04  0.11295539754E+00  0.11310843575E+00  0.51109989000E-03 0.  1.
     -623    1    1    2    0    0  0.38416939505E-03 -0.13120138492E-02  0.36288352464E-03  0.17130000001E+03  0.17130000000E+03 0.  1.
      622    1    1    2    0    0  0.54747019749E-02  0.12181674331E-02  0.38866816863E+01  0.38868915584E+01  0.40000000000E-01 0.  1.
</event>
<event>
 5   0  0.6200596E+07  0.9118800E+02  0.7818608E-02  0.1180000E+00
       11   -1    0    0    0    0  0.00000000000E+00  0.00000000000E+00  0.39999999673E+01  0.40000000000E+01  0.51109989000E-03 0.  1.
     -623   -1    0    0    0    0  0.00000000000E+00  0.00000000000E+00  0.12525980253E-10  0.17130000000E+03  0.17130000000E+03 0. -1.
       11    1    1    2    0    0 -0.25515454383E-02 -0.55882662780E-02  0.30119414679E-01  0.30743771163E-01  0.51109989000E-03 0.  1.
     -623    1    1    2    0    0  0.68604930315E-03 -0.28840987990E-03  0.83067066440E-03  0.17130000000E+03  0.17130000000E+03 0. -1.
      622    1    1    2    0    0  0.18654961352E-02  0.58766761579E-02  0.39690498820E+01  0.39692562252E+01  0.40000000000E-01 0.  1.
</event>
<event>
 5   0  0.6200596E+07  0.9118800E+02  0.7818608E-02  0.1180000E+00
       11   -1    0    0    0    0  0.00000000000E+00  0.00000000000E+00  0.39999999673E+01  0.40000000000E+01  0.51109989000E-03 0.  1.
     -623   -1    0    0    0    0  0.00000000000E+00  0.00000000000E+00  0.12525980253E-10  0.17130000000E+03  0.17130000000E+03 0.  1.
       11    1    1    2    0    0 -0.11283502135E-02  0.32643830945E-03  0.19284158524E-01  0.19326658489E-01  0.51109989000E-03 0.  1.
     -623    1    1    2    0    0  0.45398964468E-02 -0.16208850815E-02  0.24518387509E-03  0.17130000007E+03  0.17130000000E+03 0.  1.
      622    1    1    2    0    0 -0.34115462333E-02  0.12944467720E-02  0.39804706250E+01  0.39806732735E+01  0.40000000000E-01 0.  1.
</event>
<event>
 5   0  0.6200596E+07  0.9118800E+02  0.7818608E-02  0.1180000E+00
       11   -1    0    0    0    0  0.00000000000E+00  0.00000000000E+00  0.39999999673E+01  0.40000000000E+01  0.51109989000E-03 0. -1.
     -623   -1    0    0    0    0  0.00000000000E+00  0.00000000000E+00  0.12525980253E-10  0.17130000000E+03  0.17130000000E+03 0. -1.
       11    1    1    2    0    0 -0.21904701512E-02  0.26433279604E-02  0.32837696654E-01  0.33020613038E-01  0.51109989000E-03 0. -1.
     -623    1    1    2    0    0  0.14439319017E-02  0.66768803970E-03  0.38601354459E-03  0.17130000001E+03  0.17130000000E+03 0. -1.
      622    1    1    2    0    0  0.74653824944E-03 -0.33110160001E-02  0.39667762572E+01  0.39669793791E+01  0.40000000000E-01 0. -1.
</event>
<event>
 5   0  0.6200596E+07  0.9118800E+02  0.7818608E-02  0.1180000E+00
       11   -1    0    0    0    0  0.00000000000E+00  0.00000000000E+00  0.39999999673E+01  0.40000000000E+01  0.51109989000E-03 0.  1.
     -623   -1    0    0    0    0  0.00000000000E+00  0.00000000000E+00  0.12525980253E-10  0.17130000000E+03  0.17130000000E+03 0. -1.
       11    1    1    2    0    0 -0.59365926937E-03  0.72252881949E-03  0.10012381134E-02  0.14622510108E-02  0.51109989000E-03 0.  1.
     -623    1    1    2    0    0  0.19390548066E-02 -0.44427180994E-03  0.66130726775E-03  0.17130000001E+03  0.17130000000E+03 0. -1.
      622    1    1    2    0    0 -0.13453955372E-02 -0.27825700955E-03  0.39983374220E+01  0.39985377362E+01  0.40000000000E-01 0.  1.
</event>
<event>
 5   0  0.6200596E+07  0.9118800E+02  0.7818608E-02  0.1180000E+00
       11   -1    0    0    0    0  0.00000000000E+00  0.00000000000E+00  0.39999999673E+01  0.40000000000E+01  0.51109989000E-03 0.  1.
     -623   -1    0    0    0    0  0.00000000000E+00  0.00000000000E+00  0.12525980253E-10  0.17130000000E+03  0.17130000000E+03 0.  1.
       11    1    1    2    0    0  0.11975229294E-01 -0.33184384909E-01  0.13151193056E+00  0.13616261829E+00  0.51109989000E-03 0.  1.
     -623    1    1    2    0    0  0.87052016108E-02 -0.30513652783E-02  0.50833077635E-02  0.17130000032E+03  0.17130000000E+03 0.  1.
      622    1    1    2    0    0 -0.20680430905E-01  0.36235750187E-01  0.38634047290E+01  0.38638370579E+01  0.40000000000E-01 0.  1.
</event>
<event>
 5   0  0.6200596E+07  0.9118800E+02  0.7818608E-02  0.1180000E+00
       11   -1    0    0    0    0  0.00000000000E+00  0.00000000000E+00  0.39999999673E+01  0.40000000000E+01  0.51109989000E-03 0. -1.
     -623   -1    0    0    0    0  0.00000000000E+00  0.00000000000E+00  0.12525980253E-10  0.17130000000E+03  0.17130000000E+03 0.  1.
       11    1    1    2    0    0  0.44630641798E-02  0.11453804619E-01  0.30856853494E+00  0.30881371498E+00  0.51109989000E-03 0. -1.
     -623    1    1    2    0    0  0.22877344395E-03 -0.89083311516E-02  0.46597848516E-03  0.17130000023E+03  0.17130000000E+03 0.  1.
      622    1    1    2    0    0 -0.46918376238E-02 -0.25454734675E-02  0.36909654539E+01  0.36911860526E+01  0.40000000000E-01 0.  0.
</event>
<event>
 5   0  0.6200596E+07  0.9118800E+02  0.7818608E-02  0.1180000E+00
       11   -1    0    0    0    0  0.00000000000E+00  0.00000000000E+00  0.39999999673E+01  0.40000000000E+01  0.51109989000E-03 0. -1.
     -623   -1    0    0    0    0  0.00000000000E+00  0.00000000000E+00  0.12525980253E-10  0.17130000000E+03  0.17130000000E+03 0. -1.
       11    1    1    2    0    0  0.84371175198E-02  0.16270632801E-02  0.17221118533E-01  0.19252543526E-01  0.51109989000E-03 0. -1.
     -623    1    1    2    0    0 -0.33737763110E-02 -0.97310502801E-02  0.22441588483E-02  0.17130000032E+03  0.17130000000E+03 0. -1.
      622    1    1    2    0    0 -0.50633412089E-02  0.81039870000E-02  0.39805346900E+01  0.39807471322E+01  0.40000000000E-01 0. -1.
</event>
<event>
 5   0  0.6200596E+07  0.9118800E+02  0.7818608E-02  0.1180000E+00
       11   -1    0    0    0    0  0.00000000000E+00  0.00000000000E+00  0.39999999673E+01  0.40000000000E+01  0.51109989000E-03 0. -1.
     -623   -1    0    0    0    0  0.00000000000E+00  0.00000000000E+00  0.12525980253E-10  0.17130000000E+03  0.17130000000E+03 0.  1.
       11    1    1    2    0    0 -0.98365226082E-02  0.77036240534E-02  0.12139462634E+00  0.12203695968E+00  0.51109989000E-03 0. -1.
     -623    1    1    2    0    0 -0.97310209191E-03 -0.15585946715E-02  0.86854757498E-03  0.17130000001E+03  0.17130000000E+03 0.  1.
      622    1    1    2    0    0  0.10809624700E-01 -0.61450293818E-02  0.38777367934E+01  0.38779630283E+01  0.40000000000E-01 0. -1.
</event>
<event>
 5   0  0.6200596E+07  0.9118800E+02  0.7818608E-02  0.1180000E+00
       11   -1    0    0    0    0  0.00000000000E+00  0.00000000000E+00  0.39999999673E+01  0.40000000000E+01  0.51109989000E-03 0.  1.
     -623   -1    0    0    0    0  0.00000000000E+00  0.00000000000E+00  0.12525980253E-10  0.17130000000E+03  0.17130000000E+03 0. -1.
       11    1    1    2    0    0  0.48316858162E-01  0.21221750821E-01  0.84455497101E+00  0.84620224638E+00  0.51109989000E-03 0.  1.
     -623    1    1    2    0    0  0.86856529859E-04  0.41160410048E-02  0.23742816910E-02  0.17130000007E+03  0.17130000000E+03 0. -1.
      622    1    1    2    0    0 -0.48403714692E-01 -0.25337791825E-01  0.31530707147E+01  0.31537976877E+01  0.40000000000E-01 0.  1.
</event>
<event>
 5   0  0.6200596E+07  0.9118800E+02  0.7818608E-02  0.1180000E+00
       11   -1    0    0    0    0  0.00000000000E+00  0.00000000000E+00  0.39999999673E+01  0.40000000000E+01  0.51109989000E-03 0. -1.
     -623   -1    0    0    0    0  0.00000000000E+00  0.00000000000E+00  0.12525980253E-10  0.17130000000E+03  0.17130000000E+03 0.  1.
       11    1    1    2    0    0  0.89904819975E-02 -0.38808813411E-03  0.13907252380E+00  0.13936429771E+00  0.51109989000E-03 0. -1.
     -623    1    1    2    0    0 -0.14105911352E-01  0.19452058957E-02  0.50326244014E-03  0.17130000059E+03  0.17130000000E+03 0.  1.
      622    1    1    2    0    0  0.51154293541E-02 -0.15571177616E-02  0.38604241811E+01  0.38606351097E+01  0.40000000000E-01 0. -1.
</event>
<event>
 5   0  0.6200596E+07  0.9118800E+02  0.7818608E-02  0.1180000E+00
       11   -1    0    0    0    0  0.00000000000E+00  0.00000000000E+00  0.39999999673E+01  0.40000000000E+01  0.51109989000E-03 0.  1.
     -623   -1    0    0    0    0  0.00000000000E+00  0.00000000000E+00  0.12525980253E-10  0.17130000000E+03  0.17130000000E+03 0.  1.
       11    1    1    2    0    0  0.13696710480E-02 -0.11439264124E-01  0.81813438870E-01  0.82622229244E-01  0.51109989000E-03 0.  1.
     -623    1    1    2    0    0  0.11427283207E-01  0.47478360716E-02  0.10400498533E-02  0.17130000045E+03  0.17130000000E+03 0.  1.
      622    1    1    2    0    0 -0.12796954255E-01  0.66914280522E-02  0.39171464786E+01  0.39173773206E+01  0.40000000000E-01 0.  1.
</event>
<event>
 5   0  0.6200596E+07  0.9118800E+02  0.7818608E-02  0.1180000E+00
       11   -1    0    0    0    0  0.00000000000E+00  0.00000000000E+00  0.39999999673E+01  0.40000000000E+01  0.51109989000E-03 0.  1.
     -623   -1    0    0    0    0  0.00000000000E+00  0.00000000000E+00  0.12525980253E-10  0.17130000000E+03  0.17130000000E+03 0.  1.
       11    1    1    2    0    0  0.79243676085E-02  0.73914334277E-02  0.45898932200E+00  0.45911750981E+00  0.51109989000E-03 0.  1.
     -623    1    1    2    0    0  0.54934470788E-03  0.22269774049E-02  0.37731501313E-03  0.17130000002E+03  0.17130000000E+03 0.  1.
      622    1    1    2    0    0 -0.84737123164E-02 -0.96184108326E-02  0.35406333303E+01  0.35408824744E+01  0.40000000000E-01 0.  1.
</event>
<event>
 5   0  0.6200596E+07  0.9118800E+02  0.7818608E-02  0.1180000E+00
       11   -1    0    0    0    0  0.00000000000E+00  0.00000000000E+00  0.39999999673E+01  0.40000000000E+01  0.51109989000E-03 0. -1.
     -623   -1    0    0    0    0  0.00000000000E+00  0.00000000000E+00  0.12525980253E-10  0.17130000000E+03  0.17130000000E+03 0.  1.
       11    1    1    2    0    0 -0.10401968826E-02 -0.77833064068E-04  0.11761013380E-01  0.11818237022E-01  0.51109989000E-03 0. -1.
     -623    1    1    2    0    0  0.15526009998E-02  0.20687998981E-02  0.25833833941E-03  0.17130000002E+03  0.17130000000E+03 0.  1.
      622    1    1    2    0    0 -0.51240411716E-03 -0.19909668340E-02  0.39879806156E+01  0.39881817433E+01  0.40000000000E-01 0. -1.
</event>
<event>
 5   0  0.6200596E+07  0.9118800E+02  0.7818608E-02  0.1180000E+00
       11   -1    0    0    0    0  0.00000000000E+00  0.00000000000E+00  0.39999999673E+01  0.40000000000E+01  0.51109989000E-03 0. -1.
     -623   -1    0    0    0    0  0.00000000000E+00  0.00000000000E+00  0.12525980253E-10  0.17130000000E+03  0.17130000000E+03 0.  1.
       11    1    1    2    0    0  0.64387118695E-02  0.45207134456E-02  0.22387910494E-02  0.81955638588E-02  0.51109989000E-03 0. -1.
     -623    1    1    2    0    0 -0.25040091374E-01  0.79066206542E-02  0.62219698869E-02  0.17130000213E+03  0.17130000000E+03 0.  1.
      622    1    1    2    0    0  0.18601379504E-01 -0.12427334100E-01  0.39915392064E+01  0.39918023105E+01  0.40000000000E-01 0. -1.
</event>
<event>
 5   0  0.6200596E+07  0.9118800E+02  0.7818608E-02  0.1180000E+00
       11   -1    0    0    0    0  0.00000000000E+00  0.00000000000E+00  0.39999999673E+01  0.40000000000E+01  0.51109989000E-03 0. -1.
     -623   -1    0    0    0    0  0.00000000000E+00  0.00000000000E+00  0.12525980253E-10  0.17130000000E+03  0.17130000000E+03 0.  1.
       11    1    1    2    0    0 -0.20602941971E-03 -0.23031214269E-03  0.21597018820E-02  0.22407643302E-02  0.51109989000E-03 0. -1.
     -623    1    1    2    0    0 -0.10957828024E-02  0.45527230384E-03  0.28136955764E-03  0.17130000000E+03  0.17130000000E+03 0.  1.
      622    1    1    2    0    0  0.13018122221E-02 -0.22496016115E-03  0.39975588959E+01  0.39977592313E+01  0.40000000000E-01 0. -1.
</event>
<event>
 5   0  0.6200596E+07  0.9118800E+02  0.7818608E-02  0.1180000E+00
       11   -1    0    0    0    0  0.00000000000E+00  0.00000000000E+00  0.39999999673E+01  0.40000000000E+01  0.51109989000E-03 0. -1.
     -623   -1    0    0    0    0  0.00000000000E+00  0.00000000000E+00  0.12525980253E-10  0.17130000000E+03  0.17130000000E+03 0. -1.
       11    1    1    2    0    0 -0.16748510169E-02  0.93939086295E-03  0.59353818300E-01  0.59387073925E-01  0.51109989000E-03 0. -1.
     -623    1    1    2    0    0 -0.18145232160E-03  0.93040142183E-03  0.23712597562E-03  0.17130000000E+03  0.17130000000E+03 0. -1.
      622    1    1    2    0    0  0.18563033385E-02 -0.18697922848E-02  0.39404090231E+01  0.39406129233E+01  0.40000000000E-01 0. -1.
</event>
<event>
 5   0  0.6200596E+07  0.9118800E+02  0.7818608E-02  0.1180000E+00
       11   -1    0    0    0    0  0.00000000000E+00  0.00000000000E+00  0.39999999673E+01  0.40000000000E+01  0.51109989000E-03 0. -1.
     -623   -1    0    0    0    0  0.00000000000E+00  0.00000000000E+00  0.12525980253E-10  0.17130000000E+03  0.17130000000E+03 0. -1.
       11    1    1    2    0    0  0.29447271158E-02 -0.11708305774E-02  0.90120438924E-02  0.95666304824E-02  0.51109989000E-03 0. -1.
     -623    1    1    2    0    0 -0.10426725948E-02 -0.13170409288E-03  0.75570928260E-03  0.17130000000E+03  0.17130000000E+03 0. -1.
      622    1    1    2    0    0 -0.19020545210E-02  0.13025346703E-02  0.39902322142E+01  0.39904333646E+01  0.40000000000E-01 0. -1.
</event>
<event>
 5   0  0.6200596E+07  0.9118800E+02  0.7818608E-02  0.1180000E+00
       11   -1    0    0    0    0  0.00000000000E+00  0.00000000000E+00  0.39999999673E+01  0.40000000000E+01  0.51109989000E-03 0. -1.
     -623   -1    0    0    0    0  0.00000000000E+00  0.00000000000E+00  0.12525980253E-10  0.17130000000E+03  0.17130000000E+03 0. -1.
       11    1    1    2    0    0  0.25395161500E-02  0.14612893758E-02  0.47765543833E-01  0.47858049547E-01  0.51109989000E-03 0. -1.
     -623    1    1    2    0    0  0.10776712275E-02 -0.23140233908E-03  0.29675071317E-03  0.17130000000E+03  0.17130000000E+03 0. -1.
      622    1    1    2    0    0 -0.36171873775E-02 -0.12298870368E-02  0.39519376728E+01  0.39521419466E+01  0.40000000000E-01 0. -1.
</event>
<event>
 5   0  0.6200596E+07  0.9118800E+02  0.7818608E-02  0.1180000E+00
       11   -1    0    0    0    0  0.00000000000E+00  0.00000000000E+00  0.39999999673E+01  0.40000000000E+01  0.51109989000E-03 0. -1.
     -623   -1    0    0    0    0  0.00000000000E+00  0.00000000000E+00  0.12525980253E-10  0.17130000000E+03  0.17130000000E+03 0.  1.
       11    1    1    2    0    0  0.54062148752E-02  0.32249719583E-02  0.36842639836E-01  0.37380060673E-01  0.51109989000E-03 0. -1.
     -623    1    1    2    0    0  0.79384557113E-03 -0.42348652821E-03  0.74512497414E-03  0.17130000000E+03  0.17130000000E+03 0.  1.
      622    1    1    2    0    0 -0.62000604464E-02 -0.28014854301E-02  0.39624122025E+01  0.39626199353E+01  0.40000000000E-01 0. -1.
</event>
<event>
 5   0  0.6200596E+07  0.9118800E+02  0.7818608E-02  0.1180000E+00
       11   -1    0    0    0    0  0.00000000000E+00  0.00000000000E+00  0.39999999673E+01  0.40000000000E+01  0.51109989000E-03 0. -1.
     -623   -1    0    0    0    0  0.00000000000E+00  0.00000000000E+00  0.12525980253E-10  0.17130000000E+03  0.17130000000E+03 0. -1.
       11    1    1    2    0    0 -0.14153998126E-02 -0.41747814952E-02  0.17437046047E-01  0.17992886175E-01  0.51109989000E-03 0. -1.
     -623    1    1    2    0    0 -0.23267050842E-02  0.85148886391E-03  0.75988113002E-03  0.17130000002E+03  0.17130000000E+03 0. -1.
      622    1    1    2    0    0  0.37421048967E-02  0.33232926313E-02  0.39818030402E+01  0.39820070942E+01  0.40000000000E-01 0. -1.
</event>
<event>
 5   0  0.6200596E+07  0.9118800E+02  0.7818608E-02  0.1180000E+00
       11   -1    0    0    0    0  0.00000000000E+00  0.00000000000E+00  0.39999999673E+01  0.40000000000E+01  0.51109989000E-03 0.  1.
     -623   -1    0    0    0    0  0.00000000000E+00  0.00000000000E+00  0.12525980253E-10  0.17130000000E+03  0.17130000000E+03 0. -1.
       11    1    1    2    0    0  0.22272497487E-02 -0.24941153866E-02  0.15448945596E-01  0.15814942099E-01  0.51109989000E-03 0.  1.
     -623    1    1    2    0    0  0.14526011645E-02  0.50160570926E-02  0.56934104639E-03  0.17130000008E+03  0.17130000000E+03 0. -1.
      622    1    1    2    0    0 -0.36798509132E-02 -0.25219417060E-02  0.39839816807E+01  0.39841849774E+01  0.40000000000E-01 0.  1.
</event>
<event>
 5   0  0.6200596E+07  0.9118800E+02  0.7818608E-02  0.1180000E+00
       11   -1    0    0    0    0  0.00000000000E+00  0.00000000000E+00  0.39999999673E+01  0.40000000000E+01  0.51109989000E-03 0. -1.
     -623   -1    0    0    0    0  0.00000000000E+00  0.00000000000E+00  0.12525980253E-10  0.17130000000E+03  0.17130000000E+03 0. -1.
       11    1    1    2    0    0  0.47325938213E-02 -0.28573886524E-01  0.56821816135E+00  0.56895606557E+00  0.51109989000E-03 0. -1.
     -623    1    1    2    0    0  0.50444059094E-02  0.32426763369E-01  0.99028575223E-03  0.17130000315E+03  0.17130000000E+03 0. -1.
      622    1    1    2    0    0 -0.97769997307E-02 -0.38528768459E-02  0.34307915203E+01  0.34310407881E+01  0.40000000000E-01 0. -1.
</event>
<event>
 5   0  0.6200596E+07  0.9118800E+02  0.7818608E-02  0.1180000E+00
       11   -1    0    0    0    0  0.00000000000E+00  0.00000000000E+00  0.39999999673E+01  0.40000000000E+01  0.51109989000E-03 0. -1.
     -623   -1    0    0    0    0  0.00000000000E+00  0.00000000000E+00  0.12525980253E-10  0.17130000000E+03  0.17130000000E+03 0.  1.
       11    1    1    2    0    0  0.19847972972E-02  0.21701756575E-02  0.17298486702E+00  0.17301061968E+00  0.51109989000E-03 0. -1.
     -623    1    1    2    0    0  0.29628571799E-03  0.17037233187E-03  0.23616346017E-03  0.17130000000E+03  0.17130000000E+03 0.  1.
      622    1    1    2    0    0 -0.22810830151E-02 -0.23405479893E-02  0.38267789369E+01  0.38269893798E+01  0.40000000000E-01 0. -1.
</event>
<event>
 5   0  0.6200596E+07  0.9118800E+02  0.7818608E-02  0.1180000E+00
       11   -1    0    0    0    0  0.00000000000E+00  0.00000000000E+00  0.39999999673E+01  0.40000000000E+01  0.51109989000E-03 0.  1.
     -623   -1    0    0    0    0  0.00000000000E+00  0.00000000000E+00  0.12525980253E-10  0.17130000000E+03  0.17130000000E+03 0. -1.
       11    1    1    2    0    0  0.15009620325E-01  0.53196794175E-02  0.35348619110E+00  0.35384507374E+00  0.51109989000E-03 0.  1.
     -623    1    1    2    0    0 -0.63180488503E-03  0.73505700777E-03  0.61164689400E-03  0.17130000000E+03  0.17130000000E+03 0. -1.
      622    1    1    2    0    0 -0.14377815440E-01 -0.60547364252E-02  0.36459021294E+01  0.36461549224E+01  0.40000000000E-01 0.  1.
</event>
<event>
 5   0  0.6200596E+07  0.9118800E+02  0.7818608E-02  0.1180000E+00
       11   -1    0    0    0    0  0.00000000000E+00  0.00000000000E+00  0.39999999673E+01  0.40000000000E+01  0.51109989000E-03 0. -1.
     -623   -1    0    0    0    0  0.00000000000E+00  0.00000000000E+00  0.12525980253E-10  0.17130000000E+03  0.17130000000E+03 0.  1.
       11    1    1    2    0    0 -0.47758857658E-03  0.13767298347E-02  0.36691057658E-01  0.36723540254E-01  0.51109989000E-03 0. -1.
     -623    1    1    2    0    0 -0.66424744722E-05  0.13804744913E-02  0.23530272122E-03  0.17130000001E+03  0.17130000000E+03 0.  1.
      622    1    1    2    0    0  0.48423105105E-03 -0.27572043260E-02  0.39630736070E+01  0.39632764540E+01  0.40000000000E-01 0. -1.
</event>
<event>
 5   0  0.6200596E+07  0.9118800E+02  0.7818608E-02  0.1180000E+00
       11   -1    0    0    0    0  0.00000000000E+00  0.00000000000E+00  0.39999999673E+01  0.40000000000E+01  0.51109989000E-03 0.  1.
     -623   -1    0    0    0    0  0.00000000000E+00  0.00000000000E+00  0.12525980253E-10  0.17130000000E+03  0.17130000000E+03 0. -1.
       11    1    1    2    0    0 -0.20187326830E-01  0.67462828896E-02  0.27105135880E+01  0.27105972059E+01  0.51109989000E-03 0.  1.
     -623    1    1    2    0    0 -0.15755744849E-01  0.11361604584E-01  0.13338604717E-02  0.17130000111E+03  0.17130000000E+03 0. -1.
      622    1    1    2    0    0  0.35943071679E-01 -0.18107887474E-01  0.12881525188E+01  0.12894016875E+01  0.40000000000E-01 0.  0.
</event>
<event>
 5   0  0.6200596E+07  0.9118800E+02  0.7818608E-02  0.1180000E+00
       11   -1    0    0    0    0  0.00000000000E+00  0.00000000000E+00  0.39999999673E+01  0.40000000000E+01  0.51109989000E-03 0.  1.
     -623   -1    0    0    0    0  0.00000000000E+00  0.00000000000E+00  0.12525980253E-10  0.17130000000E+03  0.17130000000E+03 0.  1.
       11    1    1    2    0    0 -0.42177956884E-03  0.33380837422E-02  0.18153616878E-01  0.18469860024E-01  0.51109989000E-03 0.  1.
     -623    1    1    2    0    0  0.17543955358E-02 -0.14844512112E-02  0.51781408506E-03  0.17130000002E+03  0.17130000000E+03 0.  1.
      622    1    1    2    0    0 -0.13326159670E-02 -0.18536325309E-02  0.39813285364E+01  0.39815301238E+01  0.40000000000E-01 0.  1.
</event>
<event>
 5   0  0.6200596E+07  0.9118800E+02  0.7818608E-02  0.1180000E+00
       11   -1    0    0    0    0  0.00000000000E+00  0.00000000000E+00  0.39999999673E+01  0.40000000000E+01  0.51109989000E-03 0. -1.
     -623   -1    0    0    0    0  0.00000000000E+00  0.00000000000E+00  0.12525980253E-10  0.17130000000E+03  0.17130000000E+03 0. -1.
       11    1    1    2    0    0  0.11927346357E-02 -0.50842156428E-02  0.87683597930E-01  0.87840460114E-01  0.51109989000E-03 0. -1.
     -623    1    1    2    0    0 -0.89258039408E-02 -0.82224351315E-02  0.39203080365E-03  0.17130000043E+03  0.17130000000E+03 0. -1.
      622    1    1    2    0    0  0.77330693051E-02  0.13306650774E-01  0.39119243386E+01  0.39121591096E+01  0.40000000000E-01 0. -1.
</event>
<event>
 5   0  0.6200596E+07  0.9118800E+02  0.7818608E-02  0.1180000E+00
       11   -1    0    0    0    0  0.00000000000E+00  0.00000000000E+00  0.39999999673E+01  0.40000000000E+01  0.51109989000E-03 0. -1.
     -623   -1    0    0    0    0  0.00000000000E+00  0.00000000000E+00  0.12525980253E-10  0.17130000000E+03  0.17130000000E+03 0.  1.
       11    1    1    2    0    0 -0.58449663726E-02 -0.13671750308E-01  0.85323439910E-01  0.86610801913E-01  0.51109989000E-03 0. -1.
     -623    1    1    2    0    0  0.12680126055E-02  0.39016877256E-03  0.15169889177E-02  0.17130000001E+03  0.17130000000E+03 0.  1.
      622    1    1    2    0    0  0.45769537671E-02  0.13281581535E-01  0.39131595385E+01  0.39133891862E+01  0.40000000000E-01 0. -1.
</event>
<event>
 5   0  0.6200596E+07  0.9118800E+02  0.7818608E-02  0.1180000E+00
       11   -1    0    0    0    0  0.00000000000E+00  0.00000000000E+00  0.39999999673E+01  0.40000000000E+01  0.51109989000E-03 0. -1.
     -623   -1    0    0    0    0  0.00000000000E+00  0.00000000000E+00  0.12525980253E-10  0.17130000000E+03  0.17130000000E+03 0. -1.
       11    1    1    2    0    0 -0.45247408582E-02  0.23902550464E-02  0.10623250061E-01  0.11802595576E-01  0.51109989000E-03 0. -1.
     -623    1    1    2    0    0  0.54747846487E-02  0.13178606632E-02  0.13818450329E-02  0.17130000010E+03  0.17130000000E+03 0. -1.
      622    1    1    2    0    0 -0.95004379055E-03 -0.37081157095E-02  0.39879948723E+01  0.39881973063E+01  0.40000000000E-01 0. -1.
</event>
<event>
 5   0  0.6200596E+07  0.9118800E+02  0.7818608E-02  0.1180000E+00
       11   -1    0    0    0    0  0.00000000000E+00  0.00000000000E+00  0.39999999673E+01  0.40000000000E+01  0.51109989000E-03 0. -1.
     -623   -1    0    0    0    0  0.00000000000E+00  0.00000000000E+00  0.12525980253E-10  0.17130000000E+03  0.17130000000E+03 0. -1.
       11    1    1    2    0    0  0.52707346936E-02 -0.90995174713E-02  0.24977199796E+00  0.24999378802E+00  0.51109989000E-03 0. -1.
     -623    1    1    2    0    0  0.23134507006E-02  0.60078370503E-02  0.44416231117E-03  0.17130000012E+03  0.17130000000E+03 0. -1.
      622    1    1    2    0    0 -0.75841853942E-02  0.30916804209E-02  0.37497838071E+01  0.37500060904E+01  0.40000000000E-01 0. -1.
</event>
<event>
 5   0  0.6200596E+07  0.9118800E+02  0.7818608E-02  0.1180000E+00
       11   -1    0    0    0    0  0.00000000000E+00  0.00000000000E+00  0.39999999673E+01  0.40000000000E+01  0.51109989000E-03 0. -1.
     -623   -1    0    0    0    0  0.00000000000E+00  0.00000000000E+00  0.12525980253E-10  0.17130000000E+03  0.17130000000E+03 0. -1.
       11    1    1    2    0    0 -0.67551901604E-03 -0.26355908072E-02  0.18063076411E-01  0.18273987395E-01  0.51109989000E-03 0. -1.
     -623    1    1    2    0    0 -0.20183004406E-02  0.44913842686E-03  0.41332592069E-03  0.17130000001E+03  0.17130000000E+03 0. -1.
      622    1    1    2    0    0  0.26938194566E-02  0.21864523803E-02  0.39815235650E+01  0.39817259996E+01  0.40000000000E-01 0. -1.
</event>
<event>
 5   0  0.6200596E+07  0.9118800E+02  0.7818608E-02  0.1180000E+00
       11   -1    0    0    0    0  0.00000000000E+00  0.00000000000E+00  0.39999999673E+01  0.40000000000E+01  0.51109989000E-03 0.  1.
     -623   -1    0    0    0    0  0.00000000000E+00  0.00000000000E+00  0.12525980253E-10  0.17130000000E+03  0.17130000000E+03 0. -1.
       11    1    1    2    0    0 -0.10600787471E-01  0.15100391684E-01  0.77185292482E+00  0.77207356987E+00  0.51109989000E-03 0.  1.
     -623    1    1    2    0    0 -0.34841600271E-02  0.43040509968E-01  0.10283382190E-02  0.17130000545E+03  0.17130000000E+03 0. -1.
      622    1    1    2    0    0  0.14084947499E-01 -0.58140901652E-01  0.32271187043E+01  0.32279209845E+01  0.40000000000E-01 0.  1.
</event>
<event>
 5   0  0.6200596E+07  0.9118800E+02  0.7818608E-02  0.1180000E+00
       11   -1    0    0    0    0  0.00000000000E+00  0.00000000000E+00  0.39999999673E+01  0.40000000000E+01  0.51109989000E-03 0. -1.
     -623   -1    0    0    0    0  0.00000000000E+00  0.00000000000E+00  0.12525980253E-10  0.17130000000E+03  0.17130000000E+03 0.  1.
       11    1    1    2    0    0  0.18251464900E-01 -0.49658781889E-02  0.55293841516E+00  0.55326207904E+00  0.51109989000E-03 0. -1.
     -623    1    1    2    0    0  0.92206980917E-02  0.33534351909E-02  0.66589438756E-03  0.17130000028E+03  0.17130000000E+03 0.  1.
      622    1    1    2    0    0 -0.27472162992E-01  0.16124429980E-02  0.34463956578E+01  0.34467376387E+01  0.40000000000E-01 0.  0.
</event>
<event>
 5   0  0.6200596E+07  0.9118800E+02  0.7818608E-02  0.1180000E+00
       11   -1    0    0    0    0  0.00000000000E+00  0.00000000000E+00  0.39999999673E+01  0.40000000000E+01  0.51109989000E-03 0. -1.
     -623   -1    0    0    0    0  0.00000000000E+00  0.00000000000E+00  0.12525980253E-10  0.17130000000E+03  0.17130000000E+03 0.  1.
       11    1    1    2    0    0  0.87423179702E-03  0.25434605242E-02  0.73632332430E-01  0.73683207535E-01  0.51109989000E-03 0. -1.
     -623    1    1    2    0    0  0.20360502208E-02 -0.13862619945E-02  0.25586813377E-03  0.17130000002E+03  0.17130000000E+03 0.  1.
      622    1    1    2    0    0 -0.29102820178E-02 -0.11571985297E-02  0.39261117668E+01  0.39263167746E+01  0.40000000000E-01 0. -1.
</event>
<event>
 5   0  0.6200596E+07  0.9118800E+02  0.7818608E-02  0.1180000E+00
       11   -1    0    0    0    0  0.00000000000E+00  0.00000000000E+00  0.39999999673E+01  0.40000000000E+01  0.51109989000E-03 0.  1.
     -623   -1    0    0    0    0  0.00000000000E+00  0.00000000000E+00  0.12525980253E-10  0.17130000000E+03  0.17130000000E+03 0.  1.
       11    1    1    2    0    0 -0.11256180190E-01 -0.66004622540E-02  0.12775410843E+00  0.12841978483E+00  0.51109989000E-03 0.  1.
     -623    1    1    2    0    0 -0.41920421988E-02 -0.22664439525E-03  0.90917911582E-03  0.17130000005E+03  0.17130000000E+03 0.  1.
      622    1    1    2    0    0  0.15448222388E-01  0.68271066492E-02  0.38713366798E+01  0.38715801613E+01  0.40000000000E-01 0.  1.
</event>
<event>
 5   0  0.6200596E+07  0.9118800E+02  0.7818608E-02  0.1180000E+00
       11   -1    0    0    0    0  0.00000000000E+00  0.00000000000E+00  0.39999999673E+01  0.40000000000E+01  0.51109989000E-03 0. -1.
     -623   -1    0    0    0    0  0.00000000000E+00  0.00000000000E+00  0.12525980253E-10  0.17130000000E+03  0.17130000000E+03 0. -1.
       11    1    1    2    0    0 -0.34768088203E-03 -0.53876895303E-02  0.43477073777E-01  0.43813984603E-01  0.51109989000E-03 0. -1.
     -623    1    1    2    0    0  0.35494439088E-03 -0.56002027293E-03  0.54357157706E-03  0.17130000000E+03  0.17130000000E+03 0. -1.
      622    1    1    2    0    0 -0.72635088484E-05  0.59477098033E-02  0.39559793220E+01  0.39561860133E+01  0.40000000000E-01 0. -1.
</event>
<event>
 5   0  0.6200596E+07  0.9118800E+02  0.7818608E-02  0.1180000E+00
       11   -1    0    0    0    0  0.00000000000E+00  0.00000000000E+00  0.39999999673E+01  0.40000000000E+01  0.51109989000E-03 0.  1.
     -623   -1    0    0    0    0  0.00000000000E+00  0.00000000000E+00  0.12525980253E-10  0.17130000000E+03  0.17130000000E+03 0. -1.
       11    1    1    2    0    0  0.22967574474E-01 -0.36964115921E-02  0.25069247211E+01  0.25070327064E+01  0.51109989000E-03 0.  1.
     -623    1    1    2    0    0 -0.29624600935E-02 -0.89363010251E-02  0.83171019075E-03  0.17130000026E+03  0.17130000000E+03 0. -1.
      622    1    1    2    0    0 -0.20005114381E-01  0.12632712617E-01  0.14922435361E+01  0.14929670328E+01  0.40000000000E-01 0.  0.
</event>
<event>
 5   0  0.6200596E+07  0.9118800E+02  0.7818608E-02  0.1180000E+00
       11   -1    0    0    0    0  0.00000000000E+00  0.00000000000E+00  0.39999999673E+01  0.40000000000E+01  0.51109989000E-03 0. -1.
     -623   -1    0    0    0    0  0.00000000000E+00  0.00000000000E+00  0.12525980253E-10  0.17130000000E+03  0.17130000000E+03 0.  1.
       11    1    1    2    0    0 -0.22096750182E-01 -0.73840747720E-02  0.74039873694E+00  0.74076537568E+00  0.51109989000E-03 0. -1.
     -623    1    1    2    0    0  0.32799223452E-01  0.44645167206E-02  0.63415261068E-03  0.17130000320E+03  0.17130000000E+03 0.  1.
      622    1    1    2    0    0 -0.10702473270E-01  0.29195580514E-02  0.32589670778E+01  0.32592314249E+01  0.40000000000E-01 0. -1.
</event>
<event>
 5   0  0.6200596E+07  0.9118800E+02  0.7818608E-02  0.1180000E+00
       11   -1    0    0    0    0  0.00000000000E+00  0.00000000000E+00  0.39999999673E+01  0.40000000000E+01  0.51109989000E-03 0. -1.
     -623   -1    0    0    0    0  0.00000000000E+00  0.00000000000E+00  0.12525980253E-10  0.17130000000E+03  0.17130000000E+03 0. -1.
       11    1    1    2    0    0  0.50078877065E-02 -0.33863169448E-02  0.28125775088E-01  0.28772669799E-01  0.51109989000E-03 0. -1.
     -623    1    1    2    0    0 -0.55728675776E-02  0.18479495363E-02  0.84875713577E-03  0.17130000010E+03  0.17130000000E+03 0. -1.
      622    1    1    2    0    0  0.56497987108E-03  0.15383674084E-02  0.39710254351E+01  0.39712272275E+01  0.40000000000E-01 0. -1.
</event>
<event>
 5   0  0.6200596E+07  0.9118800E+02  0.7818608E-02  0.1180000E+00
       11   -1    0    0    0    0  0.00000000000E+00  0.00000000000E+00  0.39999999673E+01  0.40000000000E+01  0.51109989000E-03 0.  1.
     -623   -1    0    0    0    0  0.00000000000E+00  0.00000000000E+00  0.12525980253E-10  0.17130000000E+03  0.17130000000E+03 0.  1.
       11    1    1    2    0    0  0.16315127610E-01  0.57937500070E-02  0.23682172552E+00  0.23745429418E+00  0.51109989000E-03 0.  1.
     -623    1    1    2    0    0 -0.11128368839E-03 -0.11546554327E-02  0.88292436194E-03  0.17130000001E+03  0.17130000000E+03 0.  1.
      622    1    1    2    0    0 -0.16203843922E-01 -0.46390945743E-02  0.37622953175E+01  0.37625456996E+01  0.40000000000E-01 0.  1.
</event>
<event>
 5   0  0.6200596E+07  0.9118800E+02  0.7818608E-02  0.1180000E+00
       11   -1    0    0    0    0  0.00000000000E+00  0.00000000000E+00  0.39999999673E+01  0.40000000000E+01  0.51109989000E-03 0. -1.
     -623   -1    0    0    0    0  0.00000000000E+00  0.00000000000E+00  0.12525980253E-10  0.17130000000E+03  0.17130000000E+03 0. -1.
       11    1    1    2    0    0  0.22675815884E-02  0.15897712288E-02  0.25194856768E+01  0.25194872506E+01  0.51109989000E-03 0. -1.
     -623    1    1    2    0    0 -0.14534854444E-01 -0.65190184917E-02  0.60178597027E-03  0.17130000074E+03  0.17130000000E+03 0. -1.
      622    1    1    2    0    0  0.12267272856E-01  0.49292472629E-02  0.14799125046E+01  0.14805120076E+01  0.40000000000E-01 0. -1.
</event>
<event>
 5   0  0.6200596E+07  0.9118800E+02  0.7818608E-02  0.1180000E+00
       11   -1    0    0    0    0  0.00000000000E+00  0.00000000000E+00  0.39999999673E+01  0.40000000000E+01  0.51109989000E-03 0. -1.
     -623   -1    0    0    0    0  0.00000000000E+00  0.00000000000E+00  0.12525980253E-10  0.17130000000E+03  0.17130000000E+03 0.  1.
       11    1    1    2    0    0  0.90602493173E-05 -0.91308977569E-02  0.11693593065E+01  0.11693950668E+01  0.51109989000E-03 0. -1.
     -623    1    1    2    0    0  0.80648939333E-02 -0.16319497762E-01  0.44527935406E-03  0.17130000097E+03  0.17130000000E+03 0.  1.
      622    1    1    2    0    0 -0.80739541827E-02  0.25450395519E-01  0.28301953815E+01  0.28306039654E+01  0.40000000000E-01 0.  1.
</event>
<event>
 5   0  0.6200596E+07  0.9118800E+02  0.7818608E-02  0.1180000E+00
       11   -1    0    0    0    0  0.00000000000E+00  0.00000000000E+00  0.39999999673E+01  0.40000000000E+01  0.51109989000E-03 0. -1.
     -623   -1    0    0    0    0  0.00000000000E+00  0.00000000000E+00  0.12525980253E-10  0.17130000000E+03  0.17130000000E+03 0.  1.
       11    1    1    2    0    0 -0.35893368617E-03 -0.12944251243E-02  0.21036833652E+00  0.21037324593E+00  0.51109989000E-03 0. -1.
     -623    1    1    2    0    0  0.78652568311E-03 -0.53682340752E-03  0.21645461929E-03  0.17130000000E+03  0.17130000000E+03 0.  1.
      622    1    1    2    0    0 -0.42759199695E-03  0.18312485319E-02  0.37894151762E+01  0.37896267513E+01  0.40000000000E-01 0. -1.
</event>
<event>
 5   0  0.6200596E+07  0.9118800E+02  0.7818608E-02  0.1180000E+00
       11   -1    0    0    0    0  0.00000000000E+00  0.00000000000E+00  0.39999999673E+01  0.40000000000E+01  0.51109989000E-03 0. -1.
     -623   -1    0    0    0    0  0.00000000000E+00  0.00000000000E+00  0.12525980253E-10  0.17130000000E+03  0.17130000000E+03 0. -1.
       11    1    1    2    0    0 -0.84323295856E-03 -0.64843151751E-02  0.18161929504E+00  0.18173768717E+00  0.51109989000E-03 0. -1.
     -623    1    1    2    0    0 -0.37579254544E-02  0.16032938537E-01  0.34338916359E-03  0.17130000079E+03  0.17130000000E+03 0. -1.
      622    1    1    2    0    0  0.46011584130E-02 -0.95486233622E-02  0.38180372832E+01  0.38182615210E+01  0.40000000000E-01 0. -1.
</event>
<event>
 5   0  0.6200596E+07  0.9118800E+02  0.7818608E-02  0.1180000E+00
       11   -1    0    0    0    0  0.00000000000E+00  0.00000000000E+00  0.39999999673E+01  0.40000000000E+01  0.51109989000E-03 0.  1.
     -623   -1    0    0    0    0  0.00000000000E+00  0.00000000000E+00  0.12525980253E-10  0.17130000000E+03  0.17130000000E+03 0. -1.
       11    1    1    2    0    0 -0.98834350108E-03  0.22848288502E-02  0.57012945079E+00  0.57013511482E+00  0.51109989000E-03 0.  1.
     -623    1    1    2    0    0  0.15014890523E-02  0.15883823616E-02  0.24112424255E-03  0.17130000001E+03  0.17130000000E+03 0. -1.
      622    1    1    2    0    0 -0.51314555121E-03 -0.38732112118E-02  0.34296293923E+01  0.34298648711E+01  0.40000000000E-01 0. -1.
</event>
<event>
 5   0  0.6200596E+07  0.9118800E+02  0.7818608E-02  0.1180000E+00
       11   -1    0    0    0    0  0.00000000000E+00  0.00000000000E+00  0.39999999673E+01  0.40000000000E+01  0.51109989000E-03 0. -1.
     -623   -1    0    0    0    0  0.00000000000E+00  0.00000000000E+00  0.12525980253E-10  0.17130000000E+03  0.17130000000E+03 0. -1.
       11    1    1    2    0    0 -0.34799309369E-01  0.24831955701E-01  0.98381844082E+00  0.98474697444E+00  0.51109989000E-03 0. -1.
     -623    1    1    2    0    0 -0.47627901617E-02  0.57435072151E-02  0.16086274410E-02  0.17130000017E+03  0.17130000000E+03 0. -1.
      622    1    1    2    0    0  0.39562099531E-01 -0.30575462916E-01  0.30145728991E+01  0.30152528555E+01  0.40000000000E-01 0. -1.
</event>
<event>
 5   0  0.6200596E+07  0.9118800E+02  0.7818608E-02  0.1180000E+00
       11   -1    0    0    0    0  0.00000000000E+00  0.00000000000E+00  0.39999999673E+01  0.40000000000E+01  0.51109989000E-03 0.  1.
     -623   -1    0    0    0    0  0.00000000000E+00  0.00000000000E+00  0.12525980253E-10  0.17130000000E+03  0.17130000000E+03 0.  1.
       11    1    1    2    0    0  0.99144347692E-02 -0.90247973457E-02  0.20424860536E+00  0.20468878083E+00  0.51109989000E-03 0.  1.
     -623    1    1    2    0    0  0.14138508541E-02  0.18037300589E-02  0.67472903927E-03  0.17130000002E+03  0.17130000000E+03 0.  1.
      622    1    1    2    0    0 -0.11328285623E-01  0.72210672868E-02  0.37950766330E+01  0.37953112025E+01  0.40000000000E-01 0.  1.
</event>
<event>
 5   0  0.6200596E+07  0.9118800E+02  0.7818608E-02  0.1180000E+00
       11   -1    0    0    0    0  0.00000000000E+00  0.00000000000E+00  0.39999999673E+01  0.40000000000E+01  0.51109989000E-03 0.  1.
     -623   -1    0    0    0    0  0.00000000000E+00  0.00000000000E+00  0.12525980253E-10  0.17130000000E+03  0.17130000000E+03 0.  1.
       11    1    1    2    0    0 -0.15596529197E-01 -0.37645723880E-01  0.10879466828E+01  0.10887096482E+01  0.51109989000E-03 0.  1.
     -623    1    1    2    0    0 -0.73885241766E-02  0.21209417001E-01  0.11763632223E-02  0.17130000148E+03  0.17130000000E+03 0.  1.
      622    1    1    2    0    0  0.22985053373E-01  0.16436306879E-01  0.29108769214E+01  0.29112888754E+01  0.40000000000E-01 0.  1.
</event>
<event>
 5   0  0.6200596E+07  0.9118800E+02  0.7818608E-02  0.1180000E+00
       11   -1    0    0    0    0  0.00000000000E+00  0.00000000000E+00  0.39999999673E+01  0.40000000000E+01  0.51109989000E-03 0. -1.
     -623   -1    0    0    0    0  0.00000000000E+00  0.00000000000E+00  0.12525980253E-10  0.17130000000E+03  0.17130000000E+03 0.  1.
       11    1    1    2    0    0 -0.81438571335E-05 -0.10380624861E-02  0.26174885118E+00  0.26175140870E+00  0.51109989000E-03 0. -1.
     -623    1    1    2    0    0 -0.23232486719E-02  0.58014977379E-02  0.22041120589E-03  0.17130000011E+03  0.17130000000E+03 0.  1.
      622    1    1    2    0    0  0.23313925291E-02 -0.47634352518E-02  0.37380307050E+01  0.37382484772E+01  0.40000000000E-01 0. -1.
</event>
<event>
 5   0  0.6200596E+07  0.9118800E+02  0.7818608E-02  0.1180000E+00
       11   -1    0    0    0    0  0.00000000000E+00  0.00000000000E+00  0.39999999673E+01  0.40000000000E+01  0.51109989000E-03 0.  1.
     -623   -1    0    0    0    0  0.00000000000E+00  0.00000000000E+00  0.12525980253E-10  0.17130000000E+03  0.17130000000E+03 0. -1.
       11    1    1    2    0    0  0.18003111040E-01 -0.16809346233E-02  0.22776807105E+01  0.22777525365E+01  0.51109989000E-03 0.  1.
     -623    1    1    2    0    0 -0.86336141334E-03 -0.81223773314E-03  0.62348803095E-03  0.17130000001E+03  0.17130000000E+03 0. -1.
      622    1    1    2    0    0 -0.17139749627E-01  0.24931723564E-02  0.17216957688E+01  0.17222474582E+01  0.40000000000E-01 0.  1.
</event>
<event>
 5   0  0.6200596E+07  0.9118800E+02  0.7818608E-02  0.1180000E+00
       11   -1    0    0    0    0  0.00000000000E+00  0.00000000000E+00  0.39999999673E+01  0.40000000000E+01  0.51109989000E-03 0.  1.
     -623   -1    0    0    0    0  0.00000000000E+00  0.00000000000E+00  0.12525980253E-10  0.17130000000E+03  0.17130000000E+03 0.  1.
       11    1    1    2    0    0 -0.63368193740E-02 -0.17894162842E-02  0.81318090091E-01  0.81585846130E-01  0.51109989000E-03 0.  1.
     -623    1    1    2    0    0  0.16340076975E-02  0.21964420166E-02  0.47475888486E-03  0.17130000002E+03  0.17130000000E+03 0.  1.
      622    1    1    2    0    0  0.47028116765E-02 -0.40702573241E-03  0.39182071184E+01  0.39184141313E+01  0.40000000000E-01 0.  1.
</event>
<event>
 5   0  0.6200596E+07  0.9118800E+02  0.7818608E-02  0.1180000E+00
       11   -1    0    0    0    0  0.00000000000E+00  0.00000000000E+00  0.39999999673E+01  0.40000000000E+01  0.51109989000E-03 0.  1.
     -623   -1    0    0    0    0  0.00000000000E+00  0.00000000000E+00  0.12525980253E-10  0.17130000000E+03  0.17130000000E+03 0.  1.
       11    1    1    2    0    0 -0.11305165629E-01  0.72989350195E-02  0.69225552572E-01  0.70523184639E-01  0.51109989000E-03 0.  1.
     -623    1    1    2    0    0 -0.40016746466E-02  0.76153308855E-02  0.15595371911E-02  0.17130000022E+03  0.17130000000E+03 0.  1.
      622    1    1    2    0    0  0.15306840276E-01 -0.14914265905E-01  0.39292148776E+01  0.39294765922E+01  0.40000000000E-01 0.  1.
</event>
<event>
 5   0  0.6200596E+07  0.9118800E+02  0.7818608E-02  0.1180000E+00
       11   -1    0    0    0    0  0.00000000000E+00  0.00000000000E+00  0.39999999673E+01  0.40000000000E+01  0.51109989000E-03 0.  1.
     -623   -1    0    0    0    0  0.00000000000E+00  0.00000000000E+00  0.12525980253E-10  0.17130000000E+03  0.17130000000E+03 0.  1.
       11    1    1    2    0    0  0.76812753018E-02 -0.41421856434E-02  0.92629862713E+00  0.92633987690E+00  0.51109989000E-03 0.  1.
     -623    1    1    2    0    0 -0.27207912953E-02  0.90674985797E-02  0.30971575487E-03  0.17130000026E+03  0.17130000000E+03 0.  1.
      622    1    1    2    0    0 -0.49604840066E-02 -0.49253129364E-02  0.30733916245E+01  0.30736598612E+01  0.40000000000E-01 0.  1.
</event>
<event>
 5   0  0.6200596E+07  0.9118800E+02  0.7818608E-02  0.1180000E+00
       11   -1    0    0    0    0  0.00000000000E+00  0.00000000000E+00  0.39999999673E+01  0.40000000000E+01  0.51109989000E-03 0. -1.
     -623   -1    0    0    0    0  0.00000000000E+00  0.00000000000E+00  0.12525980253E-10  0.17130000000E+03  0.17130000000E+03 0. -1.
       11    1    1    2    0    0  0.76789571099E-02 -0.13215787147E-01  0.20396125871E+00  0.20453381063E+00  0.51109989000E-03 0. -1.
     -623    1    1    2    0    0 -0.10106151488E-01  0.17128435588E-01  0.78725223124E-03  0.17130000116E+03  0.17130000000E+03 0. -1.
      622    1    1    2    0    0  0.24271943783E-02 -0.39126484410E-02  0.37952514564E+01  0.37954650331E+01  0.40000000000E-01 0. -1.
</event>
<event>
 5   0  0.6200596E+07  0.9118800E+02  0.7818608E-02  0.1180000E+00
       11   -1    0    0    0    0  0.00000000000E+00  0.00000000000E+00  0.39999999673E+01  0.40000000000E+01  0.51109989000E-03 0.  1.
     -623   -1    0    0    0    0  0.00000000000E+00  0.00000000000E+00  0.12525980253E-10  0.17130000000E+03  0.17130000000E+03 0.  1.
       11    1    1    2    0    0 -0.11126512983E-01  0.31817211285E-02  0.19356977503E+01  0.19357324103E+01  0.51109989000E-03 0.  1.
     -623    1    1    2    0    0  0.34371901991E-03 -0.98159880802E-03  0.45155455769E-03  0.17130000000E+03  0.17130000000E+03 0.  1.
      622    1    1    2    0    0  0.10782793963E-01 -0.22001223204E-02  0.20638506625E+01  0.20642675860E+01  0.40000000000E-01 0.  1.
</event>
<event>
 5   0  0.6200596E+07  0.9118800E+02  0.7818608E-02  0.1180000E+00
       11   -1    0    0    0    0  0.00000000000E+00  0.00000000000E+00  0.39999999673E+01  0.40000000000E+01  0.51109989000E-03 0. -1.
     -623   -1    0    0    0    0  0.00000000000E+00  0.00000000000E+00  0.12525980253E-10  0.17130000000E+03  0.17130000000E+03 0.  1.
       11    1    1    2    0    0  0.36601180022E-02  0.19722947312E-02  0.84438380238E-01  0.84542224295E-01  0.51109989000E-03 0. -1.
     -623    1    1    2    0    0 -0.15691976424E-03  0.81262712060E-03  0.31069512547E-03  0.17130000000E+03  0.17130000000E+03 0.  1.
      622    1    1    2    0    0 -0.35031982379E-02 -0.27849218518E-02  0.39152508920E+01  0.39154577734E+01  0.40000000000E-01 0. -1.
</event>
<event>
 5   0  0.6200596E+07  0.9118800E+02  0.7818608E-02  0.1180000E+00
       11   -1    0    0    0    0  0.00000000000E+00  0.00000000000E+00  0.39999999673E+01  0.40000000000E+01  0.51109989000E-03 0. -1.
     -623   -1    0    0    0    0  0.00000000000E+00  0.00000000000E+00  0.12525980253E-10  0.17130000000E+03  0.17130000000E+03 0. -1.
       11    1    1    2    0    0  0.57171774748E-02  0.73921033668E-03  0.38563128269E-01  0.38994982171E-01  0.51109989000E-03 0. -1.
     -623    1    1    2    0    0  0.18095837934E-03 -0.92688769123E-03  0.63819513133E-03  0.17130000000E+03  0.17130000000E+03 0. -1.
      622    1    1    2    0    0 -0.58981358542E-02  0.18767735456E-03  0.39607986440E+01  0.39610050140E+01  0.40000000000E-01 0. -1.
</event>
<event>
 5   0  0.6200596E+07  0.9118800E+02  0.7818608E-02  0.1180000E+00
       11   -1    0    0    0    0  0.00000000000E+00  0.00000000000E+00  0.39999999673E+01  0.40000000000E+01  0.51109989000E-03 0. -1.
     -623   -1    0    0    0    0  0.00000000000E+00  0.00000000000E+00  0.12525980253E-10  0.17130000000E+03  0.17130000000E+03 0. -1.
       11    1    1    2    0    0 -0.36686804631E-03  0.27717067560E-02  0.16305797181E-01  0.16551652304E-01  0.51109989000E-03 0. -1.
     -623    1    1    2    0    0 -0.19995189802E-02  0.36386794908E-03  0.44860827588E-03  0.17130000001E+03  0.17130000000E+03 0. -1.
      622    1    1    2    0    0  0.23663870265E-02 -0.31355747051E-02  0.39832455619E+01  0.39834483351E+01  0.40000000000E-01 0. -1.
</event>
<event>
 5   0  0.6200596E+07  0.9118800E+02  0.7818608E-02  0.1180000E+00
       11   -1    0    0    0    0  0.00000000000E+00  0.00000000000E+00  0.39999999673E+01  0.40000000000E+01  0.51109989000E-03 0. -1.
     -623   -1    0    0    0    0  0.00000000000E+00  0.00000000000E+00  0.12525980253E-10  0.17130000000E+03  0.17130000000E+03 0. -1.
       11    1    1    2    0    0 -0.43763347307E-02  0.16687444434E-01  0.93382549675E+00  0.93398497991E+00  0.51109989000E-03 0. -1.
     -623    1    1    2    0    0 -0.10585235398E-01  0.89218327565E-02  0.56441976658E-03  0.17130000056E+03  0.17130000000E+03 0. -1.
      622    1    1    2    0    0  0.14961570128E-01 -0.25609277190E-01  0.30656100508E+01  0.30660144598E+01  0.40000000000E-01 0.  0.
</event>
<event>
 5   0  0.6200596E+07  0.9118800E+02  0.7818608E-02  0.1180000E+00
       11   -1    0    0    0    0  0.00000000000E+00  0.00000000000E+00  0.39999999673E+01  0.40000000000E+01  0.51109989000E-03 0. -1.
     -623   -1    0    0    0    0  0.00000000000E+00  0.00000000000E+00  0.12525980253E-10  0.17130000000E+03  0.17130000000E+03 0. -1.
       11    1    1    2    0    0 -0.74557346735E-03 -0.23919002505E-03  0.19117385705E-01  0.19140238994E-01  0.51109989000E-03 0. -1.
     -623    1    1    2    0    0  0.13671748954E-02 -0.89073527601E-04  0.22385502919E-03  0.17130000001E+03  0.17130000000E+03 0. -1.
      622    1    1    2    0    0 -0.62160142805E-03  0.32826355265E-03  0.39806587266E+01  0.39808597554E+01  0.40000000000E-01 0. -1.
</event>
<event>
 5   0  0.6200596E+07  0.9118800E+02  0.7818608E-02  0.1180000E+00
       11   -1    0    0    0    0  0.00000000000E+00  0.00000000000E+00  0.39999999673E+01  0.40000000000E+01  0.51109989000E-03 0.  1.
     -623   -1    0    0    0    0  0.00000000000E+00  0.00000000000E+00  0.12525980253E-10  0.17130000000E+03  0.17130000000E+03 0.  1.
       11    1    1    2    0    0  0.38125647112E-02 -0.23752954839E-01  0.53979540906E+00  0.54033145695E+00  0.51109989000E-03 0.  1.
     -623    1    1    2    0    0 -0.24652989345E-01  0.20738455926E-01  0.83437832300E-03  0.17130000303E+03  0.17130000000E+03 0.  1.
      622    1    1    2    0    0  0.20840424634E-01  0.30144989126E-02  0.34593701800E+01  0.34596655117E+01  0.40000000000E-01 0.  1.
</event>
<event>
 5   0  0.6200596E+07  0.9118800E+02  0.7818608E-02  0.1180000E+00
       11   -1    0    0    0    0  0.00000000000E+00  0.00000000000E+00  0.39999999673E+01  0.40000000000E+01  0.51109989000E-03 0.  1.
     -623   -1    0    0    0    0  0.00000000000E+00  0.00000000000E+00  0.12525980253E-10  0.17130000000E+03  0.17130000000E+03 0.  1.
       11    1    1    2    0    0 -0.16997562264E-02  0.15642814722E-01  0.19082774745E+00  0.19147604874E+00  0.51109989000E-03 0.  1.
     -623    1    1    2    0    0 -0.61456773117E-02 -0.75068260724E-02  0.87537846838E-03  0.17130000028E+03  0.17130000000E+03 0.  1.
      622    1    1    2    0    0  0.78454335380E-02 -0.81359886499E-02  0.38082968414E+01  0.38085236743E+01  0.40000000000E-01 0.  1.
</event>
<event>
 5   0  0.6200596E+07  0.9118800E+02  0.7818608E-02  0.1180000E+00
       11   -1    0    0    0    0  0.00000000000E+00  0.00000000000E+00  0.39999999673E+01  0.40000000000E+01  0.51109989000E-03 0.  1.
     -623   -1    0    0    0    0  0.00000000000E+00  0.00000000000E+00  0.12525980253E-10  0.17130000000E+03  0.17130000000E+03 0.  1.
       11    1    1    2    0    0  0.10075106181E-02  0.23286682462E-02  0.16382938400E-01  0.16586128694E-01  0.51109989000E-03 0.  1.
     -623    1    1    2    0    0  0.29712220382E-03 -0.84572526149E-04  0.40484203783E-03  0.17130000000E+03  0.17130000000E+03 0.  1.
      622    1    1    2    0    0 -0.13046328219E-02 -0.22440957200E-02  0.39832121869E+01  0.39834138705E+01  0.40000000000E-01 0.  1.
</event>
<event>
 5   0  0.6200596E+07  0.9118800E+02  0.7818608E-02  0.1180000E+00
       11   -1    0    0    0    0  0.00000000000E+00  0.00000000000E+00  0.39999999673E+01  0.40000000000E+01  0.51109989000E-03 0.  1.
     -623   -1    0    0    0    0  0.00000000000E+00  0.00000000000E+00  0.12525980253E-10  0.17130000000E+03  0.17130000000E+03 0. -1.
       11    1    1    2    0    0  0.62153342293E-01 -0.59019870291E-01  0.36476524376E+00  0.37470031668E+00  0.51109989000E-03 0.  1.
     -623    1    1    2    0    0 -0.73193560851E-01  0.10737534219E-01  0.10510380027E-01  0.17130001630E+03  0.17130000000E+03 0. -1.
      622    1    1    2    0    0  0.11040218559E-01  0.48282336072E-01  0.36247243436E+01  0.36252833872E+01  0.40000000000E-01 0.  1.
</event>
<event>
 5   0  0.6200596E+07  0.9118800E+02  0.7818608E-02  0.1180000E+00
       11   -1    0    0    0    0  0.00000000000E+00  0.00000000000E+00  0.39999999673E+01  0.40000000000E+01  0.51109989000E-03 0. -1.
     -623   -1    0    0    0    0  0.00000000000E+00  0.00000000000E+00  0.12525980253E-10  0.17130000000E+03  0.17130000000E+03 0.  1.
       11    1    1    2    0    0 -0.49589671550E-02  0.84057490831E-03  0.58019753742E+00  0.58021956324E+00  0.51109989000E-03 0. -1.
     -623    1    1    2    0    0 -0.17124367381E-03  0.16641620139E-03  0.25993129468E-03  0.17130000000E+03  0.17130000000E+03 0.  1.
      622    1    1    2    0    0  0.51302108288E-02 -0.10069911097E-02  0.34195424986E+01  0.34197804364E+01  0.40000000000E-01 0. -1.
</event>
<event>
 5   0  0.6200596E+07  0.9118800E+02  0.7818608E-02  0.1180000E+00
       11   -1    0    0    0    0  0.00000000000E+00  0.00000000000E+00  0.39999999673E+01  0.40000000000E+01  0.51109989000E-03 0. -1.
     -623   -1    0    0    0    0  0.00000000000E+00  0.00000000000E+00  0.12525980253E-10  0.17130000000E+03  0.17130000000E+03 0.  1.
       11    1    1    2    0    0  0.24042410074E-01 -0.18231644120E-02  0.31761429720E+01  0.31762345319E+01  0.51109989000E-03 0. -1.
     -623    1    1    2    0    0 -0.35762197393E-02 -0.40760752455E-02  0.13390742513E-02  0.17130000009E+03  0.17130000000E+03 0.  1.
      622    1    1    2    0    0 -0.20466190335E-01  0.58992396575E-02  0.82251792106E+00  0.82376537706E+00  0.40000000000E-01 0.  1.
</event>
<event>
 5   0  0.6200596E+07  0.9118800E+02  0.7818608E-02  0.1180000E+00
       11   -1    0    0    0    0  0.00000000000E+00  0.00000000000E+00  0.39999999673E+01  0.40000000000E+01  0.51109989000E-03 0. -1.
     -623   -1    0    0    0    0  0.00000000000E+00  0.00000000000E+00  0.12525980253E-10  0.17130000000E+03  0.17130000000E+03 0. -1.
       11    1    1    2    0    0  0.67648503111E-03 -0.22315224096E-03  0.33918318757E-01  0.33929647778E-01  0.51109989000E-03 0. -1.
     -623    1    1    2    0    0  0.56500592561E-04 -0.11516553665E-03  0.21309485357E-03  0.17130000000E+03  0.17130000000E+03 0. -1.
      622    1    1    2    0    0 -0.73298562367E-03  0.33831777761E-03  0.39658685537E+01  0.39660703520E+01  0.40000000000E-01 0. -1.
</event>
<event>
 5   0  0.6200596E+07  0.9118800E+02  0.7818608E-02  0.1180000E+00
       11   -1    0    0    0    0  0.00000000000E+00  0.00000000000E+00  0.39999999673E+01  0.40000000000E+01  0.51109989000E-03 0.  1.
     -623   -1    0    0    0    0  0.00000000000E+00  0.00000000000E+00  0.12525980253E-10  0.17130000000E+03  0.17130000000E+03 0.  1.
       11    1    1    2    0    0  0.22097256716E-02  0.37204645066E-02  0.38244439048E+00  0.38246921153E+00  0.51109989000E-03 0.  1.
     -623    1    1    2    0    0 -0.65865559756E-03 -0.25251540021E-02  0.24649058643E-03  0.17130000002E+03  0.17130000000E+03 0.  1.
      622    1    1    2    0    0 -0.15510700741E-02 -0.11953105046E-02  0.36173090863E+01  0.36175307684E+01  0.40000000000E-01 0.  1.
</event>
<event>
 5   0  0.6200596E+07  0.9118800E+02  0.7818608E-02  0.1180000E+00
       11   -1    0    0    0    0  0.00000000000E+00  0.00000000000E+00  0.39999999673E+01  0.40000000000E+01  0.51109989000E-03 0. -1.
     -623   -1    0    0    0    0  0.00000000000E+00  0.00000000000E+00  0.12525980253E-10  0.17130000000E+03  0.17130000000E+03 0. -1.
       11    1    1    2    0    0  0.12603894389E-01  0.10649838391E-01  0.76294076267E-01  0.78059749592E-01  0.51109989000E-03 0. -1.
     -623    1    1    2    0    0  0.25126009508E-02 -0.49158244877E-03  0.20119476008E-02  0.17130000003E+03  0.17130000000E+03 0. -1.
      622    1    1    2    0    0 -0.15116495340E-01 -0.10158255943E-01  0.39216939435E+01  0.39219402195E+01  0.40000000000E-01 0. -1.
</event>
<event>
 5   0  0.6200596E+07  0.9118800E+02  0.7818608E-02  0.1180000E+00
       11   -1    0    0    0    0  0.00000000000E+00  0.00000000000E+00  0.39999999673E+01  0.40000000000E+01  0.51109989000E-03 0.  1.
     -623   -1    0    0    0    0  0.00000000000E+00  0.00000000000E+00  0.12525980253E-10  0.17130000000E+03  0.17130000000E+03 0.  1.
       11    1    1    2    0    0 -0.11595347649E-01 -0.12449791721E-02  0.13702172122E+01  0.13702669345E+01  0.51109989000E-03 0.  1.
     -623    1    1    2    0    0  0.19615887522E-01  0.45637541301E-01  0.74812677841E-03  0.17130000720E+03  0.17130000000E+03 0.  1.
      622    1    1    2    0    0 -0.80205398727E-02 -0.44392562129E-01  0.26290346284E+01  0.26297258614E+01  0.40000000000E-01 0.  0.
</event>
<event>
 5   0  0.6200596E+07  0.9118800E+02  0.7818608E-02  0.1180000E+00
       11   -1    0    0    0    0  0.00000000000E+00  0.00000000000E+00  0.39999999673E+01  0.40000000000E+01  0.51109989000E-03 0. -1.
     -623   -1    0    0    0    0  0.00000000000E+00  0.00000000000E+00  0.12525980253E-10  0.17130000000E+03  0.17130000000E+03 0. -1.
       11    1    1    2    0    0  0.13087181046E-02  0.62524003816E-03  0.29558152197E-01  0.29598129181E-01  0.51109989000E-03 0. -1.
     -623    1    1    2    0    0 -0.80495110856E-03  0.36816014858E-03  0.24159909528E-03  0.17130000000E+03  0.17130000000E+03 0. -1.
      622    1    1    2    0    0 -0.50376699604E-03 -0.99340018674E-03  0.39702002161E+01  0.39704018684E+01  0.40000000000E-01 0. -1.
</event>
<event>
 5   0  0.6200596E+07  0.9118800E+02  0.7818608E-02  0.1180000E+00
       11   -1    0    0    0    0  0.00000000000E+00  0.00000000000E+00  0.39999999673E+01  0.40000000000E+01  0.51109989000E-03 0. -1.
     -623   -1    0    0    0    0  0.00000000000E+00  0.00000000000E+00  0.12525980253E-10  0.17130000000E+03  0.17130000000E+03 0. -1.
       11    1    1    2    0    0  0.15112617770E-01 -0.10505903636E-02  0.33391476423E+01  0.33391820455E+01  0.51109989000E-03 0. -1.
     -623    1    1    2    0    0 -0.19316272528E-03 -0.68961718071E-03  0.14171570941E-02  0.17130000001E+03  0.17130000000E+03 0. -1.
      622    1    1    2    0    0 -0.14919455045E-01  0.17402075443E-02  0.65943516796E+00  0.66081794710E+00  0.40000000000E-01 0. -1.
</event>
<event>
 5   0  0.6200596E+07  0.9118800E+02  0.7818608E-02  0.1180000E+00
       11   -1    0    0    0    0  0.00000000000E+00  0.00000000000E+00  0.39999999673E+01  0.40000000000E+01  0.51109989000E-03 0. -1.
     -623   -1    0    0    0    0  0.00000000000E+00  0.00000000000E+00  0.12525980253E-10  0.17130000000E+03  0.17130000000E+03 0. -1.
       11    1    1    2    0    0 -0.22187893369E-01  0.81878872176E-02  0.11558775269E+01  0.11561195710E+01  0.51109989000E-03 0. -1.
     -623    1    1    2    0    0 -0.19792313216E-01 -0.47482438233E-02  0.83651815849E-03  0.17130000121E+03  0.17130000000E+03 0. -1.
      622    1    1    2    0    0  0.41980206585E-01 -0.34396433943E-02  0.28432859223E+01  0.28438792177E+01  0.40000000000E-01 0. -1.
</event>
<event>
 5   0  0.6200596E+07  0.9118800E+02  0.7818608E-02  0.1180000E+00
       11   -1    0    0    0    0  0.00000000000E+00  0.00000000000E+00  0.39999999673E+01  0.40000000000E+01  0.51109989000E-03 0. -1.
     -623   -1    0    0    0    0  0.00000000000E+00  0.00000000000E+00  0.12525980253E-10  0.17130000000E+03  0.17130000000E+03 0.  1.
       11    1    1    2    0    0  0.13126047540E-01  0.10286626322E-01  0.19835724911E+01  0.19836426584E+01  0.51109989000E-03 0. -1.
     -623    1    1    2    0    0 -0.60913222525E-02 -0.14080094802E-02  0.49886925119E-03  0.17130000011E+03  0.17130000000E+03 0.  1.
      622    1    1    2    0    0 -0.70347252871E-02 -0.88786168415E-02  0.20159286071E+01  0.20163572268E+01  0.40000000000E-01 0. -1.
</event>
<event>
 5   0  0.6200596E+07  0.9118800E+02  0.7818608E-02  0.1180000E+00
       11   -1    0    0    0    0  0.00000000000E+00  0.00000000000E+00  0.39999999673E+01  0.40000000000E+01  0.51109989000E-03 0.  1.
     -623   -1    0    0    0    0  0.00000000000E+00  0.00000000000E+00  0.12525980253E-10  0.17130000000E+03  0.17130000000E+03 0. -1.
       11    1    1    2    0    0 -0.33700037624E-02  0.62800071719E-02  0.83289523253E-02  0.10973973010E-01  0.51109989000E-03 0.  1.
     -623    1    1    2    0    0  0.27419900268E-02 -0.80790165179E-02  0.28462345381E-02  0.17130000024E+03  0.17130000000E+03 0. -1.
      622    1    1    2    0    0  0.62801373560E-03  0.17990093460E-02  0.39888247805E+01  0.39890257909E+01  0.40000000000E-01 0.  1.
</event>
<event>
 5   0  0.6200596E+07  0.9118800E+02  0.7818608E-02  0.1180000E+00
       11   -1    0    0    0    0  0.00000000000E+00  0.00000000000E+00  0.39999999673E+01  0.40000000000E+01  0.51109989000E-03 0.  1.
     -623   -1    0    0    0    0  0.00000000000E+00  0.00000000000E+00  0.12525980253E-10  0.17130000000E+03  0.17130000000E+03 0.  1.
       11    1    1    2    0    0 -0.18410387302E-02 -0.16197262489E-02  0.23902825172E+00  0.23904137566E+00  0.51109989000E-03 0.  1.
     -623    1    1    2    0    0 -0.16894554250E-03 -0.14240167664E-02  0.22758404915E-03  0.17130000001E+03  0.17130000000E+03 0.  1.
      622    1    1    2    0    0  0.20099842727E-02  0.30437430154E-02  0.37607441316E+01  0.37609586182E+01  0.40000000000E-01 0.  1.
</event>
<event>
 5   0  0.6200596E+07  0.9118800E+02  0.7818608E-02  0.1180000E+00
       11   -1    0    0    0    0  0.00000000000E+00  0.00000000000E+00  0.39999999673E+01  0.40000000000E+01  0.51109989000E-03 0.  1.
     -623   -1    0    0    0    0  0.00000000000E+00  0.00000000000E+00  0.12525980253E-10  0.17130000000E+03  0.17130000000E+03 0. -1.
       11    1    1    2    0    0 -0.32043005135E-02  0.12694708140E-01  0.17043506671E+00  0.17093798976E+00  0.51109989000E-03 0.  1.
     -623    1    1    2    0    0  0.33102093290E-03  0.56870560811E-03  0.73587826814E-03  0.17130000000E+03  0.17130000000E+03 0. -1.
      622    1    1    2    0    0  0.28732795806E-02 -0.13263413748E-01  0.38288290224E+01  0.38290620074E+01  0.40000000000E-01 0.  1.
</event>
<event>
 5   0  0.6200596E+07  0.9118800E+02  0.7818608E-02  0.1180000E+00
       11   -1    0    0    0    0  0.00000000000E+00  0.00000000000E+00  0.39999999673E+01  0.40000000000E+01  0.51109989000E-03 0.  1.
     -623   -1    0    0    0    0  0.00000000000E+00  0.00000000000E+00  0.12525980253E-10  0.17130000000E+03  0.17130000000E+03 0.  1.
       11    1    1    2    0    0  0.26946482413E-02  0.16772033663E-02  0.11319145891E+00  0.11323710405E+00  0.51109989000E-03 0.  1.
     -623    1    1    2    0    0 -0.24135064366E-03  0.47634299557E-03  0.25281670696E-03  0.17130000000E+03  0.17130000000E+03 0.  1.
      622    1    1    2    0    0 -0.24532975976E-02 -0.21535463619E-02  0.38865556917E+01  0.38867628949E+01  0.40000000000E-01 0.  1.
</event>
<event>
 5   0  0.6200596E+07  0.9118800E+02  0.7818608E-02  0.1180000E+00
       11   -1    0    0    0    0  0.00000000000E+00  0.00000000000E+00  0.39999999673E+01  0.40000000000E+01  0.51109989000E-03 0.  1.
     -623   -1    0    0    0    0  0.00000000000E+00  0.00000000000E+00  0.12525980253E-10  0.17130000000E+03  0.17130000000E+03 0.  1.
       11    1    1    2    0    0 -0.13562575361E-01 -0.12148662316E-01  0.13320703590E+01  0.13321948941E+01  0.51109989000E-03 0.  1.
     -623    1    1    2    0    0  0.18297208056E-02 -0.56607427429E-02  0.50975149687E-03  0.17130000010E+03  0.17130000000E+03 0.  1.
      622    1    1    2    0    0  0.11732854555E-01  0.17809405059E-01  0.26674198569E+01  0.26678050018E+01  0.40000000000E-01 0. -1.
</event>
<event>
 5   0  0.6200596E+07  0.9118800E+02  0.7818608E-02  0.1180000E+00
       11   -1    0    0    0    0  0.00000000000E+00  0.00000000000E+00  0.39999999673E+01  0.40000000000E+01  0.51109989000E-03 0.  1.
     -623   -1    0    0    0    0  0.00000000000E+00  0.00000000000E+00  0.12525980253E-10  0.17130000000E+03  0.17130000000E+03 0. -1.
       11    1    1    2    0    0  0.68108475815E-03 -0.58653094511E-03  0.23214499079E-02  0.25413081000E-02  0.51109989000E-03 0.  1.
     -623    1    1    2    0    0 -0.14354807025E-02 -0.91912166279E-03  0.42032146029E-03  0.17130000001E+03  0.17130000000E+03 0. -1.
      622    1    1    2    0    0  0.75439594430E-03  0.15056526079E-02  0.39972581960E+01  0.39974586829E+01  0.40000000000E-01 0.  1.
</event>
<event>
 5   0  0.6200596E+07  0.9118800E+02  0.7818608E-02  0.1180000E+00
       11   -1    0    0    0    0  0.00000000000E+00  0.00000000000E+00  0.39999999673E+01  0.40000000000E+01  0.51109989000E-03 0.  1.
     -623   -1    0    0    0    0  0.00000000000E+00  0.00000000000E+00  0.12525980253E-10  0.17130000000E+03  0.17130000000E+03 0.  1.
       11    1    1    2    0    0  0.58868391260E-02 -0.99612754520E-02  0.16811579772E+01  0.16811978727E+01  0.51109989000E-03 0.  1.
     -623    1    1    2    0    0  0.65951387445E-02  0.27461486112E-02  0.42987104649E-03  0.17130000015E+03  0.17130000000E+03 0.  1.
      622    1    1    2    0    0 -0.12481977870E-01  0.72151268407E-02  0.23184121192E+01  0.23188019778E+01  0.40000000000E-01 0.  1.
</event>
<event>
 5   0  0.6200596E+07  0.9118800E+02  0.7818608E-02  0.1180000E+00
       11   -1    0    0    0    0  0.00000000000E+00  0.00000000000E+00  0.39999999673E+01  0.40000000000E+01  0.51109989000E-03 0.  1.
     -623   -1    0    0    0    0  0.00000000000E+00  0.00000000000E+00  0.12525980253E-10  0.17130000000E+03  0.17130000000E+03 0. -1.
       11    1    1    2    0    0 -0.27457274063E-03  0.12365119953E-02  0.45434491386E-02  0.47443127477E-02  0.51109989000E-03 0.  1.
     -623    1    1    2    0    0  0.23592408664E-02  0.92603896816E-03  0.40222191150E-03  0.17130000002E+03  0.17130000000E+03 0. -1.
      622    1    1    2    0    0 -0.20846681258E-02 -0.21625509635E-02  0.39950542963E+01  0.39952556680E+01  0.40000000000E-01 0.  1.
</event>
<event>
 5   0  0.6200596E+07  0.9118800E+02  0.7818608E-02  0.1180000E+00
       11   -1    0    0    0    0  0.00000000000E+00  0.00000000000E+00  0.39999999673E+01  0.40000000000E+01  0.51109989000E-03 0. -1.
     -623   -1    0    0    0    0  0.00000000000E+00  0.00000000000E+00  0.12525980253E-10  0.17130000000E+03  0.17130000000E+03 0.  1.
       11    1    1    2    0    0  0.95674020192E-03 -0.31378706153E-01  0.13747287852E+01  0.13750872818E+01  0.51109989000E-03 0. -1.
     -623    1    1    2    0    0  0.34557099769E-02 -0.68063788326E-03  0.86280972761E-03  0.17130000004E+03  0.17130000000E+03 0.  1.
      622    1    1    2    0    0 -0.44124501789E-02  0.32059344036E-01  0.26244083725E+01  0.26249126798E+01  0.40000000000E-01 0. -1.
</event>
<event>
 5   0  0.6200596E+07  0.9118800E+02  0.7818608E-02  0.1180000E+00
       11   -1    0    0    0    0  0.00000000000E+00  0.00000000000E+00  0.39999999673E+01  0.40000000000E+01  0.51109989000E-03 0.  1.
     -623   -1    0    0    0    0  0.00000000000E+00  0.00000000000E+00  0.12525980253E-10  0.17130000000E+03  0.17130000000E+03 0. -1.
       11    1    1    2    0    0 -0.16191242723E-01 -0.12820425385E-01  0.15782164071E+01  0.15783516112E+01  0.51109989000E-03 0.  1.
     -623    1    1    2    0    0  0.17482939220E-03  0.36683064936E-02  0.53585761026E-03  0.17130000004E+03  0.17130000000E+03 0. -1.
      622    1    1    2    0    0  0.16016413330E-01  0.91521188911E-02  0.24212477026E+01  0.24216483486E+01  0.40000000000E-01 0.  1.
</event>
<event>
 5   0  0.6200596E+07  0.9118800E+02  0.7818608E-02  0.1180000E+00
       11   -1    0    0    0    0  0.00000000000E+00  0.00000000000E+00  0.39999999673E+01  0.40000000000E+01  0.51109989000E-03 0.  1.
     -623   -1    0    0    0    0  0.00000000000E+00  0.00000000000E+00  0.12525980253E-10  0.17130000000E+03  0.17130000000E+03 0. -1.
       11    1    1    2    0    0  0.94498184591E-02 -0.29720699643E-01  0.10217235644E+01  0.10221995511E+01  0.51109989000E-03 0.  1.
     -623    1    1    2    0    0 -0.72125301740E-04 -0.13812973211E-02  0.92184061331E-03  0.17130000001E+03  0.17130000000E+03 0. -1.
      622    1    1    2    0    0 -0.93776931574E-02  0.31101996964E-01  0.29773545623E+01  0.29778004408E+01  0.40000000000E-01 0.  1.
</event>
<event>
 5   0  0.6200596E+07  0.9118800E+02  0.7818608E-02  0.1180000E+00
       11   -1    0    0    0    0  0.00000000000E+00  0.00000000000E+00  0.39999999673E+01  0.40000000000E+01  0.51109989000E-03 0. -1.
     -623   -1    0    0    0    0  0.00000000000E+00  0.00000000000E+00  0.12525980253E-10  0.17130000000E+03  0.17130000000E+03 0. -1.
       11    1    1    2    0    0  0.53742930996E-02  0.26223853859E-03  0.24115233799E+00  0.24121290002E+00  0.51109989000E-03 0. -1.
     -623    1    1    2    0    0  0.59096686086E-03 -0.12186484011E-02  0.27823104715E-03  0.17130000001E+03  0.17130000000E+03 0. -1.
      622    1    1    2    0    0 -0.59652599605E-02  0.95640986255E-03  0.37585693983E+01  0.37587870944E+01  0.40000000000E-01 0. -1.
</event>
<event>
 5   0  0.6200596E+07  0.9118800E+02  0.7818608E-02  0.1180000E+00
       11   -1    0    0    0    0  0.00000000000E+00  0.00000000000E+00  0.39999999673E+01  0.40000000000E+01  0.51109989000E-03 0. -1.
     -623   -1    0    0    0    0  0.00000000000E+00  0.00000000000E+00  0.12525980253E-10  0.17130000000E+03  0.17130000000E+03 0.  1.
       11    1    1    2    0    0  0.81984186596E-02  0.42216289529E-02  0.26283074926E+00  0.26299296607E+00  0.51109989000E-03 0. -1.
     -623    1    1    2    0    0 -0.32352299924E-02  0.11831551530E-01  0.41448331816E-03  0.17130000044E+03  0.17130000000E+03 0.  1.
      622    1    1    2    0    0 -0.49631886672E-02 -0.16053180483E-01  0.37367547348E+01  0.37370065943E+01  0.40000000000E-01 0. -1.
</event>
<event>
 5   0  0.6200596E+07  0.9118800E+02  0.7818608E-02  0.1180000E+00
       11   -1    0    0    0    0  0.00000000000E+00  0.00000000000E+00  0.39999999673E+01  0.40000000000E+01  0.51109989000E-03 0. -1.
     -623   -1    0    0    0    0  0.00000000000E+00  0.00000000000E+00  0.12525980253E-10  0.17130000000E+03  0.17130000000E+03 0. -1.
       11    1    1    2    0    0  0.31346729717E-02  0.32140413451E-02  0.57845173014E+00  0.57846937823E+00  0.51109989000E-03 0. -1.
     -623    1    1    2    0    0 -0.51829559240E-02 -0.73898593716E-02  0.25483645708E-03  0.17130000024E+03  0.17130000000E+03 0. -1.
      622    1    1    2    0    0  0.20482829523E-02  0.41758180264E-02  0.34212934008E+01  0.34215303838E+01  0.40000000000E-01 0. -1.
</event>
<event>
 5   0  0.6200596E+07  0.9118800E+02  0.7818608E-02  0.1180000E+00
       11   -1    0    0    0    0  0.00000000000E+00  0.00000000000E+00  0.39999999673E+01  0.40000000000E+01  0.51109989000E-03 0. -1.
     -623   -1    0    0    0    0  0.00000000000E+00  0.00000000000E+00  0.12525980253E-10  0.17130000000E+03  0.17130000000E+03 0. -1.
       11    1    1    2    0    0 -0.74458054902E-02 -0.50621455243E-01  0.18375296368E+00  0.19074429122E+00  0.51109989000E-03 0. -1.
     -623    1    1    2    0    0  0.39296380679E-01  0.70769638675E-02  0.75882187772E-02  0.17130000482E+03  0.17130000000E+03 0. -1.
      622    1    1    2    0    0 -0.31850575188E-01  0.43544491375E-01  0.38086587849E+01  0.38092508872E+01  0.40000000000E-01 0. -1.
</event>
<event>
 5   0  0.6200596E+07  0.9118800E+02  0.7818608E-02  0.1180000E+00
       11   -1    0    0    0    0  0.00000000000E+00  0.00000000000E+00  0.39999999673E+01  0.40000000000E+01  0.51109989000E-03 0. -1.
     -623   -1    0    0    0    0  0.00000000000E+00  0.00000000000E+00  0.12525980253E-10  0.17130000000E+03  0.17130000000E+03 0. -1.
       11    1    1    2    0    0  0.52350943359E-02  0.16301514058E-02  0.16658891054E+00  0.16667990264E+00  0.51109989000E-03 0. -1.
     -623    1    1    2    0    0  0.12733462977E-01  0.24250655529E-02  0.34441346596E-03  0.17130000049E+03  0.17130000000E+03 0. -1.
      622    1    1    2    0    0 -0.17968557313E-01 -0.40552169587E-02  0.38330666434E+01  0.38333196066E+01  0.40000000000E-01 0.  0.
</event>
<event>
 5   0  0.6200596E+07  0.9118800E+02  0.7818608E-02  0.1180000E+00
       11   -1    0    0    0    0  0.00000000000E+00  0.00000000000E+00  0.39999999673E+01  0.40000000000E+01  0.51109989000E-03 0.  1.
     -623   -1    0    0    0    0  0.00000000000E+00  0.00000000000E+00  0.12525980253E-10  0.17130000000E+03  0.17130000000E+03 0. -1.
       11    1    1    2    0    0 -0.33936932009E-01 -0.21605547001E-01  0.52765024922E+00  0.52918197412E+00  0.51109989000E-03 0.  1.
     -623    1    1    2    0    0  0.78256958828E-02 -0.13530390665E-01  0.20390110757E-02  0.17130000073E+03  0.17130000000E+03 0. -1.
      622    1    1    2    0    0  0.26111236126E-01  0.35135937666E-01  0.34703107071E+01  0.34708173006E+01  0.40000000000E-01 0.  1.
</event>
<event>
 5   0  0.6200596E+07  0.9118800E+02  0.7818608E-02  0.1180000E+00
       11   -1    0    0    0    0  0.00000000000E+00  0.00000000000E+00  0.39999999673E+01  0.40000000000E+01  0.51109989000E-03 0.  1.
     -623   -1    0    0    0    0  0.00000000000E+00  0.00000000000E+00  0.12525980253E-10  0.17130000000E+03  0.17130000000E+03 0. -1.
       11    1    1    2    0    0 -0.41904818106E-01 -0.99179499684E-02  0.16195568890E+01  0.16201293645E+01  0.51109989000E-03 0.  1.
     -623    1    1    2    0    0 -0.80308913973E-02  0.39150013087E-02  0.14404525018E-02  0.17130000024E+03  0.17130000000E+03 0. -1.
      622    1    1    2    0    0  0.49935709503E-01  0.60029486597E-02  0.23790026258E+01  0.23798703965E+01  0.40000000000E-01 0.  0.
</event>
<event>
 5   0  0.6200596E+07  0.9118800E+02  0.7818608E-02  0.1180000E+00
       11   -1    0    0    0    0  0.00000000000E+00  0.00000000000E+00  0.39999999673E+01  0.40000000000E+01  0.51109989000E-03 0. -1.
     -623   -1    0    0    0    0  0.00000000000E+00  0.00000000000E+00  0.12525980253E-10  0.17130000000E+03  0.17130000000E+03 0. -1.
       11    1    1    2    0    0 -0.48005331395E-02  0.26019560454E-02  0.56860404794E+00  0.56863049500E+00  0.51109989000E-03 0. -1.
     -623    1    1    2    0    0  0.79686243416E-02  0.69548279469E-02  0.27466412986E-03  0.17130000033E+03  0.17130000000E+03 0. -1.
      622    1    1    2    0    0 -0.31680912021E-02 -0.95567839923E-02  0.34311212553E+01  0.34313691782E+01  0.40000000000E-01 0. -1.
</event>
<event>
 5   0  0.6200596E+07  0.9118800E+02  0.7818608E-02  0.1180000E+00
       11   -1    0    0    0    0  0.00000000000E+00  0.00000000000E+00  0.39999999673E+01  0.40000000000E+01  0.51109989000E-03 0. -1.
     -623   -1    0    0    0    0  0.00000000000E+00  0.00000000000E+00  0.12525980253E-10  0.17130000000E+03  0.17130000000E+03 0.  1.
       11    1    1    2    0    0  0.42917889783E-02 -0.30073195576E-02  0.12618001695E-01  0.13672549608E-01  0.51109989000E-03 0. -1.
     -623    1    1    2    0    0  0.83740885242E-03  0.17137743534E-02  0.12587314581E-02  0.17130000002E+03  0.17130000000E+03 0.  1.
      622    1    1    2    0    0 -0.51291978308E-02  0.12935452042E-02  0.39861232342E+01  0.39863274351E+01  0.40000000000E-01 0. -1.
</event>
<event>
 5   0  0.6200596E+07  0.9118800E+02  0.7818608E-02  0.1180000E+00
       11   -1    0    0    0    0  0.00000000000E+00  0.00000000000E+00  0.39999999673E+01  0.40000000000E+01  0.51109989000E-03 0. -1.
     -623   -1    0    0    0    0  0.00000000000E+00  0.00000000000E+00  0.12525980253E-10  0.17130000000E+03  0.17130000000E+03 0. -1.
       11    1    1    2    0    0 -0.25369225097E-03  0.28249222797E-02  0.17572395955E-01  0.17807157712E-01  0.51109989000E-03 0. -1.
     -623    1    1    2    0    0  0.26199180296E-03  0.20084686633E-03  0.43677899245E-03  0.17130000000E+03  0.17130000000E+03 0. -1.
      622    1    1    2    0    0 -0.82995519898E-05 -0.30257691461E-02  0.39819907924E+01  0.39821928414E+01  0.40000000000E-01 0. -1.
</event>
<event>
 5   0  0.6200596E+07  0.9118800E+02  0.7818608E-02  0.1180000E+00
       11   -1    0    0    0    0  0.00000000000E+00  0.00000000000E+00  0.39999999673E+01  0.40000000000E+01  0.51109989000E-03 0.  1.
     -623   -1    0    0    0    0  0.00000000000E+00  0.00000000000E+00  0.12525980253E-10  0.17130000000E+03  0.17130000000E+03 0. -1.
       11    1    1    2    0    0  0.18977419692E-01  0.56054167829E-02  0.37857536752E+00  0.37909251281E+00  0.51109989000E-03 0.  1.
     -623    1    1    2    0    0  0.21609412028E-03 -0.11576478890E-02  0.79166973132E-03  0.17130000001E+03  0.17130000000E+03 0. -1.
      622    1    1    2    0    0 -0.19193513812E-01 -0.44477688939E-02  0.36206329301E+01  0.36209074813E+01  0.40000000000E-01 0.  1.
</event>
<event>
 5   0  0.6200596E+07  0.9118800E+02  0.7818608E-02  0.1180000E+00
       11   -1    0    0    0    0  0.00000000000E+00  0.00000000000E+00  0.39999999673E+01  0.40000000000E+01  0.51109989000E-03 0.  1.
     -623   -1    0    0    0    0  0.00000000000E+00  0.00000000000E+00  0.12525980253E-10  0.17130000000E+03  0.17130000000E+03 0.  1.
       11    1    1    2    0    0 -0.54632724283E-03 -0.18256964140E-02  0.11143992143E-01  0.11317306421E-01  0.51109989000E-03 0.  1.
     -623    1    1    2    0    0 -0.26510928830E-02 -0.80834289062E-03  0.37602839022E-03  0.17130000002E+03  0.17130000000E+03 0.  1.
      622    1    1    2    0    0  0.31974201258E-02  0.26340393046E-02  0.39884799468E+01  0.39886826707E+01  0.40000000000E-01 0.  1.
</event>
<event>
 5   0  0.6200596E+07  0.9118800E+02  0.7818608E-02  0.1180000E+00
       11   -1    0    0    0    0  0.00000000000E+00  0.00000000000E+00  0.39999999673E+01  0.40000000000E+01  0.51109989000E-03 0. -1.
     -623   -1    0    0    0    0  0.00000000000E+00  0.00000000000E+00  0.12525980253E-10  0.17130000000E+03  0.17130000000E+03 0. -1.
       11    1    1    2    0    0  0.66156004718E-02 -0.43135983188E-02  0.21988401468E+00  0.22002639486E+00  0.51109989000E-03 0. -1.
     -623    1    1    2    0    0  0.27506643608E-03  0.49244528712E-03  0.36220895959E-03  0.17130000000E+03  0.17130000000E+03 0. -1.
      622    1    1    2    0    0 -0.68906669079E-02  0.38211530317E-02  0.37797537437E+01  0.37799736038E+01  0.40000000000E-01 0. -1.
</event>
<event>
 5   0  0.6200596E+07  0.9118800E+02  0.7818608E-02  0.1180000E+00
       11   -1    0    0    0    0  0.00000000000E+00  0.00000000000E+00  0.39999999673E+01  0.40000000000E+01  0.51109989000E-03 0.  1.
     -623   -1    0    0    0    0  0.00000000000E+00  0.00000000000E+00  0.12525980253E-10  0.17130000000E+03  0.17130000000E+03 0. -1.
       11    1    1    2    0    0 -0.70020757778E-02  0.76420308872E-02  0.29990903944E+00  0.30008852504E+00  0.51109989000E-03 0.  1.
     -623    1    1    2    0    0 -0.79477330209E-03 -0.17385556689E-03  0.41143638545E-03  0.17130000000E+03  0.17130000000E+03 0. -1.
      622    1    1    2    0    0  0.77968490799E-02 -0.74681753203E-02  0.36996794915E+01  0.36999114725E+01  0.40000000000E-01 0.  1.
</event>
<event>
 5   0  0.6200596E+07  0.9118800E+02  0.7818608E-02  0.1180000E+00
       11   -1    0    0    0    0  0.00000000000E+00  0.00000000000E+00  0.39999999673E+01  0.40000000000E+01  0.51109989000E-03 0. -1.
     -623   -1    0    0    0    0  0.00000000000E+00  0.00000000000E+00  0.12525980253E-10  0.17130000000E+03  0.17130000000E+03 0. -1.
       11    1    1    2    0    0 -0.49486379578E-02 -0.20760362078E-01  0.33123196490E+00  0.33191920319E+00  0.51109989000E-03 0. -1.
     -623    1    1    2    0    0 -0.26513929949E-02 -0.48939403832E-02  0.10029959041E-02  0.17130000009E+03  0.17130000000E+03 0. -1.
      622    1    1    2    0    0  0.76000309528E-02  0.25654302461E-01  0.36677650066E+01  0.36680807034E+01  0.40000000000E-01 0. -1.
</event>
<event>
 5   0  0.6200596E+07  0.9118800E+02  0.7818608E-02  0.1180000E+00
       11   -1    0    0    0    0  0.00000000000E+00  0.00000000000E+00  0.39999999673E+01  0.40000000000E+01  0.51109989000E-03 0.  1.
     -623   -1    0    0    0    0  0.00000000000E+00  0.00000000000E+00  0.12525980253E-10  0.17130000000E+03  0.17130000000E+03 0. -1.
       11    1    1    2    0    0  0.28518954722E-02  0.84660744398E-02  0.70291969220E-01  0.70859225811E-01  0.51109989000E-03 0.  1.
     -623    1    1    2    0    0 -0.16787459450E-02 -0.34887298579E-02  0.77420949021E-03  0.17130000005E+03  0.17130000000E+03 0. -1.
      622    1    1    2    0    0 -0.11731495272E-02 -0.49773445819E-02  0.39289337886E+01  0.39291407287E+01  0.40000000000E-01 0.  1.
</event>
<event>
 5   0  0.6200596E+07  0.9118800E+02  0.7818608E-02  0.1180000E+00
       11   -1    0    0    0    0  0.00000000000E+00  0.00000000000E+00  0.39999999673E+01  0.40000000000E+01  0.51109989000E-03 0. -1.
     -623   -1    0    0    0    0  0.00000000000E+00  0.00000000000E+00  0.12525980253E-10  0.17130000000E+03  0.17130000000E+03 0. -1.
       11    1    1    2    0    0  0.17820449462E-03  0.31815299440E-02  0.65562000644E-01  0.65641382066E-01  0.51109989000E-03 0. -1.
     -623    1    1    2    0    0  0.10687790972E-02 -0.31407018325E-02  0.28292106197E-03  0.17130000003E+03  0.17130000000E+03 0. -1.
      622    1    1    2    0    0 -0.12469835918E-02 -0.40828111585E-04  0.39341550457E+01  0.39343585856E+01  0.40000000000E-01 0. -1.
</event>
<event>
 5   0  0.6200596E+07  0.9118800E+02  0.7818608E-02  0.1180000E+00
       11   -1    0    0    0    0  0.00000000000E+00  0.00000000000E+00  0.39999999673E+01  0.40000000000E+01  0.51109989000E-03 0.  1.
     -623   -1    0    0    0    0  0.00000000000E+00  0.00000000000E+00  0.12525980253E-10  0.17130000000E+03  0.17130000000E+03 0.  1.
       11    1    1    2    0    0  0.94532401037E-03  0.21129050131E-03  0.98962961255E-01  0.98969021434E-01  0.51109989000E-03 0.  1.
     -623    1    1    2    0    0 -0.26811763883E-03  0.60840493061E-02  0.21635396526E-03  0.17130000011E+03  0.17130000000E+03 0.  1.
      622    1    1    2    0    0 -0.67720637154E-03 -0.62953398074E-02  0.39008206521E+01  0.39010308702E+01  0.40000000000E-01 0.  1.
</event>
<event>
 5   0  0.6200596E+07  0.9118800E+02  0.7818608E-02  0.1180000E+00
       11   -1    0    0    0    0  0.00000000000E+00  0.00000000000E+00  0.39999999673E+01  0.40000000000E+01  0.51109989000E-03 0. -1.
     -623   -1    0    0    0    0  0.00000000000E+00  0.00000000000E+00  0.12525980253E-10  0.17130000000E+03  0.17130000000E+03 0.  1.
       11    1    1    2    0    0  0.20865973164E-02  0.31030680808E-02  0.29315328889E+00  0.29317758258E+00  0.51109989000E-03 0. -1.
     -623    1    1    2    0    0  0.15354667725E-02 -0.49748869622E-02  0.24240725820E-03  0.17130000008E+03  0.17130000000E+03 0.  1.
      622    1    1    2    0    0 -0.36220640889E-02  0.18718188813E-02  0.37066042712E+01  0.37068223381E+01  0.40000000000E-01 0. -1.
</event>
<event>
 5   0  0.6200596E+07  0.9118800E+02  0.7818608E-02  0.1180000E+00
       11   -1    0    0    0    0  0.00000000000E+00  0.00000000000E+00  0.39999999673E+01  0.40000000000E+01  0.51109989000E-03 0. -1.
     -623   -1    0    0    0    0  0.00000000000E+00  0.00000000000E+00  0.12525980253E-10  0.17130000000E+03  0.17130000000E+03 0. -1.
       11    1    1    2    0    0 -0.79963875263E-03  0.58582439250E-02  0.22401879773E+00  0.22409739267E+00  0.51109989000E-03 0. -1.
     -623    1    1    2    0    0  0.45167968538E-04 -0.24759860351E-03  0.29468262326E-03  0.17130000000E+03  0.17130000000E+03 0. -1.
      622    1    1    2    0    0  0.75447078409E-03 -0.56106453215E-02  0.37756864870E+01  0.37759026069E+01  0.40000000000E-01 0. -1.
</event>
<event>
 5   0  0.6200596E+07  0.9118800E+02  0.7818608E-02  0.1180000E+00
       11   -1    0    0    0    0  0.00000000000E+00  0.00000000000E+00  0.39999999673E+01  0.40000000000E+01  0.51109989000E-03 0. -1.
     -623   -1    0    0    0    0  0.00000000000E+00  0.00000000000E+00  0.12525980253E-10  0.17130000000E+03  0.17130000000E+03 0.  1.
       11    1    1    2    0    0  0.33669565693E-01 -0.25188148916E-01  0.10835828657E+01  0.10843985294E+01  0.51109989000E-03 0. -1.
     -623    1    1    2    0    0 -0.36586060471E-02 -0.50626884379E-02  0.14015842038E-02  0.17130000012E+03  0.17130000000E+03 0.  1.
      622    1    1    2    0    0 -0.30010959646E-01  0.30250837354E-01  0.29150155175E+01  0.29156013510E+01  0.40000000000E-01 0. -1.
</event>
<event>
 5   0  0.6200596E+07  0.9118800E+02  0.7818608E-02  0.1180000E+00
       11   -1    0    0    0    0  0.00000000000E+00  0.00000000000E+00  0.39999999673E+01  0.40000000000E+01  0.51109989000E-03 0.  1.
     -623   -1    0    0    0    0  0.00000000000E+00  0.00000000000E+00  0.12525980253E-10  0.17130000000E+03  0.17130000000E+03 0. -1.
       11    1    1    2    0    0 -0.16660317196E-03  0.15799910478E-02  0.10135893843E+00  0.10137267753E+00  0.51109989000E-03 0.  1.
     -623    1    1    2    0    0  0.60653823778E-02 -0.45244356272E-02  0.22465431394E-03  0.17130000017E+03  0.17130000000E+03 0. -1.
      622    1    1    2    0    0 -0.58987792058E-02  0.29444445794E-02  0.38984163746E+01  0.38986271552E+01  0.40000000000E-01 0.  1.
</event>
<event>
 5   0  0.6200596E+07  0.9118800E+02  0.7818608E-02  0.1180000E+00
       11   -1    0    0    0    0  0.00000000000E+00  0.00000000000E+00  0.39999999673E+01  0.40000000000E+01  0.51109989000E-03 0. -1.
     -623   -1    0    0    0    0  0.00000000000E+00  0.00000000000E+00  0.12525980253E-10  0.17130000000E+03  0.17130000000E+03 0. -1.
       11    1    1    2    0    0  0.46127729993E-02  0.14144831389E-02  0.16374717861E+00  0.16381904089E+00  0.51109989000E-03 0. -1.
     -623    1    1    2    0    0  0.10816426479E-02  0.89167722822E-03  0.28530187036E-03  0.17130000001E+03  0.17130000000E+03 0. -1.
      622    1    1    2    0    0 -0.56944156471E-02 -0.23061603671E-02  0.38359674869E+01  0.38361809531E+01  0.40000000000E-01 0. -1.
</event>
<event>
 5   0  0.6200596E+07  0.9118800E+02  0.7818608E-02  0.1180000E+00
       11   -1    0    0    0    0  0.00000000000E+00  0.00000000000E+00  0.39999999673E+01  0.40000000000E+01  0.51109989000E-03 0. -1.
     -623   -1    0    0    0    0  0.00000000000E+00  0.00000000000E+00  0.12525980253E-10  0.17130000000E+03  0.17130000000E+03 0. -1.
       11    1    1    2    0    0  0.38270902096E-02  0.46908996786E-02  0.47867935873E-01  0.48251960218E-01  0.51109989000E-03 0. -1.
     -623    1    1    2    0    0 -0.34633891691E-02 -0.15200763372E-02  0.58777062720E-03  0.17130000004E+03  0.17130000000E+03 0. -1.
      622    1    1    2    0    0 -0.36370104046E-03 -0.31708233414E-02  0.39515442609E+01  0.39517479970E+01  0.40000000000E-01 0. -1.
</event>
<event>
 5   0  0.6200596E+07  0.9118800E+02  0.7818608E-02  0.1180000E+00
       11   -1    0    0    0    0  0.00000000000E+00  0.00000000000E+00  0.39999999673E+01  0.40000000000E+01  0.51109989000E-03 0.  1.
     -623   -1    0    0    0    0  0.00000000000E+00  0.00000000000E+00  0.12525980253E-10  0.17130000000E+03  0.17130000000E+03 0.  1.
       11    1    1    2    0    0  0.20062176426E-02  0.16031779215E-01  0.41664588627E+00  0.41695934888E+00  0.51109989000E-03 0.  1.
     -623    1    1    2    0    0  0.15992946116E-01  0.78678213698E-03  0.62214824381E-03  0.17130000075E+03  0.17130000000E+03 0.  1.
      622    1    1    2    0    0 -0.17999163759E-01 -0.16818561352E-01  0.35827319328E+01  0.35830399016E+01  0.40000000000E-01 0.  0.
</event>
<event>
 5   0  0.6200596E+07  0.9118800E+02  0.7818608E-02  0.1180000E+00
       11   -1    0    0    0    0  0.00000000000E+00  0.00000000000E+00  0.39999999673E+01  0.40000000000E+01  0.51109989000E-03 0. -1.
     -623   -1    0    0    0    0  0.00000000000E+00  0.00000000000E+00  0.12525980253E-10  0.17130000000E+03  0.17130000000E+03 0.  1.
       11    1    1    2    0    0 -0.50939938350E-02  0.40182106867E-02  0.50917633762E-01  0.51331875464E-01  0.51109989000E-03 0. -1.
     -623    1    1    2    0    0  0.35440465671E-02  0.17199163050E-02  0.62133433797E-03  0.17130000005E+03  0.17130000000E+03 0.  1.
      622    1    1    2    0    0  0.15499472679E-02 -0.57381269917E-02  0.39484609993E+01  0.39486680781E+01  0.40000000000E-01 0. -1.
</event>
<event>
 5   0  0.6200596E+07  0.9118800E+02  0.7818608E-02  0.1180000E+00
       11   -1    0    0    0    0  0.00000000000E+00  0.00000000000E+00  0.39999999673E+01  0.40000000000E+01  0.51109989000E-03 0. -1.
     -623   -1    0    0    0    0  0.00000000000E+00  0.00000000000E+00  0.12525980253E-10  0.17130000000E+03  0.17130000000E+03 0. -1.
       11    1    1    2    0    0 -0.30740126475E-02 -0.67252673783E-02  0.92859515335E+00  0.92862473520E+00  0.51109989000E-03 0. -1.
     -623    1    1    2    0    0 -0.98336838799E-03 -0.21779056054E-03  0.30056162253E-03  0.17130000000E+03  0.17130000000E+03 0. -1.
      622    1    1    2    0    0  0.40573810355E-02  0.69430579389E-02  0.30711042524E+01  0.30713752616E+01  0.40000000000E-01 0. -1.
</event>
<event>
 5   0  0.6200596E+07  0.9118800E+02  0.7818608E-02  0.1180000E+00
       11   -1    0    0    0    0  0.00000000000E+00  0.00000000000E+00  0.39999999673E+01  0.40000000000E+01  0.51109989000E-03 0.  1.
     -623   -1    0    0    0    0  0.00000000000E+00  0.00000000000E+00  0.12525980253E-10  0.17130000000E+03  0.17130000000E+03 0. -1.
       11    1    1    2    0    0 -0.16165271999E-02  0.27042746865E-03  0.95035873475E-01  0.95051379576E-01  0.51109989000E-03 0.  1.
     -623    1    1    2    0    0  0.57039254258E-02 -0.14528202448E-02  0.22276668152E-03  0.17130000010E+03  0.17130000000E+03 0. -1.
      622    1    1    2    0    0 -0.40873982259E-02  0.11823927762E-02  0.39047413272E+01  0.39049485192E+01  0.40000000000E-01 0.  1.
</event>
<event>
 5   0  0.6200596E+07  0.9118800E+02  0.7818608E-02  0.1180000E+00
       11   -1    0    0    0    0  0.00000000000E+00  0.00000000000E+00  0.39999999673E+01  0.40000000000E+01  0.51109989000E-03 0.  1.
     -623   -1    0    0    0    0  0.00000000000E+00  0.00000000000E+00  0.12525980253E-10  0.17130000000E+03  0.17130000000E+03 0.  1.
       11    1    1    2    0    0  0.12183630811E-01 -0.16508255766E-02  0.23914805770E+00  0.23946444581E+00  0.51109989000E-03 0.  1.
     -623    1    1    2    0    0 -0.26275776960E-03  0.53399597055E-03  0.54816056853E-03  0.17130000000E+03  0.17130000000E+03 0.  1.
      622    1    1    2    0    0 -0.11920873042E-01  0.11168296061E-02  0.37603037491E+01  0.37605355523E+01  0.40000000000E-01 0.  0.
</event>
<event>
 5   0  0.6200596E+07  0.9118800E+02  0.7818608E-02  0.1180000E+00
       11   -1    0    0    0    0  0.00000000000E+00  0.00000000000E+00  0.39999999673E+01  0.40000000000E+01  0.51109989000E-03 0. -1.
     -623   -1    0    0    0    0  0.00000000000E+00  0.00000000000E+00  0.12525980253E-10  0.17130000000E+03  0.17130000000E+03 0. -1.
       11    1    1    2    0    0 -0.11333721611E-04 -0.39359880026E-01  0.14870402823E+00  0.15382571150E+00  0.51109989000E-03 0. -1.
     -623    1    1    2    0    0 -0.17328935833E-01  0.22768527965E-01  0.54070092290E-02  0.17130000247E+03  0.17130000000E+03 0. -1.
      622    1    1    2    0    0  0.17340269555E-01  0.16591352060E-01  0.38458889299E+01  0.38461718135E+01  0.40000000000E-01 0. -1.
</event>
<event>
 5   0  0.6200596E+07  0.9118800E+02  0.7818608E-02  0.1180000E+00
       11   -1    0    0    0    0  0.00000000000E+00  0.00000000000E+00  0.39999999673E+01  0.40000000000E+01  0.51109989000E-03 0. -1.
     -623   -1    0    0    0    0  0.00000000000E+00  0.00000000000E+00  0.12525980253E-10  0.17130000000E+03  0.17130000000E+03 0.  1.
       11    1    1    2    0    0 -0.62667943049E-02 -0.92155021966E-02  0.12607292545E+01  0.12607786137E+01  0.51109989000E-03 0. -1.
     -623    1    1    2    0    0  0.10842431905E-01  0.29496948738E-01  0.42319350877E-03  0.17130000288E+03  0.17130000000E+03 0.  1.
      622    1    1    2    0    0 -0.45756376005E-02 -0.20281446542E-01  0.27388475193E+01  0.27392185031E+01  0.40000000000E-01 0. -1.
</event>
<event>
 5   0  0.6200596E+07  0.9118800E+02  0.7818608E-02  0.1180000E+00
       11   -1    0    0    0    0  0.00000000000E+00  0.00000000000E+00  0.39999999673E+01  0.40000000000E+01  0.51109989000E-03 0.  1.
     -623   -1    0    0    0    0  0.00000000000E+00  0.00000000000E+00  0.12525980253E-10  0.17130000000E+03  0.17130000000E+03 0.  1.
       11    1    1    2    0    0 -0.61913610945E-03 -0.99664334503E-04  0.18647781974E-01  0.18665322313E-01  0.51109989000E-03 0.  1.
     -623    1    1    2    0    0 -0.34182112926E-03  0.16706958152E-02  0.21888499612E-03  0.17130000001E+03  0.17130000000E+03 0.  1.
      622    1    1    2    0    0  0.96095723871E-03 -0.15710314807E-02  0.39811333004E+01  0.39813346691E+01  0.40000000000E-01 0.  1.
</event>
<event>
 5   0  0.6200596E+07  0.9118800E+02  0.7818608E-02  0.1180000E+00
       11   -1    0    0    0    0  0.00000000000E+00  0.00000000000E+00  0.39999999673E+01  0.40000000000E+01  0.51109989000E-03 0. -1.
     -623   -1    0    0    0    0  0.00000000000E+00  0.00000000000E+00  0.12525980253E-10  0.17130000000E+03  0.17130000000E+03 0.  1.
       11    1    1    2    0    0 -0.53617577497E-01  0.36312706994E-01  0.11132168710E+01  0.11150988837E+01  0.51109989000E-03 0. -1.
     -623    1    1    2    0    0  0.48693588334E-02  0.54289512102E-02  0.28734824342E-02  0.17130000018E+03  0.17130000000E+03 0.  1.
      622    1    1    2    0    0  0.48748218664E-01 -0.41741658204E-01  0.28839096139E+01  0.28849009369E+01  0.40000000000E-01 0. -1.
</event>
<event>
 5   0  0.6200596E+07  0.9118800E+02  0.7818608E-02  0.1180000E+00
       11   -1    0    0    0    0  0.00000000000E+00  0.00000000000E+00  0.39999999673E+01  0.40000000000E+01  0.51109989000E-03 0. -1.
     -623   -1    0    0    0    0  0.00000000000E+00  0.00000000000E+00  0.12525980253E-10  0.17130000000E+03  0.17130000000E+03 0. -1.
       11    1    1    2    0    0 -0.91447976227E-02  0.37305170902E-01  0.17365308590E+01  0.17369556669E+01  0.51109989000E-03 0. -1.
     -623    1    1    2    0    0  0.19919880399E-01 -0.29883279307E-01  0.81990479881E-03  0.17130000377E+03  0.17130000000E+03 0. -1.
      622    1    1    2    0    0 -0.10775082776E-01 -0.74218915951E-02  0.22626492035E+01  0.22630405664E+01  0.40000000000E-01 0.  0.
</event>
<event>
 5   0  0.6200596E+07  0.9118800E+02  0.7818608E-02  0.1180000E+00
       11   -1    0    0    0    0  0.00000000000E+00  0.00000000000E+00  0.39999999673E+01  0.40000000000E+01  0.51109989000E-03 0. -1.
     -623   -1    0    0    0    0  0.00000000000E+00  0.00000000000E+00  0.12525980253E-10  0.17130000000E+03  0.17130000000E+03 0. -1.
       11    1    1    2    0    0  0.11733986200E-01 -0.41724216368E-02  0.72752010376E-01  0.73812002874E-01  0.51109989000E-03 0. -1.
     -623    1    1    2    0    0 -0.12973165881E-02  0.12393668157E-02  0.12787071515E-02  0.17130000001E+03  0.17130000000E+03 0. -1.
      622    1    1    2    0    0 -0.10436669612E-01  0.29330548210E-02  0.39259692498E+01  0.39261879830E+01  0.40000000000E-01 0. -1.
</event>
<event>
 5   0  0.6200596E+07  0.9118800E+02  0.7818608E-02  0.1180000E+00
       11   -1    0    0    0    0  0.00000000000E+00  0.00000000000E+00  0.39999999673E+01  0.40000000000E+01  0.51109989000E-03 0.  1.
     -623   -1    0    0    0    0  0.00000000000E+00  0.00000000000E+00  0.12525980253E-10  0.17130000000E+03  0.17130000000E+03 0. -1.
       11    1    1    2    0    0  0.12117858045E-01  0.28610653275E-02  0.24425430668E+00  0.24457198477E+00  0.51109989000E-03 0.  1.
     -623    1    1    2    0    0 -0.59668013765E-02 -0.69607918883E-02  0.53819833528E-03  0.17130000025E+03  0.17130000000E+03 0. -1.
      622    1    1    2    0    0 -0.61510566689E-02  0.40997265608E-02  0.37552074623E+01  0.37554277690E+01  0.40000000000E-01 0.  1.
</event>
<event>
 5   0  0.6200596E+07  0.9118800E+02  0.7818608E-02  0.1180000E+00
       11   -1    0    0    0    0  0.00000000000E+00  0.00000000000E+00  0.39999999673E+01  0.40000000000E+01  0.51109989000E-03 0.  1.
     -623   -1    0    0    0    0  0.00000000000E+00  0.00000000000E+00  0.12525980253E-10  0.17130000000E+03  0.17130000000E+03 0.  1.
       11    1    1    2    0    0 -0.14926799192E-02 -0.52787666467E-02  0.12236302285E+00  0.12248699545E+00  0.51109989000E-03 0.  1.
     -623    1    1    2    0    0 -0.24123308905E-02  0.15047175291E-02  0.33409040847E-03  0.17130000002E+03  0.17130000000E+03 0.  1.
      622    1    1    2    0    0  0.39050108098E-02  0.37740491176E-02  0.38773028541E+01  0.38775129806E+01  0.40000000000E-01 0.  1.
</event>
<event>
 5   0  0.6200596E+07  0.9118800E+02  0.7818608E-02  0.1180000E+00
       11   -1    0    0    0    0  0.00000000000E+00  0.00000000000E+00  0.39999999673E+01  0.40000000000E+01  0.51109989000E-03 0. -1.
     -623   -1    0    0    0    0  0.00000000000E+00  0.00000000000E+00  0.12525980253E-10  0.17130000000E+03  0.17130000000E+03 0.  1.
       11    1    1    2    0    0 -0.17481390932E-02 -0.50808088710E-03  0.78454507412E-02  0.80700964205E-02  0.51109989000E-03 0. -1.
     -623    1    1    2    0    0  0.25019482525E-02  0.28391459210E-02  0.42581653747E-03  0.17130000004E+03  0.17130000000E+03 0.  1.
      622    1    1    2    0    0 -0.75380915931E-03 -0.23310650339E-02  0.39917287001E+01  0.39919298613E+01  0.40000000000E-01 0. -1.
</event>
<event>
 5   0  0.6200596E+07  0.9118800E+02  0.7818608E-02  0.1180000E+00
       11   -1    0    0    0    0  0.00000000000E+00  0.00000000000E+00  0.39999999673E+01  0.40000000000E+01  0.51109989000E-03 0. -1.
     -623   -1    0    0    0    0  0.00000000000E+00  0.00000000000E+00  0.12525980253E-10  0.17130000000E+03  0.17130000000E+03 0. -1.
       11    1    1    2    0    0  0.64664722532E-03  0.35633417138E-02  0.39040896759E-01  0.39211840035E-01  0.51109989000E-03 0. -1.
     -623    1    1    2    0    0  0.28460692364E-02 -0.58542346095E-02  0.37522249421E-03  0.17130000012E+03  0.17130000000E+03 0. -1.
      622    1    1    2    0    0 -0.34927164617E-02  0.22908928957E-02  0.39605838481E+01  0.39607880359E+01  0.40000000000E-01 0. -1.
</event>
<event>
 5   0  0.6200596E+07  0.9118800E+02  0.7818608E-02  0.1180000E+00
       11   -1    0    0    0    0  0.00000000000E+00  0.00000000000E+00  0.39999999673E+01  0.40000000000E+01  0.51109989000E-03 0.  1.
     -623   -1    0    0    0    0  0.00000000000E+00  0.00000000000E+00  0.12525980253E-10  0.17130000000E+03  0.17130000000E+03 0. -1.
       11    1    1    2    0    0  0.46010126150E-02  0.82654047877E-02  0.36225377123E+00  0.36237762379E+00  0.51109989000E-03 0.  1.
     -623    1    1    2    0    0  0.67931093813E-03 -0.51334062544E-03  0.35584623794E-03  0.17130000000E+03  0.17130000000E+03 0. -1.
      622    1    1    2    0    0 -0.52803235531E-02 -0.77520641622E-02  0.36373903499E+01  0.36376223737E+01  0.40000000000E-01 0.  1.
</event>
<event>
 5   0  0.6200596E+07  0.9118800E+02  0.7818608E-02  0.1180000E+00
       11   -1    0    0    0    0  0.00000000000E+00  0.00000000000E+00  0.39999999673E+01  0.40000000000E+01  0.51109989000E-03 0. -1.
     -623   -1    0    0    0    0  0.00000000000E+00  0.00000000000E+00  0.12525980253E-10  0.17130000000E+03  0.17130000000E+03 0. -1.
       11    1    1    2    0    0  0.18593327000E-02  0.11773074228E-02  0.14662912449E-01  0.14835949387E-01  0.51109989000E-03 0.  1.
     -623    1    1    2    0    0 -0.66392247899E-03 -0.49085004458E-03  0.37399473684E-03  0.17130000000E+03  0.17130000000E+03 0. -1.
      622    1    1    2    0    0 -0.11954102210E-02 -0.68645737818E-03  0.39849630602E+01  0.39851640482E+01  0.40000000000E-01 0. -1.
</event>
<event>
 5   0  0.6200596E+07  0.9118800E+02  0.7818608E-02  0.1180000E+00
       11   -1    0    0    0    0  0.00000000000E+00  0.00000000000E+00  0.39999999673E+01  0.40000000000E+01  0.51109989000E-03 0.  1.
     -623   -1    0    0    0    0  0.00000000000E+00  0.00000000000E+00  0.12525980253E-10  0.17130000000E+03  0.17130000000E+03 0.  1.
       11    1    1    2    0    0  0.90958494109E-04  0.20529208881E-02  0.84772756118E-01  0.84799199057E-01  0.51109989000E-03 0.  1.
     -623    1    1    2    0    0  0.70256467620E-02 -0.75612130407E-02  0.24140179673E-03  0.17130000031E+03  0.17130000000E+03 0.  1.
      622    1    1    2    0    0 -0.71166052561E-02  0.55082921526E-02  0.39149858094E+01  0.39152004898E+01  0.40000000000E-01 0.  1.
</event>
<event>
 5   0  0.6200596E+07  0.9118800E+02  0.7818608E-02  0.1180000E+00
       11   -1    0    0    0    0  0.00000000000E+00  0.00000000000E+00  0.39999999673E+01  0.40000000000E+01  0.51109989000E-03 0.  1.
     -623   -1    0    0    0    0  0.00000000000E+00  0.00000000000E+00  0.12525980253E-10  0.17130000000E+03  0.17130000000E+03 0. -1.
       11    1    1    2    0    0 -0.97041499485E-02 -0.88381587218E-02  0.15945316882E+01  0.15945857925E+01  0.51109989000E-03 0.  1.
     -623    1    1    2    0    0  0.22572216257E-01  0.34187360423E-02  0.42873033744E-03  0.17130000152E+03  0.17130000000E+03 0. -1.
      622    1    1    2    0    0 -0.12868066308E-01  0.54194226795E-02  0.24050395488E+01  0.24054126857E+01  0.40000000000E-01 0.  1.
</event>
<event>
 5   0  0.6200596E+07  0.9118800E+02  0.7818608E-02  0.1180000E+00
       11   -1    0    0    0    0  0.00000000000E+00  0.00000000000E+00  0.39999999673E+01  0.40000000000E+01  0.51109989000E-03 0. -1.
     -623   -1    0    0    0    0  0.00000000000E+00  0.00000000000E+00  0.12525980253E-10  0.17130000000E+03  0.17130000000E+03 0. -1.
       11    1    1    2    0    0 -0.21668349982E-02 -0.11806624072E-03  0.96906812330E-02  0.99438241033E-02  0.51109989000E-03 0. -1.
     -623    1    1    2    0    0  0.19602210542E-03  0.28648872886E-03  0.45410495398E-03  0.17130000000E+03  0.17130000000E+03 0. -1.
      622    1    1    2    0    0  0.19708128928E-02 -0.16842248814E-03  0.39898551812E+01  0.39900561749E+01  0.40000000000E-01 0. -1.
</event>
<event>
 5   0  0.6200596E+07  0.9118800E+02  0.7818608E-02  0.1180000E+00
       11   -1    0    0    0    0  0.00000000000E+00  0.00000000000E+00  0.39999999673E+01  0.40000000000E+01  0.51109989000E-03 0. -1.
     -623   -1    0    0    0    0  0.00000000000E+00  0.00000000000E+00  0.12525980253E-10  0.17130000000E+03  0.17130000000E+03 0.  1.
       11    1    1    2    0    0 -0.74018158126E-02  0.13653838100E-01  0.10152554624E+01  0.10153743789E+01  0.51109989000E-03 0. -1.
     -623    1    1    2    0    0 -0.29963368444E-02  0.92475038701E-03  0.44068889246E-03  0.17130000003E+03  0.17130000000E+03 0.  1.
      622    1    1    2    0    0  0.10398152657E-01 -0.14578588487E-01  0.29843038160E+01  0.29846255918E+01  0.40000000000E-01 0. -1.
</event>
<event>
 5   0  0.6200596E+07  0.9118800E+02  0.7818608E-02  0.1180000E+00
       11   -1    0    0    0    0  0.00000000000E+00  0.00000000000E+00  0.39999999673E+01  0.40000000000E+01  0.51109989000E-03 0.  1.
     -623   -1    0    0    0    0  0.00000000000E+00  0.00000000000E+00  0.12525980253E-10  0.17130000000E+03  0.17130000000E+03 0. -1.
       11    1    1    2    0    0  0.13114582966E-01 -0.14264670927E-01  0.88774130955E+00  0.88795290811E+00  0.51109989000E-03 0.  1.
     -623    1    1    2    0    0  0.88288675223E-03  0.72913815685E-02  0.50809558488E-03  0.17130000016E+03  0.17130000000E+03 0. -1.
      622    1    1    2    0    0 -0.13997469719E-01  0.69732893584E-02  0.31117505622E+01  0.31120469337E+01  0.40000000000E-01 0.  1.
</event>
<event>
 5   0  0.6200596E+07  0.9118800E+02  0.7818608E-02  0.1180000E+00
       11   -1    0    0    0    0  0.00000000000E+00  0.00000000000E+00  0.39999999673E+01  0.40000000000E+01  0.51109989000E-03 0.  1.
     -623   -1    0    0    0    0  0.00000000000E+00  0.00000000000E+00  0.12525980253E-10  0.17130000000E+03  0.17130000000E+03 0. -1.
       11    1    1    2    0    0  0.48726181468E-02 -0.10043992761E-02  0.46587066570E-01  0.46854745954E-01  0.51109989000E-03 0.  1.
     -623    1    1    2    0    0 -0.17991780391E-02  0.31308313670E-02  0.47182789310E-03  0.17130000004E+03  0.17130000000E+03 0. -1.
      622    1    1    2    0    0 -0.30734401077E-02 -0.21264320909E-02  0.39529410729E+01  0.39531452153E+01  0.40000000000E-01 0.  1.
</event>
<event>
 5   0  0.6200596E+07  0.9118800E+02  0.7818608E-02  0.1180000E+00
       11   -1    0    0    0    0  0.00000000000E+00  0.00000000000E+00  0.39999999673E+01  0.40000000000E+01  0.51109989000E-03 0.  1.
     -623   -1    0    0    0    0  0.00000000000E+00  0.00000000000E+00  0.12525980253E-10  0.17130000000E+03  0.17130000000E+03 0. -1.
       11    1    1    2    0    0 -0.37826347016E-02 -0.72646771949E-03  0.12808451822E-01  0.13384832426E-01  0.51109989000E-03 0.  1.
     -623    1    1    2    0    0  0.75763756403E-02 -0.84860808643E-03  0.77931228899E-03  0.17130000017E+03  0.17130000000E+03 0. -1.
      622    1    1    2    0    0 -0.37937409387E-02  0.15750758059E-02  0.39864122032E+01  0.39866149962E+01  0.40000000000E-01 0.  1.
</event>
<event>
 5   0  0.6200596E+07  0.9118800E+02  0.7818608E-02  0.1180000E+00
       11   -1    0    0    0    0  0.00000000000E+00  0.00000000000E+00  0.39999999673E+01  0.40000000000E+01  0.51109989000E-03 0.  1.
     -623   -1    0    0    0    0  0.00000000000E+00  0.00000000000E+00  0.12525980253E-10  0.17130000000E+03  0.17130000000E+03 0.  1.
       11    1    1    2    0    0  0.34792745873E-02 -0.22758112012E-01  0.20016289556E+01  0.20017614179E+01  0.51109989000E-03 0.  1.
     -623    1    1    2    0    0 -0.82699787554E-03 -0.15762986136E-02  0.68280021655E-03  0.17130000001E+03  0.17130000000E+03 0.  1.
      622    1    1    2    0    0 -0.26522767117E-02  0.24334410625E-01  0.19976882116E+01  0.19982385715E+01  0.40000000000E-01 0.  1.
</event>
<event>
 5   0  0.6200596E+07  0.9118800E+02  0.7818608E-02  0.1180000E+00
       11   -1    0    0    0    0  0.00000000000E+00  0.00000000000E+00  0.39999999673E+01  0.40000000000E+01  0.51109989000E-03 0. -1.
     -623   -1    0    0    0    0  0.00000000000E+00  0.00000000000E+00  0.12525980253E-10  0.17130000000E+03  0.17130000000E+03 0. -1.
       11    1    1    2    0    0  0.66985521319E-02 -0.29849608347E-02  0.48602418726E-01  0.49155232885E-01  0.51109989000E-03 0. -1.
     -623    1    1    2    0    0 -0.32800251996E-02  0.89827679562E-03  0.75734060493E-03  0.17130000004E+03  0.17130000000E+03 0. -1.
      622    1    1    2    0    0 -0.34185269323E-02  0.20866840391E-02  0.39506402080E+01  0.39508447317E+01  0.40000000000E-01 0. -1.
</event>
<event>
 5   0  0.6200596E+07  0.9118800E+02  0.7818608E-02  0.1180000E+00
       11   -1    0    0    0    0  0.00000000000E+00  0.00000000000E+00  0.39999999673E+01  0.40000000000E+01  0.51109989000E-03 0.  1.
     -623   -1    0    0    0    0  0.00000000000E+00  0.00000000000E+00  0.12525980253E-10  0.17130000000E+03  0.17130000000E+03 0.  1.
       11    1    1    2    0    0  0.73326475091E-04 -0.39919670797E-02  0.38071111802E-01  0.38283311681E-01  0.51109989000E-03 0.  1.
     -623    1    1    2    0    0 -0.59618633312E-02  0.52605515325E-02  0.41886967756E-03  0.17130000019E+03  0.17130000000E+03 0.  1.
      622    1    1    2    0    0  0.58885368562E-02 -0.12685844528E-02  0.39615099859E+01  0.39617165033E+01  0.40000000000E-01 0.  1.
</event>
<event>
 5   0  0.6200596E+07  0.9118800E+02  0.7818608E-02  0.1180000E+00
       11   -1    0    0    0    0  0.00000000000E+00  0.00000000000E+00  0.39999999673E+01  0.40000000000E+01  0.51109989000E-03 0.  1.
     -623   -1    0    0    0    0  0.00000000000E+00  0.00000000000E+00  0.12525980253E-10  0.17130000000E+03  0.17130000000E+03 0. -1.
       11    1    1    2    0    0 -0.36314665638E-01 -0.13417790692E-02  0.10938891349E+01  0.10944926934E+01  0.51109989000E-03 0.  1.
     -623    1    1    2    0    0 -0.57646436971E-02  0.56978705172E-03  0.11838365919E-02  0.17130000010E+03  0.17130000000E+03 0. -1.
      622    1    1    2    0    0  0.42079309335E-01  0.77199201749E-03  0.29049269959E+01  0.29055072046E+01  0.40000000000E-01 0.  1.
</event>
<event>
 5   0  0.6200596E+07  0.9118800E+02  0.7818608E-02  0.1180000E+00
       11   -1    0    0    0    0  0.00000000000E+00  0.00000000000E+00  0.39999999673E+01  0.40000000000E+01  0.51109989000E-03 0. -1.
     -623   -1    0    0    0    0  0.00000000000E+00  0.00000000000E+00  0.12525980253E-10  0.17130000000E+03  0.17130000000E+03 0. -1.
       11    1    1    2    0    0  0.94258945006E-02  0.20824301036E-01  0.61936464296E-01  0.66021858732E-01  0.51109989000E-03 0. -1.
     -623    1    1    2    0    0 -0.11983207386E-02  0.27951547621E-03  0.43539965295E-02  0.17130000006E+03  0.17130000000E+03 0. -1.
      622    1    1    2    0    0 -0.82275737621E-02 -0.21103816512E-01  0.39337095065E+01  0.39339780815E+01  0.40000000000E-01 0. -1.
</event>
<event>
 5   0  0.6200596E+07  0.9118800E+02  0.7818608E-02  0.1180000E+00
       11   -1    0    0    0    0  0.00000000000E+00  0.00000000000E+00  0.39999999673E+01  0.40000000000E+01  0.51109989000E-03 0.  1.
     -623   -1    0    0    0    0  0.00000000000E+00  0.00000000000E+00  0.12525980253E-10  0.17130000000E+03  0.17130000000E+03 0.  1.
       11    1    1    2    0    0 -0.45122076994E-01  0.74607636997E-01  0.39311809074E+00  0.40267157314E+00  0.51109989000E-03 0.  1.
     -623    1    1    2    0    0  0.41100609154E-01  0.14998657096E-01  0.10900278161E-01  0.17130000593E+03  0.17130000000E+03 0.  1.
      622    1    1    2    0    0  0.40214678402E-02 -0.89606294093E-01  0.35959815985E+01  0.35973224927E+01  0.40000000000E-01 0.  1.
</event>
<event>
 5   0  0.6200596E+07  0.9118800E+02  0.7818608E-02  0.1180000E+00
       11   -1    0    0    0    0  0.00000000000E+00  0.00000000000E+00  0.39999999673E+01  0.40000000000E+01  0.51109989000E-03 0. -1.
     -623   -1    0    0    0    0  0.00000000000E+00  0.00000000000E+00  0.12525980253E-10  0.17130000000E+03  0.17130000000E+03 0.  1.
       11    1    1    2    0    0  0.11259941186E-02 -0.61674595777E-02  0.14633223755E+00  0.14646736970E+00  0.51109989000E-03 0. -1.
     -623    1    1    2    0    0 -0.40369704926E-02  0.44798049048E-03  0.34809958123E-03  0.17130000005E+03  0.17130000000E+03 0.  1.
      622    1    1    2    0    0  0.29109763740E-02  0.57194790872E-02  0.38533196302E+01  0.38535325818E+01  0.40000000000E-01 0. -1.
</event>
<event>
 5   0  0.6200596E+07  0.9118800E+02  0.7818608E-02  0.1180000E+00
       11   -1    0    0    0    0  0.00000000000E+00  0.00000000000E+00  0.39999999673E+01  0.40000000000E+01  0.51109989000E-03 0.  1.
     -623   -1    0    0    0    0  0.00000000000E+00  0.00000000000E+00  0.12525980253E-10  0.17130000000E+03  0.17130000000E+03 0. -1.
       11    1    1    2    0    0 -0.77648333739E-01  0.87034791543E-02  0.73189106976E+00  0.73605014333E+00  0.51109989000E-03 0.  1.
     -623    1    1    2    0    0  0.26622359960E-01  0.41902938985E-01  0.52027495501E-02  0.17130000727E+03  0.17130000000E+03 0. -1.
      622    1    1    2    0    0  0.51025973779E-01 -0.50606418140E-01  0.32629061480E+01  0.32639425838E+01  0.40000000000E-01 0.  1.
</event>
<event>
 5   0  0.6200596E+07  0.9118800E+02  0.7818608E-02  0.1180000E+00
       11   -1    0    0    0    0  0.00000000000E+00  0.00000000000E+00  0.39999999673E+01  0.40000000000E+01  0.51109989000E-03 0.  1.
     -623   -1    0    0    0    0  0.00000000000E+00  0.00000000000E+00  0.12525980253E-10  0.17130000000E+03  0.17130000000E+03 0. -1.
       11    1    1    2    0    0 -0.13388420164E-02 -0.73409043545E-03  0.16264427111E-01  0.16343934549E-01  0.51109989000E-03 0.  1.
     -623    1    1    2    0    0  0.19108118963E-02 -0.10568759429E-02  0.28075823130E-03  0.17130000001E+03  0.17130000000E+03 0. -1.
      622    1    1    2    0    0 -0.57196987999E-03  0.17909663784E-02  0.39834547820E+01  0.39836560513E+01  0.40000000000E-01 0.  1.
</event>
<event>
 5   0  0.6200596E+07  0.9118800E+02  0.7818608E-02  0.1180000E+00
       11   -1    0    0    0    0  0.00000000000E+00  0.00000000000E+00  0.39999999673E+01  0.40000000000E+01  0.51109989000E-03 0.  1.
     -623   -1    0    0    0    0  0.00000000000E+00  0.00000000000E+00  0.12525980253E-10  0.17130000000E+03  0.17130000000E+03 0. -1.
       11    1    1    2    0    0  0.10040547945E-01  0.24246502139E-01  0.85752356789E+00  0.85792519264E+00  0.51109989000E-03 0.  1.
     -623    1    1    2    0    0 -0.90544567065E-02  0.88415803335E-03  0.75711794327E-03  0.17130000024E+03  0.17130000000E+03 0. -1.
      622    1    1    2    0    0 -0.98609123803E-03 -0.25130660172E-01  0.31417192815E+01  0.31420745641E+01  0.40000000000E-01 0.  1.
</event>
<event>
 5   0  0.6200596E+07  0.9118800E+02  0.7818608E-02  0.1180000E+00
       11   -1    0    0    0    0  0.00000000000E+00  0.00000000000E+00  0.39999999673E+01  0.40000000000E+01  0.51109989000E-03 0. -1.
     -623   -1    0    0    0    0  0.00000000000E+00  0.00000000000E+00  0.12525980253E-10  0.17130000000E+03  0.17130000000E+03 0. -1.
       11    1    1    2    0    0 -0.84666550841E-02  0.85704954772E-02  0.16057870082E-01  0.20081186562E-01  0.51109989000E-03 0. -1.
     -623    1    1    2    0    0 -0.18176541306E-02 -0.47773927947E-02  0.42395226768E-02  0.17130000013E+03  0.17130000000E+03 0. -1.
      622    1    1    2    0    0  0.10284309215E-01 -0.37931026825E-02  0.39797025746E+01  0.39799186847E+01  0.40000000000E-01 0. -1.
</event>
<event>
 5   0  0.6200596E+07  0.9118800E+02  0.7818608E-02  0.1180000E+00
       11   -1    0    0    0    0  0.00000000000E+00  0.00000000000E+00  0.39999999673E+01  0.40000000000E+01  0.51109989000E-03 0. -1.
     -623   -1    0    0    0    0  0.00000000000E+00  0.00000000000E+00  0.12525980253E-10  0.17130000000E+03  0.17130000000E+03 0. -1.
       11    1    1    2    0    0 -0.13259416120E-02 -0.95137919459E-03  0.21369583482E+00  0.21370267729E+00  0.51109989000E-03 0. -1.
     -623    1    1    2    0    0  0.66994072952E-03  0.73176366212E-04  0.21826409573E-03  0.17130000000E+03  0.17130000000E+03 0. -1.
      622    1    1    2    0    0  0.65600088249E-03  0.87820282838E-03  0.37860858684E+01  0.37862973212E+01  0.40000000000E-01 0. -1.
</event>
<event>
 5   0  0.6200596E+07  0.9118800E+02  0.7818608E-02  0.1180000E+00
       11   -1    0    0    0    0  0.00000000000E+00  0.00000000000E+00  0.39999999673E+01  0.40000000000E+01  0.51109989000E-03 0. -1.
     -623   -1    0    0    0    0  0.00000000000E+00  0.00000000000E+00  0.12525980253E-10  0.17130000000E+03  0.17130000000E+03 0.  1.
       11    1    1    2    0    0  0.62888672151E-02  0.35462377838E-01  0.19146207214E+01  0.19149595030E+01  0.51109989000E-03 0. -1.
     -623    1    1    2    0    0 -0.33033538898E-02  0.10027241747E-01  0.12213151521E-02  0.17130000033E+03  0.17130000000E+03 0.  1.
      622    1    1    2    0    0 -0.29855133253E-02 -0.45489619584E-01  0.20841579308E+01  0.20850401673E+01  0.40000000000E-01 0.  0.
</event>
<event>
 5   0  0.6200596E+07  0.9118800E+02  0.7818608E-02  0.1180000E+00
       11   -1    0    0    0    0  0.00000000000E+00  0.00000000000E+00  0.39999999673E+01  0.40000000000E+01  0.51109989000E-03 0.  1.
     -623   -1    0    0    0    0  0.00000000000E+00  0.00000000000E+00  0.12525980253E-10  0.17130000000E+03  0.17130000000E+03 0. -1.
       11    1    1    2    0    0  0.85072710549E-02 -0.18325367824E-01  0.23363561457E+00  0.23450811155E+00  0.51109989000E-03 0.  1.
     -623    1    1    2    0    0 -0.11991273170E-01 -0.61027169325E-03  0.11345765334E-02  0.17130000042E+03  0.17130000000E+03 0. -1.
      622    1    1    2    0    0  0.34840021155E-02  0.18935639517E-01  0.37652297763E+01  0.37654914639E+01  0.40000000000E-01 0.  1.
</event>
<event>
 5   0  0.6200596E+07  0.9118800E+02  0.7818608E-02  0.1180000E+00
       11   -1    0    0    0    0  0.00000000000E+00  0.00000000000E+00  0.39999999673E+01  0.40000000000E+01  0.51109989000E-03 0.  1.
     -623   -1    0    0    0    0  0.00000000000E+00  0.00000000000E+00  0.12525980253E-10  0.17130000000E+03  0.17130000000E+03 0.  1.
       11    1    1    2    0    0  0.15393699768E-01  0.25985786686E-02  0.23946369712E+01  0.23946879137E+01  0.51109989000E-03 0.  1.
     -623    1    1    2    0    0  0.80048256803E-03 -0.14906554310E-02  0.63143447744E-03  0.17130000001E+03  0.17130000000E+03 0.  1.
      622    1    1    2    0    0 -0.16194182337E-01 -0.11079232376E-02  0.16047315616E+01  0.16053120768E+01  0.40000000000E-01 0. -1.
</event>
<event>
 5   0  0.6200596E+07  0.9118800E+02  0.7818608E-02  0.1180000E+00
       11   -1    0    0    0    0  0.00000000000E+00  0.00000000000E+00  0.39999999673E+01  0.40000000000E+01  0.51109989000E-03 0. -1.
     -623   -1    0    0    0    0  0.00000000000E+00  0.00000000000E+00  0.12525980253E-10  0.17130000000E+03  0.17130000000E+03 0.  1.
       11    1    1    2    0    0 -0.56825653215E-02 -0.22018145616E-02  0.55634294107E-01  0.55969415195E-01  0.51109989000E-03 0. -1.
     -623    1    1    2    0    0  0.31787888518E-02  0.22442979226E-02  0.53877189515E-03  0.17130000005E+03  0.17130000000E+03 0.  1.
      622    1    1    2    0    0  0.25037764697E-02 -0.42483360930E-04  0.39438269014E+01  0.39440305398E+01  0.40000000000E-01 0. -1.
</event>
<event>
 5   0  0.6200596E+07  0.9118800E+02  0.7818608E-02  0.1180000E+00
       11   -1    0    0    0    0  0.00000000000E+00  0.00000000000E+00  0.39999999673E+01  0.40000000000E+01  0.51109989000E-03 0. -1.
     -623   -1    0    0    0    0  0.00000000000E+00  0.00000000000E+00  0.12525980253E-10  0.17130000000E+03  0.17130000000E+03 0.  1.
       11    1    1    2    0    0 -0.57874087283E-03  0.44384687398E-01  0.14781164928E+01  0.14787829330E+01  0.51109989000E-03 0. -1.
     -623    1    1    2    0    0  0.29162736265E-01 -0.27796273666E-01  0.12051197618E-02  0.17130000474E+03  0.17130000000E+03 0.  1.
      622    1    1    2    0    0 -0.28583995392E-01 -0.16588413731E-01  0.25206783548E+01  0.25212123252E+01  0.40000000000E-01 0. -1.
</event>
<event>
 5   0  0.6200596E+07  0.9118800E+02  0.7818608E-02  0.1180000E+00
       11   -1    0    0    0    0  0.00000000000E+00  0.00000000000E+00  0.39999999673E+01  0.40000000000E+01  0.51109989000E-03 0.  1.
     -623   -1    0    0    0    0  0.00000000000E+00  0.00000000000E+00  0.12525980253E-10  0.17130000000E+03  0.17130000000E+03 0. -1.
       11    1    1    2    0    0 -0.11631916706E-01 -0.11050656128E-02  0.17235522660E+00  0.17275157891E+00  0.51109989000E-03 0.  1.
     -623    1    1    2    0    0  0.40585544904E-03  0.50280549145E-03  0.62186760752E-03  0.17130000000E+03  0.17130000000E+03 0. -1.
      622    1    1    2    0    0  0.11226061257E-01  0.60226012132E-03  0.38270228732E+01  0.38272484187E+01  0.40000000000E-01 0.  1.
</event>
<event>
 5   0  0.6200596E+07  0.9118800E+02  0.7818608E-02  0.1180000E+00
       11   -1    0    0    0    0  0.00000000000E+00  0.00000000000E+00  0.39999999673E+01  0.40000000000E+01  0.51109989000E-03 0.  1.
     -623   -1    0    0    0    0  0.00000000000E+00  0.00000000000E+00  0.12525980253E-10  0.17130000000E+03  0.17130000000E+03 0. -1.
       11    1    1    2    0    0  0.21564062798E-02  0.16809349011E-02  0.46301503519E-01  0.46384976867E-01  0.51109989000E-03 0.  1.
     -623    1    1    2    0    0  0.19960890035E-02 -0.57695609353E-02  0.29019642505E-03  0.17130000011E+03  0.17130000000E+03 0. -1.
      622    1    1    2    0    0 -0.41524952833E-02  0.40886260342E-02  0.39534082674E+01  0.39536149141E+01  0.40000000000E-01 0.  1.
</event>
<event>
 5   0  0.6200596E+07  0.9118800E+02  0.7818608E-02  0.1180000E+00
       11   -1    0    0    0    0  0.00000000000E+00  0.00000000000E+00  0.39999999673E+01  0.40000000000E+01  0.51109989000E-03 0. -1.
     -623   -1    0    0    0    0  0.00000000000E+00  0.00000000000E+00  0.12525980253E-10  0.17130000000E+03  0.17130000000E+03 0. -1.
       11    1    1    2    0    0 -0.18764588818E-02  0.24172265376E-02  0.68454132072E-01  0.68524400769E-01  0.51109989000E-03 0. -1.
     -623    1    1    2    0    0  0.71858350890E-02 -0.81542529531E-02  0.28184371489E-03  0.17130000035E+03  0.17130000000E+03 0. -1.
      622    1    1    2    0    0 -0.53093762072E-02  0.57370264155E-02  0.39312639916E+01  0.39314752542E+01  0.40000000000E-01 0. -1.
</event>
<event>
 5   0  0.6200596E+07  0.9118800E+02  0.7818608E-02  0.1180000E+00
       11   -1    0    0    0    0  0.00000000000E+00  0.00000000000E+00  0.39999999673E+01  0.40000000000E+01  0.51109989000E-03 0.  1.
     -623   -1    0    0    0    0  0.00000000000E+00  0.00000000000E+00  0.12525980253E-10  0.17130000000E+03  0.17130000000E+03 0. -1.
       11    1    1    2    0    0 -0.96400380116E-02  0.18895171132E-01  0.14688980519E+00  0.14841439929E+00  0.51109989000E-03 0.  1.
     -623    1    1    2    0    0 -0.57756692824E-03 -0.22513489448E-02  0.17818159342E-02  0.17130000003E+03  0.17130000000E+03 0. -1.
      622    1    1    2    0    0  0.10217604940E-01 -0.16643822187E-01  0.38513283462E+01  0.38515855757E+01  0.40000000000E-01 0.  1.
</event>
<event>
 5   0  0.6200596E+07  0.9118800E+02  0.7818608E-02  0.1180000E+00
       11   -1    0    0    0    0  0.00000000000E+00  0.00000000000E+00  0.39999999673E+01  0.40000000000E+01  0.51109989000E-03 0.  1.
     -623   -1    0    0    0    0  0.00000000000E+00  0.00000000000E+00  0.12525980253E-10  0.17130000000E+03  0.17130000000E+03 0. -1.
       11    1    1    2    0    0 -0.16258558531E-02  0.16748124402E-01  0.15008275475E+01  0.15009219605E+01  0.51109989000E-03 0.  1.
     -623    1    1    2    0    0 -0.11318099695E-03 -0.59107489961E-02  0.43872823427E-03  0.17130000010E+03  0.17130000000E+03 0. -1.
      622    1    1    2    0    0  0.17390368501E-02 -0.10837375406E-01  0.24987336916E+01  0.24990779369E+01  0.40000000000E-01 0. -1.
</event>
<event>
 5   0  0.6200596E+07  0.9118800E+02  0.7818608E-02  0.1180000E+00
       11   -1    0    0    0    0  0.00000000000E+00  0.00000000000E+00  0.39999999673E+01  0.40000000000E+01  0.51109989000E-03 0.  1.
     -623   -1    0    0    0    0  0.00000000000E+00  0.00000000000E+00  0.12525980253E-10  0.17130000000E+03  0.17130000000E+03 0.  1.
       11    1    1    2    0    0  0.27199461234E-02  0.54609913982E-02  0.47048997045E-01  0.47445651839E-01  0.51109989000E-03 0.  1.
     -623    1    1    2    0    0  0.14475286572E-02 -0.28844637427E-03  0.60461740061E-03  0.17130000001E+03  0.17130000000E+03 0.  1.
      622    1    1    2    0    0 -0.41674747806E-02 -0.51725450240E-02  0.39523463529E+01  0.39525543407E+01  0.40000000000E-01 0.  1.
</event>
<event>
 5   0  0.6200596E+07  0.9118800E+02  0.7818608E-02  0.1180000E+00
       11   -1    0    0    0    0  0.00000000000E+00  0.00000000000E+00  0.39999999673E+01  0.40000000000E+01  0.51109989000E-03 0. -1.
     -623   -1    0    0    0    0  0.00000000000E+00  0.00000000000E+00  0.12525980253E-10  0.17130000000E+03  0.17130000000E+03 0. -1.
       11    1    1    2    0    0 -0.19938382229E-02  0.27642651273E-02  0.47780568130E-02  0.58913156588E-02  0.51109989000E-03 0.  1.
     -623    1    1    2    0    0  0.15119307346E-02 -0.31757619384E-02  0.13136176497E-02  0.17130000004E+03  0.17130000000E+03 0. -1.
      622    1    1    2    0    0  0.48190748835E-03  0.41149681101E-03  0.39939082929E+01  0.39941086432E+01  0.40000000000E-01 0. -1.
</event>
<event>
 5   0  0.6200596E+07  0.9118800E+02  0.7818608E-02  0.1180000E+00
       11   -1    0    0    0    0  0.00000000000E+00  0.00000000000E+00  0.39999999673E+01  0.40000000000E+01  0.51109989000E-03 0.  1.
     -623   -1    0    0    0    0  0.00000000000E+00  0.00000000000E+00  0.12525980253E-10  0.17130000000E+03  0.17130000000E+03 0.  1.
       11    1    1    2    0    0  0.32430818193E-02 -0.35788887806E-02  0.20194366529E+00  0.20200205741E+00  0.51109989000E-03 0.  1.
     -623    1    1    2    0    0 -0.13686853457E-03 -0.34653495944E-03  0.27230219117E-03  0.17130000000E+03  0.17130000000E+03 0.  1.
      622    1    1    2    0    0 -0.31062132847E-02  0.39254237401E-02  0.37977839999E+01  0.37979979420E+01  0.40000000000E-01 0.  1.
</event>
<event>
 5   0  0.6200596E+07  0.9118800E+02  0.7818608E-02  0.1180000E+00
       11   -1    0    0    0    0  0.00000000000E+00  0.00000000000E+00  0.39999999673E+01  0.40000000000E+01  0.51109989000E-03 0.  1.
     -623   -1    0    0    0    0  0.00000000000E+00  0.00000000000E+00  0.12525980253E-10  0.17130000000E+03  0.17130000000E+03 0.  1.
       11    1    1    2    0    0  0.18301118085E-02 -0.11331843630E-03  0.60249586285E-02  0.63185043739E-02  0.51109989000E-03 0.  1.
     -623    1    1    2    0    0  0.15904961801E-03  0.18170794989E-02  0.49470382569E-03  0.17130000001E+03  0.17130000000E+03 0.  1.
      622    1    1    2    0    0 -0.19891614265E-02 -0.17037610626E-02  0.39934803049E+01  0.39936814852E+01  0.40000000000E-01 0.  1.
</event>
<event>
 5   0  0.6200596E+07  0.9118800E+02  0.7818608E-02  0.1180000E+00
       11   -1    0    0    0    0  0.00000000000E+00  0.00000000000E+00  0.39999999673E+01  0.40000000000E+01  0.51109989000E-03 0.  1.
     -623   -1    0    0    0    0  0.00000000000E+00  0.00000000000E+00  0.12525980253E-10  0.17130000000E+03  0.17130000000E+03 0.  1.
       11    1    1    2    0    0 -0.91711732662E-03 -0.38948730382E-04  0.42461541109E-02  0.43742046270E-02  0.51109989000E-03 0.  1.
     -623    1    1    2    0    0  0.98426141374E-03  0.70035031512E-03  0.32830172479E-03  0.17130000000E+03  0.17130000000E+03 0.  1.
      622    1    1    2    0    0 -0.67144087126E-04 -0.66140158474E-03  0.39954255115E+01  0.39956257908E+01  0.40000000000E-01 0.  1.
</event>
<event>
 5   0  0.6200596E+07  0.9118800E+02  0.7818608E-02  0.1180000E+00
       11   -1    0    0    0    0  0.00000000000E+00  0.00000000000E+00  0.39999999673E+01  0.40000000000E+01  0.51109989000E-03 0. -1.
     -623   -1    0    0    0    0  0.00000000000E+00  0.00000000000E+00  0.12525980253E-10  0.17130000000E+03  0.17130000000E+03 0. -1.
       11    1    1    2    0    0  0.32954778148E-01  0.55044292463E-01  0.17898348873E+01  0.17909843875E+01  0.51109989000E-03 0. -1.
     -623    1    1    2    0    0  0.92927497248E-02 -0.24048999967E-02  0.25435216733E-02  0.17130000029E+03  0.17130000000E+03 0. -1.
      622    1    1    2    0    0 -0.42247527873E-01 -0.52639392466E-01  0.22076215584E+01  0.22090153246E+01  0.40000000000E-01 0.  0.
</event>
<event>
 5   0  0.6200596E+07  0.9118800E+02  0.7818608E-02  0.1180000E+00
       11   -1    0    0    0    0  0.00000000000E+00  0.00000000000E+00  0.39999999673E+01  0.40000000000E+01  0.51109989000E-03 0.  1.
     -623   -1    0    0    0    0  0.00000000000E+00  0.00000000000E+00  0.12525980253E-10  0.17130000000E+03  0.17130000000E+03 0.  1.
       11    1    1    2    0    0  0.19385292953E-01  0.44709135935E-01  0.15210586181E+01  0.15218391102E+01  0.51109989000E-03 0.  1.
     -623    1    1    2    0    0  0.24523600540E-02  0.39172999127E-02  0.16768028897E-02  0.17130000007E+03  0.17130000000E+03 0.  1.
      622    1    1    2    0    0 -0.21837653007E-01 -0.48626435848E-01  0.24772645463E+01  0.24781608192E+01  0.40000000000E-01 0.  0.
</event>
<event>
 5   0  0.6200596E+07  0.9118800E+02  0.7818608E-02  0.1180000E+00
       11   -1    0    0    0    0  0.00000000000E+00  0.00000000000E+00  0.39999999673E+01  0.40000000000E+01  0.51109989000E-03 0.  1.
     -623   -1    0    0    0    0  0.00000000000E+00  0.00000000000E+00  0.12525980253E-10  0.17130000000E+03  0.17130000000E+03 0. -1.
       11    1    1    2    0    0 -0.27784854037E-02  0.94757579694E-03  0.72814775643E-02  0.78675929545E-02  0.51109989000E-03 0. -1.
     -623    1    1    2    0    0  0.14808104331E-02 -0.68671261145E-03  0.78671096271E-03  0.17130000001E+03  0.17130000000E+03 0. -1.
      622    1    1    2    0    0  0.12976749706E-02 -0.26086318549E-03  0.39919317788E+01  0.39921323975E+01  0.40000000000E-01 0.  1.
</event>
<event>
 5   0  0.6200596E+07  0.9118800E+02  0.7818608E-02  0.1180000E+00
       11   -1    0    0    0    0  0.00000000000E+00  0.00000000000E+00  0.39999999673E+01  0.40000000000E+01  0.51109989000E-03 0. -1.
     -623   -1    0    0    0    0  0.00000000000E+00  0.00000000000E+00  0.12525980253E-10  0.17130000000E+03  0.17130000000E+03 0. -1.
       11    1    1    2    0    0 -0.38100310001E-01 -0.86965858893E-02  0.11384573459E+01  0.11391280234E+01  0.51109989000E-03 0. -1.
     -623    1    1    2    0    0 -0.57596167881E-02 -0.51038244911E-02  0.13200246418E-02  0.17130000018E+03  0.17130000000E+03 0. -1.
      622    1    1    2    0    0  0.43859926789E-01  0.13800410380E-01  0.28602225969E+01  0.28608717986E+01  0.40000000000E-01 0. -1.
</event>
<event>
 5   0  0.6200596E+07  0.9118800E+02  0.7818608E-02  0.1180000E+00
       11   -1    0    0    0    0  0.00000000000E+00  0.00000000000E+00  0.39999999673E+01  0.40000000000E+01  0.51109989000E-03 0. -1.
     -623   -1    0    0    0    0  0.00000000000E+00  0.00000000000E+00  0.12525980253E-10  0.17130000000E+03  0.17130000000E+03 0.  1.
       11    1    1    2    0    0 -0.86105608098E-03  0.32057865905E-03  0.41848144515E-01  0.41861349811E-01  0.51109989000E-03 0. -1.
     -623    1    1    2    0    0 -0.61460059096E-03 -0.78621019601E-04  0.21557675999E-03  0.17130000000E+03  0.17130000000E+03 0.  1.
      622    1    1    2    0    0  0.14756566719E-02 -0.24195763945E-03  0.39579362461E+01  0.39581386489E+01  0.40000000000E-01 0. -1.
</event>
<event>
 5   0  0.6200596E+07  0.9118800E+02  0.7818608E-02  0.1180000E+00
       11   -1    0    0    0    0  0.00000000000E+00  0.00000000000E+00  0.39999999673E+01  0.40000000000E+01  0.51109989000E-03 0. -1.
     -623   -1    0    0    0    0  0.00000000000E+00  0.00000000000E+00  0.12525980253E-10  0.17130000000E+03  0.17130000000E+03 0.  1.
       11    1    1    2    0    0 -0.25967218584E-02  0.15333747875E-02  0.18999432117E-01  0.19244060019E-01  0.51109989000E-03 0. -1.
     -623    1    1    2    0    0  0.13854037167E-03 -0.43068847268E-02  0.44734723905E-03  0.17130000005E+03  0.17130000000E+03 0.  1.
      622    1    1    2    0    0  0.24581814867E-02  0.27735099392E-02  0.39805531880E+01  0.39807558852E+01  0.40000000000E-01 0. -1.
</event>
<event>
 5   0  0.6200596E+07  0.9118800E+02  0.7818608E-02  0.1180000E+00
       11   -1    0    0    0    0  0.00000000000E+00  0.00000000000E+00  0.39999999673E+01  0.40000000000E+01  0.51109989000E-03 0.  1.
     -623   -1    0    0    0    0  0.00000000000E+00  0.00000000000E+00  0.12525980253E-10  0.17130000000E+03  0.17130000000E+03 0. -1.
       11    1    1    2    0    0  0.15221524128E-01  0.38564888197E-01  0.23600891873E+01  0.23604533841E+01  0.51109989000E-03 0.  1.
     -623    1    1    2    0    0  0.52069744551E-02 -0.13729893891E-01  0.11682962331E-02  0.17130000063E+03  0.17130000000E+03 0. -1.
      622    1    1    2    0    0 -0.20428498583E-01 -0.24834994306E-01  0.16387424839E+01  0.16395459826E+01  0.40000000000E-01 0.  1.
</event>
<event>
 5   0  0.6200596E+07  0.9118800E+02  0.7818608E-02  0.1180000E+00
       11   -1    0    0    0    0  0.00000000000E+00  0.00000000000E+00  0.39999999673E+01  0.40000000000E+01  0.51109989000E-03 0. -1.
     -623   -1    0    0    0    0  0.00000000000E+00  0.00000000000E+00  0.12525980253E-10  0.17130000000E+03  0.17130000000E+03 0.  1.
       11    1    1    2    0    0 -0.14573778219E-02 -0.29605034126E-01  0.17559467945E+01  0.17561970244E+01  0.51109989000E-03 0. -1.
     -623    1    1    2    0    0  0.63338172272E-02  0.79158530035E-02  0.71721043491E-03  0.17130000030E+03  0.17130000000E+03 0.  1.
      622    1    1    2    0    0 -0.48764394054E-02  0.21689181123E-01  0.22433359624E+01  0.22438026741E+01  0.40000000000E-01 0. -1.
</event>
<event>
 5   0  0.6200596E+07  0.9118800E+02  0.7818608E-02  0.1180000E+00
       11   -1    0    0    0    0  0.00000000000E+00  0.00000000000E+00  0.39999999673E+01  0.40000000000E+01  0.51109989000E-03 0. -1.
     -623   -1    0    0    0    0  0.00000000000E+00  0.00000000000E+00  0.12525980253E-10  0.17130000000E+03  0.17130000000E+03 0. -1.
       11    1    1    2    0    0 -0.45143933171E-02  0.10658986144E-02  0.39176891043E-02  0.60930612533E-02  0.51109989000E-03 0. -1.
     -623    1    1    2    0    0  0.51057650855E-02 -0.64315561954E-03  0.23758095868E-02  0.17130000009E+03  0.17130000000E+03 0. -1.
      622    1    1    2    0    0 -0.59137176841E-03 -0.42274299490E-03  0.39937064687E+01  0.39939068450E+01  0.40000000000E-01 0. -1.
</event>
<event>
 5   0  0.6200596E+07  0.9118800E+02  0.7818608E-02  0.1180000E+00
       11   -1    0    0    0    0  0.00000000000E+00  0.00000000000E+00  0.39999999673E+01  0.40000000000E+01  0.51109989000E-03 0. -1.
     -623   -1    0    0    0    0  0.00000000000E+00  0.00000000000E+00  0.12525980253E-10  0.17130000000E+03  0.17130000000E+03 0. -1.
       11    1    1    2    0    0 -0.14808151025E-01 -0.72219548361E-03  0.11463371352E+00  0.11558958604E+00  0.51109989000E-03 0. -1.
     -623    1    1    2    0    0  0.80056459871E-02  0.15380716184E-02  0.11680371578E-02  0.17130000020E+03  0.17130000000E+03 0. -1.
      622    1    1    2    0    0  0.68025050381E-02 -0.81587613483E-03  0.38841982167E+01  0.38844102160E+01  0.40000000000E-01 0. -1.
</event>
<event>
 5   0  0.6200596E+07  0.9118800E+02  0.7818608E-02  0.1180000E+00
       11   -1    0    0    0    0  0.00000000000E+00  0.00000000000E+00  0.39999999673E+01  0.40000000000E+01  0.51109989000E-03 0. -1.
     -623   -1    0    0    0    0  0.00000000000E+00  0.00000000000E+00  0.12525980253E-10  0.17130000000E+03  0.17130000000E+03 0.  1.
       11    1    1    2    0    0  0.16801148969E-01  0.18272442873E-02  0.10611896544E+00  0.10745749614E+00  0.51109989000E-03 0. -1.
     -623    1    1    2    0    0 -0.11285895608E-01 -0.10085298434E-01  0.15573681286E-02  0.17130000068E+03  0.17130000000E+03 0.  1.
      622    1    1    2    0    0 -0.55152533611E-02  0.82580541470E-02  0.38923236338E+01  0.38925418281E+01  0.40000000000E-01 0. -1.
</event>
<event>
 5   0  0.6200596E+07  0.9118800E+02  0.7818608E-02  0.1180000E+00
       11   -1    0    0    0    0  0.00000000000E+00  0.00000000000E+00  0.39999999673E+01  0.40000000000E+01  0.51109989000E-03 0.  1.
     -623   -1    0    0    0    0  0.00000000000E+00  0.00000000000E+00  0.12525980253E-10  0.17130000000E+03  0.17130000000E+03 0. -1.
       11    1    1    2    0    0 -0.43670500855E-02  0.54629616394E-02  0.31339909333E+00  0.31347753986E+00  0.51109989000E-03 0.  1.
     -623    1    1    2    0    0 -0.31182180568E-02 -0.45789473230E-02  0.30322246796E-03  0.17130000009E+03  0.17130000000E+03 0. -1.
      622    1    1    2    0    0  0.74852681422E-02 -0.88401431631E-03  0.36862976516E+01  0.36865223703E+01  0.40000000000E-01 0.  1.
</event>
<event>
 5   0  0.6200596E+07  0.9118800E+02  0.7818608E-02  0.1180000E+00
       11   -1    0    0    0    0  0.00000000000E+00  0.00000000000E+00  0.39999999673E+01  0.40000000000E+01  0.51109989000E-03 0. -1.
     -623   -1    0    0    0    0  0.00000000000E+00  0.00000000000E+00  0.12525980253E-10  0.17130000000E+03  0.17130000000E+03 0. -1.
       11    1    1    2    0    0  0.19809844963E-02  0.41011180834E-02  0.56093999341E-01  0.56280915526E-01  0.51109989000E-03 0. -1.
     -623    1    1    2    0    0 -0.89893445854E-03 -0.45373545176E-03  0.39158156929E-03  0.17130000000E+03  0.17130000000E+03 0. -1.
      622    1    1    2    0    0 -0.10820500378E-02 -0.36473826317E-02  0.39435143864E+01  0.39437190811E+01  0.40000000000E-01 0. -1.
</event>
<event>
 5   0  0.6200596E+07  0.9118800E+02  0.7818608E-02  0.1180000E+00
       11   -1    0    0    0    0  0.00000000000E+00  0.00000000000E+00  0.39999999673E+01  0.40000000000E+01  0.51109989000E-03 0.  1.
     -623   -1    0    0    0    0  0.00000000000E+00  0.00000000000E+00  0.12525980253E-10  0.17130000000E+03  0.17130000000E+03 0. -1.
       11    1    1    2    0    0  0.27651268758E-01 -0.18138366100E-01  0.12817007595E+00  0.13236851053E+00  0.51109989000E-03 0.  1.
     -623    1    1    2    0    0 -0.13432369695E-01  0.19241647897E-01  0.44332131182E-02  0.17130000166E+03  0.17130000000E+03 0. -1.
      622    1    1    2    0    0 -0.14218899063E-01 -0.11032817971E-02  0.38673966783E+01  0.38676298248E+01  0.40000000000E-01 0.  1.
</event>
<event>
 5   0  0.6200596E+07  0.9118800E+02  0.7818608E-02  0.1180000E+00
       11   -1    0    0    0    0  0.00000000000E+00  0.00000000000E+00  0.39999999673E+01  0.40000000000E+01  0.51109989000E-03 0.  1.
     -623   -1    0    0    0    0  0.00000000000E+00  0.00000000000E+00  0.12525980253E-10  0.17130000000E+03  0.17130000000E+03 0. -1.
       11    1    1    2    0    0  0.14136694601E-02  0.45446008872E-02  0.12481627930E-02  0.49468160930E-02  0.51109989000E-03 0.  1.
     -623    1    1    2    0    0 -0.11289992517E-02 -0.63641144450E-02  0.38994641623E-02  0.17130000017E+03  0.17130000000E+03 0. -1.
      622    1    1    2    0    0 -0.28467020837E-03  0.18195135578E-02  0.39948523404E+01  0.39950530176E+01  0.40000000000E-01 0.  1.
</event>
<event>
 5   0  0.6200596E+07  0.9118800E+02  0.7818608E-02  0.1180000E+00
       11   -1    0    0    0    0  0.00000000000E+00  0.00000000000E+00  0.39999999673E+01  0.40000000000E+01  0.51109989000E-03 0.  1.
     -623   -1    0    0    0    0  0.00000000000E+00  0.00000000000E+00  0.12525980253E-10  0.17130000000E+03  0.17130000000E+03 0. -1.
       11    1    1    2    0    0  0.21740959416E-01 -0.25472096589E-01  0.21152111411E+01  0.21154762891E+01  0.51109989000E-03 0.  1.
     -623    1    1    2    0    0 -0.29718227027E-01  0.27068138479E-01  0.71195660623E-03  0.17130000472E+03  0.17130000000E+03 0. -1.
      622    1    1    2    0    0  0.79772676105E-02 -0.15960418902E-02  0.18840768697E+01  0.18845189930E+01  0.40000000000E-01 0. -1.
</event>
<event>
 5   0  0.6200596E+07  0.9118800E+02  0.7818608E-02  0.1180000E+00
       11   -1    0    0    0    0  0.00000000000E+00  0.00000000000E+00  0.39999999673E+01  0.40000000000E+01  0.51109989000E-03 0.  1.
     -623   -1    0    0    0    0  0.00000000000E+00  0.00000000000E+00  0.12525980253E-10  0.17130000000E+03  0.17130000000E+03 0. -1.
       11    1    1    2    0    0 -0.41067957597E-01  0.21572525311E-02  0.15502277020E+01  0.15507731685E+01  0.51109989000E-03 0.  1.
     -623    1    1    2    0    0  0.37353986583E-03  0.59537383271E-02  0.12237732749E-02  0.17130000011E+03  0.17130000000E+03 0. -1.
      622    1    1    2    0    0  0.40694417731E-01 -0.81109908582E-02  0.24485484920E+01  0.24492267232E+01  0.40000000000E-01 0.  1.
</event>
<event>
 5   0  0.6200596E+07  0.9118800E+02  0.7818608E-02  0.1180000E+00
       11   -1    0    0    0    0  0.00000000000E+00  0.00000000000E+00  0.39999999673E+01  0.40000000000E+01  0.51109989000E-03 0. -1.
     -623   -1    0    0    0    0  0.00000000000E+00  0.00000000000E+00  0.12525980253E-10  0.17130000000E+03  0.17130000000E+03 0. -1.
       11    1    1    2    0    0  0.67836865078E-02 -0.22768448016E-02  0.25269658970E+00  0.25279839812E+00  0.51109989000E-03 0. -1.
     -623    1    1    2    0    0  0.17817701734E-02  0.20456119032E-02  0.32509358554E-03  0.17130000002E+03  0.17130000000E+03 0. -1.
      622    1    1    2    0    0 -0.85654566812E-02  0.23123289837E-03  0.37469782841E+01  0.37472015801E+01  0.40000000000E-01 0. -1.
</event>
<event>
 5   0  0.6200596E+07  0.9118800E+02  0.7818608E-02  0.1180000E+00
       11   -1    0    0    0    0  0.00000000000E+00  0.00000000000E+00  0.39999999673E+01  0.40000000000E+01  0.51109989000E-03 0.  1.
     -623   -1    0    0    0    0  0.00000000000E+00  0.00000000000E+00  0.12525980253E-10  0.17130000000E+03  0.17130000000E+03 0. -1.
       11    1    1    2    0    0  0.13212806346E-02  0.25551813960E-02  0.70891895410E-01  0.70952073898E-01  0.51109989000E-03 0.  1.
     -623    1    1    2    0    0 -0.20713675750E-02 -0.45593809954E-02  0.26441899840E-03  0.17130000007E+03  0.17130000000E+03 0. -1.
      622    1    1    2    0    0  0.75008694031E-03  0.20041995994E-02  0.39288436530E+01  0.39290478527E+01  0.40000000000E-01 0.  1.
</event>
<event>
 5   0  0.6200596E+07  0.9118800E+02  0.7818608E-02  0.1180000E+00
       11   -1    0    0    0    0  0.00000000000E+00  0.00000000000E+00  0.39999999673E+01  0.40000000000E+01  0.51109989000E-03 0.  1.
     -623   -1    0    0    0    0  0.00000000000E+00  0.00000000000E+00  0.12525980253E-10  0.17130000000E+03  0.17130000000E+03 0.  1.
       11    1    1    2    0    0  0.66645199795E-01 -0.54052631281E-01  0.23256666692E+01  0.23272492318E+01  0.51109989000E-03 0.  1.
     -623    1    1    2    0    0 -0.68917321343E-01  0.57513102717E-01  0.20895143231E-02  0.17130002353E+03  0.17130000000E+03 0.  1.
      622    1    1    2    0    0  0.22721215474E-02 -0.34604714358E-02  0.16722437838E+01  0.16727272372E+01  0.40000000000E-01 0.  0.
</event>
<event>
 5   0  0.6200596E+07  0.9118800E+02  0.7818608E-02  0.1180000E+00
       11   -1    0    0    0    0  0.00000000000E+00  0.00000000000E+00  0.39999999673E+01  0.40000000000E+01  0.51109989000E-03 0.  1.
     -623   -1    0    0    0    0  0.00000000000E+00  0.00000000000E+00  0.12525980253E-10  0.17130000000E+03  0.17130000000E+03 0.  1.
       11    1    1    2    0    0 -0.27215171689E-01 -0.45088476654E-01  0.19723282451E+01  0.19730313236E+01  0.51109989000E-03 0.  1.
     -623    1    1    2    0    0  0.23029459410E-01  0.27483640215E-01  0.11823108610E-02  0.17130000376E+03  0.17130000000E+03 0.  1.
      622    1    1    2    0    0  0.41857122787E-02  0.17604836439E-01  0.20264894114E+01  0.20269649195E+01  0.40000000000E-01 0.  0.
</event>
<event>
 5   0  0.6200596E+07  0.9118800E+02  0.7818608E-02  0.1180000E+00
       11   -1    0    0    0    0  0.00000000000E+00  0.00000000000E+00  0.39999999673E+01  0.40000000000E+01  0.51109989000E-03 0.  1.
     -623   -1    0    0    0    0  0.00000000000E+00  0.00000000000E+00  0.12525980253E-10  0.17130000000E+03  0.17130000000E+03 0. -1.
       11    1    1    2    0    0 -0.22065072553E-01  0.31731763741E-01  0.13078540862E+01  0.13084251390E+01  0.51109989000E-03 0.  1.
     -623    1    1    2    0    0 -0.80896945136E-03 -0.45877064981E-02  0.11024309634E-02  0.17130000007E+03  0.17130000000E+03 0. -1.
      622    1    1    2    0    0  0.22874042004E-01 -0.27144057243E-01  0.26910434502E+01  0.26915747942E+01  0.40000000000E-01 0.  1.
</event>
<event>
 5   0  0.6200596E+07  0.9118800E+02  0.7818608E-02  0.1180000E+00
       11   -1    0    0    0    0  0.00000000000E+00  0.00000000000E+00  0.39999999673E+01  0.40000000000E+01  0.51109989000E-03 0. -1.
     -623   -1    0    0    0    0  0.00000000000E+00  0.00000000000E+00  0.12525980253E-10  0.17130000000E+03  0.17130000000E+03 0.  1.
       11    1    1    2    0    0  0.66441323337E-02 -0.10195221068E-01  0.50529480082E+00  0.50544157326E+00  0.51109989000E-03 0. -1.
     -623    1    1    2    0    0 -0.11039434457E-01 -0.71231238202E-02  0.42185958813E-03  0.17130000050E+03  0.17130000000E+03 0.  1.
      622    1    1    2    0    0  0.43953021228E-02  0.17318344888E-01  0.34942833070E+01  0.34945579224E+01  0.40000000000E-01 0. -1.
</event>
<event>
 5   0  0.6200596E+07  0.9118800E+02  0.7818608E-02  0.1180000E+00
       11   -1    0    0    0    0  0.00000000000E+00  0.00000000000E+00  0.39999999673E+01  0.40000000000E+01  0.51109989000E-03 0. -1.
     -623   -1    0    0    0    0  0.00000000000E+00  0.00000000000E+00  0.12525980253E-10  0.17130000000E+03  0.17130000000E+03 0.  1.
       11    1    1    2    0    0 -0.32589359162E-01  0.17016469207E-01  0.98769052812E+00  0.98837465928E+00  0.51109989000E-03 0. -1.
     -623    1    1    2    0    0 -0.14522651968E-02  0.30510956444E-02  0.12090710941E-02  0.17130000004E+03  0.17130000000E+03 0.  1.
      622    1    1    2    0    0  0.34041624359E-01 -0.20067564851E-01  0.30111003681E+01  0.30116253031E+01  0.40000000000E-01 0.  0.
</event>
<event>
 5   0  0.6200596E+07  0.9118800E+02  0.7818608E-02  0.1180000E+00
       11   -1    0    0    0    0  0.00000000000E+00  0.00000000000E+00  0.39999999673E+01  0.40000000000E+01  0.51109989000E-03 0. -1.
     -623   -1    0    0    0    0  0.00000000000E+00  0.00000000000E+00  0.12525980253E-10  0.17130000000E+03  0.17130000000E+03 0.  1.
       11    1    1    2    0    0 -0.13452427580E-02  0.34731945579E-02  0.11529813770E+00  0.11535941460E+00  0.51109989000E-03 0. -1.
     -623    1    1    2    0    0 -0.95343937260E-03 -0.75979497450E-03  0.26882136597E-03  0.17130000000E+03  0.17130000000E+03 0.  1.
      622    1    1    2    0    0  0.22986821306E-02 -0.27133995833E-02  0.38844330083E+01  0.38846405809E+01  0.40000000000E-01 0. -1.
</event>
<event>
 5   0  0.6200596E+07  0.9118800E+02  0.7818608E-02  0.1180000E+00
       11   -1    0    0    0    0  0.00000000000E+00  0.00000000000E+00  0.39999999673E+01  0.40000000000E+01  0.51109989000E-03 0.  1.
     -623   -1    0    0    0    0  0.00000000000E+00  0.00000000000E+00  0.12525980253E-10  0.17130000000E+03  0.17130000000E+03 0.  1.
       11    1    1    2    0    0 -0.10421792807E-01  0.89722690858E-02  0.16259451211E+00  0.16317583144E+00  0.51109989000E-03 0.  1.
     -623    1    1    2    0    0 -0.32730131195E-02  0.11107335651E-01  0.86717939979E-03  0.17130000039E+03  0.17130000000E+03 0.  1.
      622    1    1    2    0    0  0.13694805927E-01 -0.20079604737E-01  0.38365382758E+01  0.38368237750E+01  0.40000000000E-01 0.  1.
</event>
<event>
 5   0  0.6200596E+07  0.9118800E+02  0.7818608E-02  0.1180000E+00
       11   -1    0    0    0    0  0.00000000000E+00  0.00000000000E+00  0.39999999673E+01  0.40000000000E+01  0.51109989000E-03 0. -1.
     -623   -1    0    0    0    0  0.00000000000E+00  0.00000000000E+00  0.12525980253E-10  0.17130000000E+03  0.17130000000E+03 0.  1.
       11    1    1    2    0    0 -0.37411565525E-02  0.69496318542E-02  0.24366707041E+01  0.24366835402E+01  0.51109989000E-03 0. -1.
     -623    1    1    2    0    0  0.47378446253E-02  0.97902328907E-02  0.61494068382E-03  0.17130000035E+03  0.17130000000E+03 0.  1.
      622    1    1    2    0    0 -0.99668807288E-03 -0.16739864745E-01  0.15627143226E+01  0.15633161134E+01  0.40000000000E-01 0.  0.
</event>
<event>
 5   0  0.6200596E+07  0.9118800E+02  0.7818608E-02  0.1180000E+00
       11   -1    0    0    0    0  0.00000000000E+00  0.00000000000E+00  0.39999999673E+01  0.40000000000E+01  0.51109989000E-03 0. -1.
     -623   -1    0    0    0    0  0.00000000000E+00  0.00000000000E+00  0.12525980253E-10  0.17130000000E+03  0.17130000000E+03 0. -1.
       11    1    1    2    0    0  0.46388356438E-02  0.16550510176E-01  0.14150386119E+01  0.14151430926E+01  0.51109989000E-03 0. -1.
     -623    1    1    2    0    0  0.15324936369E-03 -0.17119519175E-03  0.47030662840E-03  0.17130000000E+03  0.17130000000E+03 0. -1.
      622    1    1    2    0    0 -0.47920850075E-02 -0.16379314985E-01  0.25844910488E+01  0.25848569066E+01  0.40000000000E-01 0. -1.
</event>
<event>
 5   0  0.6200596E+07  0.9118800E+02  0.7818608E-02  0.1180000E+00
       11   -1    0    0    0    0  0.00000000000E+00  0.00000000000E+00  0.39999999673E+01  0.40000000000E+01  0.51109989000E-03 0. -1.
     -623   -1    0    0    0    0  0.00000000000E+00  0.00000000000E+00  0.12525980253E-10  0.17130000000E+03  0.17130000000E+03 0.  1.
       11    1    1    2    0    0  0.50465092744E-02 -0.16511226988E-01  0.50450018442E+00  0.50479578562E+00  0.51109989000E-03 0. -1.
     -623    1    1    2    0    0  0.48576154412E-03 -0.16055170612E-05  0.56785095446E-03  0.17130000000E+03  0.17130000000E+03 0.  1.
      622    1    1    2    0    0 -0.55322708185E-02  0.16512832505E-01  0.34949319320E+01  0.34952042128E+01  0.40000000000E-01 0. -1.
</event>
<event>
 5   0  0.6200596E+07  0.9118800E+02  0.7818608E-02  0.1180000E+00
       11   -1    0    0    0    0  0.00000000000E+00  0.00000000000E+00  0.39999999673E+01  0.40000000000E+01  0.51109989000E-03 0. -1.
     -623   -1    0    0    0    0  0.00000000000E+00  0.00000000000E+00  0.12525980253E-10  0.17130000000E+03  0.17130000000E+03 0.  1.
       11    1    1    2    0    0 -0.40752450101E-02  0.17924663338E-02  0.72345304415E+00  0.72346692314E+00  0.51109989000E-03 0. -1.
     -623    1    1    2    0    0 -0.92708627052E-03  0.39292498337E-02  0.26687881023E-03  0.17130000005E+03  0.17130000000E+03 0.  1.
      622    1    1    2    0    0  0.50023312806E-02 -0.57217161675E-02  0.32762800444E+01  0.32765330291E+01  0.40000000000E-01 0. -1.
</event>
<event>
 5   0  0.6200596E+07  0.9118800E+02  0.7818608E-02  0.1180000E+00
       11   -1    0    0    0    0  0.00000000000E+00  0.00000000000E+00  0.39999999673E+01  0.40000000000E+01  0.51109989000E-03 0. -1.
     -623   -1    0    0    0    0  0.00000000000E+00  0.00000000000E+00  0.12525980253E-10  0.17130000000E+03  0.17130000000E+03 0.  1.
       11    1    1    2    0    0  0.11244068710E-01  0.25413861144E-02  0.32916051834E+00  0.32936271159E+00  0.51109989000E-03 0. -1.
     -623    1    1    2    0    0 -0.17109621664E-01  0.79399419778E-02  0.44080414801E-03  0.17130000104E+03  0.17130000000E+03 0.  1.
      622    1    1    2    0    0  0.58655529543E-02 -0.10481328092E-01  0.36703986449E+01  0.36706362494E+01  0.40000000000E-01 0. -1.
</event>
<event>
 5   0  0.6200596E+07  0.9118800E+02  0.7818608E-02  0.1180000E+00
       11   -1    0    0    0    0  0.00000000000E+00  0.00000000000E+00  0.39999999673E+01  0.40000000000E+01  0.51109989000E-03 0.  1.
     -623   -1    0    0    0    0  0.00000000000E+00  0.00000000000E+00  0.12525980253E-10  0.17130000000E+03  0.17130000000E+03 0. -1.
       11    1    1    2    0    0  0.91164857316E-02  0.19302918401E-01  0.16665882216E+01  0.16667250147E+01  0.51109989000E-03 0.  1.
     -623    1    1    2    0    0  0.29273540546E-03 -0.24919701027E-03  0.57643806514E-03  0.17130000000E+03  0.17130000000E+03 0. -1.
      622    1    1    2    0    0 -0.94092211371E-02 -0.19053721391E-01  0.23328353077E+01  0.23332749839E+01  0.40000000000E-01 0.  1.
</event>
<event>
 5   0  0.6200596E+07  0.9118800E+02  0.7818608E-02  0.1180000E+00
       11   -1    0    0    0    0  0.00000000000E+00  0.00000000000E+00  0.39999999673E+01  0.40000000000E+01  0.51109989000E-03 0.  1.
     -623   -1    0    0    0    0  0.00000000000E+00  0.00000000000E+00  0.12525980253E-10  0.17130000000E+03  0.17130000000E+03 0. -1.
       11    1    1    2    0    0  0.67968291071E-02 -0.20234042231E-02  0.17679101857E+01  0.17679244828E+01  0.51109989000E-03 0.  1.
     -623    1    1    2    0    0 -0.29925297670E-02 -0.80544199105E-03  0.37776791271E-03  0.17130000003E+03  0.17130000000E+03 0. -1.
      622    1    1    2    0    0 -0.38042993400E-02  0.28288462142E-02  0.22317120138E+01  0.22320754887E+01  0.40000000000E-01 0.  1.
</event>
<event>
 5   0  0.6200596E+07  0.9118800E+02  0.7818608E-02  0.1180000E+00
       11   -1    0    0    0    0  0.00000000000E+00  0.00000000000E+00  0.39999999673E+01  0.40000000000E+01  0.51109989000E-03 0. -1.
     -623   -1    0    0    0    0  0.00000000000E+00  0.00000000000E+00  0.12525980253E-10  0.17130000000E+03  0.17130000000E+03 0. -1.
       11    1    1    2    0    0  0.18364476821E-02  0.63756020364E-03  0.32307282481E-02  0.38049770710E-02  0.51109989000E-03 0. -1.
     -623    1    1    2    0    0  0.44875980802E-03  0.10572678244E-02  0.77543007449E-03  0.17130000001E+03  0.17130000000E+03 0. -1.
      622    1    1    2    0    0 -0.22852074901E-02 -0.16948280281E-02  0.39959938090E+01  0.39961950173E+01  0.40000000000E-01 0. -1.
</event>
<event>
 5   0  0.6200596E+07  0.9118800E+02  0.7818608E-02  0.1180000E+00
       11   -1    0    0    0    0  0.00000000000E+00  0.00000000000E+00  0.39999999673E+01  0.40000000000E+01  0.51109989000E-03 0. -1.
     -623   -1    0    0    0    0  0.00000000000E+00  0.00000000000E+00  0.12525980253E-10  0.17130000000E+03  0.17130000000E+03 0. -1.
       11    1    1    2    0    0 -0.69258457025E-02 -0.90818996563E-02  0.25749156144E+01  0.25749409956E+01  0.51109989000E-03 0. -1.
     -623    1    1    2    0    0 -0.21398840200E-02 -0.34309267297E-02  0.67069533643E-03  0.17130000005E+03  0.17130000000E+03 0. -1.
      622    1    1    2    0    0  0.90657297225E-02  0.12512826386E-01  0.14244136577E+01  0.14250589554E+01  0.40000000000E-01 0.  0.
</event>
<event>
 5   0  0.6200596E+07  0.9118800E+02  0.7818608E-02  0.1180000E+00
       11   -1    0    0    0    0  0.00000000000E+00  0.00000000000E+00  0.39999999673E+01  0.40000000000E+01  0.51109989000E-03 0.  1.
     -623   -1    0    0    0    0  0.00000000000E+00  0.00000000000E+00  0.12525980253E-10  0.17130000000E+03  0.17130000000E+03 0.  1.
       11    1    1    2    0    0  0.53729493357E-02  0.26965226506E-03  0.41588167970E-01  0.41937790055E-01  0.51109989000E-03 0.  1.
     -623    1    1    2    0    0 -0.10699044683E-02 -0.78642183741E-03  0.55409266127E-03  0.17130000001E+03  0.17130000000E+03 0.  1.
      622    1    1    2    0    0 -0.43030448674E-02  0.51676957236E-03  0.39578577067E+01  0.39580622039E+01  0.40000000000E-01 0.  1.
</event>
<event>
 5   0  0.6200596E+07  0.9118800E+02  0.7818608E-02  0.1180000E+00
       11   -1    0    0    0    0  0.00000000000E+00  0.00000000000E+00  0.39999999673E+01  0.40000000000E+01  0.51109989000E-03 0. -1.
     -623   -1    0    0    0    0  0.00000000000E+00  0.00000000000E+00  0.12525980253E-10  0.17130000000E+03  0.17130000000E+03 0.  1.
       11    1    1    2    0    0 -0.46583486733E-02 -0.30557916110E-02  0.97913508053E-01  0.98073209155E-01  0.51109989000E-03 0. -1.
     -623    1    1    2    0    0  0.57329362254E-03  0.16036126691E-02  0.36711836542E-03  0.17130000001E+03  0.17130000000E+03 0.  1.
      622    1    1    2    0    0  0.40850550507E-02  0.14521789418E-02  0.39017193409E+01  0.39019267820E+01  0.40000000000E-01 0. -1.
</event>
<event>
 5   0  0.6200596E+07  0.9118800E+02  0.7818608E-02  0.1180000E+00
       11   -1    0    0    0    0  0.00000000000E+00  0.00000000000E+00  0.39999999673E+01  0.40000000000E+01  0.51109989000E-03 0. -1.
     -623   -1    0    0    0    0  0.00000000000E+00  0.00000000000E+00  0.12525980253E-10  0.17130000000E+03  0.17130000000E+03 0.  1.
       11    1    1    2    0    0 -0.14155856475E-01  0.29438297341E-01  0.64052212572E+00  0.64135470403E+00  0.51109989000E-03 0. -1.
     -623    1    1    2    0    0  0.42568523610E-02 -0.69990705346E-02  0.11604991620E-02  0.17130000020E+03  0.17130000000E+03 0.  1.
      622    1    1    2    0    0  0.98990041140E-02 -0.22439226807E-01  0.33583173425E+01  0.33586450962E+01  0.40000000000E-01 0. -1.
</event>
<event>
 5   0  0.6200596E+07  0.9118800E+02  0.7818608E-02  0.1180000E+00
       11   -1    0    0    0    0  0.00000000000E+00  0.00000000000E+00  0.39999999673E+01  0.40000000000E+01  0.51109989000E-03 0.  1.
     -623   -1    0    0    0    0  0.00000000000E+00  0.00000000000E+00  0.12525980253E-10  0.17130000000E+03  0.17130000000E+03 0.  1.
       11    1    1    2    0    0 -0.25453753198E-02  0.25460856798E-02  0.24778410312E+00  0.24781078360E+00  0.51109989000E-03 0.  1.
     -623    1    1    2    0    0  0.56129873529E-02  0.70235432454E-02  0.25355691588E-03  0.17130000024E+03  0.17130000000E+03 0.  1.
      622    1    1    2    0    0 -0.30676120331E-02 -0.95696289252E-02  0.37519623073E+01  0.37521889803E+01  0.40000000000E-01 0.  1.
</event>
<event>
 5   0  0.6200596E+07  0.9118800E+02  0.7818608E-02  0.1180000E+00
       11   -1    0    0    0    0  0.00000000000E+00  0.00000000000E+00  0.39999999673E+01  0.40000000000E+01  0.51109989000E-03 0.  1.
     -623   -1    0    0    0    0  0.00000000000E+00  0.00000000000E+00  0.12525980253E-10  0.17130000000E+03  0.17130000000E+03 0.  1.
       11    1    1    2    0    0  0.12280119458E-01 -0.74812737819E-02  0.52383463156E-01  0.54323652538E-01  0.51109989000E-03 0.  1.
     -623    1    1    2    0    0 -0.17176629134E-02  0.29631793612E-02  0.21596887491E-02  0.17130000005E+03  0.17130000000E+03 0.  1.
      622    1    1    2    0    0 -0.10562456545E-01  0.45180944207E-02  0.39454568155E+01  0.39456762996E+01  0.40000000000E-01 0.  1.
</event>
<event>
 5   0  0.6200596E+07  0.9118800E+02  0.7818608E-02  0.1180000E+00
       11   -1    0    0    0    0  0.00000000000E+00  0.00000000000E+00  0.39999999673E+01  0.40000000000E+01  0.51109989000E-03 0.  1.
     -623   -1    0    0    0    0  0.00000000000E+00  0.00000000000E+00  0.12525980253E-10  0.17130000000E+03  0.17130000000E+03 0. -1.
       11    1    1    2    0    0  0.18795882444E-02 -0.83781451772E-03  0.97493144559E-02  0.99772310002E-02  0.51109989000E-03 0.  1.
     -623    1    1    2    0    0 -0.88931603321E-03 -0.48181539063E-03  0.42873369986E-03  0.17130000000E+03  0.17130000000E+03 0. -1.
      622    1    1    2    0    0 -0.99027221118E-03  0.13196299083E-02  0.39898219192E+01  0.39900227655E+01  0.40000000000E-01 0.  1.
</event>
<event>
 5   0  0.6200596E+07  0.9118800E+02  0.7818608E-02  0.1180000E+00
       11   -1    0    0    0    0  0.00000000000E+00  0.00000000000E+00  0.39999999673E+01  0.40000000000E+01  0.51109989000E-03 0.  1.
     -623   -1    0    0    0    0  0.00000000000E+00  0.00000000000E+00  0.12525980253E-10  0.17130000000E+03  0.17130000000E+03 0.  1.
       11    1    1    2    0    0 -0.15827297226E-01  0.12757331208E-01  0.19916520439E+01  0.19917558530E+01  0.51109989000E-03 0.  1.
     -623    1    1    2    0    0  0.11925265003E-01 -0.32766209231E-01  0.60921671113E-03  0.17130000355E+03  0.17130000000E+03 0.  1.
      622    1    1    2    0    0  0.39020322235E-02  0.20008878024E-01  0.20077387067E+01  0.20082405970E+01  0.40000000000E-01 0.  1.
</event>
<event>
 5   0  0.6200596E+07  0.9118800E+02  0.7818608E-02  0.1180000E+00
       11   -1    0    0    0    0  0.00000000000E+00  0.00000000000E+00  0.39999999673E+01  0.40000000000E+01  0.51109989000E-03 0. -1.
     -623   -1    0    0    0    0  0.00000000000E+00  0.00000000000E+00  0.12525980253E-10  0.17130000000E+03  0.17130000000E+03 0.  1.
       11    1    1    2    0    0  0.54159605544E-03  0.82159879979E-02  0.13119626280E+00  0.13145537790E+00  0.51109989000E-03 0. -1.
     -623    1    1    2    0    0  0.47561988666E-02 -0.62820855498E-03  0.47702145105E-03  0.17130000007E+03  0.17130000000E+03 0.  1.
      622    1    1    2    0    0 -0.52977949220E-02 -0.75877794429E-02  0.38683266831E+01  0.38685445543E+01  0.40000000000E-01 0. -1.
</event>
<event>
 5   0  0.6200596E+07  0.9118800E+02  0.7818608E-02  0.1180000E+00
       11   -1    0    0    0    0  0.00000000000E+00  0.00000000000E+00  0.39999999673E+01  0.40000000000E+01  0.51109989000E-03 0. -1.
     -623   -1    0    0    0    0  0.00000000000E+00  0.00000000000E+00  0.12525980253E-10  0.17130000000E+03  0.17130000000E+03 0. -1.
       11    1    1    2    0    0  0.34529913183E-02 -0.60396330855E-01  0.22174034172E+01  0.22182285310E+01  0.51109989000E-03 0. -1.
     -623    1    1    2    0    0 -0.76936559171E-02  0.34896725231E-02  0.21886124806E-02  0.17130000022E+03  0.17130000000E+03 0. -1.
      622    1    1    2    0    0  0.42406645987E-02  0.56906658332E-01  0.17804079377E+01  0.17817712467E+01  0.40000000000E-01 0.  0.
</event>
<event>
 5   0  0.6200596E+07  0.9118800E+02  0.7818608E-02  0.1180000E+00
       11   -1    0    0    0    0  0.00000000000E+00  0.00000000000E+00  0.39999999673E+01  0.40000000000E+01  0.51109989000E-03 0. -1.
     -623   -1    0    0    0    0  0.00000000000E+00  0.00000000000E+00  0.12525980253E-10  0.17130000000E+03  0.17130000000E+03 0.  1.
       11    1    1    2    0    0 -0.48675540989E-02  0.25814835330E-02  0.14654630501E-01  0.15664499895E-01  0.51109989000E-03 0. -1.
     -623    1    1    2    0    0  0.57125401242E-03 -0.58136192632E-02  0.12143595326E-02  0.17130000010E+03  0.17130000000E+03 0.  1.
      622    1    1    2    0    0  0.42963000865E-02  0.32321357302E-02  0.39841309773E+01  0.39843353962E+01  0.40000000000E-01 0. -1.
</event>
<event>
 5   0  0.6200596E+07  0.9118800E+02  0.7818608E-02  0.1180000E+00
       11   -1    0    0    0    0  0.00000000000E+00  0.00000000000E+00  0.39999999673E+01  0.40000000000E+01  0.51109989000E-03 0. -1.
     -623   -1    0    0    0    0  0.00000000000E+00  0.00000000000E+00  0.12525980253E-10  0.17130000000E+03  0.17130000000E+03 0. -1.
       11    1    1    2    0    0 -0.14685880494E-01 -0.10183885673E-01  0.15046346922E+01  0.15047409095E+01  0.51109989000E-03 0. -1.
     -623    1    1    2    0    0  0.25311394100E-02 -0.14740786254E-02  0.48368391417E-03  0.17130000003E+03  0.17130000000E+03 0. -1.
      622    1    1    2    0    0  0.12154741084E-01  0.11657964298E-01  0.24948815913E+01  0.24952590648E+01  0.40000000000E-01 0.  1.
</event>
<event>
 5   0  0.6200596E+07  0.9118800E+02  0.7818608E-02  0.1180000E+00
       11   -1    0    0    0    0  0.00000000000E+00  0.00000000000E+00  0.39999999673E+01  0.40000000000E+01  0.51109989000E-03 0.  1.
     -623   -1    0    0    0    0  0.00000000000E+00  0.00000000000E+00  0.12525980253E-10  0.17130000000E+03  0.17130000000E+03 0.  1.
       11    1    1    2    0    0  0.48114986717E-02  0.67314058176E-03  0.22327933764E-01  0.22856103886E-01  0.51109989000E-03 0.  1.
     -623    1    1    2    0    0 -0.49768059599E-02 -0.36456493596E-02  0.73051891002E-03  0.17130000011E+03  0.17130000000E+03 0.  1.
      622    1    1    2    0    0  0.16530728817E-03  0.29725087778E-02  0.39769415147E+01  0.39771437835E+01  0.40000000000E-01 0.  1.
</event>
<event>
 5   0  0.6200596E+07  0.9118800E+02  0.7818608E-02  0.1180000E+00
       11   -1    0    0    0    0  0.00000000000E+00  0.00000000000E+00  0.39999999673E+01  0.40000000000E+01  0.51109989000E-03 0.  1.
     -623   -1    0    0    0    0  0.00000000000E+00  0.00000000000E+00  0.12525980253E-10  0.17130000000E+03  0.17130000000E+03 0.  1.
       11    1    1    2    0    0 -0.33633686732E-02  0.56684670403E-02  0.10546857056E+00  0.10567556181E+00  0.51109989000E-03 0.  1.
     -623    1    1    2    0    0  0.13682412851E-01  0.39919289134E-02  0.43863964501E-03  0.17130000059E+03  0.17130000000E+03 0.  1.
      622    1    1    2    0    0 -0.10319044178E-01 -0.96603959537E-02  0.38940927572E+01  0.38943238447E+01  0.40000000000E-01 0.  1.
</event>
<event>
 5   0  0.6200596E+07  0.9118800E+02  0.7818608E-02  0.1180000E+00
       11   -1    0    0    0    0  0.00000000000E+00  0.00000000000E+00  0.39999999673E+01  0.40000000000E+01  0.51109989000E-03 0. -1.
     -623   -1    0    0    0    0  0.00000000000E+00  0.00000000000E+00  0.12525980253E-10  0.17130000000E+03  0.17130000000E+03 0.  1.
       11    1    1    2    0    0 -0.13970121747E-02 -0.14459531982E-02  0.22375013669E-01  0.22470978669E-01  0.51109989000E-03 0. -1.
     -623    1    1    2    0    0 -0.21010403227E-02 -0.47956864349E-02  0.30358341819E-03  0.17130000008E+03  0.17130000000E+03 0.  1.
      622    1    1    2    0    0  0.34980524974E-02  0.62416396330E-02  0.39773213703E+01  0.39775289410E+01  0.40000000000E-01 0. -1.
</event>
<event>
 5   0  0.6200596E+07  0.9118800E+02  0.7818608E-02  0.1180000E+00
       11   -1    0    0    0    0  0.00000000000E+00  0.00000000000E+00  0.39999999673E+01  0.40000000000E+01  0.51109989000E-03 0.  1.
     -623   -1    0    0    0    0  0.00000000000E+00  0.00000000000E+00  0.12525980253E-10  0.17130000000E+03  0.17130000000E+03 0. -1.
       11    1    1    2    0    0  0.15793737730E-02  0.19480593888E-02  0.88888560119E-02  0.92499913675E-02  0.51109989000E-03 0.  1.
     -623    1    1    2    0    0 -0.85674593655E-03 -0.31086569638E-02  0.56183679526E-03  0.17130000003E+03  0.17130000000E+03 0. -1.
      622    1    1    2    0    0 -0.72262783641E-03  0.11605975750E-02  0.39905492746E+01  0.39907499774E+01  0.40000000000E-01 0.  1.
</event>
<event>
 5   0  0.6200596E+07  0.9118800E+02  0.7818608E-02  0.1180000E+00
       11   -1    0    0    0    0  0.00000000000E+00  0.00000000000E+00  0.39999999673E+01  0.40000000000E+01  0.51109989000E-03 0.  1.
     -623   -1    0    0    0    0  0.00000000000E+00  0.00000000000E+00  0.12525980253E-10  0.17130000000E+03  0.17130000000E+03 0.  1.
       11    1    1    2    0    0 -0.31514462821E-02 -0.92565007101E-03  0.59548360639E-01  0.59641067379E-01  0.51109989000E-03 0.  1.
     -623    1    1    2    0    0 -0.13143126753E-02  0.17812606357E-02  0.29834472093E-03  0.17130000001E+03  0.17130000000E+03 0.  1.
      622    1    1    2    0    0  0.44657589574E-02 -0.85561056467E-03  0.39401532620E+01  0.39403589181E+01  0.40000000000E-01 0.  1.
</event>
<event>
 5   0  0.6200596E+07  0.9118800E+02  0.7818608E-02  0.1180000E+00
       11   -1    0    0    0    0  0.00000000000E+00  0.00000000000E+00  0.39999999673E+01  0.40000000000E+01  0.51109989000E-03 0.  1.
     -623   -1    0    0    0    0  0.00000000000E+00  0.00000000000E+00  0.12525980253E-10  0.17130000000E+03  0.17130000000E+03 0.  1.
       11    1    1    2    0    0 -0.26772115788E-02  0.26486480788E-02  0.35916988452E-01  0.36117503767E-01  0.51109989000E-03 0.  1.
     -623    1    1    2    0    0  0.16332523490E-02  0.84803280539E-03  0.40400033695E-03  0.17130000001E+03  0.17130000000E+03 0.  1.
      622    1    1    2    0    0  0.10439592298E-02 -0.34966808842E-02  0.39636789786E+01  0.39638824859E+01  0.40000000000E-01 0.  1.
</event>
<event>
 5   0  0.6200596E+07  0.9118800E+02  0.7818608E-02  0.1180000E+00
       11   -1    0    0    0    0  0.00000000000E+00  0.00000000000E+00  0.39999999673E+01  0.40000000000E+01  0.51109989000E-03 0.  1.
     -623   -1    0    0    0    0  0.00000000000E+00  0.00000000000E+00  0.12525980253E-10  0.17130000000E+03  0.17130000000E+03 0. -1.
       11    1    1    2    0    0 -0.10307309710E-01  0.91618423958E-03  0.13344954758E+00  0.13385112251E+00  0.51109989000E-03 0.  1.
     -623    1    1    2    0    0 -0.68029724341E-03 -0.97424123323E-03  0.62409205586E-03  0.17130000001E+03  0.17130000000E+03 0. -1.
      622    1    1    2    0    0  0.10987606954E-01  0.58056993649E-04  0.38659263277E+01  0.38661488722E+01  0.40000000000E-01 0.  1.
</event>
<event>
 5   0  0.6200596E+07  0.9118800E+02  0.7818608E-02  0.1180000E+00
       11   -1    0    0    0    0  0.00000000000E+00  0.00000000000E+00  0.39999999673E+01  0.40000000000E+01  0.51109989000E-03 0.  1.
     -623   -1    0    0    0    0  0.00000000000E+00  0.00000000000E+00  0.12525980253E-10  0.17130000000E+03  0.17130000000E+03 0.  1.
       11    1    1    2    0    0 -0.15974588102E-01 -0.22839102714E-02  0.18299406992E+01  0.18300119201E+01  0.51109989000E-03 0.  1.
     -623    1    1    2    0    0  0.75605006416E-03 -0.32990392567E-02  0.50047761773E-03  0.17130000003E+03  0.17130000000E+03 0.  1.
      622    1    1    2    0    0  0.15218538038E-01  0.55829495281E-02  0.21695587905E+01  0.21699880457E+01  0.40000000000E-01 0. -1.
</event>
<event>
 5   0  0.6200596E+07  0.9118800E+02  0.7818608E-02  0.1180000E+00
       11   -1    0    0    0    0  0.00000000000E+00  0.00000000000E+00  0.39999999673E+01  0.40000000000E+01  0.51109989000E-03 0. -1.
     -623   -1    0    0    0    0  0.00000000000E+00  0.00000000000E+00  0.12525980253E-10  0.17130000000E+03  0.17130000000E+03 0. -1.
       11    1    1    2    0    0 -0.51355764705E-02 -0.40027675414E-02  0.20237797079E+01  0.20237902470E+01  0.51109989000E-03 0. -1.
     -623    1    1    2    0    0 -0.20161543644E-01 -0.55252524882E-02  0.60156781046E-03  0.17130000128E+03  0.17130000000E+03 0. -1.
      622    1    1    2    0    0  0.25297120114E-01  0.95280200295E-02  0.19756186916E+01  0.19762084764E+01  0.40000000000E-01 0. -1.
</event>
<event>
 5   0  0.6200596E+07  0.9118800E+02  0.7818608E-02  0.1180000E+00
       11   -1    0    0    0    0  0.00000000000E+00  0.00000000000E+00  0.39999999673E+01  0.40000000000E+01  0.51109989000E-03 0. -1.
     -623   -1    0    0    0    0  0.00000000000E+00  0.00000000000E+00  0.12525980253E-10  0.17130000000E+03  0.17130000000E+03 0.  1.
       11    1    1    2    0    0  0.13216420254E-01  0.78048579210E-02  0.28094041384E+00  0.28135985308E+00  0.51109989000E-03 0. -1.
     -623    1    1    2    0    0  0.14421816947E-02  0.69535103522E-02  0.69287537961E-03  0.17130000015E+03  0.17130000000E+03 0.  1.
      622    1    1    2    0    0 -0.14658601949E-01 -0.14758368273E-01  0.37183666781E+01  0.37186399983E+01  0.40000000000E-01 0. -1.
</event>
<event>
 5   0  0.6200596E+07  0.9118800E+02  0.7818608E-02  0.1180000E+00
       11   -1    0    0    0    0  0.00000000000E+00  0.00000000000E+00  0.39999999673E+01  0.40000000000E+01  0.51109989000E-03 0. -1.
     -623   -1    0    0    0    0  0.00000000000E+00  0.00000000000E+00  0.12525980253E-10  0.17130000000E+03  0.17130000000E+03 0. -1.
       11    1    1    2    0    0 -0.15243319081E-01 -0.11869027894E-01  0.31825960883E+00  0.31884584431E+00  0.51109989000E-03 0. -1.
     -623    1    1    2    0    0  0.92454675982E-02  0.13850428168E-01  0.80976364502E-03  0.17130000081E+03  0.17130000000E+03 0. -1.
      622    1    1    2    0    0  0.59978514825E-02 -0.19814002734E-02  0.36809305949E+01  0.36811533443E+01  0.40000000000E-01 0. -1.
</event>
<event>
 5   0  0.6200596E+07  0.9118800E+02  0.7818608E-02  0.1180000E+00
       11   -1    0    0    0    0  0.00000000000E+00  0.00000000000E+00  0.39999999673E+01  0.40000000000E+01  0.51109989000E-03 0.  1.
     -623   -1    0    0    0    0  0.00000000000E+00  0.00000000000E+00  0.12525980253E-10  0.17130000000E+03  0.17130000000E+03 0. -1.
       11    1    1    2    0    0  0.17270874941E-03  0.21595713331E-02  0.20579954544E-01  0.20699983776E-01  0.51109989000E-03 0.  1.
     -623    1    1    2    0    0 -0.13453954298E-02 -0.19426780088E-03  0.32170588991E-03  0.17130000001E+03  0.17130000000E+03 0. -1.
      622    1    1    2    0    0  0.11726866804E-02 -0.19653035322E-02  0.39790983069E+01  0.39793000105E+01  0.40000000000E-01 0.  1.
</event>
<event>
 5   0  0.6200596E+07  0.9118800E+02  0.7818608E-02  0.1180000E+00
       11   -1    0    0    0    0  0.00000000000E+00  0.00000000000E+00  0.39999999673E+01  0.40000000000E+01  0.51109989000E-03 0.  1.
     -623   -1    0    0    0    0  0.00000000000E+00  0.00000000000E+00  0.12525980253E-10  0.17130000000E+03  0.17130000000E+03 0.  1.
       11    1    1    2    0    0  0.30872133711E-01 -0.26265018729E-01  0.28867892490E+01  0.28870738420E+01  0.51109989000E-03 0.  1.
     -623    1    1    2    0    0 -0.11830335608E-01  0.10067288577E-01  0.12853170337E-02  0.17130000071E+03  0.17130000000E+03 0.  1.
      622    1    1    2    0    0 -0.19041798102E-01  0.16197730152E-01  0.11119254013E+01  0.11129254488E+01  0.40000000000E-01 0.  0.
</event>
<event>
 5   0  0.6200596E+07  0.9118800E+02  0.7818608E-02  0.1180000E+00
       11   -1    0    0    0    0  0.00000000000E+00  0.00000000000E+00  0.39999999673E+01  0.40000000000E+01  0.51109989000E-03 0.  1.
     -623   -1    0    0    0    0  0.00000000000E+00  0.00000000000E+00  0.12525980253E-10  0.17130000000E+03  0.17130000000E+03 0.  1.
       11    1    1    2    0    0 -0.79121610941E-02 -0.94356889608E-02  0.42514577280E-01  0.44264941233E-01  0.51109989000E-03 0.  1.
     -623    1    1    2    0    0  0.12665952836E-01  0.21716521742E-02  0.19625943037E-02  0.17130000049E+03  0.17130000000E+03 0.  1.
      622    1    1    2    0    0 -0.47537917422E-02  0.72640367866E-02  0.39555227958E+01  0.39557345655E+01  0.40000000000E-01 0.  1.
</event>
<event>
 5   0  0.6200596E+07  0.9118800E+02  0.7818608E-02  0.1180000E+00
       11   -1    0    0    0    0  0.00000000000E+00  0.00000000000E+00  0.39999999673E+01  0.40000000000E+01  0.51109989000E-03 0.  1.
     -623   -1    0    0    0    0  0.00000000000E+00  0.00000000000E+00  0.12525980253E-10  0.17130000000E+03  0.17130000000E+03 0.  1.
       11    1    1    2    0    0  0.45926438913E-02 -0.12276247588E-01  0.50202485692E+00  0.50219619355E+00  0.51109989000E-03 0.  1.
     -623    1    1    2    0    0 -0.24534049192E-03  0.31293584360E-02  0.41471795821E-03  0.17130000003E+03  0.17130000000E+03 0.  1.
      622    1    1    2    0    0 -0.43473033994E-02  0.91468891521E-02  0.34975603925E+01  0.34978037772E+01  0.40000000000E-01 0.  0.
</event>
<event>
 5   0  0.6200596E+07  0.9118800E+02  0.7818608E-02  0.1180000E+00
       11   -1    0    0    0    0  0.00000000000E+00  0.00000000000E+00  0.39999999673E+01  0.40000000000E+01  0.51109989000E-03 0. -1.
     -623   -1    0    0    0    0  0.00000000000E+00  0.00000000000E+00  0.12525980253E-10  0.17130000000E+03  0.17130000000E+03 0. -1.
       11    1    1    2    0    0  0.55439690513E-02 -0.69223108446E-02  0.22978930992E+01  0.22979102703E+01  0.51109989000E-03 0. -1.
     -623    1    1    2    0    0 -0.19491712685E-02 -0.11446610786E-02  0.51014865226E-03  0.17130000002E+03  0.17130000000E+03 0. -1.
      622    1    1    2    0    0 -0.35947977828E-02  0.80669719232E-02  0.17015967196E+01  0.17020897140E+01  0.40000000000E-01 0. -1.
</event>
<event>
 5   0  0.6200596E+07  0.9118800E+02  0.7818608E-02  0.1180000E+00
       11   -1    0    0    0    0  0.00000000000E+00  0.00000000000E+00  0.39999999673E+01  0.40000000000E+01  0.51109989000E-03 0. -1.
     -623   -1    0    0    0    0  0.00000000000E+00  0.00000000000E+00  0.12525980253E-10  0.17130000000E+03  0.17130000000E+03 0. -1.
       11    1    1    2    0    0  0.23797296367E-01  0.53560458636E-02  0.11520463639E+01  0.11523046838E+01  0.51109989000E-03 0. -1.
     -623    1    1    2    0    0 -0.85327961243E-02 -0.41542988117E-02  0.58066304877E-03  0.17130000026E+03  0.17130000000E+03 0. -1.
      622    1    1    2    0    0 -0.15264500243E-01 -0.12017470519E-02  0.28473729404E+01  0.28476950523E+01  0.40000000000E-01 0.  0.
</event>
<event>
 5   0  0.6200596E+07  0.9118800E+02  0.7818608E-02  0.1180000E+00
       11   -1    0    0    0    0  0.00000000000E+00  0.00000000000E+00  0.39999999673E+01  0.40000000000E+01  0.51109989000E-03 0.  1.
     -623   -1    0    0    0    0  0.00000000000E+00  0.00000000000E+00  0.12525980253E-10  0.17130000000E+03  0.17130000000E+03 0.  1.
       11    1    1    2    0    0  0.28510044870E-02 -0.11209230877E-02  0.27738568028E+00  0.27740306693E+00  0.51109989000E-03 0.  1.
     -623    1    1    2    0    0  0.16697524170E-03  0.88945179190E-03  0.23349713387E-03  0.17130000000E+03  0.17130000000E+03 0.  1.
      622    1    1    2    0    0 -0.30179797287E-02  0.23147129576E-03  0.37223807899E+01  0.37225969305E+01  0.40000000000E-01 0.  1.
</event>
<event>
 5   0  0.6200596E+07  0.9118800E+02  0.7818608E-02  0.1180000E+00
       11   -1    0    0    0    0  0.00000000000E+00  0.00000000000E+00  0.39999999673E+01  0.40000000000E+01  0.51109989000E-03 0.  1.
     -623   -1    0    0    0    0  0.00000000000E+00  0.00000000000E+00  0.12525980253E-10  0.17130000000E+03  0.17130000000E+03 0.  1.
       11    1    1    2    0    0  0.13642023509E-01  0.37940058810E-01  0.15732021513E+01  0.15737187877E+01  0.51109989000E-03 0.  1.
     -623    1    1    2    0    0  0.36627414641E-02 -0.45992967269E-02  0.11372974356E-02  0.17130000010E+03  0.17130000000E+03 0.  1.
      622    1    1    2    0    0 -0.17304764973E-01 -0.33340762083E-01  0.24256605186E+01  0.24262811076E+01  0.40000000000E-01 0.  1.
</event>
<event>
 5   0  0.6200596E+07  0.9118800E+02  0.7818608E-02  0.1180000E+00
       11   -1    0    0    0    0  0.00000000000E+00  0.00000000000E+00  0.39999999673E+01  0.40000000000E+01  0.51109989000E-03 0.  1.
     -623   -1    0    0    0    0  0.00000000000E+00  0.00000000000E+00  0.12525980253E-10  0.17130000000E+03  0.17130000000E+03 0.  1.
       11    1    1    2    0    0 -0.41419834969E-02  0.43800642884E-02  0.69893484972E+00  0.69896103351E+00  0.51109989000E-03 0.  1.
     -623    1    1    2    0    0  0.10540738892E-01 -0.81475497064E-02  0.27737855883E-03  0.17130000052E+03  0.17130000000E+03 0.  1.
      622    1    1    2    0    0 -0.63987553956E-02  0.37674854180E-02  0.33007877391E+01  0.33010384482E+01  0.40000000000E-01 0.  1.
</event>
<event>
 5   0  0.6200596E+07  0.9118800E+02  0.7818608E-02  0.1180000E+00
       11   -1    0    0    0    0  0.00000000000E+00  0.00000000000E+00  0.39999999673E+01  0.40000000000E+01  0.51109989000E-03 0. -1.
     -623   -1    0    0    0    0  0.00000000000E+00  0.00000000000E+00  0.12525980253E-10  0.17130000000E+03  0.17130000000E+03 0. -1.
       11    1    1    2    0    0  0.38260614396E-02  0.75736840634E-03  0.12936531323E-01  0.13521368908E-01  0.51109989000E-03 0. -1.
     -623    1    1    2    0    0 -0.33381324493E-02 -0.44142676171E-02  0.78728680339E-03  0.17130000009E+03  0.17130000000E+03 0. -1.
      622    1    1    2    0    0 -0.48792899030E-03  0.36568992107E-02  0.39862761492E+01  0.39864785399E+01  0.40000000000E-01 0. -1.
</event>
<event>
 5   0  0.6200596E+07  0.9118800E+02  0.7818608E-02  0.1180000E+00
       11   -1    0    0    0    0  0.00000000000E+00  0.00000000000E+00  0.39999999673E+01  0.40000000000E+01  0.51109989000E-03 0.  1.
     -623   -1    0    0    0    0  0.00000000000E+00  0.00000000000E+00  0.12525980253E-10  0.17130000000E+03  0.17130000000E+03 0.  1.
       11    1    1    2    0    0  0.13933976385E-01  0.63101546509E-02  0.44418266422E+00  0.44444625565E+00  0.51109989000E-03 0.  1.
     -623    1    1    2    0    0 -0.81966805952E-02  0.50242020129E-02  0.51153276905E-03  0.17130000027E+03  0.17130000000E+03 0.  1.
      622    1    1    2    0    0 -0.57372957893E-02 -0.11334356664E-01  0.35553057704E+01  0.35555534738E+01  0.40000000000E-01 0.  1.
</event>
<event>
 5   0  0.6200596E+07  0.9118800E+02  0.7818608E-02  0.1180000E+00
       11   -1    0    0    0    0  0.00000000000E+00  0.00000000000E+00  0.39999999673E+01  0.40000000000E+01  0.51109989000E-03 0.  1.
     -623   -1    0    0    0    0  0.00000000000E+00  0.00000000000E+00  0.12525980253E-10  0.17130000000E+03  0.17130000000E+03 0. -1.
       11    1    1    2    0    0 -0.87837010492E-03  0.70382628963E-03  0.38306303479E-01  0.38326244453E-01  0.51109989000E-03 0.  1.
     -623    1    1    2    0    0  0.76993556502E-03  0.10439531031E-02  0.22224042652E-03  0.17130000001E+03  0.17130000000E+03 0. -1.
      622    1    1    2    0    0  0.10843453991E-03 -0.17477793927E-02  0.39614714235E+01  0.39616737505E+01  0.40000000000E-01 0.  1.
</event>
<event>
 5   0  0.6200596E+07  0.9118800E+02  0.7818608E-02  0.1180000E+00
       11   -1    0    0    0    0  0.00000000000E+00  0.00000000000E+00  0.39999999673E+01  0.40000000000E+01  0.51109989000E-03 0.  1.
     -623   -1    0    0    0    0  0.00000000000E+00  0.00000000000E+00  0.12525980253E-10  0.17130000000E+03  0.17130000000E+03 0. -1.
       11    1    1    2    0    0 -0.90794735042E-03 -0.42200898637E-03  0.17284841551E-02  0.20618778026E-02  0.51109989000E-03 0.  1.
     -623    1    1    2    0    0 -0.30522597663E-03  0.88000489533E-03  0.53368283895E-03  0.17130000000E+03  0.17130000000E+03 0. -1.
      622    1    1    2    0    0  0.12131733270E-02 -0.45799590896E-03  0.39977378004E+01  0.39979381188E+01  0.40000000000E-01 0.  1.
</event>
<event>
 5   0  0.6200596E+07  0.9118800E+02  0.7818608E-02  0.1180000E+00
       11   -1    0    0    0    0  0.00000000000E+00  0.00000000000E+00  0.39999999673E+01  0.40000000000E+01  0.51109989000E-03 0.  1.
     -623   -1    0    0    0    0  0.00000000000E+00  0.00000000000E+00  0.12525980253E-10  0.17130000000E+03  0.17130000000E+03 0. -1.
       11    1    1    2    0    0  0.22114893866E-02  0.46843503670E-02  0.13529563808E+00  0.13539573379E+00  0.51109989000E-03 0.  1.
     -623    1    1    2    0    0 -0.15049783401E-02 -0.15368973574E-02  0.30843570382E-03  0.17130000001E+03  0.17130000000E+03 0. -1.
      622    1    1    2    0    0 -0.70651104653E-03 -0.31474530096E-02  0.38643958936E+01  0.38646042524E+01  0.40000000000E-01 0.  1.
</event>
<event>
 5   0  0.6200596E+07  0.9118800E+02  0.7818608E-02  0.1180000E+00
       11   -1    0    0    0    0  0.00000000000E+00  0.00000000000E+00  0.39999999673E+01  0.40000000000E+01  0.51109989000E-03 0. -1.
     -623   -1    0    0    0    0  0.00000000000E+00  0.00000000000E+00  0.12525980253E-10  0.17130000000E+03  0.17130000000E+03 0. -1.
       11    1    1    2    0    0  0.73131983035E-02  0.98398277952E-02  0.75573306744E-01  0.76562987105E-01  0.51109989000E-03 0. -1.
     -623    1    1    2    0    0  0.99128949545E-02 -0.12564613945E-01  0.12330724672E-02  0.17130000075E+03  0.17130000000E+03 0. -1.
      622    1    1    2    0    0 -0.17226093258E-01  0.27247861494E-02  0.39231935881E+01  0.39234362608E+01  0.40000000000E-01 0. -1.
</event>
<event>
 5   0  0.6200596E+07  0.9118800E+02  0.7818608E-02  0.1180000E+00
       11   -1    0    0    0    0  0.00000000000E+00  0.00000000000E+00  0.39999999673E+01  0.40000000000E+01  0.51109989000E-03 0.  1.
     -623   -1    0    0    0    0  0.00000000000E+00  0.00000000000E+00  0.12525980253E-10  0.17130000000E+03  0.17130000000E+03 0.  1.
       11    1    1    2    0    0  0.16073581751E-02  0.19074646447E-02  0.38277607718E-01  0.38362201391E-01  0.51109989000E-03 0.  1.
     -623    1    1    2    0    0 -0.35320290095E-03  0.13918571960E-02  0.28808158880E-03  0.17130000001E+03  0.17130000000E+03 0.  1.
      622    1    1    2    0    0 -0.12541552742E-02 -0.32993218407E-02  0.39614342781E+01  0.39616377923E+01  0.40000000000E-01 0.  1.
</event>
<event>
 5   0  0.6200596E+07  0.9118800E+02  0.7818608E-02  0.1180000E+00
       11   -1    0    0    0    0  0.00000000000E+00  0.00000000000E+00  0.39999999673E+01  0.40000000000E+01  0.51109989000E-03 0.  1.
     -623   -1    0    0    0    0  0.00000000000E+00  0.00000000000E+00  0.12525980253E-10  0.17130000000E+03  0.17130000000E+03 0.  1.
       11    1    1    2    0    0 -0.14303291713E-02  0.35686094396E-02  0.36728450227E-01  0.36932656176E-01  0.51109989000E-03 0.  1.
     -623    1    1    2    0    0  0.15504342444E-02  0.50419701718E-03  0.40814525725E-03  0.17130000001E+03  0.17130000000E+03 0.  1.
      622    1    1    2    0    0 -0.12010507314E-03 -0.40728064568E-02  0.39628633719E+01  0.39630673356E+01  0.40000000000E-01 0.  1.
</event>
<event>
 5   0  0.6200596E+07  0.9118800E+02  0.7818608E-02  0.1180000E+00
       11   -1    0    0    0    0  0.00000000000E+00  0.00000000000E+00  0.39999999673E+01  0.40000000000E+01  0.51109989000E-03 0. -1.
     -623   -1    0    0    0    0  0.00000000000E+00  0.00000000000E+00  0.12525980253E-10  0.17130000000E+03  0.17130000000E+03 0. -1.
       11    1    1    2    0    0 -0.31740971931E-02  0.29903394749E-02  0.48081675038E+00  0.48083679736E+00  0.51109989000E-03 0. -1.
     -623    1    1    2    0    0 -0.47010409071E-03 -0.52590692849E-03  0.25010000997E-03  0.17130000000E+03  0.17130000000E+03 0. -1.
      622    1    1    2    0    0  0.36442012838E-02 -0.24644325464E-02  0.35189331170E+01  0.35191632010E+01  0.40000000000E-01 0. -1.
</event>
<event>
 5   0  0.6200596E+07  0.9118800E+02  0.7818608E-02  0.1180000E+00
       11   -1    0    0    0    0  0.00000000000E+00  0.00000000000E+00  0.39999999673E+01  0.40000000000E+01  0.51109989000E-03 0.  1.
     -623   -1    0    0    0    0  0.00000000000E+00  0.00000000000E+00  0.12525980253E-10  0.17130000000E+03  0.17130000000E+03 0. -1.
       11    1    1    2    0    0  0.50198613865E-03 -0.32561864937E-03  0.44684661871E-01  0.44691590323E-01  0.51109989000E-03 0.  1.
     -623    1    1    2    0    0 -0.13270849562E-02  0.20196761048E-03  0.20925419742E-03  0.17130000001E+03  0.17130000000E+03 0. -1.
      622    1    1    2    0    0  0.82509881758E-03  0.12365103889E-03  0.39551060513E+01  0.39553084043E+01  0.40000000000E-01 0.  1.
</event>
<event>
 5   0  0.6200596E+07  0.9118800E+02  0.7818608E-02  0.1180000E+00
       11   -1    0    0    0    0  0.00000000000E+00  0.00000000000E+00  0.39999999673E+01  0.40000000000E+01  0.51109989000E-03 0.  1.
     -623   -1    0    0    0    0  0.00000000000E+00  0.00000000000E+00  0.12525980253E-10  0.17130000000E+03  0.17130000000E+03 0.  1.
       11    1    1    2    0    0  0.65631962672E-02 -0.19518014226E-01 -0.62137281610E-02  0.21515112475E-01  0.51109989000E-03 0.  1.
     -623    1    1    2    0    0 -0.60214722057E-02  0.27455312622E-01  0.27942434891E-01  0.17130000459E+03  0.17130000000E+03 0.  1.
      622    1    1    2    0    0 -0.54172406144E-03 -0.79372983959E-02  0.39782712606E+01  0.39784803025E+01  0.40000000000E-01 0.  1.
</event>
<event>
 5   0  0.6200596E+07  0.9118800E+02  0.7818608E-02  0.1180000E+00
       11   -1    0    0    0    0  0.00000000000E+00  0.00000000000E+00  0.39999999673E+01  0.40000000000E+01  0.51109989000E-03 0.  1.
     -623   -1    0    0    0    0  0.00000000000E+00  0.00000000000E+00  0.12525980253E-10  0.17130000000E+03  0.17130000000E+03 0.  1.
       11    1    1    2    0    0  0.92400175662E-01 -0.82546176639E-01  0.41883892307E+00  0.43678137373E+00  0.51109989000E-03 0.  1.
     -623    1    1    2    0    0 -0.76563608484E-02 -0.69933889848E-02  0.20301973733E-01  0.17130000152E+03  0.17130000000E+03 0.  1.
      622    1    1    2    0    0 -0.84743814813E-01  0.89539565623E-01  0.35608590706E+01  0.35632171093E+01  0.40000000000E-01 0.  1.
</event>
<event>
 5   0  0.6200596E+07  0.9118800E+02  0.7818608E-02  0.1180000E+00
       11   -1    0    0    0    0  0.00000000000E+00  0.00000000000E+00  0.39999999673E+01  0.40000000000E+01  0.51109989000E-03 0. -1.
     -623   -1    0    0    0    0  0.00000000000E+00  0.00000000000E+00  0.12525980253E-10  0.17130000000E+03  0.17130000000E+03 0. -1.
       11    1    1    2    0    0 -0.62620999199E-03 -0.44214427378E-03  0.19827776101E-01  0.19849170170E-01  0.51109989000E-03 0. -1.
     -623    1    1    2    0    0 -0.29139622229E-03 -0.12097719618E-03  0.22250996561E-03  0.17130000000E+03  0.17130000000E+03 0. -1.
      622    1    1    2    0    0  0.91760621428E-03  0.56312146997E-03  0.39799496813E+01  0.39801508294E+01  0.40000000000E-01 0. -1.
</event>
<event>
 5   0  0.6200596E+07  0.9118800E+02  0.7818608E-02  0.1180000E+00
       11   -1    0    0    0    0  0.00000000000E+00  0.00000000000E+00  0.39999999673E+01  0.40000000000E+01  0.51109989000E-03 0. -1.
     -623   -1    0    0    0    0  0.00000000000E+00  0.00000000000E+00  0.12525980253E-10  0.17130000000E+03  0.17130000000E+03 0. -1.
       11    1    1    2    0    0  0.26511992746E-01  0.10161724624E-01  0.21939359493E+00  0.22122377161E+00  0.51109989000E-03 0. -1.
     -623    1    1    2    0    0 -0.26061818128E-02 -0.11032502371E-01  0.21179703770E-02  0.17130000039E+03  0.17130000000E+03 0. -1.
      622    1    1    2    0    0 -0.23905810933E-01  0.87077774737E-03  0.37784884021E+01  0.37787758402E+01  0.40000000000E-01 0. -1.
</event>
<event>
 5   0  0.6200596E+07  0.9118800E+02  0.7818608E-02  0.1180000E+00
       11   -1    0    0    0    0  0.00000000000E+00  0.00000000000E+00  0.39999999673E+01  0.40000000000E+01  0.51109989000E-03 0. -1.
     -623   -1    0    0    0    0  0.00000000000E+00  0.00000000000E+00  0.12525980253E-10  0.17130000000E+03  0.17130000000E+03 0. -1.
       11    1    1    2    0    0 -0.10778268724E-02 -0.38173640426E-02  0.13059349749E+00  0.13065472355E+00  0.51109989000E-03 0. -1.
     -623    1    1    2    0    0  0.30479872102E-02 -0.58640370961E-03  0.27098834504E-03  0.17130000003E+03  0.17130000000E+03 0. -1.
      622    1    1    2    0    0 -0.19701603379E-02  0.44037677522E-02  0.38691354815E+01  0.38693452481E+01  0.40000000000E-01 0. -1.
</event>
<event>
 5   0  0.6200596E+07  0.9118800E+02  0.7818608E-02  0.1180000E+00
       11   -1    0    0    0    0  0.00000000000E+00  0.00000000000E+00  0.39999999673E+01  0.40000000000E+01  0.51109989000E-03 0. -1.
     -623   -1    0    0    0    0  0.00000000000E+00  0.00000000000E+00  0.12525980253E-10  0.17130000000E+03  0.17130000000E+03 0. -1.
       11    1    1    2    0    0  0.31822056686E-01 -0.28092442994E-01  0.19351652116E+01  0.19356307722E+01  0.51109989000E-03 0. -1.
     -623    1    1    2    0    0 -0.13623678586E-01 -0.18477593862E-01  0.14603392644E-02  0.17130000154E+03  0.17130000000E+03 0. -1.
      622    1    1    2    0    0 -0.18198378100E-01  0.46570036855E-01  0.20633744165E+01  0.20643676833E+01  0.40000000000E-01 0. -1.
</event>
<event>
 5   0  0.6200596E+07  0.9118800E+02  0.7818608E-02  0.1180000E+00
       11   -1    0    0    0    0  0.00000000000E+00  0.00000000000E+00  0.39999999673E+01  0.40000000000E+01  0.51109989000E-03 0.  1.
     -623   -1    0    0    0    0  0.00000000000E+00  0.00000000000E+00  0.12525980253E-10  0.17130000000E+03  0.17130000000E+03 0.  1.
       11    1    1    2    0    0  0.18932649321E-01 -0.93013822400E-02  0.63288915940E+00  0.63324079957E+00  0.51109989000E-03 0.  1.
     -623    1    1    2    0    0 -0.28954713377E-02 -0.45858489656E-02  0.65616235716E-03  0.17130000009E+03  0.17130000000E+03 0.  1.
      622    1    1    2    0    0 -0.16037177983E-01  0.13887231206E-01  0.33664546456E+01  0.33667591133E+01  0.40000000000E-01 0.  1.
</event>
<event>
 5   0  0.6200596E+07  0.9118800E+02  0.7818608E-02  0.1180000E+00
       11   -1    0    0    0    0  0.00000000000E+00  0.00000000000E+00  0.39999999673E+01  0.40000000000E+01  0.51109989000E-03 0. -1.
     -623   -1    0    0    0    0  0.00000000000E+00  0.00000000000E+00  0.12525980253E-10  0.17130000000E+03  0.17130000000E+03 0.  1.
       11    1    1    2    0    0 -0.27803541518E-02  0.90303889615E-03  0.21765103849E-01  0.21966493041E-01  0.51109989000E-03 0. -1.
     -623    1    1    2    0    0  0.42526944666E-02 -0.87862932681E-03  0.40279410097E-03  0.17130000006E+03  0.17130000000E+03 0.  1.
      622    1    1    2    0    0 -0.14723403148E-02 -0.24409569340E-04  0.39778320694E+01  0.39780334514E+01  0.40000000000E-01 0. -1.
</event>
<event>
 5   0  0.6200596E+07  0.9118800E+02  0.7818608E-02  0.1180000E+00
       11   -1    0    0    0    0  0.00000000000E+00  0.00000000000E+00  0.39999999673E+01  0.40000000000E+01  0.51109989000E-03 0.  1.
     -623   -1    0    0    0    0  0.00000000000E+00  0.00000000000E+00  0.12525980253E-10  0.17130000000E+03  0.17130000000E+03 0. -1.
       11    1    1    2    0    0 -0.39921437096E-03  0.88768893586E-03  0.23495047570E-02  0.25939850831E-02  0.51109989000E-03 0.  1.
     -623    1    1    2    0    0 -0.10127877148E-02  0.10411425127E-02  0.44530398349E-03  0.17130000001E+03  0.17130000000E+03 0. -1.
      622    1    1    2    0    0  0.14120020857E-02 -0.19288314485E-02  0.39972051586E+01  0.39974060082E+01  0.40000000000E-01 0.  1.
</event>
<event>
 5   0  0.6200596E+07  0.9118800E+02  0.7818608E-02  0.1180000E+00
       11   -1    0    0    0    0  0.00000000000E+00  0.00000000000E+00  0.39999999673E+01  0.40000000000E+01  0.51109989000E-03 0.  1.
     -623   -1    0    0    0    0  0.00000000000E+00  0.00000000000E+00  0.12525980253E-10  0.17130000000E+03  0.17130000000E+03 0. -1.
       11    1    1    2    0    0  0.81325124370E-03 -0.13306693538E-03  0.41979747139E-02  0.43085145431E-02  0.51109989000E-03 0.  1.
     -623    1    1    2    0    0 -0.41742074619E-03  0.83399804386E-03  0.31081177408E-03  0.17130000000E+03  0.17130000000E+03 0. -1.
      622    1    1    2    0    0 -0.39583049750E-03 -0.70093110848E-03  0.39954911809E+01  0.39956914826E+01  0.40000000000E-01 0.  1.
</event>
<event>
 5   0  0.6200596E+07  0.9118800E+02  0.7818608E-02  0.1180000E+00
       11   -1    0    0    0    0  0.00000000000E+00  0.00000000000E+00  0.39999999673E+01  0.40000000000E+01  0.51109989000E-03 0.  1.
     -623   -1    0    0    0    0  0.00000000000E+00  0.00000000000E+00  0.12525980253E-10  0.17130000000E+03  0.17130000000E+03 0.  1.
       11    1    1    2    0    0 -0.14453932712E-02  0.81971758348E-03  0.87151315778E-02  0.88868351047E-02  0.51109989000E-03 0.  1.
     -623    1    1    2    0    0 -0.55765115954E-04 -0.21276168578E-02  0.37263151758E-03  0.17130000001E+03  0.17130000000E+03 0.  1.
      622    1    1    2    0    0  0.15011583871E-02  0.13078992743E-02  0.39909122043E+01  0.39911131513E+01  0.40000000000E-01 0.  1.
</event>
<event>
 5   0  0.6200596E+07  0.9118800E+02  0.7818608E-02  0.1180000E+00
       11   -1    0    0    0    0  0.00000000000E+00  0.00000000000E+00  0.39999999673E+01  0.40000000000E+01  0.51109989000E-03 0. -1.
     -623   -1    0    0    0    0  0.00000000000E+00  0.00000000000E+00  0.12525980253E-10  0.17130000000E+03  0.17130000000E+03 0.  1.
       11    1    1    2    0    0  0.18589840175E-02 -0.43861006791E-03  0.10426426218E-01  0.10612246939E-01  0.51109989000E-03 0. -1.
     -623    1    1    2    0    0 -0.28518626409E-02  0.26795763248E-03  0.38647674082E-03  0.17130000002E+03  0.17130000000E+03 0.  1.
      622    1    1    2    0    0  0.99287862341E-03  0.17065243543E-03  0.39891870644E+01  0.39893877287E+01  0.40000000000E-01 0. -1.
</event>
<event>
 5   0  0.6200596E+07  0.9118800E+02  0.7818608E-02  0.1180000E+00
       11   -1    0    0    0    0  0.00000000000E+00  0.00000000000E+00  0.39999999673E+01  0.40000000000E+01  0.51109989000E-03 0.  1.
     -623   -1    0    0    0    0  0.00000000000E+00  0.00000000000E+00  0.12525980253E-10  0.17130000000E+03  0.17130000000E+03 0.  1.
       11    1    1    2    0    0  0.67861519591E-02 -0.35446481454E-03  0.58650166145E+00  0.58654124971E+00  0.51109989000E-03 0.  1.
     -623    1    1    2    0    0 -0.36612730359E-03 -0.29255223701E-02  0.28156944139E-03  0.17130000003E+03  0.17130000000E+03 0.  1.
      622    1    1    2    0    0 -0.64200246555E-02  0.32799871847E-02  0.34132167365E+01  0.34134587247E+01  0.40000000000E-01 0.  1.
</event>
<event>
 5   0  0.6200596E+07  0.9118800E+02  0.7818608E-02  0.1180000E+00
       11   -1    0    0    0    0  0.00000000000E+00  0.00000000000E+00  0.39999999673E+01  0.40000000000E+01  0.51109989000E-03 0.  1.
     -623   -1    0    0    0    0  0.00000000000E+00  0.00000000000E+00  0.12525980253E-10  0.17130000000E+03  0.17130000000E+03 0. -1.
       11    1    1    2    0    0  0.75684490445E-02  0.54134300145E-02  0.10397011150E+01  0.10397428799E+01  0.51109989000E-03 0.  1.
     -623    1    1    2    0    0 -0.11553729008E-01  0.81442369954E-02  0.34630731830E-03  0.17130000058E+03  0.17130000000E+03 0. -1.
      622    1    1    2    0    0  0.39852799633E-02 -0.13557667010E-01  0.29599525451E+01  0.29602565365E+01  0.40000000000E-01 0.  1.
</event>
<event>
 5   0  0.6200596E+07  0.9118800E+02  0.7818608E-02  0.1180000E+00
       11   -1    0    0    0    0  0.00000000000E+00  0.00000000000E+00  0.39999999673E+01  0.40000000000E+01  0.51109989000E-03 0.  1.
     -623   -1    0    0    0    0  0.00000000000E+00  0.00000000000E+00  0.12525980253E-10  0.17130000000E+03  0.17130000000E+03 0.  1.
       11    1    1    2    0    0 -0.68688946050E-02 -0.22464472078E-01  0.43330861992E+00  0.43394522182E+00  0.51109989000E-03 0.  1.
     -623    1    1    2    0    0  0.12958665247E-01  0.23473054670E-01  0.86835733714E-03  0.17130000210E+03  0.17130000000E+03 0.  1.
      622    1    1    2    0    0 -0.60897706417E-02 -0.10085825919E-02  0.35658229901E+01  0.35660526776E+01  0.40000000000E-01 0.  1.
</event>
<event>
 5   0  0.6200596E+07  0.9118800E+02  0.7818608E-02  0.1180000E+00
       11   -1    0    0    0    0  0.00000000000E+00  0.00000000000E+00  0.39999999673E+01  0.40000000000E+01  0.51109989000E-03 0.  1.
     -623   -1    0    0    0    0  0.00000000000E+00  0.00000000000E+00  0.12525980253E-10  0.17130000000E+03  0.17130000000E+03 0. -1.
       11    1    1    2    0    0  0.15510891075E-01  0.65215765468E-02  0.66306754449E+00  0.66328119864E+00  0.51109989000E-03 0.  1.
     -623    1    1    2    0    0  0.19820708942E-02  0.20370305193E-02  0.51024583685E-03  0.17130000002E+03  0.17130000000E+03 0. -1.
      622    1    1    2    0    0 -0.17492961969E-01 -0.85586070661E-02  0.33364221770E+01  0.33367187770E+01  0.40000000000E-01 0.  1.
</event>
<event>
 5   0  0.6200596E+07  0.9118800E+02  0.7818608E-02  0.1180000E+00
       11   -1    0    0    0    0  0.00000000000E+00  0.00000000000E+00  0.39999999673E+01  0.40000000000E+01  0.51109989000E-03 0. -1.
     -623   -1    0    0    0    0  0.00000000000E+00  0.00000000000E+00  0.12525980253E-10  0.17130000000E+03  0.17130000000E+03 0. -1.
       11    1    1    2    0    0  0.31221791381E-03  0.20599844074E-02  0.30416781280E-01  0.30492340349E-01  0.51109989000E-03 0. -1.
     -623    1    1    2    0    0  0.86981181969E-03  0.56220880844E-03  0.27811336381E-03  0.17130000000E+03  0.17130000000E+03 0. -1.
      622    1    1    2    0    0 -0.11820297335E-02 -0.26221932159E-02  0.39693050727E+01  0.39695076563E+01  0.40000000000E-01 0. -1.
</event>
<event>
 5   0  0.6200596E+07  0.9118800E+02  0.7818608E-02  0.1180000E+00
       11   -1    0    0    0    0  0.00000000000E+00  0.00000000000E+00  0.39999999673E+01  0.40000000000E+01  0.51109989000E-03 0.  1.
     -623   -1    0    0    0    0  0.00000000000E+00  0.00000000000E+00  0.12525980253E-10  0.17130000000E+03  0.17130000000E+03 0. -1.
       11    1    1    2    0    0 -0.30747774506E-02  0.59726521349E-02  0.10294322161E+00  0.10316343793E+00  0.51109989000E-03 0.  1.
     -623    1    1    2    0    0 -0.12064567990E-02 -0.11880771226E-02  0.43078205946E-03  0.17130000001E+03  0.17130000000E+03 0. -1.
      622    1    1    2    0    0  0.42812342496E-02 -0.47845750123E-02  0.38966259637E+01  0.38968365532E+01  0.40000000000E-01 0.  1.
</event>
<event>
 5   0  0.6200596E+07  0.9118800E+02  0.7818608E-02  0.1180000E+00
       11   -1    0    0    0    0  0.00000000000E+00  0.00000000000E+00  0.39999999673E+01  0.40000000000E+01  0.51109989000E-03 0. -1.
     -623   -1    0    0    0    0  0.00000000000E+00  0.00000000000E+00  0.12525980253E-10  0.17130000000E+03  0.17130000000E+03 0.  1.
       11    1    1    2    0    0  0.10488952839E-02 -0.18493607256E-02  0.25032526735E-01  0.25127851750E-01  0.51109989000E-03 0. -1.
     -623    1    1    2    0    0 -0.54692269099E-03 -0.28237238923E-02  0.29936502351E-03  0.17130000002E+03  0.17130000000E+03 0.  1.
      622    1    1    2    0    0 -0.50197259290E-03  0.46730846179E-02  0.39746680756E+01  0.39748721238E+01  0.40000000000E-01 0. -1.
</event>
<event>
 5   0  0.6200596E+07  0.9118800E+02  0.7818608E-02  0.1180000E+00
       11   -1    0    0    0    0  0.00000000000E+00  0.00000000000E+00  0.39999999673E+01  0.40000000000E+01  0.51109989000E-03 0.  1.
     -623   -1    0    0    0    0  0.00000000000E+00  0.00000000000E+00  0.12525980253E-10  0.17130000000E+03  0.17130000000E+03 0.  1.
       11    1    1    2    0    0 -0.61083316139E-03 -0.11458859015E-02  0.13202301820E-02  0.19210414195E-02  0.51109989000E-03 0.  1.
     -623    1    1    2    0    0  0.74203619781E-03 -0.32329733465E-03  0.80115559768E-03  0.17130000000E+03  0.17130000000E+03 0.  1.
      622    1    1    2    0    0 -0.13120303642E-03  0.14691832362E-02  0.39978785816E+01  0.39980789548E+01  0.40000000000E-01 0.  1.
</event>
<event>
 5   0  0.6200596E+07  0.9118800E+02  0.7818608E-02  0.1180000E+00
       11   -1    0    0    0    0  0.00000000000E+00  0.00000000000E+00  0.39999999673E+01  0.40000000000E+01  0.51109989000E-03 0. -1.
     -623   -1    0    0    0    0  0.00000000000E+00  0.00000000000E+00  0.12525980253E-10  0.17130000000E+03  0.17130000000E+03 0.  1.
       11    1    1    2    0    0 -0.24719270936E-02 -0.47677031388E-02  0.49917195204E-01  0.50207858105E-01  0.51109989000E-03 0. -1.
     -623    1    1    2    0    0  0.61014212160E-02  0.66719729582E-03  0.49708471194E-03  0.17130000011E+03  0.17130000000E+03 0.  1.
      622    1    1    2    0    0 -0.36294941223E-02  0.41005058430E-02  0.39495856874E+01  0.39497920312E+01  0.40000000000E-01 0. -1.
</event>
<event>
 5   0  0.6200596E+07  0.9118800E+02  0.7818608E-02  0.1180000E+00
       11   -1    0    0    0    0  0.00000000000E+00  0.00000000000E+00  0.39999999673E+01  0.40000000000E+01  0.51109989000E-03 0. -1.
     -623   -1    0    0    0    0  0.00000000000E+00  0.00000000000E+00  0.12525980253E-10  0.17130000000E+03  0.17130000000E+03 0.  1.
       11    1    1    2    0    0  0.48066269915E-02 -0.18356844710E-02  0.12634165283E+00  0.12644741145E+00  0.51109989000E-03 0. -1.
     -623    1    1    2    0    0 -0.89852184806E-04  0.76673353058E-03  0.31528170711E-03  0.17130000000E+03  0.17130000000E+03 0.  1.
      622    1    1    2    0    0 -0.47167748067E-02  0.10689509404E-02  0.38733430328E+01  0.38735525865E+01  0.40000000000E-01 0. -1.
</event>
<event>
 5   0  0.6200596E+07  0.9118800E+02  0.7818608E-02  0.1180000E+00
       11   -1    0    0    0    0  0.00000000000E+00  0.00000000000E+00  0.39999999673E+01  0.40000000000E+01  0.51109989000E-03 0.  1.
     -623   -1    0    0    0    0  0.00000000000E+00  0.00000000000E+00  0.12525980253E-10  0.17130000000E+03  0.17130000000E+03 0. -1.
       11    1    1    2    0    0  0.10693288102E-02 -0.62254185893E-03  0.64615931352E-01  0.64629798299E-01  0.51109989000E-03 0.  1.
     -623    1    1    2    0    0  0.11952490575E-04 -0.63024420649E-03  0.21747338542E-03  0.17130000000E+03  0.17130000000E+03 0. -1.
      622    1    1    2    0    0 -0.10812813007E-02  0.12527860654E-02  0.39351665626E+01  0.39353702004E+01  0.40000000000E-01 0.  1.
</event>
<event>
 5   0  0.6200596E+07  0.9118800E+02  0.7818608E-02  0.1180000E+00
       11   -1    0    0    0    0  0.00000000000E+00  0.00000000000E+00  0.39999999673E+01  0.40000000000E+01  0.51109989000E-03 0. -1.
     -623   -1    0    0    0    0  0.00000000000E+00  0.00000000000E+00  0.12525980253E-10  0.17130000000E+03  0.17130000000E+03 0. -1.
       11    1    1    2    0    0  0.94017582923E-02  0.10299403560E-01  0.98418326341E+00  0.98428218919E+00  0.51109989000E-03 0. -1.
     -623    1    1    2    0    0 -0.62130178284E-03 -0.15560025495E-02  0.38964981233E-03  0.17130000001E+03  0.17130000000E+03 0. -1.
      622    1    1    2    0    0 -0.87804565094E-02 -0.87434010108E-02  0.30154270541E+01  0.30157178022E+01  0.40000000000E-01 0.  0.
</event>
<event>
 5   0  0.6200596E+07  0.9118800E+02  0.7818608E-02  0.1180000E+00
       11   -1    0    0    0    0  0.00000000000E+00  0.00000000000E+00  0.39999999673E+01  0.40000000000E+01  0.51109989000E-03 0.  1.
     -623   -1    0    0    0    0  0.00000000000E+00  0.00000000000E+00  0.12525980253E-10  0.17130000000E+03  0.17130000000E+03 0.  1.
       11    1    1    2    0    0  0.40353253551E-01  0.49546551931E-01  0.17036166376E+01  0.17048146982E+01  0.51109989000E-03 0.  1.
     -623    1    1    2    0    0 -0.81212511216E-02  0.29827494501E-03  0.23146288645E-02  0.17130000021E+03  0.17130000000E+03 0.  1.
      622    1    1    2    0    0 -0.32232002429E-01 -0.49844826876E-01  0.22940687009E+01  0.22951850934E+01  0.40000000000E-01 0.  1.
</event>
<event>
 5   0  0.6200596E+07  0.9118800E+02  0.7818608E-02  0.1180000E+00
       11   -1    0    0    0    0  0.00000000000E+00  0.00000000000E+00  0.39999999673E+01  0.40000000000E+01  0.51109989000E-03 0. -1.
     -623   -1    0    0    0    0  0.00000000000E+00  0.00000000000E+00  0.12525980253E-10  0.17130000000E+03  0.17130000000E+03 0. -1.
       11    1    1    2    0    0 -0.15665708715E-01  0.24887472197E-03  0.54632903930E-01  0.56837415335E-01  0.51109989000E-03 0. -1.
     -623    1    1    2    0    0  0.83040373763E-02  0.57929040933E-02  0.24191843295E-02  0.17130000032E+03  0.17130000000E+03 0. -1.
      622    1    1    2    0    0  0.73616713383E-02 -0.60417788152E-02  0.39429478791E+01  0.39431622684E+01  0.40000000000E-01 0. -1.
</event>
<event>
 5   0  0.6200596E+07  0.9118800E+02  0.7818608E-02  0.1180000E+00
       11   -1    0    0    0    0  0.00000000000E+00  0.00000000000E+00  0.39999999673E+01  0.40000000000E+01  0.51109989000E-03 0.  1.
     -623   -1    0    0    0    0  0.00000000000E+00  0.00000000000E+00  0.12525980253E-10  0.17130000000E+03  0.17130000000E+03 0. -1.
       11    1    1    2    0    0  0.16212122002E-02  0.32072778669E-03  0.19157041512E-01  0.19234985223E-01  0.51109989000E-03 0.  1.
     -623    1    1    2    0    0 -0.28974454247E-04  0.37096918867E-03  0.27926171927E-03  0.17130000000E+03  0.17130000000E+03 0. -1.
      622    1    1    2    0    0 -0.15922377460E-02 -0.69169697536E-03  0.39805636641E+01  0.39807650141E+01  0.40000000000E-01 0.  1.
</event>
<event>
 5   0  0.6200596E+07  0.9118800E+02  0.7818608E-02  0.1180000E+00
       11   -1    0    0    0    0  0.00000000000E+00  0.00000000000E+00  0.39999999673E+01  0.40000000000E+01  0.51109989000E-03 0. -1.
     -623   -1    0    0    0    0  0.00000000000E+00  0.00000000000E+00  0.12525980253E-10  0.17130000000E+03  0.17130000000E+03 0. -1.
       11    1    1    2    0    0  0.54812858406E-02 -0.68249719854E-02  0.31698542801E-01  0.32888958258E-01  0.51109989000E-03 0. -1.
     -623    1    1    2    0    0 -0.76614333684E-02  0.70852515398E-02  0.13929771872E-02  0.17130000032E+03  0.17130000000E+03 0. -1.
      622    1    1    2    0    0  0.21801475277E-02 -0.26027955433E-03  0.39669084474E+01  0.39671107182E+01  0.40000000000E-01 0. -1.
</event>
<event>
 5   0  0.6200596E+07  0.9118800E+02  0.7818608E-02  0.1180000E+00
       11   -1    0    0    0    0  0.00000000000E+00  0.00000000000E+00  0.39999999673E+01  0.40000000000E+01  0.51109989000E-03 0.  1.
     -623   -1    0    0    0    0  0.00000000000E+00  0.00000000000E+00  0.12525980253E-10  0.17130000000E+03  0.17130000000E+03 0. -1.
       11    1    1    2    0    0 -0.73473148928E-03 -0.43766762642E-03  0.13850108504E+00  0.13850466837E+00  0.51109989000E-03 0.  1.
     -623    1    1    2    0    0 -0.49826939631E-03 -0.15709195794E-03  0.21097347595E-03  0.17130000000E+03  0.17130000000E+03 0. -1.
      622    1    1    2    0    0  0.12330008856E-02  0.59475958436E-03  0.38612879088E+01  0.38614953307E+01  0.40000000000E-01 0.  1.
</event>
<event>
 5   0  0.6200596E+07  0.9118800E+02  0.7818608E-02  0.1180000E+00
       11   -1    0    0    0    0  0.00000000000E+00  0.00000000000E+00  0.39999999673E+01  0.40000000000E+01  0.51109989000E-03 0.  1.
     -623   -1    0    0    0    0  0.00000000000E+00  0.00000000000E+00  0.12525980253E-10  0.17130000000E+03  0.17130000000E+03 0.  1.
       11    1    1    2    0    0  0.60176899052E-03 -0.23449588539E-02  0.29951024663E-01  0.30053054031E-01  0.51109989000E-03 0.  1.
     -623    1    1    2    0    0  0.77651231393E-03  0.27840141907E-02  0.30380407149E-03  0.17130000002E+03  0.17130000000E+03 0.  1.
      622    1    1    2    0    0 -0.13782813044E-02 -0.43905533684E-03  0.39697451386E+01  0.39699469213E+01  0.40000000000E-01 0.  1.
</event>
<event>
 5   0  0.6200596E+07  0.9118800E+02  0.7818608E-02  0.1180000E+00
       11   -1    0    0    0    0  0.00000000000E+00  0.00000000000E+00  0.39999999673E+01  0.40000000000E+01  0.51109989000E-03 0.  1.
     -623   -1    0    0    0    0  0.00000000000E+00  0.00000000000E+00  0.12525980253E-10  0.17130000000E+03  0.17130000000E+03 0. -1.
       11    1    1    2    0    0 -0.32731480801E-02 -0.58487022166E-03  0.43865268131E-01  0.43994073920E-01  0.51109989000E-03 0.  1.
     -623    1    1    2    0    0  0.27056511148E-02 -0.15480187812E-02  0.33164688080E-03  0.17130000003E+03  0.17130000000E+03 0. -1.
      622    1    1    2    0    0  0.56749696532E-03  0.21328890029E-02  0.39558030523E+01  0.39560058974E+01  0.40000000000E-01 0.  1.
</event>
<event>
 5   0  0.6200596E+07  0.9118800E+02  0.7818608E-02  0.1180000E+00
       11   -1    0    0    0    0  0.00000000000E+00  0.00000000000E+00  0.39999999673E+01  0.40000000000E+01  0.51109989000E-03 0. -1.
     -623   -1    0    0    0    0  0.00000000000E+00  0.00000000000E+00  0.12525980253E-10  0.17130000000E+03  0.17130000000E+03 0.  1.
       11    1    1    2    0    0 -0.51878080624E-02 -0.24753261335E-01  0.53633880177E+00  0.53693501357E+00  0.51109989000E-03 0. -1.
     -623    1    1    2    0    0 -0.19559728950E-03  0.13415261317E-02  0.91053121421E-03  0.17130000001E+03  0.17130000000E+03 0.  1.
      622    1    1    2    0    0  0.53834053519E-02  0.23411735203E-01  0.34627506344E+01  0.34630649786E+01  0.40000000000E-01 0. -1.
</event>
<event>
 5   0  0.6200596E+07  0.9118800E+02  0.7818608E-02  0.1180000E+00
       11   -1    0    0    0    0  0.00000000000E+00  0.00000000000E+00  0.39999999673E+01  0.40000000000E+01  0.51109989000E-03 0.  1.
     -623   -1    0    0    0    0  0.00000000000E+00  0.00000000000E+00  0.12525980253E-10  0.17130000000E+03  0.17130000000E+03 0. -1.
       11    1    1    2    0    0  0.31917194615E-02  0.33382571539E-02  0.31917166134E+00  0.31920548501E+00  0.51109989000E-03 0.  1.
     -623    1    1    2    0    0  0.92761906198E-03 -0.73755672566E-02  0.25582283197E-03  0.17130000016E+03  0.17130000000E+03 0. -1.
      622    1    1    2    0    0 -0.41193385235E-02  0.40373101027E-02  0.36805724832E+01  0.36807943535E+01  0.40000000000E-01 0.  1.
</event>
<event>
 5   0  0.6200596E+07  0.9118800E+02  0.7818608E-02  0.1180000E+00
       11   -1    0    0    0    0  0.00000000000E+00  0.00000000000E+00  0.39999999673E+01  0.40000000000E+01  0.51109989000E-03 0.  1.
     -623   -1    0    0    0    0  0.00000000000E+00  0.00000000000E+00  0.12525980253E-10  0.17130000000E+03  0.17130000000E+03 0.  1.
       11    1    1    2    0    0  0.31154101059E-02 -0.30512082645E-02  0.35409001359E+00  0.35411723284E+00  0.51109989000E-03 0.  1.
     -623    1    1    2    0    0 -0.22411141583E-03  0.20639648523E-03  0.24887572132E-03  0.17130000000E+03  0.17130000000E+03 0.  1.
      622    1    1    2    0    0 -0.28912986901E-02  0.28448117793E-02  0.36456610781E+01  0.36458827667E+01  0.40000000000E-01 0.  1.
</event>
<event>
 5   0  0.6200596E+07  0.9118800E+02  0.7818608E-02  0.1180000E+00
       11   -1    0    0    0    0  0.00000000000E+00  0.00000000000E+00  0.39999999673E+01  0.40000000000E+01  0.51109989000E-03 0.  1.
     -623   -1    0    0    0    0  0.00000000000E+00  0.00000000000E+00  0.12525980253E-10  0.17130000000E+03  0.17130000000E+03 0.  1.
       11    1    1    2    0    0 -0.53588135469E-01  0.34045520679E-01  0.14613842532E+01  0.14627627909E+01  0.51109989000E-03 0.  1.
     -623    1    1    2    0    0  0.70750084733E-02  0.25272514683E-02  0.23841205632E-02  0.17130000018E+03  0.17130000000E+03 0.  1.
      622    1    1    2    0    0  0.46513126995E-01 -0.36572772147E-01  0.25362315936E+01  0.25372370277E+01  0.40000000000E-01 0. -1.
</event>
<event>
 5   0  0.6200596E+07  0.9118800E+02  0.7818608E-02  0.1180000E+00
       11   -1    0    0    0    0  0.00000000000E+00  0.00000000000E+00  0.39999999673E+01  0.40000000000E+01  0.51109989000E-03 0.  1.
     -623   -1    0    0    0    0  0.00000000000E+00  0.00000000000E+00  0.12525980253E-10  0.17130000000E+03  0.17130000000E+03 0. -1.
       11    1    1    2    0    0  0.88012359106E-02  0.12980455794E-01  0.89002347679E+00  0.89016178555E+00  0.51109989000E-03 0.  1.
     -623    1    1    2    0    0 -0.20266544797E-01 -0.10133681226E-01  0.41947411656E-03  0.17130000150E+03  0.17130000000E+03 0. -1.
      622    1    1    2    0    0  0.11465308887E-01 -0.28467745682E-02  0.31095570165E+01  0.31098367153E+01  0.40000000000E-01 0.  1.
</event>
<event>
 5   0  0.6200596E+07  0.9118800E+02  0.7818608E-02  0.1180000E+00
       11   -1    0    0    0    0  0.00000000000E+00  0.00000000000E+00  0.39999999673E+01  0.40000000000E+01  0.51109989000E-03 0. -1.
     -623   -1    0    0    0    0  0.00000000000E+00  0.00000000000E+00  0.12525980253E-10  0.17130000000E+03  0.17130000000E+03 0. -1.
       11    1    1    2    0    0  0.48020272735E-02  0.29912565962E-03  0.13443892774E-01  0.14288051557E-01  0.51109989000E-03 0. -1.
     -623    1    1    2    0    0 -0.23146505242E-02 -0.53792414608E-03  0.10456511816E-02  0.17130000002E+03  0.17130000000E+03 0. -1.
      622    1    1    2    0    0 -0.24873767494E-02  0.23879848646E-03  0.39855104234E+01  0.39857119288E+01  0.40000000000E-01 0. -1.
</event>
<event>
 5   0  0.6200596E+07  0.9118800E+02  0.7818608E-02  0.1180000E+00
       11   -1    0    0    0    0  0.00000000000E+00  0.00000000000E+00  0.39999999673E+01  0.40000000000E+01  0.51109989000E-03 0.  1.
     -623   -1    0    0    0    0  0.00000000000E+00  0.00000000000E+00  0.12525980253E-10  0.17130000000E+03  0.17130000000E+03 0.  1.
       11    1    1    2    0    0  0.44270298680E-03  0.26467548137E-02  0.92555358811E-02  0.96502571664E-02  0.51109989000E-03 0.  1.
     -623    1    1    2    0    0  0.23221218537E-02  0.73100951579E-03  0.59758327793E-03  0.17130000002E+03  0.17130000000E+03 0.  1.
      622    1    1    2    0    0 -0.27648248405E-02 -0.33777643295E-02  0.39901468482E+01  0.39903497245E+01  0.40000000000E-01 0.  1.
</event>
<event>
 5   0  0.6200596E+07  0.9118800E+02  0.7818608E-02  0.1180000E+00
       11   -1    0    0    0    0  0.00000000000E+00  0.00000000000E+00  0.39999999673E+01  0.40000000000E+01  0.51109989000E-03 0.  1.
     -623   -1    0    0    0    0  0.00000000000E+00  0.00000000000E+00  0.12525980253E-10  0.17130000000E+03  0.17130000000E+03 0.  1.
       11    1    1    2    0    0  0.62846564079E-02  0.71917623335E-02  0.21927552021E+00  0.21948401613E+00  0.51109989000E-03 0.  1.
     -623    1    1    2    0    0  0.20499594533E-03  0.83717378708E-03  0.43417994239E-03  0.17130000000E+03  0.17130000000E+03 0.  1.
      622    1    1    2    0    0 -0.64896523533E-02 -0.80289361206E-02  0.37802902672E+01  0.37805159811E+01  0.40000000000E-01 0.  0.
</event>
<event>
 5   0  0.6200596E+07  0.9118800E+02  0.7818608E-02  0.1180000E+00
       11   -1    0    0    0    0  0.00000000000E+00  0.00000000000E+00  0.39999999673E+01  0.40000000000E+01  0.51109989000E-03 0.  1.
     -623   -1    0    0    0    0  0.00000000000E+00  0.00000000000E+00  0.12525980253E-10  0.17130000000E+03  0.17130000000E+03 0. -1.
       11    1    1    2    0    0  0.12611632296E-01 -0.10286418299E-02  0.46029915331E+00  0.46047332511E+00  0.51109989000E-03 0.  1.
     -623    1    1    2    0    0 -0.12616162281E-01 -0.66161761736E-02  0.40901451586E-03  0.17130000059E+03  0.17130000000E+03 0. -1.
      622    1    1    2    0    0  0.45299853372E-05  0.76448180036E-02  0.35392917995E+01  0.35395260821E+01  0.40000000000E-01 0.  1.
</event>
<event>
 5   0  0.6200596E+07  0.9118800E+02  0.7818608E-02  0.1180000E+00
       11   -1    0    0    0    0  0.00000000000E+00  0.00000000000E+00  0.39999999673E+01  0.40000000000E+01  0.51109989000E-03 0. -1.
     -623   -1    0    0    0    0  0.00000000000E+00  0.00000000000E+00  0.12525980253E-10  0.17130000000E+03  0.17130000000E+03 0. -1.
       11    1    1    2    0    0 -0.13105240618E-02 -0.12829518375E-03  0.84726779684E-02  0.85896115346E-02  0.51109989000E-03 0. -1.
     -623    1    1    2    0    0  0.40981774885E-02 -0.55928290878E-02  0.32255093529E-03  0.17130000014E+03  0.17130000000E+03 0. -1.
      622    1    1    2    0    0 -0.27876534267E-02  0.57211242716E-02  0.39912047385E+01  0.39914102478E+01  0.40000000000E-01 0. -1.
</event>
<event>
 5   0  0.6200596E+07  0.9118800E+02  0.7818608E-02  0.1180000E+00
       11   -1    0    0    0    0  0.00000000000E+00  0.00000000000E+00  0.39999999673E+01  0.40000000000E+01  0.51109989000E-03 0. -1.
     -623   -1    0    0    0    0  0.00000000000E+00  0.00000000000E+00  0.12525980253E-10  0.17130000000E+03  0.17130000000E+03 0.  1.
       11    1    1    2    0    0 -0.20235200288E-01 -0.57090376247E-02  0.15295818777E+01  0.15297264586E+01  0.51109989000E-03 0. -1.
     -623    1    1    2    0    0  0.19545082093E-02  0.22300148969E-01  0.59326005453E-03  0.17130000146E+03  0.17130000000E+03 0.  1.
      622    1    1    2    0    0  0.18280692079E-01 -0.16591111344E-01  0.24698248296E+01  0.24702720777E+01  0.40000000000E-01 0. -1.
</event>
<event>
 5   0  0.6200596E+07  0.9118800E+02  0.7818608E-02  0.1180000E+00
       11   -1    0    0    0    0  0.00000000000E+00  0.00000000000E+00  0.39999999673E+01  0.40000000000E+01  0.51109989000E-03 0. -1.
     -623   -1    0    0    0    0  0.00000000000E+00  0.00000000000E+00  0.12525980253E-10  0.17130000000E+03  0.17130000000E+03 0. -1.
       11    1    1    2    0    0  0.10398355914E-02  0.12544223476E-02  0.18676923533E+00  0.18677704174E+00  0.51109989000E-03 0. -1.
     -623    1    1    2    0    0 -0.40187818367E-03  0.75249753023E-04  0.21786166112E-03  0.17130000000E+03  0.17130000000E+03 0. -1.
      622    1    1    2    0    0 -0.63795740771E-03 -0.13296721006E-02  0.38130128704E+01  0.38132229576E+01  0.40000000000E-01 0. -1.
</event>
<event>
 5   0  0.6200596E+07  0.9118800E+02  0.7818608E-02  0.1180000E+00
       11   -1    0    0    0    0  0.00000000000E+00  0.00000000000E+00  0.39999999673E+01  0.40000000000E+01  0.51109989000E-03 0. -1.
     -623   -1    0    0    0    0  0.00000000000E+00  0.00000000000E+00  0.12525980253E-10  0.17130000000E+03  0.17130000000E+03 0. -1.
       11    1    1    2    0    0 -0.22141605870E-02 -0.47367534968E-03  0.42133264158E-01  0.42197156838E-01  0.51109989000E-03 0. -1.
     -623    1    1    2    0    0  0.52103589572E-05  0.13878451646E-02  0.26672543374E-03  0.17130000001E+03  0.17130000000E+03 0. -1.
      622    1    1    2    0    0  0.22089502281E-02 -0.91416981492E-03  0.39575999778E+01  0.39578028373E+01  0.40000000000E-01 0. -1.
</event>
<event>
 5   0  0.6200596E+07  0.9118800E+02  0.7818608E-02  0.1180000E+00
       11   -1    0    0    0    0  0.00000000000E+00  0.00000000000E+00  0.39999999673E+01  0.40000000000E+01  0.51109989000E-03 0. -1.
     -623   -1    0    0    0    0  0.00000000000E+00  0.00000000000E+00  0.12525980253E-10  0.17130000000E+03  0.17130000000E+03 0.  1.
       11    1    1    2    0    0  0.53120758960E-04  0.10200028209E-01  0.36406629223E+00  0.36420951354E+00  0.51109989000E-03 0. -1.
     -623    1    1    2    0    0  0.14584495281E-02  0.11474352189E-03  0.37818338323E-03  0.17130000001E+03  0.17130000000E+03 0.  1.
      622    1    1    2    0    0 -0.15115702871E-02 -0.10314771730E-01  0.36355554917E+01  0.36357904798E+01  0.40000000000E-01 0. -1.
</event>
<event>
 5   0  0.6200596E+07  0.9118800E+02  0.7818608E-02  0.1180000E+00
       11   -1    0    0    0    0  0.00000000000E+00  0.00000000000E+00  0.39999999673E+01  0.40000000000E+01  0.51109989000E-03 0.  1.
     -623   -1    0    0    0    0  0.00000000000E+00  0.00000000000E+00  0.12525980253E-10  0.17130000000E+03  0.17130000000E+03 0.  1.
       11    1    1    2    0    0 -0.29947083414E-02  0.47400802894E-03  0.47363347850E-01  0.47463047754E-01  0.51109989000E-03 0.  1.
     -623    1    1    2    0    0  0.41632572424E-02 -0.10190176756E-02  0.30233831265E-03  0.17130000005E+03  0.17130000000E+03 0.  1.
      622    1    1    2    0    0 -0.11685489010E-02  0.54500964662E-03  0.39523342812E+01  0.39525368984E+01  0.40000000000E-01 0.  1.
</event>
<event>
 5   0  0.6200596E+07  0.9118800E+02  0.7818608E-02  0.1180000E+00
       11   -1    0    0    0    0  0.00000000000E+00  0.00000000000E+00  0.39999999673E+01  0.40000000000E+01  0.51109989000E-03 0.  1.
     -623   -1    0    0    0    0  0.00000000000E+00  0.00000000000E+00  0.12525980253E-10  0.17130000000E+03  0.17130000000E+03 0.  1.
       11    1    1    2    0    0 -0.36155918647E-01 -0.17475313994E-01  0.55533125901E+00  0.55678155996E+00  0.51109989000E-03 0.  1.
     -623    1    1    2    0    0 -0.15734722503E-01 -0.29709349153E-01  0.24003630813E-02  0.17130000332E+03  0.17130000000E+03 0.  1.
      622    1    1    2    0    0  0.51890641150E-01  0.47184663148E-01  0.34422683453E+01  0.34432151243E+01  0.40000000000E-01 0.  1.
</event>
<event>
 5   0  0.6200596E+07  0.9118800E+02  0.7818608E-02  0.1180000E+00
       11   -1    0    0    0    0  0.00000000000E+00  0.00000000000E+00  0.39999999673E+01  0.40000000000E+01  0.51109989000E-03 0.  1.
     -623   -1    0    0    0    0  0.00000000000E+00  0.00000000000E+00  0.12525980253E-10  0.17130000000E+03  0.17130000000E+03 0. -1.
       11    1    1    2    0    0 -0.16129546568E-01  0.28016539524E-01  0.30684712835E+01  0.30686416161E+01  0.51109989000E-03 0.  1.
     -623    1    1    2    0    0  0.25433411734E-03 -0.41664242195E-02  0.14708993533E-02  0.17130000006E+03  0.17130000000E+03 0. -1.
      622    1    1    2    0    0  0.15875212450E-01 -0.23850115304E-01  0.93005778447E+00  0.93135832675E+00  0.40000000000E-01 0.  0.
</event>
<event>
 5   0  0.6200596E+07  0.9118800E+02  0.7818608E-02  0.1180000E+00
       11   -1    0    0    0    0  0.00000000000E+00  0.00000000000E+00  0.39999999673E+01  0.40000000000E+01  0.51109989000E-03 0.  1.
     -623   -1    0    0    0    0  0.00000000000E+00  0.00000000000E+00  0.12525980253E-10  0.17130000000E+03  0.17130000000E+03 0.  1.
       11    1    1    2    0    0  0.37758614663E-02  0.18288022795E-02  0.38161746093E-02  0.56943882429E-02  0.51109989000E-03 0.  1.
     -623    1    1    2    0    0  0.11361639810E-02 -0.10506311856E-01  0.20912566398E-02  0.17130000034E+03  0.17130000000E+03 0.  1.
      622    1    1    2    0    0 -0.49120254473E-02  0.86775095767E-02  0.39940925361E+01  0.39943052730E+01  0.40000000000E-01 0.  1.
</event>
<event>
 5   0  0.6200596E+07  0.9118800E+02  0.7818608E-02  0.1180000E+00
       11   -1    0    0    0    0  0.00000000000E+00  0.00000000000E+00  0.39999999673E+01  0.40000000000E+01  0.51109989000E-03 0.  1.
     -623   -1    0    0    0    0  0.00000000000E+00  0.00000000000E+00  0.12525980253E-10  0.17130000000E+03  0.17130000000E+03 0.  1.
       11    1    1    2    0    0 -0.25706107318E-01 -0.12929405275E-02  0.10303123545E+01  0.10306339237E+01  0.51109989000E-03 0.  1.
     -623    1    1    2    0    0  0.80113634607E-03  0.16557469470E-02  0.69545410095E-03  0.17130000001E+03  0.17130000000E+03 0.  1.
      622    1    1    2    0    0  0.24904970972E-01 -0.36280641957E-03  0.29689921588E+01  0.29693660650E+01  0.40000000000E-01 0.  1.
</event>
<event>
 5   0  0.6200596E+07  0.9118800E+02  0.7818608E-02  0.1180000E+00
       11   -1    0    0    0    0  0.00000000000E+00  0.00000000000E+00  0.39999999673E+01  0.40000000000E+01  0.51109989000E-03 0. -1.
     -623   -1    0    0    0    0  0.00000000000E+00  0.00000000000E+00  0.12525980253E-10  0.17130000000E+03  0.17130000000E+03 0. -1.
       11    1    1    2    0    0  0.34125247845E-02  0.36808699414E-02  0.23891426808E-01  0.24418346100E-01  0.51109989000E-03 0. -1.
     -623    1    1    2    0    0 -0.61222590693E-02  0.25596521155E-03  0.73110417232E-03  0.17130000011E+03  0.17130000000E+03 0. -1.
      622    1    1    2    0    0  0.27097342848E-02 -0.39368351529E-02  0.39753774364E+01  0.39755815427E+01  0.40000000000E-01 0. -1.
</event>
<event>
 5   0  0.6200596E+07  0.9118800E+02  0.7818608E-02  0.1180000E+00
       11   -1    0    0    0    0  0.00000000000E+00  0.00000000000E+00  0.39999999673E+01  0.40000000000E+01  0.51109989000E-03 0. -1.
     -623   -1    0    0    0    0  0.00000000000E+00  0.00000000000E+00  0.12525980253E-10  0.17130000000E+03  0.17130000000E+03 0. -1.
       11    1    1    2    0    0 -0.15927591525E-01 -0.14011114204E-01  0.19273013871E+00  0.19389473196E+00  0.51109989000E-03 0. -1.
     -623    1    1    2    0    0  0.67427066057E-02  0.95260671575E-02  0.13888840635E-02  0.17130000040E+03  0.17130000000E+03 0. -1.
      622    1    1    2    0    0  0.91848849190E-02  0.44850470466E-02  0.38058809446E+01  0.38061048648E+01  0.40000000000E-01 0. -1.
</event>
<event>
 5   0  0.6200596E+07  0.9118800E+02  0.7818608E-02  0.1180000E+00
       11   -1    0    0    0    0  0.00000000000E+00  0.00000000000E+00  0.39999999673E+01  0.40000000000E+01  0.51109989000E-03 0. -1.
     -623   -1    0    0    0    0  0.00000000000E+00  0.00000000000E+00  0.12525980253E-10  0.17130000000E+03  0.17130000000E+03 0. -1.
       11    1    1    2    0    0 -0.20878810617E-02  0.33394346445E-02  0.19428616199E-01  0.19830366134E-01  0.51109989000E-03 0. -1.
     -623    1    1    2    0    0  0.26293958815E-02  0.18002302454E-02  0.60610502094E-03  0.17130000003E+03  0.17130000000E+03 0. -1.
      622    1    1    2    0    0 -0.54151481972E-03 -0.51396648899E-02  0.39799652461E+01  0.39801696032E+01  0.40000000000E-01 0. -1.
</event>
<event>
 5   0  0.6200596E+07  0.9118800E+02  0.7818608E-02  0.1180000E+00
       11   -1    0    0    0    0  0.00000000000E+00  0.00000000000E+00  0.39999999673E+01  0.40000000000E+01  0.51109989000E-03 0.  1.
     -623   -1    0    0    0    0  0.00000000000E+00  0.00000000000E+00  0.12525980253E-10  0.17130000000E+03  0.17130000000E+03 0. -1.
       11    1    1    2    0    0  0.50652929036E-02 -0.39360592332E-01  0.14159005390E+01  0.14164566746E+01  0.51109989000E-03 0.  1.
     -623    1    1    2    0    0 -0.37101465863E-02 -0.22698119711E-01  0.16132276296E-02  0.17130000155E+03  0.17130000000E+03 0. -1.
      622    1    1    2    0    0 -0.13551463173E-02  0.62058712044E-01  0.25824862007E+01  0.25835417738E+01  0.40000000000E-01 0.  1.
</event>
<event>
 5   0  0.6200596E+07  0.9118800E+02  0.7818608E-02  0.1180000E+00
       11   -1    0    0    0    0  0.00000000000E+00  0.00000000000E+00  0.39999999673E+01  0.40000000000E+01  0.51109989000E-03 0. -1.
     -623   -1    0    0    0    0  0.00000000000E+00  0.00000000000E+00  0.12525980253E-10  0.17130000000E+03  0.17130000000E+03 0. -1.
       11    1    1    2    0    0  0.19397875635E-02  0.28082213718E-01  0.19961723868E+01  0.19963709156E+01  0.51109989000E-03 0. -1.
     -623    1    1    2    0    0 -0.88249226115E-02  0.10806397038E-01  0.98772410945E-03  0.17130000057E+03  0.17130000000E+03 0. -1.
      622    1    1    2    0    0  0.68851350480E-02 -0.38888610755E-01  0.20028398565E+01  0.20036285134E+01  0.40000000000E-01 0.  0.
</event>
<event>
 5   0  0.6200596E+07  0.9118800E+02  0.7818608E-02  0.1180000E+00
       11   -1    0    0    0    0  0.00000000000E+00  0.00000000000E+00  0.39999999673E+01  0.40000000000E+01  0.51109989000E-03 0. -1.
     -623   -1    0    0    0    0  0.00000000000E+00  0.00000000000E+00  0.12525980253E-10  0.17130000000E+03  0.17130000000E+03 0.  1.
       11    1    1    2    0    0  0.93747959886E-02 -0.77232931469E-02  0.24438423209E+00  0.24468643234E+00  0.51109989000E-03 0. -1.
     -623    1    1    2    0    0 -0.19613182063E-03  0.50898562882E-02  0.52742290061E-03  0.17130000008E+03  0.17130000000E+03 0.  1.
      622    1    1    2    0    0 -0.91786641680E-02  0.26334368587E-02  0.37550883124E+01  0.37553134911E+01  0.40000000000E-01 0. -1.
</event>
<event>
 5   0  0.6200596E+07  0.9118800E+02  0.7818608E-02  0.1180000E+00
       11   -1    0    0    0    0  0.00000000000E+00  0.00000000000E+00  0.39999999673E+01  0.40000000000E+01  0.51109989000E-03 0. -1.
     -623   -1    0    0    0    0  0.00000000000E+00  0.00000000000E+00  0.12525980253E-10  0.17130000000E+03  0.17130000000E+03 0. -1.
       11    1    1    2    0    0 -0.81690169568E-03 -0.53198314248E-03  0.99778432435E-02  0.10038372027E-01  0.51109989000E-03 0. -1.
     -623    1    1    2    0    0  0.12710309972E-02  0.62923857705E-03  0.26103746407E-03  0.17130000001E+03  0.17130000000E+03 0. -1.
      622    1    1    2    0    0 -0.45412930147E-03 -0.97255434572E-04  0.39897610867E+01  0.39899616219E+01  0.40000000000E-01 0. -1.
</event>
<event>
 5   0  0.6200596E+07  0.9118800E+02  0.7818608E-02  0.1180000E+00
       11   -1    0    0    0    0  0.00000000000E+00  0.00000000000E+00  0.39999999673E+01  0.40000000000E+01  0.51109989000E-03 0.  1.
     -623   -1    0    0    0    0  0.00000000000E+00  0.00000000000E+00  0.12525980253E-10  0.17130000000E+03  0.17130000000E+03 0. -1.
       11    1    1    2    0    0 -0.63485370239E-03 -0.17617796205E-02  0.22562726309E-02  0.29763895822E-02  0.51109989000E-03 0.  1.
     -623    1    1    2    0    0  0.23166889256E-02  0.28288136434E-02  0.92077603810E-03  0.17130000004E+03  0.17130000000E+03 0. -1.
      622    1    1    2    0    0 -0.16818352232E-02 -0.10670340229E-02  0.39968229187E+01  0.39970235689E+01  0.40000000000E-01 0.  1.
</event>
<event>
 5   0  0.6200596E+07  0.9118800E+02  0.7818608E-02  0.1180000E+00
       11   -1    0    0    0    0  0.00000000000E+00  0.00000000000E+00  0.39999999673E+01  0.40000000000E+01  0.51109989000E-03 0. -1.
     -623   -1    0    0    0    0  0.00000000000E+00  0.00000000000E+00  0.12525980253E-10  0.17130000000E+03  0.17130000000E+03 0. -1.
       11    1    1    2    0    0 -0.39766918467E-02 -0.49199606364E-02  0.16532519421E+01  0.16532641245E+01  0.51109989000E-03 0. -1.
     -623    1    1    2    0    0  0.11182673411E-01 -0.14746489432E-01  0.44755879852E-03  0.17130000100E+03  0.17130000000E+03 0. -1.
      622    1    1    2    0    0 -0.72059815640E-02  0.19666450068E-01  0.23463004665E+01  0.23467348752E+01  0.40000000000E-01 0. -1.
</event>
<event>
 5   0  0.6200596E+07  0.9118800E+02  0.7818608E-02  0.1180000E+00
       11   -1    0    0    0    0  0.00000000000E+00  0.00000000000E+00  0.39999999673E+01  0.40000000000E+01  0.51109989000E-03 0. -1.
     -623   -1    0    0    0    0  0.00000000000E+00  0.00000000000E+00  0.12525980253E-10  0.17130000000E+03  0.17130000000E+03 0.  1.
       11    1    1    2    0    0 -0.18825671507E-01  0.78854024769E-02  0.93945148897E+00  0.93967331921E+00  0.51109989000E-03 0. -1.
     -623    1    1    2    0    0  0.25478392922E-01 -0.16744996474E-01  0.50598997182E-03  0.17130000271E+03  0.17130000000E+03 0.  1.
      622    1    1    2    0    0 -0.66527214155E-02  0.88595939975E-02  0.30600424884E+01  0.30603239668E+01  0.40000000000E-01 0. -1.
</event>
<event>
 5   0  0.6200596E+07  0.9118800E+02  0.7818608E-02  0.1180000E+00
       11   -1    0    0    0    0  0.00000000000E+00  0.00000000000E+00  0.39999999673E+01  0.40000000000E+01  0.51109989000E-03 0. -1.
     -623   -1    0    0    0    0  0.00000000000E+00  0.00000000000E+00  0.12525980253E-10  0.17130000000E+03  0.17130000000E+03 0. -1.
       11    1    1    2    0    0 -0.55772403324E-02  0.12694101919E-01  0.33371870798E+01  0.33372159224E+01  0.51109989000E-03 0. -1.
     -623    1    1    2    0    0 -0.55092906975E-02  0.32305255618E-02  0.15216795214E-02  0.17130000013E+03  0.17130000000E+03 0. -1.
      622    1    1    2    0    0  0.11086531030E-01 -0.15924627481E-01  0.66129120805E+00  0.66278395181E+00  0.40000000000E-01 0.  1.
</event>
<event>
 5   0  0.6200596E+07  0.9118800E+02  0.7818608E-02  0.1180000E+00
       11   -1    0    0    0    0  0.00000000000E+00  0.00000000000E+00  0.39999999673E+01  0.40000000000E+01  0.51109989000E-03 0.  1.
     -623   -1    0    0    0    0  0.00000000000E+00  0.00000000000E+00  0.12525980253E-10  0.17130000000E+03  0.17130000000E+03 0. -1.
       11    1    1    2    0    0 -0.14182560289E-01  0.40076505952E-01  0.18409381560E+01  0.18414290176E+01  0.51109989000E-03 0.  1.
     -623    1    1    2    0    0  0.84892885829E-03  0.24640365425E-03  0.12794004324E-02  0.17130000001E+03  0.17130000000E+03 0. -1.
      622    1    1    2    0    0  0.13333631431E-01 -0.40322909606E-01  0.21577824109E+01  0.21585709754E+01  0.40000000000E-01 0.  1.
</event>
<event>
 5   0  0.6200596E+07  0.9118800E+02  0.7818608E-02  0.1180000E+00
       11   -1    0    0    0    0  0.00000000000E+00  0.00000000000E+00  0.39999999673E+01  0.40000000000E+01  0.51109989000E-03 0.  1.
     -623   -1    0    0    0    0  0.00000000000E+00  0.00000000000E+00  0.12525980253E-10  0.17130000000E+03  0.17130000000E+03 0. -1.
       11    1    1    2    0    0  0.68078870723E-01 -0.23985984873E-01  0.17376069505E+00  0.18815711646E+00  0.51109989000E-03 0.  1.
     -623    1    1    2    0    0  0.23416870987E-01  0.28416060738E-02  0.15765587770E-01  0.17130000235E+03  0.17130000000E+03 0. -1.
      622    1    1    2    0    0 -0.91495741710E-01  0.21144378799E-01  0.38104736845E+01  0.38118405339E+01  0.40000000000E-01 0.  1.
</event>
<event>
 5   0  0.6200596E+07  0.9118800E+02  0.7818608E-02  0.1180000E+00
       11   -1    0    0    0    0  0.00000000000E+00  0.00000000000E+00  0.39999999673E+01  0.40000000000E+01  0.51109989000E-03 0.  1.
     -623   -1    0    0    0    0  0.00000000000E+00  0.00000000000E+00  0.12525980253E-10  0.17130000000E+03  0.17130000000E+03 0.  1.
       11    1    1    2    0    0  0.34072671792E-02  0.16561613531E-02  0.96272603718E-02  0.10358460529E-01  0.51109989000E-03 0.  1.
     -623    1    1    2    0    0 -0.33322662654E-02 -0.32193620411E-02  0.93206398903E-03  0.17130000007E+03  0.17130000000E+03 0.  1.
      622    1    1    2    0    0 -0.75000913814E-04  0.15632006879E-02  0.39894406430E+01  0.39896414743E+01  0.40000000000E-01 0.  1.
</event>
<event>
 5   0  0.6200596E+07  0.9118800E+02  0.7818608E-02  0.1180000E+00
       11   -1    0    0    0    0  0.00000000000E+00  0.00000000000E+00  0.39999999673E+01  0.40000000000E+01  0.51109989000E-03 0. -1.
     -623   -1    0    0    0    0  0.00000000000E+00  0.00000000000E+00  0.12525980253E-10  0.17130000000E+03  0.17130000000E+03 0. -1.
       11    1    1    2    0    0 -0.13455641690E-01  0.98627157720E-02  0.75360420425E+00  0.75378901912E+00  0.51109989000E-03 0. -1.
     -623    1    1    2    0    0 -0.76219345972E-03  0.11131404736E-02  0.48093408602E-03  0.17130000001E+03  0.17130000000E+03 0. -1.
      622    1    1    2    0    0  0.14217835149E-01 -0.10975856246E-01  0.32459148290E+01  0.32462109749E+01  0.40000000000E-01 0.  0.
</event>
<event>
 5   0  0.6200596E+07  0.9118800E+02  0.7818608E-02  0.1180000E+00
       11   -1    0    0    0    0  0.00000000000E+00  0.00000000000E+00  0.39999999673E+01  0.40000000000E+01  0.51109989000E-03 0. -1.
     -623   -1    0    0    0    0  0.00000000000E+00  0.00000000000E+00  0.12525980253E-10  0.17130000000E+03  0.17130000000E+03 0. -1.
       11    1    1    2    0    0 -0.16858169862E-02  0.13855967733E-02  0.57909921101E-02  0.62095627495E-02  0.51109989000E-03 0. -1.
     -623    1    1    2    0    0 -0.79212510729E-03  0.42408828402E-02  0.62364171902E-03  0.17130000006E+03  0.17130000000E+03 0. -1.
      622    1    1    2    0    0  0.24779420935E-02 -0.56264796135E-02  0.39935853335E+01  0.39937903818E+01  0.40000000000E-01 0. -1.
</event>
<event>
 5   0  0.6200596E+07  0.9118800E+02  0.7818608E-02  0.1180000E+00
       11   -1    0    0    0    0  0.00000000000E+00  0.00000000000E+00  0.39999999673E+01  0.40000000000E+01  0.51109989000E-03 0. -1.
     -623   -1    0    0    0    0  0.00000000000E+00  0.00000000000E+00  0.12525980253E-10  0.17130000000E+03  0.17130000000E+03 0. -1.
       11    1    1    2    0    0 -0.39313645065E-03 -0.59505612345E-03  0.43102473116E-01  0.43111402874E-01  0.51109989000E-03 0. -1.
     -623    1    1    2    0    0  0.47734823417E-04 -0.14789575293E-02  0.21164651511E-03  0.17130000001E+03  0.17130000000E+03 0. -1.
      622    1    1    2    0    0  0.34540162724E-03  0.20740136528E-02  0.39566858477E+01  0.39568885906E+01  0.40000000000E-01 0. -1.
</event>
<event>
 5   0  0.6200596E+07  0.9118800E+02  0.7818608E-02  0.1180000E+00
       11   -1    0    0    0    0  0.00000000000E+00  0.00000000000E+00  0.39999999673E+01  0.40000000000E+01  0.51109989000E-03 0. -1.
     -623   -1    0    0    0    0  0.00000000000E+00  0.00000000000E+00  0.12525980253E-10  0.17130000000E+03  0.17130000000E+03 0. -1.
       11    1    1    2    0    0 -0.76825793454E-03 -0.29189560844E-01  0.64533675084E+00  0.64599721662E+00  0.51109989000E-03 0. -1.
     -623    1    1    2    0    0 -0.61078242529E-03  0.57350784558E-02  0.98136127032E-03  0.17130000010E+03  0.17130000000E+03 0. -1.
      622    1    1    2    0    0  0.13790403598E-02  0.23454482388E-01  0.33536818553E+01  0.33540026835E+01  0.40000000000E-01 0.  0.
</event>
<event>
 5   0  0.6200596E+07  0.9118800E+02  0.7818608E-02  0.1180000E+00
       11   -1    0    0    0    0  0.00000000000E+00  0.00000000000E+00  0.39999999673E+01  0.40000000000E+01  0.51109989000E-03 0. -1.
     -623   -1    0    0    0    0  0.00000000000E+00  0.00000000000E+00  0.12525980253E-10  0.17130000000E+03  0.17130000000E+03 0. -1.
       11    1    1    2    0    0 -0.21886655989E-01  0.37254329215E-01  0.11855360225E+01  0.11863232412E+01  0.51109989000E-03 0. -1.
     -623    1    1    2    0    0  0.30611883237E-01 -0.35062051051E-01  0.10922376155E-02  0.17130000633E+03  0.17130000000E+03 0. -1.
      622    1    1    2    0    0 -0.87252272483E-02 -0.21922781644E-02  0.28133717073E+01  0.28136704318E+01  0.40000000000E-01 0.  0.
</event>
<event>
 5   0  0.6200596E+07  0.9118800E+02  0.7818608E-02  0.1180000E+00
       11   -1    0    0    0    0  0.00000000000E+00  0.00000000000E+00  0.39999999673E+01  0.40000000000E+01  0.51109989000E-03 0.  1.
     -623   -1    0    0    0    0  0.00000000000E+00  0.00000000000E+00  0.12525980253E-10  0.17130000000E+03  0.17130000000E+03 0.  1.
       11    1    1    2    0    0  0.96222993328E-03  0.14273319371E-02  0.28063345399E-01  0.28120735021E-01  0.51109989000E-03 0.  1.
     -623    1    1    2    0    0 -0.36960448961E-03 -0.73493144715E-03  0.25888481973E-03  0.17130000000E+03  0.17130000000E+03 0.  1.
      622    1    1    2    0    0 -0.59262544368E-03 -0.69240048996E-03  0.39716777371E+01  0.39718792628E+01  0.40000000000E-01 0.  1.
</event>
<event>
 5   0  0.6200596E+07  0.9118800E+02  0.7818608E-02  0.1180000E+00
       11   -1    0    0    0    0  0.00000000000E+00  0.00000000000E+00  0.39999999673E+01  0.40000000000E+01  0.51109989000E-03 0.  1.
     -623   -1    0    0    0    0  0.00000000000E+00  0.00000000000E+00  0.12525980253E-10  0.17130000000E+03  0.17130000000E+03 0. -1.
       11    1    1    2    0    0 -0.25562115989E-02 -0.31668240340E-02  0.25913409881E+00  0.25916655915E+00  0.51109989000E-03 0.  1.
     -623    1    1    2    0    0 -0.10290015879E-02 -0.32579343831E-02  0.25355976902E-03  0.17130000003E+03  0.17130000000E+03 0. -1.
      622    1    1    2    0    0  0.35852131868E-02  0.64247584171E-02  0.37406123088E+01  0.37408334066E+01  0.40000000000E-01 0.  1.
</event>
<event>
 5   0  0.6200596E+07  0.9118800E+02  0.7818608E-02  0.1180000E+00
       11   -1    0    0    0    0  0.00000000000E+00  0.00000000000E+00  0.39999999673E+01  0.40000000000E+01  0.51109989000E-03 0. -1.
     -623   -1    0    0    0    0  0.00000000000E+00  0.00000000000E+00  0.12525980253E-10  0.17130000000E+03  0.17130000000E+03 0.  1.
       11    1    1    2    0    0  0.10837441403E-02 -0.35124252700E-03  0.19072775968E-01  0.19113604511E-01  0.51109989000E-03 0. -1.
     -623    1    1    2    0    0 -0.30977947333E-03  0.75121382302E-03  0.24185867797E-03  0.17130000000E+03  0.17130000000E+03 0.  1.
      622    1    1    2    0    0 -0.77396466692E-03 -0.39997129602E-03  0.39806853327E+01  0.39808863934E+01  0.40000000000E-01 0. -1.
</event>
<event>
 5   0  0.6200596E+07  0.9118800E+02  0.7818608E-02  0.1180000E+00
       11   -1    0    0    0    0  0.00000000000E+00  0.00000000000E+00  0.39999999673E+01  0.40000000000E+01  0.51109989000E-03 0.  1.
     -623   -1    0    0    0    0  0.00000000000E+00  0.00000000000E+00  0.12525980253E-10  0.17130000000E+03  0.17130000000E+03 0.  1.
       11    1    1    2    0    0  0.19449031520E-01  0.25741419155E-01  0.20986063061E+01  0.20988543481E+01  0.51109989000E-03 0.  1.
     -623    1    1    2    0    0  0.44896552949E-02  0.18443780155E-02  0.10198875922E-02  0.17130000007E+03  0.17130000000E+03 0.  1.
      622    1    1    2    0    0 -0.23938686815E-01 -0.27585797170E-01  0.19003737737E+01  0.19011455801E+01  0.40000000000E-01 0.  1.
</event>
<event>
 5   0  0.6200596E+07  0.9118800E+02  0.7818608E-02  0.1180000E+00
       11   -1    0    0    0    0  0.00000000000E+00  0.00000000000E+00  0.39999999673E+01  0.40000000000E+01  0.51109989000E-03 0.  1.
     -623   -1    0    0    0    0  0.00000000000E+00  0.00000000000E+00  0.12525980253E-10  0.17130000000E+03  0.17130000000E+03 0.  1.
       11    1    1    2    0    0  0.19753776906E-01  0.98374268741E-02  0.17284178434E+00  0.17424560340E+00  0.51109989000E-03 0.  1.
     -623    1    1    2    0    0 -0.67452999405E-02 -0.16036667362E-01  0.16409327512E-02  0.17130000089E+03  0.17130000000E+03 0.  1.
      622    1    1    2    0    0 -0.13008476965E-01  0.61992404878E-02  0.38255172503E+01  0.38257535053E+01  0.40000000000E-01 0.  1.
</event>
<event>
 5   0  0.6200596E+07  0.9118800E+02  0.7818608E-02  0.1180000E+00
       11   -1    0    0    0    0  0.00000000000E+00  0.00000000000E+00  0.39999999673E+01  0.40000000000E+01  0.51109989000E-03 0. -1.
     -623   -1    0    0    0    0  0.00000000000E+00  0.00000000000E+00  0.12525980253E-10  0.17130000000E+03  0.17130000000E+03 0. -1.
       11    1    1    2    0    0 -0.66684600913E-02  0.99198933083E-02  0.19973357988E+01  0.19973716297E+01  0.51109989000E-03 0. -1.
     -623    1    1    2    0    0 -0.75073318833E-03 -0.14829099797E-02  0.46684370252E-03  0.17130000001E+03  0.17130000000E+03 0. -1.
      622    1    1    2    0    0  0.74191932797E-02 -0.84369833286E-02  0.20021973249E+01  0.20026283616E+01  0.40000000000E-01 0.  1.
</event>
<event>
 5   0  0.6200596E+07  0.9118800E+02  0.7818608E-02  0.1180000E+00
       11   -1    0    0    0    0  0.00000000000E+00  0.00000000000E+00  0.39999999673E+01  0.40000000000E+01  0.51109989000E-03 0. -1.
     -623   -1    0    0    0    0  0.00000000000E+00  0.00000000000E+00  0.12525980253E-10  0.17130000000E+03  0.17130000000E+03 0. -1.
       11    1    1    2    0    0  0.27344330114E-02  0.40103437420E-02  0.58696225444E-01  0.58898795256E-01  0.51109989000E-03 0. -1.
     -623    1    1    2    0    0  0.86127290596E-03 -0.19174198394E-02  0.40774086101E-03  0.17130000001E+03  0.17130000000E+03 0. -1.
      622    1    1    2    0    0 -0.35957059173E-02 -0.20929239026E-02  0.39408960011E+01  0.39411011914E+01  0.40000000000E-01 0. -1.
</event>
<event>
 5   0  0.6200596E+07  0.9118800E+02  0.7818608E-02  0.1180000E+00
       11   -1    0    0    0    0  0.00000000000E+00  0.00000000000E+00  0.39999999673E+01  0.40000000000E+01  0.51109989000E-03 0. -1.
     -623   -1    0    0    0    0  0.00000000000E+00  0.00000000000E+00  0.12525980253E-10  0.17130000000E+03  0.17130000000E+03 0. -1.
       11    1    1    2    0    0 -0.24155553807E-02  0.40013010976E-03  0.45842554563E-01  0.45910739953E-01  0.51109989000E-03 0. -1.
     -623    1    1    2    0    0 -0.18415776154E-02 -0.17135574296E-02  0.27300877582E-03  0.17130000002E+03  0.17130000000E+03 0. -1.
      622    1    1    2    0    0  0.42571329962E-02  0.13134273199E-02  0.39538844040E+01  0.39540892414E+01  0.40000000000E-01 0. -1.
</event>
<event>
 5   0  0.6200596E+07  0.9118800E+02  0.7818608E-02  0.1180000E+00
       11   -1    0    0    0    0  0.00000000000E+00  0.00000000000E+00  0.39999999673E+01  0.40000000000E+01  0.51109989000E-03 0.  1.
     -623   -1    0    0    0    0  0.00000000000E+00  0.00000000000E+00  0.12525980253E-10  0.17130000000E+03  0.17130000000E+03 0. -1.
       11    1    1    2    0    0  0.19768316811E-01  0.13404893362E-01  0.39653664742E+00  0.39725565003E+00  0.51109989000E-03 0.  1.
     -623    1    1    2    0    0  0.84330530867E-02 -0.26704333780E-01  0.10782571718E-02  0.17130000229E+03  0.17130000000E+03 0. -1.
      622    1    1    2    0    0 -0.28201369897E-01  0.13299440418E-01  0.36023850628E+01  0.36027420575E+01  0.40000000000E-01 0.  1.
</event>
<event>
 5   0  0.6200596E+07  0.9118800E+02  0.7818608E-02  0.1180000E+00
       11   -1    0    0    0    0  0.00000000000E+00  0.00000000000E+00  0.39999999673E+01  0.40000000000E+01  0.51109989000E-03 0. -1.
     -623   -1    0    0    0    0  0.00000000000E+00  0.00000000000E+00  0.12525980253E-10  0.17130000000E+03  0.17130000000E+03 0.  1.
       11    1    1    2    0    0 -0.21202916686E-02  0.10475573852E-02  0.59567215736E-01  0.59616335209E-01  0.51109989000E-03 0. -1.
     -623    1    1    2    0    0 -0.17903811983E-02 -0.45974170289E-02  0.25572902061E-03  0.17130000007E+03  0.17130000000E+03 0.  1.
      622    1    1    2    0    0  0.39106728668E-02  0.35498596437E-02  0.39401770226E+01  0.39403835936E+01  0.40000000000E-01 0. -1.
</event>
<event>
 5   0  0.6200596E+07  0.9118800E+02  0.7818608E-02  0.1180000E+00
       11   -1    0    0    0    0  0.00000000000E+00  0.00000000000E+00  0.39999999673E+01  0.40000000000E+01  0.51109989000E-03 0.  1.
     -623   -1    0    0    0    0  0.00000000000E+00  0.00000000000E+00  0.12525980253E-10  0.17130000000E+03  0.17130000000E+03 0.  1.
       11    1    1    2    0    0  0.26503246002E-03 -0.31577174643E-03  0.51689906672E-02  0.52105315681E-02  0.51109989000E-03 0.  1.
     -623    1    1    2    0    0  0.29128346320E-03  0.82338901273E-03  0.24184753581E-03  0.17130000000E+03  0.17130000000E+03 0.  1.
      622    1    1    2    0    0 -0.55631592322E-03 -0.50761726630E-03  0.39945891292E+01  0.39947894660E+01  0.40000000000E-01 0.  1.
</event>
<event>
 5   0  0.6200596E+07  0.9118800E+02  0.7818608E-02  0.1180000E+00
       11   -1    0    0    0    0  0.00000000000E+00  0.00000000000E+00  0.39999999673E+01  0.40000000000E+01  0.51109989000E-03 0. -1.
     -623   -1    0    0    0    0  0.00000000000E+00  0.00000000000E+00  0.12525980253E-10  0.17130000000E+03  0.17130000000E+03 0.  1.
       11    1    1    2    0    0  0.16344842728E-02 -0.12410521780E-01  0.10017106322E+01  0.10017889721E+01  0.51109989000E-03 0. -1.
     -623    1    1    2    0    0  0.52385116502E-03  0.72035829588E-03  0.36871685422E-03  0.17130000000E+03  0.17130000000E+03 0.  1.
      622    1    1    2    0    0 -0.21583354378E-02  0.11690163484E-01  0.29979206183E+01  0.29982110252E+01  0.40000000000E-01 0. -1.
</event>
<event>
 5   0  0.6200596E+07  0.9118800E+02  0.7818608E-02  0.1180000E+00
       11   -1    0    0    0    0  0.00000000000E+00  0.00000000000E+00  0.39999999673E+01  0.40000000000E+01  0.51109989000E-03 0. -1.
     -623   -1    0    0    0    0  0.00000000000E+00  0.00000000000E+00  0.12525980253E-10  0.17130000000E+03  0.17130000000E+03 0.  1.
       11    1    1    2    0    0 -0.32163850006E-02  0.50500160099E-02  0.69798338548E+00  0.69800925168E+00  0.51109989000E-03 0. -1.
     -623    1    1    2    0    0  0.15661925961E-03  0.13227846653E-03  0.27360559568E-03  0.17130000000E+03  0.17130000000E+03 0.  1.
      622    1    1    2    0    0  0.30597657410E-02 -0.51822944764E-02  0.33017429763E+01  0.33019907480E+01  0.40000000000E-01 0. -1.
</event>
<event>
 5   0  0.6200596E+07  0.9118800E+02  0.7818608E-02  0.1180000E+00
       11   -1    0    0    0    0  0.00000000000E+00  0.00000000000E+00  0.39999999673E+01  0.40000000000E+01  0.51109989000E-03 0. -1.
     -623   -1    0    0    0    0  0.00000000000E+00  0.00000000000E+00  0.12525980253E-10  0.17130000000E+03  0.17130000000E+03 0. -1.
       11    1    1    2    0    0  0.19371228105E-01  0.12579418948E-01  0.25156625207E+00  0.25262487340E+00  0.51109989000E-03 0. -1.
     -623    1    1    2    0    0 -0.47253439829E-02 -0.12220053455E-01  0.13012228178E-02  0.17130000051E+03  0.17130000000E+03 0. -1.
      622    1    1    2    0    0 -0.14645884122E-01 -0.35936549289E-03  0.37471324925E+01  0.37473746206E+01  0.40000000000E-01 0. -1.
</event>
<event>
 5   0  0.6200596E+07  0.9118800E+02  0.7818608E-02  0.1180000E+00
       11   -1    0    0    0    0  0.00000000000E+00  0.00000000000E+00  0.39999999673E+01  0.40000000000E+01  0.51109989000E-03 0.  1.
     -623   -1    0    0    0    0  0.00000000000E+00  0.00000000000E+00  0.12525980253E-10  0.17130000000E+03  0.17130000000E+03 0. -1.
       11    1    1    2    0    0  0.60412755608E-04 -0.76596159965E-03  0.14339067035E-01  0.14368730369E-01  0.51109989000E-03 0.  1.
     -623    1    1    2    0    0 -0.25181474667E-03  0.18455339578E-05  0.23043496188E-03  0.17130000000E+03  0.17130000000E+03 0. -1.
      622    1    1    2    0    0  0.19140199106E-03  0.76411606569E-03  0.39854304654E+01  0.39856312693E+01  0.40000000000E-01 0.  1.
</event>
<event>
 5   0  0.6200596E+07  0.9118800E+02  0.7818608E-02  0.1180000E+00
       11   -1    0    0    0    0  0.00000000000E+00  0.00000000000E+00  0.39999999673E+01  0.40000000000E+01  0.51109989000E-03 0.  1.
     -623   -1    0    0    0    0  0.00000000000E+00  0.00000000000E+00  0.12525980253E-10  0.17130000000E+03  0.17130000000E+03 0. -1.
       11    1    1    2    0    0 -0.32005337352E-02  0.59422464659E-02  0.46832847654E+00  0.46837738723E+00  0.51109989000E-03 0.  1.
     -623    1    1    2    0    0  0.72527132572E-02 -0.10201115994E-01  0.28076061464E-03  0.17130000046E+03  0.17130000000E+03 0. -1.
      622    1    1    2    0    0 -0.40521795220E-02  0.42588695284E-02  0.35313907302E+01  0.35316221553E+01  0.40000000000E-01 0.  1.
</event>
<event>
 5   0  0.6200596E+07  0.9118800E+02  0.7818608E-02  0.1180000E+00
       11   -1    0    0    0    0  0.00000000000E+00  0.00000000000E+00  0.39999999673E+01  0.40000000000E+01  0.51109989000E-03 0. -1.
     -623   -1    0    0    0    0  0.00000000000E+00  0.00000000000E+00  0.12525980253E-10  0.17130000000E+03  0.17130000000E+03 0. -1.
       11    1    1    2    0    0  0.49552266777E-01  0.61049202943E-02  0.21000940297E+01  0.21006874808E+01  0.51109989000E-03 0. -1.
     -623    1    1    2    0    0  0.10489724134E-02 -0.16864551900E-01  0.17203323990E-02  0.17130000084E+03  0.17130000000E+03 0. -1.
      622    1    1    2    0    0 -0.50601239190E-01  0.10759631605E-01  0.18981856052E+01  0.18993116771E+01  0.40000000000E-01 0.  1.
</event>
<event>
 5   0  0.6200596E+07  0.9118800E+02  0.7818608E-02  0.1180000E+00
       11   -1    0    0    0    0  0.00000000000E+00  0.00000000000E+00  0.39999999673E+01  0.40000000000E+01  0.51109989000E-03 0.  1.
     -623   -1    0    0    0    0  0.00000000000E+00  0.00000000000E+00  0.12525980253E-10  0.17130000000E+03  0.17130000000E+03 0. -1.
       11    1    1    2    0    0 -0.52155377640E-02  0.11126504087E-01  0.77435876786E+00  0.77445643100E+00  0.51109989000E-03 0.  1.
     -623    1    1    2    0    0 -0.29133750588E-02 -0.15557835587E-01  0.35968005303E-03  0.17130000073E+03  0.17130000000E+03 0. -1.
      622    1    1    2    0    0  0.81289128228E-02  0.44313314998E-02  0.32252815194E+01  0.32255428374E+01  0.40000000000E-01 0.  1.
</event>
<event>
 5   0  0.6200596E+07  0.9118800E+02  0.7818608E-02  0.1180000E+00
       11   -1    0    0    0    0  0.00000000000E+00  0.00000000000E+00  0.39999999673E+01  0.40000000000E+01  0.51109989000E-03 0.  1.
     -623   -1    0    0    0    0  0.00000000000E+00  0.00000000000E+00  0.12525980253E-10  0.17130000000E+03  0.17130000000E+03 0. -1.
       11    1    1    2    0    0  0.15670528659E-02  0.13151181041E-02  0.45196210058E-02  0.49873224632E-02  0.51109989000E-03 0.  1.
     -623    1    1    2    0    0 -0.19676755979E-02 -0.18725958977E-02  0.66800534011E-03  0.17130000002E+03  0.17130000000E+03 0. -1.
      622    1    1    2    0    0  0.40062273203E-03  0.55747779367E-03  0.39948123410E+01  0.39950126547E+01  0.40000000000E-01 0.  1.
</event>
<event>
 5   0  0.6200596E+07  0.9118800E+02  0.7818608E-02  0.1180000E+00
       11   -1    0    0    0    0  0.00000000000E+00  0.00000000000E+00  0.39999999673E+01  0.40000000000E+01  0.51109989000E-03 0.  1.
     -623   -1    0    0    0    0  0.00000000000E+00  0.00000000000E+00  0.12525980253E-10  0.17130000000E+03  0.17130000000E+03 0. -1.
       11    1    1    2    0    0  0.51392514684E-02  0.17210154349E-01  0.19703373218E+00  0.19785134358E+00  0.51109989000E-03 0.  1.
     -623    1    1    2    0    0 -0.70099241806E-02 -0.25280379354E-01  0.10390294565E-02  0.17130000201E+03  0.17130000000E+03 0. -1.
      622    1    1    2    0    0  0.18706727122E-02  0.80702250058E-02  0.38019272057E+01  0.38021466444E+01  0.40000000000E-01 0.  1.
</event>
<event>
 5   0  0.6200596E+07  0.9118800E+02  0.7818608E-02  0.1180000E+00
       11   -1    0    0    0    0  0.00000000000E+00  0.00000000000E+00  0.39999999673E+01  0.40000000000E+01  0.51109989000E-03 0.  1.
     -623   -1    0    0    0    0  0.00000000000E+00  0.00000000000E+00  0.12525980253E-10  0.17130000000E+03  0.17130000000E+03 0. -1.
       11    1    1    2    0    0  0.15929140446E-01 -0.16711455793E-01  0.12376242298E+01  0.12378396527E+01  0.51109989000E-03 0.  1.
     -623    1    1    2    0    0  0.26568858126E-03 -0.32439607166E-03  0.60505863237E-03  0.17130000000E+03  0.17130000000E+03 0. -1.
      622    1    1    2    0    0 -0.16194829027E-01  0.17035851864E-01  0.27617706789E+01  0.27621603458E+01  0.40000000000E-01 0.  0.
</event>
<event>
 5   0  0.6200596E+07  0.9118800E+02  0.7818608E-02  0.1180000E+00
       11   -1    0    0    0    0  0.00000000000E+00  0.00000000000E+00  0.39999999673E+01  0.40000000000E+01  0.51109989000E-03 0.  1.
     -623   -1    0    0    0    0  0.00000000000E+00  0.00000000000E+00  0.12525980253E-10  0.17130000000E+03  0.17130000000E+03 0.  1.
       11    1    1    2    0    0  0.48540134533E-03  0.86698944383E-03  0.30237319113E-02  0.32235791581E-02  0.51109989000E-03 0.  1.
     -623    1    1    2    0    0 -0.14426565644E-02 -0.41229439160E-03  0.40012847268E-03  0.17130000001E+03  0.17130000000E+03 0.  1.
      622    1    1    2    0    0  0.95725521903E-03 -0.45469505223E-03  0.39965761070E+01  0.39967764138E+01  0.40000000000E-01 0.  1.
</event>
<event>
 5   0  0.6200596E+07  0.9118800E+02  0.7818608E-02  0.1180000E+00
       11   -1    0    0    0    0  0.00000000000E+00  0.00000000000E+00  0.39999999673E+01  0.40000000000E+01  0.51109989000E-03 0.  1.
     -623   -1    0    0    0    0  0.00000000000E+00  0.00000000000E+00  0.12525980253E-10  0.17130000000E+03  0.17130000000E+03 0.  1.
       11    1    1    2    0    0  0.54841562401E-02 -0.22220514387E-01  0.88815929183E-01  0.91718906046E-01  0.51109989000E-03 0.  1.
     -623    1    1    2    0    0  0.74610340106E-02  0.78838214324E-02  0.31557533149E-02  0.17130000037E+03  0.17130000000E+03 0.  1.
      622    1    1    2    0    0 -0.12945190251E-01  0.14336692955E-01  0.39080282849E+01  0.39082807210E+01  0.40000000000E-01 0.  1.
</event>
<event>
 5   0  0.6200596E+07  0.9118800E+02  0.7818608E-02  0.1180000E+00
       11   -1    0    0    0    0  0.00000000000E+00  0.00000000000E+00  0.39999999673E+01  0.40000000000E+01  0.51109989000E-03 0.  1.
     -623   -1    0    0    0    0  0.00000000000E+00  0.00000000000E+00  0.12525980253E-10  0.17130000000E+03  0.17130000000E+03 0.  1.
       11    1    1    2    0    0 -0.16108589249E-02 -0.12015841301E-02  0.12219658979E-01  0.12394351820E-01  0.51109989000E-03 0.  1.
     -623    1    1    2    0    0  0.61905558354E-03 -0.55347198953E-03  0.37579890776E-03  0.17130000000E+03  0.17130000000E+03 0.  1.
      622    1    1    2    0    0  0.99180334134E-03  0.17550561196E-02  0.39874045095E+01  0.39876056458E+01  0.40000000000E-01 0.  1.
</event>
<event>
 5   0  0.6200596E+07  0.9118800E+02  0.7818608E-02  0.1180000E+00
       11   -1    0    0    0    0  0.00000000000E+00  0.00000000000E+00  0.39999999673E+01  0.40000000000E+01  0.51109989000E-03 0.  1.
     -623   -1    0    0    0    0  0.00000000000E+00  0.00000000000E+00  0.12525980253E-10  0.17130000000E+03  0.17130000000E+03 0. -1.
       11    1    1    2    0    0 -0.76627628850E-02 -0.48358667399E-02  0.19091321201E+00  0.19112880286E+00  0.51109989000E-03 0.  1.
     -623    1    1    2    0    0  0.14058687480E-02 -0.63380446889E-02  0.44725419325E-03  0.17130000012E+03  0.17130000000E+03 0. -1.
      622    1    1    2    0    0  0.62568941370E-02  0.11173911429E-01  0.38086395012E+01  0.38088710735E+01  0.40000000000E-01 0.  0.
</event>
<event>
 5   0  0.6200596E+07  0.9118800E+02  0.7818608E-02  0.1180000E+00
       11   -1    0    0    0    0  0.00000000000E+00  0.00000000000E+00  0.39999999673E+01  0.40000000000E+01  0.51109989000E-03 0. -1.
     -623   -1    0    0    0    0  0.00000000000E+00  0.00000000000E+00  0.12525980253E-10  0.17130000000E+03  0.17130000000E+03 0.  1.
       11    1    1    2    0    0  0.14972353819E-02  0.17951876369E-02  0.59357391137E-02  0.63998931390E-02  0.51109989000E-03 0. -1.
     -623    1    1    2    0    0 -0.30012273715E-03  0.10910917135E-02  0.66567442656E-03  0.17130000001E+03  0.17130000000E+03 0.  1.
      622    1    1    2    0    0 -0.11971126447E-02 -0.28862793504E-02  0.39933985538E+01  0.39936001018E+01  0.40000000000E-01 0. -1.
</event>
<event>
 5   0  0.6200596E+07  0.9118800E+02  0.7818608E-02  0.1180000E+00
       11   -1    0    0    0    0  0.00000000000E+00  0.00000000000E+00  0.39999999673E+01  0.40000000000E+01  0.51109989000E-03 0. -1.
     -623   -1    0    0    0    0  0.00000000000E+00  0.00000000000E+00  0.12525980253E-10  0.17130000000E+03  0.17130000000E+03 0. -1.
       11    1    1    2    0    0 -0.17848944792E-02  0.92506656691E-03  0.73851013501E-02  0.76708892218E-02  0.51109989000E-03 0. -1.
     -623    1    1    2    0    0 -0.22827164765E-03 -0.14868537267E-02  0.48669897109E-03  0.17130000001E+03  0.17130000000E+03 0. -1.
      622    1    1    2    0    0  0.20131661268E-02  0.56178715984E-03  0.39921281670E+01  0.39923291035E+01  0.40000000000E-01 0. -1.
</event>
<event>
 5   0  0.6200596E+07  0.9118800E+02  0.7818608E-02  0.1180000E+00
       11   -1    0    0    0    0  0.00000000000E+00  0.00000000000E+00  0.39999999673E+01  0.40000000000E+01  0.51109989000E-03 0.  1.
     -623   -1    0    0    0    0  0.00000000000E+00  0.00000000000E+00  0.12525980253E-10  0.17130000000E+03  0.17130000000E+03 0. -1.
       11    1    1    2    0    0  0.59535223771E-03  0.16001118854E-03  0.16318634406E-01  0.16338271009E-01  0.51109989000E-03 0.  1.
     -623    1    1    2    0    0  0.15237731073E-03 -0.24339600027E-03  0.22050072200E-03  0.17130000000E+03  0.17130000000E+03 0. -1.
      622    1    1    2    0    0 -0.74772954843E-03  0.83384811728E-04  0.39834608322E+01  0.39836617286E+01  0.40000000000E-01 0.  1.
</event>
<event>
 5   0  0.6200596E+07  0.9118800E+02  0.7818608E-02  0.1180000E+00
       11   -1    0    0    0    0  0.00000000000E+00  0.00000000000E+00  0.39999999673E+01  0.40000000000E+01  0.51109989000E-03 0.  1.
     -623   -1    0    0    0    0  0.00000000000E+00  0.00000000000E+00  0.12525980253E-10  0.17130000000E+03  0.17130000000E+03 0. -1.
       11    1    1    2    0    0 -0.14823334670E-01 -0.99254669671E-03  0.29691196722E+00  0.29728386081E+00  0.51109989000E-03 0.  1.
     -623    1    1    2    0    0  0.58812795607E-02  0.57111177106E-02  0.60192702276E-03  0.17130000020E+03  0.17130000000E+03 0. -1.
      622    1    1    2    0    0  0.89420551096E-02 -0.47185710139E-02  0.37024860731E+01  0.37027159420E+01  0.40000000000E-01 0.  1.
</event>
<event>
 5   0  0.6200596E+07  0.9118800E+02  0.7818608E-02  0.1180000E+00
       11   -1    0    0    0    0  0.00000000000E+00  0.00000000000E+00  0.39999999673E+01  0.40000000000E+01  0.51109989000E-03 0.  1.
     -623   -1    0    0    0    0  0.00000000000E+00  0.00000000000E+00  0.12525980253E-10  0.17130000000E+03  0.17130000000E+03 0. -1.
       11    1    1    2    0    0 -0.77878531988E-01 -0.15315982652E-01  0.51142355556E+00  0.51754609406E+00  0.51109989000E-03 0.  1.
     -623    1    1    2    0    0 -0.19508159799E-02  0.82473340124E-02  0.72749338554E-02  0.17130000036E+03  0.17130000000E+03 0. -1.
      622    1    1    2    0    0  0.79829347967E-01  0.70686486396E-02  0.34813014779E+01  0.34824535418E+01  0.40000000000E-01 0.  1.
</event>
<event>
 5   0  0.6200596E+07  0.9118800E+02  0.7818608E-02  0.1180000E+00
       11   -1    0    0    0    0  0.00000000000E+00  0.00000000000E+00  0.39999999673E+01  0.40000000000E+01  0.51109989000E-03 0.  1.
     -623   -1    0    0    0    0  0.00000000000E+00  0.00000000000E+00  0.12525980253E-10  0.17130000000E+03  0.17130000000E+03 0.  1.
       11    1    1    2    0    0  0.22073854333E-02 -0.16100164529E-02  0.94986049639E-01  0.95026709672E-01  0.51109989000E-03 0.  1.
     -623    1    1    2    0    0 -0.26305428266E-03 -0.65202516584E-03  0.24664062670E-03  0.17130000000E+03  0.17130000000E+03 0.  1.
      622    1    1    2    0    0 -0.19443311506E-02  0.22620416187E-02  0.39047672771E+01  0.39049732887E+01  0.40000000000E-01 0.  1.
</event>
<event>
 5   0  0.6200596E+07  0.9118800E+02  0.7818608E-02  0.1180000E+00
       11   -1    0    0    0    0  0.00000000000E+00  0.00000000000E+00  0.39999999673E+01  0.40000000000E+01  0.51109989000E-03 0. -1.
     -623   -1    0    0    0    0  0.00000000000E+00  0.00000000000E+00  0.12525980253E-10  0.17130000000E+03  0.17130000000E+03 0. -1.
       11    1    1    2    0    0 -0.25864316541E-02 -0.99197760069E-02  0.17078396639E+01  0.17078705075E+01  0.51109989000E-03 0. -1.
     -623    1    1    2    0    0  0.27400511034E-02 -0.14790269336E-03  0.40199907672E-03  0.17130000002E+03  0.17130000000E+03 0. -1.
      622    1    1    2    0    0 -0.15361944939E-03  0.10067678700E-01  0.22917583044E+01  0.22921294701E+01  0.40000000000E-01 0. -1.
</event>
<event>
 5   0  0.6200596E+07  0.9118800E+02  0.7818608E-02  0.1180000E+00
       11   -1    0    0    0    0  0.00000000000E+00  0.00000000000E+00  0.39999999673E+01  0.40000000000E+01  0.51109989000E-03 0.  1.
     -623   -1    0    0    0    0  0.00000000000E+00  0.00000000000E+00  0.12525980253E-10  0.17130000000E+03  0.17130000000E+03 0.  1.
       11    1    1    2    0    0 -0.98961355305E-02  0.67727811093E-02  0.18657540313E+01  0.18657926387E+01  0.51109989000E-03 0.  1.
     -623    1    1    2    0    0  0.19005488358E-01 -0.60051622646E-02  0.43419656250E-03  0.17130000116E+03  0.17130000000E+03 0.  1.
      622    1    1    2    0    0 -0.91093528277E-02 -0.76761884469E-03  0.21338117395E+01  0.21342062012E+01  0.40000000000E-01 0.  1.
</event>
<event>
 5   0  0.6200596E+07  0.9118800E+02  0.7818608E-02  0.1180000E+00
       11   -1    0    0    0    0  0.00000000000E+00  0.00000000000E+00  0.39999999673E+01  0.40000000000E+01  0.51109989000E-03 0. -1.
     -623   -1    0    0    0    0  0.00000000000E+00  0.00000000000E+00  0.12525980253E-10  0.17130000000E+03  0.17130000000E+03 0.  1.
       11    1    1    2    0    0 -0.61856063533E-03  0.92065309463E-03  0.64080371992E-02  0.65233720270E-02  0.51109989000E-03 0. -1.
     -623    1    1    2    0    0  0.84927721693E-03 -0.36989285699E-03  0.31568135554E-03  0.17130000000E+03  0.17130000000E+03 0.  1.
      622    1    1    2    0    0 -0.23071658160E-03 -0.55076023763E-03  0.39932762488E+01  0.39934766252E+01  0.40000000000E-01 0. -1.
</event>
<event>
 5   0  0.6200596E+07  0.9118800E+02  0.7818608E-02  0.1180000E+00
       11   -1    0    0    0    0  0.00000000000E+00  0.00000000000E+00  0.39999999673E+01  0.40000000000E+01  0.51109989000E-03 0.  1.
     -623   -1    0    0    0    0  0.00000000000E+00  0.00000000000E+00  0.12525980253E-10  0.17130000000E+03  0.17130000000E+03 0. -1.
       11    1    1    2    0    0 -0.85155312137E-03 -0.31037944907E-03  0.98264662570E-02  0.98814036563E-02  0.51109989000E-03 0.  1.
     -623    1    1    2    0    0  0.83038356163E-03  0.13552024128E-02  0.25554951264E-03  0.17130000001E+03  0.17130000000E+03 0. -1.
      622    1    1    2    0    0  0.21169559740E-04 -0.10448229638E-02  0.39899179516E+01  0.39901185888E+01  0.40000000000E-01 0.  1.
</event>
<event>
 5   0  0.6200596E+07  0.9118800E+02  0.7818608E-02  0.1180000E+00
       11   -1    0    0    0    0  0.00000000000E+00  0.00000000000E+00  0.39999999673E+01  0.40000000000E+01  0.51109989000E-03 0. -1.
     -623   -1    0    0    0    0  0.00000000000E+00  0.00000000000E+00  0.12525980253E-10  0.17130000000E+03  0.17130000000E+03 0. -1.
       11    1    1    2    0    0 -0.11571558881E-01  0.78979804839E-02  0.34161370365E-01  0.36926135969E-01  0.51109989000E-03 0. -1.
     -623    1    1    2    0    0 -0.14170655559E-01  0.36291961432E-02  0.30676288219E-02  0.17130000065E+03  0.17130000000E+03 0. -1.
      622    1    1    2    0    0  0.25742214440E-01 -0.11527176627E-01  0.39627709682E+01  0.39630732120E+01  0.40000000000E-01 0. -1.
</event>
<event>
 5   0  0.6200596E+07  0.9118800E+02  0.7818608E-02  0.1180000E+00
       11   -1    0    0    0    0  0.00000000000E+00  0.00000000000E+00  0.39999999673E+01  0.40000000000E+01  0.51109989000E-03 0.  1.
     -623   -1    0    0    0    0  0.00000000000E+00  0.00000000000E+00  0.12525980253E-10  0.17130000000E+03  0.17130000000E+03 0. -1.
       11    1    1    2    0    0 -0.85623160422E-03  0.19087281166E-02  0.52140738363E-02  0.56412907994E-02  0.51109989000E-03 0.  1.
     -623    1    1    2    0    0  0.29588936480E-02  0.72104870103E-03  0.62891922285E-03  0.17130000003E+03  0.17130000000E+03 0. -1.
      622    1    1    2    0    0 -0.21026620438E-02 -0.26297768176E-02  0.39941569743E+01  0.39943586810E+01  0.40000000000E-01 0.  1.
</event>
<event>
 5   0  0.6200596E+07  0.9118800E+02  0.7818608E-02  0.1180000E+00
       11   -1    0    0    0    0  0.00000000000E+00  0.00000000000E+00  0.39999999673E+01  0.40000000000E+01  0.51109989000E-03 0. -1.
     -623   -1    0    0    0    0  0.00000000000E+00  0.00000000000E+00  0.12525980253E-10  0.17130000000E+03  0.17130000000E+03 0.  1.
       11    1    1    2    0    0  0.18448776224E-02 -0.70330237400E-03  0.64832055196E-02  0.67964241849E-02  0.51109989000E-03 0. -1.
     -623    1    1    2    0    0 -0.37711655345E-03 -0.84055169410E-03  0.51410291942E-03  0.17130000000E+03  0.17130000000E+03 0.  1.
      622    1    1    2    0    0 -0.14677610690E-02  0.15438540681E-02  0.39930026589E+01  0.39932035726E+01  0.40000000000E-01 0. -1.
</event>
<event>
 5   0  0.6200596E+07  0.9118800E+02  0.7818608E-02  0.1180000E+00
       11   -1    0    0    0    0  0.00000000000E+00  0.00000000000E+00  0.39999999673E+01  0.40000000000E+01  0.51109989000E-03 0.  1.
     -623   -1    0    0    0    0  0.00000000000E+00  0.00000000000E+00  0.12525980253E-10  0.17130000000E+03  0.17130000000E+03 0.  1.
       11    1    1    2    0    0 -0.32478984327E-02  0.21345444713E-03  0.18906939034E-01  0.19191872531E-01  0.51109989000E-03 0.  1.
     -623    1    1    2    0    0 -0.55194267811E-03 -0.28479552779E-03  0.48768625142E-03  0.17130000000E+03  0.17130000000E+03 0.  1.
      622    1    1    2    0    0  0.37998411109E-02  0.71341080655E-04  0.39806053421E+01  0.39808081256E+01  0.40000000000E-01 0.  1.
</event>
<event>
 5   0  0.6200596E+07  0.9118800E+02  0.7818608E-02  0.1180000E+00
       11   -1    0    0    0    0  0.00000000000E+00  0.00000000000E+00  0.39999999673E+01  0.40000000000E+01  0.51109989000E-03 0.  1.
     -623   -1    0    0    0    0  0.00000000000E+00  0.00000000000E+00  0.12525980253E-10  0.17130000000E+03  0.17130000000E+03 0.  1.
       11    1    1    2    0    0  0.96021153919E-02 -0.40884585518E-02  0.48327505575E+00  0.48338799824E+00  0.51109989000E-03 0.  1.
     -623    1    1    2    0    0 -0.64372011897E-02 -0.21922102794E-02  0.34757753345E-03  0.17130000014E+03  0.17130000000E+03 0.  1.
      622    1    1    2    0    0 -0.31649142022E-02  0.62806688312E-02  0.35163773341E+01  0.35166118664E+01  0.40000000000E-01 0.  1.
</event>
<event>
 5   0  0.6200596E+07  0.9118800E+02  0.7818608E-02  0.1180000E+00
       11   -1    0    0    0    0  0.00000000000E+00  0.00000000000E+00  0.39999999673E+01  0.40000000000E+01  0.51109989000E-03 0. -1.
     -623   -1    0    0    0    0  0.00000000000E+00  0.00000000000E+00  0.12525980253E-10  0.17130000000E+03  0.17130000000E+03 0.  1.
       11    1    1    2    0    0 -0.50571398954E-01 -0.12121598517E-01  0.33309546401E+01  0.33313606042E+01  0.51109989000E-03 0. -1.
     -623    1    1    2    0    0  0.47225036505E-01 -0.34394584362E-01  0.32448132737E-02  0.17130000999E+03  0.17130000000E+03 0.  1.
      622    1    1    2    0    0  0.33463624491E-02  0.46516182879E-01  0.66580051395E+00  0.66862940243E+00  0.40000000000E-01 0. -1.
</event>
<event>
 5   0  0.6200596E+07  0.9118800E+02  0.7818608E-02  0.1180000E+00
       11   -1    0    0    0    0  0.00000000000E+00  0.00000000000E+00  0.39999999673E+01  0.40000000000E+01  0.51109989000E-03 0. -1.
     -623   -1    0    0    0    0  0.00000000000E+00  0.00000000000E+00  0.12525980253E-10  0.17130000000E+03  0.17130000000E+03 0.  1.
       11    1    1    2    0    0  0.68278457143E-02  0.78355493523E-02  0.63242663390E-02  0.12176735008E-01  0.51109989000E-03 0. -1.
     -623    1    1    2    0    0 -0.10946289003E-01 -0.62919115823E-02  0.60560497002E-02  0.17130000057E+03  0.17130000000E+03 0.  1.
      622    1    1    2    0    0  0.41184432891E-02 -0.15436377700E-02  0.39876196513E+01  0.39878226926E+01  0.40000000000E-01 0. -1.
</event>
<event>
 5   0  0.6200596E+07  0.9118800E+02  0.7818608E-02  0.1180000E+00
       11   -1    0    0    0    0  0.00000000000E+00  0.00000000000E+00  0.39999999673E+01  0.40000000000E+01  0.51109989000E-03 0.  1.
     -623   -1    0    0    0    0  0.00000000000E+00  0.00000000000E+00  0.12525980253E-10  0.17130000000E+03  0.17130000000E+03 0.  1.
       11    1    1    2    0    0 -0.25252933314E-01 -0.77597516478E-02  0.63609342546E+00  0.63664199635E+00  0.51109989000E-03 0.  1.
     -623    1    1    2    0    0  0.20491694477E-01  0.13598198091E-01  0.79660968674E-03  0.17130000177E+03  0.17130000000E+03 0.  1.
      622    1    1    2    0    0  0.47612388374E-02 -0.58384464427E-02  0.33631099322E+01  0.33633562364E+01  0.40000000000E-01 0.  0.
</event>
<event>
 5   0  0.6200596E+07  0.9118800E+02  0.7818608E-02  0.1180000E+00
       11   -1    0    0    0    0  0.00000000000E+00  0.00000000000E+00  0.39999999673E+01  0.40000000000E+01  0.51109989000E-03 0. -1.
     -623   -1    0    0    0    0  0.00000000000E+00  0.00000000000E+00  0.12525980253E-10  0.17130000000E+03  0.17130000000E+03 0. -1.
       11    1    1    2    0    0  0.62409974153E-02 -0.34746084434E-03  0.43053941831E-01  0.43508319971E-01  0.51109989000E-03 0. -1.
     -623    1    1    2    0    0 -0.10656725079E-03  0.81163908086E-03  0.66133634556E-03  0.17130000000E+03  0.17130000000E+03 0. -1.
      622    1    1    2    0    0 -0.61344301645E-02 -0.46417823652E-03  0.39562846892E+01  0.39564916768E+01  0.40000000000E-01 0. -1.
</event>
<event>
 5   0  0.6200596E+07  0.9118800E+02  0.7818608E-02  0.1180000E+00
       11   -1    0    0    0    0  0.00000000000E+00  0.00000000000E+00  0.39999999673E+01  0.40000000000E+01  0.51109989000E-03 0. -1.
     -623   -1    0    0    0    0  0.00000000000E+00  0.00000000000E+00  0.12525980253E-10  0.17130000000E+03  0.17130000000E+03 0.  1.
       11    1    1    2    0    0 -0.65314423247E-03  0.30534681969E-03  0.13102834813E-01  0.13132605850E-01  0.51109989000E-03 0. -1.
     -623    1    1    2    0    0 -0.13345339855E-02 -0.40434994816E-03  0.23090481039E-03  0.17130000001E+03  0.17130000000E+03 0.  1.
      622    1    1    2    0    0  0.19876782180E-02  0.99003128473E-04  0.39866662277E+01  0.39868673883E+01  0.40000000000E-01 0. -1.
</event>
<event>
 5   0  0.6200596E+07  0.9118800E+02  0.7818608E-02  0.1180000E+00
       11   -1    0    0    0    0  0.00000000000E+00  0.00000000000E+00  0.39999999673E+01  0.40000000000E+01  0.51109989000E-03 0.  1.
     -623   -1    0    0    0    0  0.00000000000E+00  0.00000000000E+00  0.12525980253E-10  0.17130000000E+03  0.17130000000E+03 0. -1.
       11    1    1    2    0    0  0.14082431040E-01 -0.86678748819E-02  0.55182951682E+00  0.55207746175E+00  0.51109989000E-03 0.  1.
     -623    1    1    2    0    0 -0.85865674820E-02  0.19756650753E-01  0.50351205623E-03  0.17130000136E+03  0.17130000000E+03 0. -1.
      622    1    1    2    0    0 -0.54958635576E-02 -0.11088775871E-01  0.34476669385E+01  0.34479211830E+01  0.40000000000E-01 0.  1.
</event>
<event>
 5   0  0.6200596E+07  0.9118800E+02  0.7818608E-02  0.1180000E+00
       11   -1    0    0    0    0  0.00000000000E+00  0.00000000000E+00  0.39999999673E+01  0.40000000000E+01  0.51109989000E-03 0.  1.
     -623   -1    0    0    0    0  0.00000000000E+00  0.00000000000E+00  0.12525980253E-10  0.17130000000E+03  0.17130000000E+03 0. -1.
       11    1    1    2    0    0  0.22186058344E-02 -0.39730116597E-02  0.14933468478E+00  0.14940487386E+00  0.51109989000E-03 0.  1.
     -623    1    1    2    0    0 -0.34398272274E-02  0.23106709128E-02  0.27852499778E-03  0.17130000005E+03  0.17130000000E+03 0. -1.
      622    1    1    2    0    0  0.12212213929E-02  0.16623407470E-02  0.38503867576E+01  0.38505950758E+01  0.40000000000E-01 0.  1.
</event>
<event>
 5   0  0.6200596E+07  0.9118800E+02  0.7818608E-02  0.1180000E+00
       11   -1    0    0    0    0  0.00000000000E+00  0.00000000000E+00  0.39999999673E+01  0.40000000000E+01  0.51109989000E-03 0.  1.
     -623   -1    0    0    0    0  0.00000000000E+00  0.00000000000E+00  0.12525980253E-10  0.17130000000E+03  0.17130000000E+03 0. -1.
       11    1    1    2    0    0  0.10970102184E-02  0.41973391831E-02  0.38450775779E+00  0.38453257093E+00  0.51109989000E-03 0.  1.
     -623    1    1    2    0    0 -0.39464675467E-02  0.21951390138E-02  0.25289305545E-03  0.17130000006E+03  0.17130000000E+03 0. -1.
      622    1    1    2    0    0  0.28494573283E-02 -0.63924781969E-02  0.36152393165E+01  0.36154673694E+01  0.40000000000E-01 0.  1.
</event>
<event>
 5   0  0.6200596E+07  0.9118800E+02  0.7818608E-02  0.1180000E+00
       11   -1    0    0    0    0  0.00000000000E+00  0.00000000000E+00  0.39999999673E+01  0.40000000000E+01  0.51109989000E-03 0.  1.
     -623   -1    0    0    0    0  0.00000000000E+00  0.00000000000E+00  0.12525980253E-10  0.17130000000E+03  0.17130000000E+03 0. -1.
       11    1    1    2    0    0  0.10122907154E-02  0.35716657896E-04  0.53811917170E-01  0.53823876293E-01  0.51109989000E-03 0.  1.
     -623    1    1    2    0    0 -0.33725213299E-02 -0.20651281124E-02  0.21593310916E-03  0.17130000005E+03  0.17130000000E+03 0. -1.
      622    1    1    2    0    0  0.23602306145E-02  0.20294114545E-02  0.39459721171E+01  0.39461760779E+01  0.40000000000E-01 0.  1.
</event>
<event>
 5   0  0.6200596E+07  0.9118800E+02  0.7818608E-02  0.1180000E+00
       11   -1    0    0    0    0  0.00000000000E+00  0.00000000000E+00  0.39999999673E+01  0.40000000000E+01  0.51109989000E-03 0.  1.
     -623   -1    0    0    0    0  0.00000000000E+00  0.00000000000E+00  0.12525980253E-10  0.17130000000E+03  0.17130000000E+03 0. -1.
       11    1    1    2    0    0 -0.21109791981E-01 -0.17356890120E-01  0.16569284798E+01  0.16571539257E+01  0.51109989000E-03 0.  1.
     -623    1    1    2    0    0 -0.50149268223E-03  0.12575267416E-01  0.67193922255E-03  0.17130000046E+03  0.17130000000E+03 0. -1.
      622    1    1    2    0    0  0.21611284663E-01  0.47816227037E-02  0.23423995483E+01  0.23428456107E+01  0.40000000000E-01 0.  0.
</event>
<event>
 5   0  0.6200596E+07  0.9118800E+02  0.7818608E-02  0.1180000E+00
       11   -1    0    0    0    0  0.00000000000E+00  0.00000000000E+00  0.39999999673E+01  0.40000000000E+01  0.51109989000E-03 0.  1.
     -623   -1    0    0    0    0  0.00000000000E+00  0.00000000000E+00  0.12525980253E-10  0.17130000000E+03  0.17130000000E+03 0. -1.
       11    1    1    2    0    0 -0.22113825812E-01  0.11451730889E-01  0.17780937964E+01  0.17782682513E+01  0.51109989000E-03 0.  1.
     -623    1    1    2    0    0 -0.90063330291E-02 -0.34674130937E-01  0.87767865812E-03  0.17130000375E+03  0.17130000000E+03 0. -1.
      622    1    1    2    0    0  0.31120158841E-01  0.23222400048E-01  0.22210284923E+01  0.22217280004E+01  0.40000000000E-01 0.  0.
</event>
<event>
 5   0  0.6200596E+07  0.9118800E+02  0.7818608E-02  0.1180000E+00
       11   -1    0    0    0    0  0.00000000000E+00  0.00000000000E+00  0.39999999673E+01  0.40000000000E+01  0.51109989000E-03 0. -1.
     -623   -1    0    0    0    0  0.00000000000E+00  0.00000000000E+00  0.12525980253E-10  0.17130000000E+03  0.17130000000E+03 0. -1.
       11    1    1    2    0    0 -0.55775848987E-02 -0.73433401229E-02  0.14028626719E+00  0.14058994302E+00  0.51109989000E-03 0. -1.
     -623    1    1    2    0    0  0.35427976546E-02 -0.14600088041E-02  0.52155522447E-03  0.17130000004E+03  0.17130000000E+03 0. -1.
      622    1    1    2    0    0  0.20347872441E-02  0.88033489271E-02  0.38591921450E+01  0.38594100133E+01  0.40000000000E-01 0. -1.
</event>
<event>
 5   0  0.6200596E+07  0.9118800E+02  0.7818608E-02  0.1180000E+00
       11   -1    0    0    0    0  0.00000000000E+00  0.00000000000E+00  0.39999999673E+01  0.40000000000E+01  0.51109989000E-03 0.  1.
     -623   -1    0    0    0    0  0.00000000000E+00  0.00000000000E+00  0.12525980253E-10  0.17130000000E+03  0.17130000000E+03 0.  1.
       11    1    1    2    0    0  0.28527314906E-02 -0.36421421850E-02  0.13323625675E+00  0.13331753301E+00  0.51109989000E-03 0.  1.
     -623    1    1    2    0    0 -0.93701383954E-02  0.61577907052E-02  0.29482341656E-03  0.17130000037E+03  0.17130000000E+03 0.  1.
      622    1    1    2    0    0  0.65174069048E-02 -0.25156485202E-02  0.38664688872E+01  0.38666820998E+01  0.40000000000E-01 0.  1.
</event>
<event>
 5   0  0.6200596E+07  0.9118800E+02  0.7818608E-02  0.1180000E+00
       11   -1    0    0    0    0  0.00000000000E+00  0.00000000000E+00  0.39999999673E+01  0.40000000000E+01  0.51109989000E-03 0.  1.
     -623   -1    0    0    0    0  0.00000000000E+00  0.00000000000E+00  0.12525980253E-10  0.17130000000E+03  0.17130000000E+03 0.  1.
       11    1    1    2    0    0 -0.84461890197E-02 -0.15451017003E-01  0.11831927093E+00  0.11962350576E+00  0.51109989000E-03 0.  1.
     -623    1    1    2    0    0  0.12210480064E-01 -0.83039713612E-02  0.15855595403E-02  0.17130000064E+03  0.17130000000E+03 0.  1.
      622    1    1    2    0    0 -0.37642910445E-02  0.23754988364E-01  0.38800951369E+01  0.38803758504E+01  0.40000000000E-01 0.  1.
</event>
<event>
 5   0  0.6200596E+07  0.9118800E+02  0.7818608E-02  0.1180000E+00
       11   -1    0    0    0    0  0.00000000000E+00  0.00000000000E+00  0.39999999673E+01  0.40000000000E+01  0.51109989000E-03 0.  1.
     -623   -1    0    0    0    0  0.00000000000E+00  0.00000000000E+00  0.12525980253E-10  0.17130000000E+03  0.17130000000E+03 0. -1.
       11    1    1    2    0    0  0.95072093707E-02 -0.13235923270E-01  0.19884673790E+00  0.19951406740E+00  0.51109989000E-03 0.  1.
     -623    1    1    2    0    0  0.81643293618E-03  0.60171495235E-04  0.91466952305E-03  0.17130000000E+03  0.17130000000E+03 0. -1.
      622    1    1    2    0    0 -0.10323642307E-01  0.13175751775E-01  0.38002385599E+01  0.38004859282E+01  0.40000000000E-01 0.  1.
</event>
<event>
 5   0  0.6200596E+07  0.9118800E+02  0.7818608E-02  0.1180000E+00
       11   -1    0    0    0    0  0.00000000000E+00  0.00000000000E+00  0.39999999673E+01  0.40000000000E+01  0.51109989000E-03 0. -1.
     -623   -1    0    0    0    0  0.00000000000E+00  0.00000000000E+00  0.12525980253E-10  0.17130000000E+03  0.17130000000E+03 0.  1.
       11    1    1    2    0    0 -0.24691638452E-02  0.28094881162E-02  0.87019149164E-01  0.87100996184E-01  0.51109989000E-03 0. -1.
     -623    1    1    2    0    0  0.47287688001E-02  0.16571515329E-02  0.28954722295E-03  0.17130000007E+03  0.17130000000E+03 0.  1.
      622    1    1    2    0    0 -0.22596049550E-02 -0.44666396492E-02  0.39126912710E+01  0.39128989303E+01  0.40000000000E-01 0. -1.
</event>
<event>
 5   0  0.6200596E+07  0.9118800E+02  0.7818608E-02  0.1180000E+00
       11   -1    0    0    0    0  0.00000000000E+00  0.00000000000E+00  0.39999999673E+01  0.40000000000E+01  0.51109989000E-03 0. -1.
     -623   -1    0    0    0    0  0.00000000000E+00  0.00000000000E+00  0.12525980253E-10  0.17130000000E+03  0.17130000000E+03 0.  1.
       11    1    1    2    0    0 -0.68587570964E-02 -0.70483582241E-03  0.12735635931E+01  0.12735823594E+01  0.51109989000E-03 0. -1.
     -623    1    1    2    0    0  0.13850149131E-02  0.13969819824E-02  0.31776958987E-03  0.17130000001E+03  0.17130000000E+03 0.  1.
      622    1    1    2    0    0  0.54737421833E-02 -0.69214615998E-03  0.27261186047E+01  0.27264176290E+01  0.40000000000E-01 0. -1.
</event>
<event>
 5   0  0.6200596E+07  0.9118800E+02  0.7818608E-02  0.1180000E+00
       11   -1    0    0    0    0  0.00000000000E+00  0.00000000000E+00  0.39999999673E+01  0.40000000000E+01  0.51109989000E-03 0.  1.
     -623   -1    0    0    0    0  0.00000000000E+00  0.00000000000E+00  0.12525980253E-10  0.17130000000E+03  0.17130000000E+03 0. -1.
       11    1    1    2    0    0 -0.27948936839E-02  0.29592035889E-02  0.66749742851E-02  0.78348465831E-02  0.51109989000E-03 0.  1.
     -623    1    1    2    0    0 -0.74507456059E-03 -0.17397858452E-02  0.13620088915E-02  0.17130000002E+03  0.17130000000E+03 0. -1.
      622    1    1    2    0    0  0.35399682445E-02 -0.12194177437E-02  0.39919629842E+01  0.39921651375E+01  0.40000000000E-01 0.  1.
</event>
<event>
 5   0  0.6200596E+07  0.9118800E+02  0.7818608E-02  0.1180000E+00
       11   -1    0    0    0    0  0.00000000000E+00  0.00000000000E+00  0.39999999673E+01  0.40000000000E+01  0.51109989000E-03 0. -1.
     -623   -1    0    0    0    0  0.00000000000E+00  0.00000000000E+00  0.12525980253E-10  0.17130000000E+03  0.17130000000E+03 0.  1.
       11    1    1    2    0    0 -0.74549772944E-02 -0.89774541838E-02  0.98156466992E+00  0.98163416496E+00  0.51109989000E-03 0. -1.
     -623    1    1    2    0    0  0.24503295538E-03 -0.58641793389E-03  0.35828487410E-03  0.17130000000E+03  0.17130000000E+03 0.  1.
      622    1    1    2    0    0  0.72099443390E-02  0.95638721177E-02  0.30180770126E+01  0.30183658335E+01  0.40000000000E-01 0.  1.
</event>
<event>
 5   0  0.6200596E+07  0.9118800E+02  0.7818608E-02  0.1180000E+00
       11   -1    0    0    0    0  0.00000000000E+00  0.00000000000E+00  0.39999999673E+01  0.40000000000E+01  0.51109989000E-03 0. -1.
     -623   -1    0    0    0    0  0.00000000000E+00  0.00000000000E+00  0.12525980253E-10  0.17130000000E+03  0.17130000000E+03 0. -1.
       11    1    1    2    0    0  0.42188519373E-02  0.68598650151E-03  0.34419826060E+00  0.34422517792E+00  0.51109989000E-03 0. -1.
     -623    1    1    2    0    0 -0.14856220017E-02 -0.72268535621E-03  0.24675321925E-03  0.17130000001E+03  0.17130000000E+03 0. -1.
      622    1    1    2    0    0 -0.27332299356E-02  0.36698854702E-04  0.36555549535E+01  0.36557748139E+01  0.40000000000E-01 0. -1.
</event>
<event>
 5   0  0.6200596E+07  0.9118800E+02  0.7818608E-02  0.1180000E+00
       11   -1    0    0    0    0  0.00000000000E+00  0.00000000000E+00  0.39999999673E+01  0.40000000000E+01  0.51109989000E-03 0.  1.
     -623   -1    0    0    0    0  0.00000000000E+00  0.00000000000E+00  0.12525980253E-10  0.17130000000E+03  0.17130000000E+03 0.  1.
       11    1    1    2    0    0  0.16399112490E-02  0.29472495703E-02  0.15036326679E+00  0.15040195747E+00  0.51109989000E-03 0.  1.
     -623    1    1    2    0    0 -0.35836354908E-02  0.10608357544E-02  0.24909590282E-03  0.17130000004E+03  0.17130000000E+03 0.  1.
      622    1    1    2    0    0  0.19437242419E-02 -0.40080853247E-02  0.38493876047E+01  0.38495980016E+01  0.40000000000E-01 0.  1.
</event>
<event>
 5   0  0.6200596E+07  0.9118800E+02  0.7818608E-02  0.1180000E+00
       11   -1    0    0    0    0  0.00000000000E+00  0.00000000000E+00  0.39999999673E+01  0.40000000000E+01  0.51109989000E-03 0.  1.
     -623   -1    0    0    0    0  0.00000000000E+00  0.00000000000E+00  0.12525980253E-10  0.17130000000E+03  0.17130000000E+03 0. -1.
       11    1    1    2    0    0  0.15394751360E-02  0.50789841730E-03  0.15194008330E-01  0.15288788551E-01  0.51109989000E-03 0.  1.
     -623    1    1    2    0    0 -0.41546114201E-02  0.19162332088E-02  0.29717697004E-03  0.17130000006E+03  0.17130000000E+03 0. -1.
      622    1    1    2    0    0  0.26151362841E-02 -0.24241316261E-02  0.39845087821E+01  0.39847111501E+01  0.40000000000E-01 0.  1.
</event>
<event>
 5   0  0.6200596E+07  0.9118800E+02  0.7818608E-02  0.1180000E+00
       11   -1    0    0    0    0  0.00000000000E+00  0.00000000000E+00  0.39999999673E+01  0.40000000000E+01  0.51109989000E-03 0.  1.
     -623   -1    0    0    0    0  0.00000000000E+00  0.00000000000E+00  0.12525980253E-10  0.17130000000E+03  0.17130000000E+03 0. -1.
       11    1    1    2    0    0 -0.68200936523E-03  0.36710677169E-02  0.64980326215E+00  0.64981419082E+00  0.51109989000E-03 0.  1.
     -623    1    1    2    0    0 -0.73615916032E-03  0.45105194154E-03  0.25253595872E-03  0.17130000000E+03  0.17130000000E+03 0. -1.
      622    1    1    2    0    0  0.14181685256E-02 -0.41221196584E-02  0.33499441693E+01  0.33501858068E+01  0.40000000000E-01 0.  1.
</event>
<event>
 5   0  0.6200596E+07  0.9118800E+02  0.7818608E-02  0.1180000E+00
       11   -1    0    0    0    0  0.00000000000E+00  0.00000000000E+00  0.39999999673E+01  0.40000000000E+01  0.51109989000E-03 0.  1.
     -623   -1    0    0    0    0  0.00000000000E+00  0.00000000000E+00  0.12525980253E-10  0.17130000000E+03  0.17130000000E+03 0. -1.
       11    1    1    2    0    0 -0.33059745469E-02  0.10918674414E-02  0.16115840334E-01  0.16495550089E-01  0.51109989000E-03 0.  1.
     -623    1    1    2    0    0  0.11367862377E-02  0.92496344606E-03  0.58161884699E-03  0.17130000001E+03  0.17130000000E+03 0. -1.
      622    1    1    2    0    0  0.21691883092E-02 -0.20168308875E-02  0.39833025082E+01  0.39835044427E+01  0.40000000000E-01 0.  1.
</event>
<event>
 5   0  0.6200596E+07  0.9118800E+02  0.7818608E-02  0.1180000E+00
       11   -1    0    0    0    0  0.00000000000E+00  0.00000000000E+00  0.39999999673E+01  0.40000000000E+01  0.51109989000E-03 0.  1.
     -623   -1    0    0    0    0  0.00000000000E+00  0.00000000000E+00  0.12525980253E-10  0.17130000000E+03  0.17130000000E+03 0.  1.
       11    1    1    2    0    0 -0.46420462535E-01  0.66756536197E-02  0.11801793459E+01  0.11811109065E+01  0.51109989000E-03 0.  1.
     -623    1    1    2    0    0  0.41611093802E-02 -0.20615831080E-01  0.15679321575E-02  0.17130000130E+03  0.17130000000E+03 0.  1.
      622    1    1    2    0    0  0.42259353155E-01  0.13940177461E-01  0.28182526893E+01  0.28188877953E+01  0.40000000000E-01 0.  1.
</event>
<event>
 5   0  0.6200596E+07  0.9118800E+02  0.7818608E-02  0.1180000E+00
       11   -1    0    0    0    0  0.00000000000E+00  0.00000000000E+00  0.39999999673E+01  0.40000000000E+01  0.51109989000E-03 0.  1.
     -623   -1    0    0    0    0  0.00000000000E+00  0.00000000000E+00  0.12525980253E-10  0.17130000000E+03  0.17130000000E+03 0.  1.
       11    1    1    2    0    0  0.10984781046E-03 -0.17758652675E-02  0.75820601132E-01  0.75843197060E-01  0.51109989000E-03 0.  1.
     -623    1    1    2    0    0  0.10814257725E-02 -0.67305885584E-03  0.22738393536E-03  0.17130000000E+03  0.17130000000E+03 0.  1.
      622    1    1    2    0    0 -0.11912735829E-02  0.24489241233E-02  0.39239519823E+01  0.39241567981E+01  0.40000000000E-01 0.  1.
</event>
<event>
 5   0  0.6200596E+07  0.9118800E+02  0.7818608E-02  0.1180000E+00
       11   -1    0    0    0    0  0.00000000000E+00  0.00000000000E+00  0.39999999673E+01  0.40000000000E+01  0.51109989000E-03 0. -1.
     -623   -1    0    0    0    0  0.00000000000E+00  0.00000000000E+00  0.12525980253E-10  0.17130000000E+03  0.17130000000E+03 0. -1.
       11    1    1    2    0    0 -0.34585116795E-01 -0.18392972302E-01  0.18712327869E+01  0.18716428173E+01  0.51109989000E-03 0. -1.
     -623    1    1    2    0    0 -0.93887170392E-02 -0.17254954477E-02  0.13357028864E-02  0.17130000027E+03  0.17130000000E+03 0. -1.
      622    1    1    2    0    0  0.43973833834E-01  0.20118467749E-01  0.21274314776E+01  0.21283569115E+01  0.40000000000E-01 0.  0.
</event>
<event>
 5   0  0.6200596E+07  0.9118800E+02  0.7818608E-02  0.1180000E+00
       11   -1    0    0    0    0  0.00000000000E+00  0.00000000000E+00  0.39999999673E+01  0.40000000000E+01  0.51109989000E-03 0.  1.
     -623   -1    0    0    0    0  0.00000000000E+00  0.00000000000E+00  0.12525980253E-10  0.17130000000E+03  0.17130000000E+03 0.  1.
       11    1    1    2    0    0 -0.40660777531E-02 -0.16986976768E-02  0.19783941645E-01  0.20275209739E-01  0.51109989000E-03 0.  1.
     -623    1    1    2    0    0 -0.77674602285E-03  0.70453242922E-03  0.69533496199E-03  0.17130000000E+03  0.17130000000E+03 0.  1.
      622    1    1    2    0    0  0.48428237759E-02  0.99416524759E-03  0.39795206908E+01  0.39797247856E+01  0.40000000000E-01 0.  1.
</event>
<event>
 5   0  0.6200596E+07  0.9118800E+02  0.7818608E-02  0.1180000E+00
       11   -1    0    0    0    0  0.00000000000E+00  0.00000000000E+00  0.39999999673E+01  0.40000000000E+01  0.51109989000E-03 0.  1.
     -623   -1    0    0    0    0  0.00000000000E+00  0.00000000000E+00  0.12525980253E-10  0.17130000000E+03  0.17130000000E+03 0.  1.
       11    1    1    2    0    0 -0.13008961850E-02  0.55407745189E-02  0.16158481997E-01  0.17139144561E-01  0.51109989000E-03 0.  1.
     -623    1    1    2    0    0  0.14077160738E-02 -0.10206620155E-02  0.11840750316E-02  0.17130000001E+03  0.17130000000E+03 0.  1.
      622    1    1    2    0    0 -0.10681988878E-03 -0.45201125034E-02  0.39826574103E+01  0.39828608425E+01  0.40000000000E-01 0.  1.
</event>
<event>
 5   0  0.6200596E+07  0.9118800E+02  0.7818608E-02  0.1180000E+00
       11   -1    0    0    0    0  0.00000000000E+00  0.00000000000E+00  0.39999999673E+01  0.40000000000E+01  0.51109989000E-03 0. -1.
     -623   -1    0    0    0    0  0.00000000000E+00  0.00000000000E+00  0.12525980253E-10  0.17130000000E+03  0.17130000000E+03 0. -1.
       11    1    1    2    0    0  0.41128132581E-02 -0.14743177647E-02  0.64851949834E-01  0.65000965096E-01  0.51109989000E-03 0. -1.
     -623    1    1    2    0    0  0.55241782688E-03 -0.16544362308E-02  0.35631040652E-03  0.17130000001E+03  0.17130000000E+03 0. -1.
      622    1    1    2    0    0 -0.46652310850E-02  0.31287539956E-02  0.39347917071E+01  0.39349990257E+01  0.40000000000E-01 0. -1.
</event>
<event>
 5   0  0.6200596E+07  0.9118800E+02  0.7818608E-02  0.1180000E+00
       11   -1    0    0    0    0  0.00000000000E+00  0.00000000000E+00  0.39999999673E+01  0.40000000000E+01  0.51109989000E-03 0.  1.
     -623   -1    0    0    0    0  0.00000000000E+00  0.00000000000E+00  0.12525980253E-10  0.17130000000E+03  0.17130000000E+03 0.  1.
       11    1    1    2    0    0 -0.31195625513E-02 -0.20310920385E-02  0.23631636012E-01  0.23928486124E-01  0.51109989000E-03 0.  1.
     -623    1    1    2    0    0  0.53626188665E-03 -0.10098128354E-02  0.50003287979E-03  0.17130000000E+03  0.17130000000E+03 0.  1.
      622    1    1    2    0    0  0.25833006647E-02  0.30409048738E-02  0.39758682985E+01  0.39760715093E+01  0.40000000000E-01 0.  1.
</event>
<event>
 5   0  0.6200596E+07  0.9118800E+02  0.7818608E-02  0.1180000E+00
       11   -1    0    0    0    0  0.00000000000E+00  0.00000000000E+00  0.39999999673E+01  0.40000000000E+01  0.51109989000E-03 0. -1.
     -623   -1    0    0    0    0  0.00000000000E+00  0.00000000000E+00  0.12525980253E-10  0.17130000000E+03  0.17130000000E+03 0.  1.
       11    1    1    2    0    0  0.12140512591E-01  0.11517297179E-01  0.12139395938E+00  0.12254303235E+00  0.51109989000E-03 0. -1.
     -623    1    1    2    0    0 -0.12621481893E-02 -0.72818300567E-02  0.13731056349E-02  0.17130000016E+03  0.17130000000E+03 0.  1.
      622    1    1    2    0    0 -0.10878364402E-01 -0.42354671219E-02  0.38772329023E+01  0.38774568027E+01  0.40000000000E-01 0. -1.
</event>
<event>
 5   0  0.6200596E+07  0.9118800E+02  0.7818608E-02  0.1180000E+00
       11   -1    0    0    0    0  0.00000000000E+00  0.00000000000E+00  0.39999999673E+01  0.40000000000E+01  0.51109989000E-03 0.  1.
     -623   -1    0    0    0    0  0.00000000000E+00  0.00000000000E+00  0.12525980253E-10  0.17130000000E+03  0.17130000000E+03 0. -1.
       11    1    1    2    0    0 -0.11968644968E-01  0.30492499999E-02  0.57178725713E+00  0.57192086431E+00  0.51109989000E-03 0.  1.
     -623    1    1    2    0    0  0.50282014766E-01 -0.51030915123E-01  0.93191082696E-03  0.17130001498E+03  0.17130000000E+03 0. -1.
      622    1    1    2    0    0 -0.38313369798E-01  0.47981665123E-01  0.34272807994E+01  0.34280641523E+01  0.40000000000E-01 0. -1.
</event>
<event>
 5   0  0.6200596E+07  0.9118800E+02  0.7818608E-02  0.1180000E+00
       11   -1    0    0    0    0  0.00000000000E+00  0.00000000000E+00  0.39999999673E+01  0.40000000000E+01  0.51109989000E-03 0. -1.
     -623   -1    0    0    0    0  0.00000000000E+00  0.00000000000E+00  0.12525980253E-10  0.17130000000E+03  0.17130000000E+03 0. -1.
       11    1    1    2    0    0  0.48867393626E-02  0.55854340306E-02  0.36879800781E-01  0.37622575968E-01  0.51109989000E-03 0. -1.
     -623    1    1    2    0    0 -0.30351328217E-02 -0.72525483938E-03  0.94809123352E-03  0.17130000003E+03  0.17130000000E+03 0. -1.
      622    1    1    2    0    0 -0.18516065409E-02 -0.48601791912E-02  0.39621720753E+01  0.39623773930E+01  0.40000000000E-01 0. -1.
</event>
<event>
 5   0  0.6200596E+07  0.9118800E+02  0.7818608E-02  0.1180000E+00
       11   -1    0    0    0    0  0.00000000000E+00  0.00000000000E+00  0.39999999673E+01  0.40000000000E+01  0.51109989000E-03 0. -1.
     -623   -1    0    0    0    0  0.00000000000E+00  0.00000000000E+00  0.12525980253E-10  0.17130000000E+03  0.17130000000E+03 0. -1.
       11    1    1    2    0    0 -0.94640211238E-02  0.88247259335E-02  0.21386472430E-01  0.25001718088E-01  0.51109989000E-03 0. -1.
     -623    1    1    2    0    0  0.10986206891E-01 -0.37415319103E-02  0.38204536511E-02  0.17130000044E+03  0.17130000000E+03 0. -1.
      622    1    1    2    0    0 -0.15221857670E-02 -0.50831940233E-02  0.39747930413E+01  0.39749978462E+01  0.40000000000E-01 0. -1.
</event>
<event>
 5   0  0.6200596E+07  0.9118800E+02  0.7818608E-02  0.1180000E+00
       11   -1    0    0    0    0  0.00000000000E+00  0.00000000000E+00  0.39999999673E+01  0.40000000000E+01  0.51109989000E-03 0.  1.
     -623   -1    0    0    0    0  0.00000000000E+00  0.00000000000E+00  0.12525980253E-10  0.17130000000E+03  0.17130000000E+03 0.  1.
       11    1    1    2    0    0  0.10067526404E-01 -0.67445236488E-02  0.10232464189E+00  0.10304094936E+00  0.51109989000E-03 0.  1.
     -623    1    1    2    0    0 -0.27958370018E-02  0.34001262771E-02  0.92984758842E-03  0.17130000006E+03  0.17130000000E+03 0.  1.
      622    1    1    2    0    0 -0.72716894023E-02  0.33443973718E-02  0.38967454779E+01  0.38969589916E+01  0.40000000000E-01 0.  1.
</event>
<event>
 5   0  0.6200596E+07  0.9118800E+02  0.7818608E-02  0.1180000E+00
       11   -1    0    0    0    0  0.00000000000E+00  0.00000000000E+00  0.39999999673E+01  0.40000000000E+01  0.51109989000E-03 0. -1.
     -623   -1    0    0    0    0  0.00000000000E+00  0.00000000000E+00  0.12525980253E-10  0.17130000000E+03  0.17130000000E+03 0.  1.
       11    1    1    2    0    0  0.32167498881E-02 -0.33618892924E-01  0.22150163892E+01  0.22152738980E+01  0.51109989000E-03 0. -1.
     -623    1    1    2    0    0  0.20509711402E-02  0.22394172119E-01  0.75034191780E-03  0.17130000148E+03  0.17130000000E+03 0.  1.
      622    1    1    2    0    0 -0.52677210283E-02  0.11224720805E-01  0.17842332363E+01  0.17847246243E+01  0.40000000000E-01 0.  0.
</event>
<event>
 5   0  0.6200596E+07  0.9118800E+02  0.7818608E-02  0.1180000E+00
       11   -1    0    0    0    0  0.00000000000E+00  0.00000000000E+00  0.39999999673E+01  0.40000000000E+01  0.51109989000E-03 0.  1.
     -623   -1    0    0    0    0  0.00000000000E+00  0.00000000000E+00  0.12525980253E-10  0.17130000000E+03  0.17130000000E+03 0. -1.
       11    1    1    2    0    0  0.86703853593E-02 -0.35874397033E-02  0.79291951843E+00  0.79297520090E+00  0.51109989000E-03 0.  1.
     -623    1    1    2    0    0 -0.54257747229E-02  0.37367772593E-02  0.30688381147E-03  0.17130000013E+03  0.17130000000E+03 0. -1.
      622    1    1    2    0    0 -0.32446106363E-02 -0.14933755599E-03  0.32067735651E+01  0.32070246721E+01  0.40000000000E-01 0.  1.
</event>
<event>
 5   0  0.6200596E+07  0.9118800E+02  0.7818608E-02  0.1180000E+00
       11   -1    0    0    0    0  0.00000000000E+00  0.00000000000E+00  0.39999999673E+01  0.40000000000E+01  0.51109989000E-03 0. -1.
     -623   -1    0    0    0    0  0.00000000000E+00  0.00000000000E+00  0.12525980253E-10  0.17130000000E+03  0.17130000000E+03 0. -1.
       11    1    1    2    0    0 -0.48449497483E-02  0.11007721523E-02  0.37389784610E+00  0.37393120461E+00  0.51109989000E-03 0. -1.
     -623    1    1    2    0    0  0.10929719202E-01  0.59671142333E-02  0.26640441050E-03  0.17130000045E+03  0.17130000000E+03 0. -1.
      622    1    1    2    0    0 -0.60847694533E-02 -0.70678863856E-02  0.36258357168E+01  0.36260683426E+01  0.40000000000E-01 0. -1.
</event>
<event>
 5   0  0.6200596E+07  0.9118800E+02  0.7818608E-02  0.1180000E+00
       11   -1    0    0    0    0  0.00000000000E+00  0.00000000000E+00  0.39999999673E+01  0.40000000000E+01  0.51109989000E-03 0.  1.
     -623   -1    0    0    0    0  0.00000000000E+00  0.00000000000E+00  0.12525980253E-10  0.17130000000E+03  0.17130000000E+03 0. -1.
       11    1    1    2    0    0 -0.47071471627E-02 -0.22395004929E-02  0.80095691457E-01  0.80266765277E-01  0.51109989000E-03 0.  1.
     -623    1    1    2    0    0  0.42335013727E-02 -0.53582468640E-02  0.38267105610E-03  0.17130000014E+03  0.17130000000E+03 0. -1.
      622    1    1    2    0    0  0.47364578998E-03  0.75977473569E-02  0.39195216048E+01  0.39197330982E+01  0.40000000000E-01 0.  1.
</event>
<event>
 5   0  0.6200596E+07  0.9118800E+02  0.7818608E-02  0.1180000E+00
       11   -1    0    0    0    0  0.00000000000E+00  0.00000000000E+00  0.39999999673E+01  0.40000000000E+01  0.51109989000E-03 0. -1.
     -623   -1    0    0    0    0  0.00000000000E+00  0.00000000000E+00  0.12525980253E-10  0.17130000000E+03  0.17130000000E+03 0.  1.
       11    1    1    2    0    0  0.68730925284E-03 -0.13788398924E-02  0.70612248220E-02  0.72453923495E-02  0.51109989000E-03 0. -1.
     -623    1    1    2    0    0 -0.73294512160E-03  0.72634999935E-03  0.38455995972E-03  0.17130000000E+03  0.17130000000E+03 0.  1.
      622    1    1    2    0    0  0.45635868758E-04  0.65248989308E-03  0.39925541826E+01  0.39927546041E+01  0.40000000000E-01 0. -1.
</event>
<event>
 5   0  0.6200596E+07  0.9118800E+02  0.7818608E-02  0.1180000E+00
       11   -1    0    0    0    0  0.00000000000E+00  0.00000000000E+00  0.39999999673E+01  0.40000000000E+01  0.51109989000E-03 0.  1.
     -623   -1    0    0    0    0  0.00000000000E+00  0.00000000000E+00  0.12525980253E-10  0.17130000000E+03  0.17130000000E+03 0.  1.
       11    1    1    2    0    0  0.23063064656E-01  0.15196859087E-01  0.33803116139E+00  0.33915804099E+00  0.51109989000E-03 0.  1.
     -623    1    1    2    0    0 -0.60862835684E-02 -0.58570324350E-02  0.13968781263E-02  0.17130000021E+03  0.17130000000E+03 0.  1.
      622    1    1    2    0    0 -0.16976781088E-01 -0.93398266518E-02  0.36605719278E+01  0.36608417451E+01  0.40000000000E-01 0.  1.
</event>
<event>
 5   0  0.6200596E+07  0.9118800E+02  0.7818608E-02  0.1180000E+00
       11   -1    0    0    0    0  0.00000000000E+00  0.00000000000E+00  0.39999999673E+01  0.40000000000E+01  0.51109989000E-03 0.  1.
     -623   -1    0    0    0    0  0.00000000000E+00  0.00000000000E+00  0.12525980253E-10  0.17130000000E+03  0.17130000000E+03 0. -1.
       11    1    1    2    0    0 -0.46549771280E-03  0.97455632199E-03  0.54663753876E-01  0.54676810970E-01  0.51109989000E-03 0.  1.
     -623    1    1    2    0    0 -0.25304839265E-02  0.73690710341E-03  0.21733063518E-03  0.17130000002E+03  0.17130000000E+03 0. -1.
      622    1    1    2    0    0  0.29959816393E-02 -0.17114634254E-02  0.39451188828E+01  0.39453231686E+01  0.40000000000E-01 0.  1.
</event>
<event>
 5   0  0.6200596E+07  0.9118800E+02  0.7818608E-02  0.1180000E+00
       11   -1    0    0    0    0  0.00000000000E+00  0.00000000000E+00  0.39999999673E+01  0.40000000000E+01  0.51109989000E-03 0.  1.
     -623   -1    0    0    0    0  0.00000000000E+00  0.00000000000E+00  0.12525980253E-10  0.17130000000E+03  0.17130000000E+03 0.  1.
       11    1    1    2    0    0 -0.33945562691E-02 -0.14934045576E-01  0.41371212392E-01  0.44117878063E-01  0.51109989000E-03 0.  1.
     -623    1    1    2    0    0  0.29577676482E-02 -0.18430021057E-02  0.29845322934E-02  0.17130000006E+03  0.17130000000E+03 0.  1.
      622    1    1    2    0    0  0.43678862092E-03  0.16777047682E-01  0.39556442227E+01  0.39558820605E+01  0.40000000000E-01 0.  1.
</event>
<event>
 5   0  0.6200596E+07  0.9118800E+02  0.7818608E-02  0.1180000E+00
       11   -1    0    0    0    0  0.00000000000E+00  0.00000000000E+00  0.39999999673E+01  0.40000000000E+01  0.51109989000E-03 0. -1.
     -623   -1    0    0    0    0  0.00000000000E+00  0.00000000000E+00  0.12525980253E-10  0.17130000000E+03  0.17130000000E+03 0.  1.
       11    1    1    2    0    0  0.73278354575E-02  0.10741178854E-01  0.21571884232E+00  0.21611096744E+00  0.51109989000E-03 0. -1.
     -623    1    1    2    0    0  0.15219948514E-01 -0.33991219623E-03  0.68567996834E-03  0.17130000068E+03  0.17130000000E+03 0.  1.
      622    1    1    2    0    0 -0.22547783972E-01 -0.10401266658E-01  0.37835954451E+01  0.37838883547E+01  0.40000000000E-01 0. -1.
</event>
<event>
 5   0  0.6200596E+07  0.9118800E+02  0.7818608E-02  0.1180000E+00
       11   -1    0    0    0    0  0.00000000000E+00  0.00000000000E+00  0.39999999673E+01  0.40000000000E+01  0.51109989000E-03 0.  1.
     -623   -1    0    0    0    0  0.00000000000E+00  0.00000000000E+00  0.12525980253E-10  0.17130000000E+03  0.17130000000E+03 0.  1.
       11    1    1    2    0    0  0.76873459508E-02  0.48232069319E-02  0.38355066005E-01  0.39417393670E-01  0.51109989000E-03 0.  1.
     -623    1    1    2    0    0  0.69289687333E-03  0.10061111134E-02  0.12774562925E-02  0.17130000001E+03  0.17130000000E+03 0.  1.
      622    1    1    2    0    0 -0.83802428242E-02 -0.58293180452E-02  0.39603674451E+01  0.39605825972E+01  0.40000000000E-01 0.  1.
</event>
<event>
 5   0  0.6200596E+07  0.9118800E+02  0.7818608E-02  0.1180000E+00
       11   -1    0    0    0    0  0.00000000000E+00  0.00000000000E+00  0.39999999673E+01  0.40000000000E+01  0.51109989000E-03 0. -1.
     -623   -1    0    0    0    0  0.00000000000E+00  0.00000000000E+00  0.12525980253E-10  0.17130000000E+03  0.17130000000E+03 0.  1.
       11    1    1    2    0    0 -0.16538110249E-01 -0.25665610330E-01  0.11335323436E+01  0.11339435911E+01  0.51109989000E-03 0. -1.
     -623    1    1    2    0    0 -0.23822828406E-03 -0.38044713345E-02  0.89104107981E-03  0.17130000004E+03  0.17130000000E+03 0.  1.
      622    1    1    2    0    0  0.16776338533E-01  0.29470081664E-01  0.28655765827E+01  0.28660563641E+01  0.40000000000E-01 0.  0.
</event>
<event>
 5   0  0.6200596E+07  0.9118800E+02  0.7818608E-02  0.1180000E+00
       11   -1    0    0    0    0  0.00000000000E+00  0.00000000000E+00  0.39999999673E+01  0.40000000000E+01  0.51109989000E-03 0. -1.
     -623   -1    0    0    0    0  0.00000000000E+00  0.00000000000E+00  0.12525980253E-10  0.17130000000E+03  0.17130000000E+03 0.  1.
       11    1    1    2    0    0 -0.92737302853E-02  0.11364263639E-02  0.17191172711E+00  0.17216618912E+00  0.51109989000E-03 0. -1.
     -623    1    1    2    0    0 -0.67389708736E-04  0.16778557690E-02  0.47587234640E-03  0.17130000001E+03  0.17130000000E+03 0.  1.
      622    1    1    2    0    0  0.93411199941E-02 -0.28142821329E-02  0.38276123679E+01  0.38278338020E+01  0.40000000000E-01 0. -1.
</event>
<event>
 5   0  0.6200596E+07  0.9118800E+02  0.7818608E-02  0.1180000E+00
       11   -1    0    0    0    0  0.00000000000E+00  0.00000000000E+00  0.39999999673E+01  0.40000000000E+01  0.51109989000E-03 0. -1.
     -623   -1    0    0    0    0  0.00000000000E+00  0.00000000000E+00  0.12525980253E-10  0.17130000000E+03  0.17130000000E+03 0. -1.
       11    1    1    2    0    0 -0.13341887424E-01 -0.14148309433E-01  0.68540581196E+00  0.68568182776E+00  0.51109989000E-03 0. -1.
     -623    1    1    2    0    0 -0.53071705601E-02  0.63555800247E-02  0.57920372630E-03  0.17130000020E+03  0.17130000000E+03 0. -1.
      622    1    1    2    0    0  0.18649057984E-01  0.77927294087E-02  0.33140149517E+01  0.33143179711E+01  0.40000000000E-01 0. -1.
</event>
<event>
 5   0  0.6200596E+07  0.9118800E+02  0.7818608E-02  0.1180000E+00
       11   -1    0    0    0    0  0.00000000000E+00  0.00000000000E+00  0.39999999673E+01  0.40000000000E+01  0.51109989000E-03 0.  1.
     -623   -1    0    0    0    0  0.00000000000E+00  0.00000000000E+00  0.12525980253E-10  0.17130000000E+03  0.17130000000E+03 0. -1.
       11    1    1    2    0    0  0.96294736354E-02 -0.46984265610E-02  0.19163046050E+00  0.19193044726E+00  0.51109989000E-03 0.  1.
     -623    1    1    2    0    0 -0.18949721944E-01 -0.12839822931E-02  0.52719963988E-03  0.17130000105E+03  0.17130000000E+03 0. -1.
      622    1    1    2    0    0  0.93202483084E-02  0.59824088541E-02  0.38078423072E+01  0.38080684990E+01  0.40000000000E-01 0.  1.
</event>
<event>
 5   0  0.6200596E+07  0.9118800E+02  0.7818608E-02  0.1180000E+00
       11   -1    0    0    0    0  0.00000000000E+00  0.00000000000E+00  0.39999999673E+01  0.40000000000E+01  0.51109989000E-03 0.  1.
     -623   -1    0    0    0    0  0.00000000000E+00  0.00000000000E+00  0.12525980253E-10  0.17130000000E+03  0.17130000000E+03 0.  1.
       11    1    1    2    0    0  0.57989651132E-03  0.60960707116E-02  0.67199719968E-01  0.67480085530E-01  0.51109989000E-03 0.  1.
     -623    1    1    2    0    0 -0.18733860907E-02 -0.59854849603E-03  0.48783767900E-03  0.17130000001E+03  0.17130000000E+03 0.  1.
      622    1    1    2    0    0  0.12934895794E-02 -0.54975222156E-02  0.39323124097E+01  0.39325199025E+01  0.40000000000E-01 0.  1.
</event>
<event>
 5   0  0.6200596E+07  0.9118800E+02  0.7818608E-02  0.1180000E+00
       11   -1    0    0    0    0  0.00000000000E+00  0.00000000000E+00  0.39999999673E+01  0.40000000000E+01  0.51109989000E-03 0.  1.
     -623   -1    0    0    0    0  0.00000000000E+00  0.00000000000E+00  0.12525980253E-10  0.17130000000E+03  0.17130000000E+03 0.  1.
       11    1    1    2    0    0 -0.19027679958E-02  0.21214007485E-02  0.21354933726E-01  0.21550296596E-01  0.51109989000E-03 0.  1.
     -623    1    1    2    0    0  0.18646135677E-02  0.26290621525E-03  0.39714415789E-03  0.17130000001E+03  0.17130000000E+03 0.  1.
      622    1    1    2    0    0  0.38154428056E-04 -0.23843069637E-02  0.39782478895E+01  0.39784496926E+01  0.40000000000E-01 0.  1.
</event>
<event>
 5   0  0.6200596E+07  0.9118800E+02  0.7818608E-02  0.1180000E+00
       11   -1    0    0    0    0  0.00000000000E+00  0.00000000000E+00  0.39999999673E+01  0.40000000000E+01  0.51109989000E-03 0. -1.
     -623   -1    0    0    0    0  0.00000000000E+00  0.00000000000E+00  0.12525980253E-10  0.17130000000E+03  0.17130000000E+03 0.  1.
       11    1    1    2    0    0 -0.91172519633E-04  0.17601334080E-02  0.14831788721E-01  0.14944884120E-01  0.51109989000E-03 0. -1.
     -623    1    1    2    0    0 -0.56437418809E-03  0.53152585549E-03  0.31453278497E-03  0.17130000000E+03  0.17130000000E+03 0.  1.
      622    1    1    2    0    0  0.65554670773E-03 -0.22916592634E-02  0.39848536459E+01  0.39850551138E+01  0.40000000000E-01 0. -1.
</event>
<event>
 5   0  0.6200596E+07  0.9118800E+02  0.7818608E-02  0.1180000E+00
       11   -1    0    0    0    0  0.00000000000E+00  0.00000000000E+00  0.39999999673E+01  0.40000000000E+01  0.51109989000E-03 0. -1.
     -623   -1    0    0    0    0  0.00000000000E+00  0.00000000000E+00  0.12525980253E-10  0.17130000000E+03  0.17130000000E+03 0. -1.
       11    1    1    2    0    0 -0.35075570758E-01 -0.17281313813E-01  0.99961069209E+00  0.10003752978E+01  0.51109989000E-03 0. -1.
     -623    1    1    2    0    0  0.29378357136E-01  0.75106280666E-02  0.10552977360E-02  0.17130000269E+03  0.17130000000E+03 0. -1.
      622    1    1    2    0    0  0.56972136216E-02  0.97706857460E-02  0.29993339775E+01  0.29996220151E+01  0.40000000000E-01 0. -1.
</event>
<event>
 5   0  0.6200596E+07  0.9118800E+02  0.7818608E-02  0.1180000E+00
       11   -1    0    0    0    0  0.00000000000E+00  0.00000000000E+00  0.39999999673E+01  0.40000000000E+01  0.51109989000E-03 0. -1.
     -623   -1    0    0    0    0  0.00000000000E+00  0.00000000000E+00  0.12525980253E-10  0.17130000000E+03  0.17130000000E+03 0.  1.
       11    1    1    2    0    0  0.18577654075E-03 -0.50077962842E-02  0.67372801188E-01  0.67560847369E-01  0.51109989000E-03 0. -1.
     -623    1    1    2    0    0  0.62634335499E-02 -0.15503848055E-02  0.40233440001E-03  0.17130000012E+03  0.17130000000E+03 0.  1.
      622    1    1    2    0    0 -0.64492100906E-02  0.65581810897E-02  0.39322248318E+01  0.39324390306E+01  0.40000000000E-01 0. -1.
</event>
<event>
 5   0  0.6200596E+07  0.9118800E+02  0.7818608E-02  0.1180000E+00
       11   -1    0    0    0    0  0.00000000000E+00  0.00000000000E+00  0.39999999673E+01  0.40000000000E+01  0.51109989000E-03 0. -1.
     -623   -1    0    0    0    0  0.00000000000E+00  0.00000000000E+00  0.12525980253E-10  0.17130000000E+03  0.17130000000E+03 0. -1.
       11    1    1    2    0    0 -0.36021132049E-02 -0.22239341077E-02  0.10473726296E+01  0.10473813095E+01  0.51109989000E-03 0. -1.
     -623    1    1    2    0    0  0.19252639184E-02 -0.64961562925E-02  0.29309402271E-03  0.17130000013E+03  0.17130000000E+03 0. -1.
      622    1    1    2    0    0  0.16768492865E-02  0.87200904002E-02  0.29523342437E+01  0.29526185562E+01  0.40000000000E-01 0. -1.
</event>
<event>
 5   0  0.6200596E+07  0.9118800E+02  0.7818608E-02  0.1180000E+00
       11   -1    0    0    0    0  0.00000000000E+00  0.00000000000E+00  0.39999999673E+01  0.40000000000E+01  0.51109989000E-03 0.  1.
     -623   -1    0    0    0    0  0.00000000000E+00  0.00000000000E+00  0.12525980253E-10  0.17130000000E+03  0.17130000000E+03 0. -1.
       11    1    1    2    0    0 -0.46609509805E-02 -0.13721654359E-01  0.82350735187E+00  0.82363500901E+00  0.51109989000E-03 0.  1.
     -623    1    1    2    0    0  0.80358333732E-03 -0.23421829537E-02  0.42247885507E-03  0.17130000002E+03  0.17130000000E+03 0. -1.
      622    1    1    2    0    0  0.38573676432E-02  0.16063837313E-01  0.31760701366E+01  0.31763649726E+01  0.40000000000E-01 0.  1.
</event>
<event>
 5   0  0.6200596E+07  0.9118800E+02  0.7818608E-02  0.1180000E+00
       11   -1    0    0    0    0  0.00000000000E+00  0.00000000000E+00  0.39999999673E+01  0.40000000000E+01  0.51109989000E-03 0. -1.
     -623   -1    0    0    0    0  0.00000000000E+00  0.00000000000E+00  0.12525980253E-10  0.17130000000E+03  0.17130000000E+03 0.  1.
       11    1    1    2    0    0 -0.59136557158E-02 -0.66830287109E-02  0.14322862098E+00  0.14350725865E+00  0.51109989000E-03 0. -1.
     -623    1    1    2    0    0  0.53631988467E-02 -0.45883857735E-02  0.50271089174E-03  0.17130000015E+03  0.17130000000E+03 0.  1.
      622    1    1    2    0    0  0.55045686907E-03  0.11271414484E-01  0.38562686355E+01  0.38564925952E+01  0.40000000000E-01 0. -1.
</event>
<event>
 5   0  0.6200596E+07  0.9118800E+02  0.7818608E-02  0.1180000E+00
       11   -1    0    0    0    0  0.00000000000E+00  0.00000000000E+00  0.39999999673E+01  0.40000000000E+01  0.51109989000E-03 0.  1.
     -623   -1    0    0    0    0  0.00000000000E+00  0.00000000000E+00  0.12525980253E-10  0.17130000000E+03  0.17130000000E+03 0. -1.
       11    1    1    2    0    0  0.20220606538E-02 -0.73336669121E-02  0.10403459405E+00  0.10431361071E+00  0.51109989000E-03 0.  1.
     -623    1    1    2    0    0 -0.38234018982E-03 -0.48028784274E-04  0.49168494963E-03  0.17130000000E+03  0.17130000000E+03 0. -1.
      622    1    1    2    0    0 -0.16397204640E-02  0.73816956964E-02  0.38954736884E+01  0.38956863881E+01  0.40000000000E-01 0.  1.
</event>
<event>
 5   0  0.6200596E+07  0.9118800E+02  0.7818608E-02  0.1180000E+00
       11   -1    0    0    0    0  0.00000000000E+00  0.00000000000E+00  0.39999999673E+01  0.40000000000E+01  0.51109989000E-03 0. -1.
     -623   -1    0    0    0    0  0.00000000000E+00  0.00000000000E+00  0.12525980253E-10  0.17130000000E+03  0.17130000000E+03 0. -1.
       11    1    1    2    0    0  0.45712833710E-02  0.11051040649E-02  0.19029716717E+00  0.19035595851E+00  0.51109989000E-03 0. -1.
     -623    1    1    2    0    0 -0.58666550054E-02  0.39301195360E-02  0.27245159525E-03  0.17130000015E+03  0.17130000000E+03 0. -1.
      622    1    1    2    0    0  0.12953716344E-02 -0.50352236009E-02  0.38094303486E+01  0.38096438957E+01  0.40000000000E-01 0. -1.
</event>
<event>
 5   0  0.6200596E+07  0.9118800E+02  0.7818608E-02  0.1180000E+00
       11   -1    0    0    0    0  0.00000000000E+00  0.00000000000E+00  0.39999999673E+01  0.40000000000E+01  0.51109989000E-03 0.  1.
     -623   -1    0    0    0    0  0.00000000000E+00  0.00000000000E+00  0.12525980253E-10  0.17130000000E+03  0.17130000000E+03 0.  1.
       11    1    1    2    0    0 -0.32133367679E-02 -0.10599275302E-02  0.78110790027E+00  0.78111539613E+00  0.51109989000E-03 0.  1.
     -623    1    1    2    0    0  0.29107312242E-02  0.77793856979E-02  0.26323594771E-03  0.17130000020E+03  0.17130000000E+03 0.  1.
      622    1    1    2    0    0  0.30260554370E-03 -0.67194581677E-02  0.32186288311E+01  0.32188844023E+01  0.40000000000E-01 0.  1.
</event>
<event>
 5   0  0.6200596E+07  0.9118800E+02  0.7818608E-02  0.1180000E+00
       11   -1    0    0    0    0  0.00000000000E+00  0.00000000000E+00  0.39999999673E+01  0.40000000000E+01  0.51109989000E-03 0. -1.
     -623   -1    0    0    0    0  0.00000000000E+00  0.00000000000E+00  0.12525980253E-10  0.17130000000E+03  0.17130000000E+03 0. -1.
       11    1    1    2    0    0 -0.42133129194E-02 -0.77429635418E-03  0.12771947651E+00  0.12779232153E+00  0.51109989000E-03 0. -1.
     -623    1    1    2    0    0  0.72448179548E-03 -0.20830778592E-03  0.28111673804E-03  0.17130000000E+03  0.17130000000E+03 0. -1.
      622    1    1    2    0    0  0.34888311239E-02  0.98260414010E-03  0.38719993741E+01  0.38722076766E+01  0.40000000000E-01 0. -1.
</event>
<event>
 5   0  0.6200596E+07  0.9118800E+02  0.7818608E-02  0.1180000E+00
       11   -1    0    0    0    0  0.00000000000E+00  0.00000000000E+00  0.39999999673E+01  0.40000000000E+01  0.51109989000E-03 0.  1.
     -623   -1    0    0    0    0  0.00000000000E+00  0.00000000000E+00  0.12525980253E-10  0.17130000000E+03  0.17130000000E+03 0. -1.
       11    1    1    2    0    0 -0.38794599336E-02 -0.61183935522E-02  0.21869723187E+00  0.21881779040E+00  0.51109989000E-03 0.  1.
     -623    1    1    2    0    0 -0.48319035653E-02  0.39365466144E-02  0.34288462804E-03  0.17130000011E+03  0.17130000000E+03 0. -1.
      622    1    1    2    0    0  0.87113634988E-02  0.21818469378E-02  0.37809598509E+01  0.37811820959E+01  0.40000000000E-01 0.  1.
</event>
<event>
 5   0  0.6200596E+07  0.9118800E+02  0.7818608E-02  0.1180000E+00
       11   -1    0    0    0    0  0.00000000000E+00  0.00000000000E+00  0.39999999673E+01  0.40000000000E+01  0.51109989000E-03 0. -1.
     -623   -1    0    0    0    0  0.00000000000E+00  0.00000000000E+00  0.12525980253E-10  0.17130000000E+03  0.17130000000E+03 0. -1.
       11    1    1    2    0    0  0.33176441051E-03 -0.68167340613E-03  0.89898268112E-02  0.90362023824E-02  0.51109989000E-03 0. -1.
     -623    1    1    2    0    0  0.17244753694E-03  0.19423783632E-03  0.24686279332E-03  0.17130000000E+03  0.17130000000E+03 0. -1.
      622    1    1    2    0    0 -0.50421194745E-03  0.48743556981E-03  0.39907632778E+01  0.39909637972E+01  0.40000000000E-01 0. -1.
</event>
<event>
 5   0  0.6200596E+07  0.9118800E+02  0.7818608E-02  0.1180000E+00
       11   -1    0    0    0    0  0.00000000000E+00  0.00000000000E+00  0.39999999673E+01  0.40000000000E+01  0.51109989000E-03 0.  1.
     -623   -1    0    0    0    0  0.00000000000E+00  0.00000000000E+00  0.12525980253E-10  0.17130000000E+03  0.17130000000E+03 0. -1.
       11    1    1    2    0    0  0.23589266947E-03 -0.97343534528E-04  0.18712576974E-01  0.18721294795E-01  0.51109989000E-03 0.  1.
     -623    1    1    2    0    0 -0.46310239570E-03 -0.41280376257E-03  0.20967114038E-03  0.17130000000E+03  0.17130000000E+03 0. -1.
      622    1    1    2    0    0  0.22720972624E-03  0.51014729709E-03  0.39810777192E+01  0.39812787040E+01  0.40000000000E-01 0.  1.
</event>
<event>
 5   0  0.6200596E+07  0.9118800E+02  0.7818608E-02  0.1180000E+00
       11   -1    0    0    0    0  0.00000000000E+00  0.00000000000E+00  0.39999999673E+01  0.40000000000E+01  0.51109989000E-03 0.  1.
     -623   -1    0    0    0    0  0.00000000000E+00  0.00000000000E+00  0.12525980253E-10  0.17130000000E+03  0.17130000000E+03 0. -1.
       11    1    1    2    0    0 -0.65119482889E-02 -0.19459171282E-01  0.41697191777E+00  0.41747683319E+00  0.51109989000E-03 0.  1.
     -623    1    1    2    0    0  0.55909418005E-02  0.38273471196E-02  0.76255603509E-03  0.17130000014E+03  0.17130000000E+03 0. -1.
      622    1    1    2    0    0  0.92100648842E-03  0.15631824162E-01  0.35822654936E+01  0.35825230311E+01  0.40000000000E-01 0.  1.
</event>
<event>
 5   0  0.6200596E+07  0.9118800E+02  0.7818608E-02  0.1180000E+00
       11   -1    0    0    0    0  0.00000000000E+00  0.00000000000E+00  0.39999999673E+01  0.40000000000E+01  0.51109989000E-03 0.  1.
     -623   -1    0    0    0    0  0.00000000000E+00  0.00000000000E+00  0.12525980253E-10  0.17130000000E+03  0.17130000000E+03 0. -1.
       11    1    1    2    0    0 -0.15457778467E-02  0.58099736191E-02  0.51035306188E-01  0.51390747426E-01  0.51109989000E-03 0.  1.
     -623    1    1    2    0    0 -0.46056468221E-03 -0.15406054162E-02  0.56084320290E-03  0.17130000001E+03  0.17130000000E+03 0. -1.
      622    1    1    2    0    0  0.20063425289E-02 -0.42693682030E-02  0.39484038180E+01  0.39486092441E+01  0.40000000000E-01 0.  1.
</event>
<event>
 5   0  0.6200596E+07  0.9118800E+02  0.7818608E-02  0.1180000E+00
       11   -1    0    0    0    0  0.00000000000E+00  0.00000000000E+00  0.39999999673E+01  0.40000000000E+01  0.51109989000E-03 0.  1.
     -623   -1    0    0    0    0  0.00000000000E+00  0.00000000000E+00  0.12525980253E-10  0.17130000000E+03  0.17130000000E+03 0.  1.
       11    1    1    2    0    0  0.16944772790E-02  0.17266661246E-02  0.28009316741E-01  0.28118244539E-01  0.51109989000E-03 0.  1.
     -623    1    1    2    0    0 -0.76963130463E-03  0.68559744378E-03  0.31115975678E-03  0.17130000000E+03  0.17130000000E+03 0.  1.
      622    1    1    2    0    0 -0.92484597440E-03 -0.24122635684E-02  0.39716794909E+01  0.39718817521E+01  0.40000000000E-01 0.  1.
</event>
<event>
 5   0  0.6200596E+07  0.9118800E+02  0.7818608E-02  0.1180000E+00
       11   -1    0    0    0    0  0.00000000000E+00  0.00000000000E+00  0.39999999673E+01  0.40000000000E+01  0.51109989000E-03 0.  1.
     -623   -1    0    0    0    0  0.00000000000E+00  0.00000000000E+00  0.12525980253E-10  0.17130000000E+03  0.17130000000E+03 0.  1.
       11    1    1    2    0    0  0.15802385120E-02 -0.63461986727E-02  0.90862203423E-01  0.91098697157E-01  0.51109989000E-03 0.  1.
     -623    1    1    2    0    0 -0.66096174505E-02  0.31986674585E-02  0.44578849797E-03  0.17130000016E+03  0.17130000000E+03 0.  1.
      622    1    1    2    0    0  0.50293789385E-02  0.31475312142E-02  0.39086919754E+01  0.39089011449E+01  0.40000000000E-01 0.  1.
</event>
<event>
 5   0  0.6200596E+07  0.9118800E+02  0.7818608E-02  0.1180000E+00
       11   -1    0    0    0    0  0.00000000000E+00  0.00000000000E+00  0.39999999673E+01  0.40000000000E+01  0.51109989000E-03 0.  1.
     -623   -1    0    0    0    0  0.00000000000E+00  0.00000000000E+00  0.12525980253E-10  0.17130000000E+03  0.17130000000E+03 0.  1.
       11    1    1    2    0    0 -0.67121347686E-02  0.82177599226E-02  0.77834132474E+00  0.77841381241E+00  0.51109989000E-03 0.  1.
     -623    1    1    2    0    0  0.18419711459E-02  0.15532651323E-02  0.33930711438E-03  0.17130000002E+03  0.17130000000E+03 0.  1.
      622    1    1    2    0    0  0.48701636227E-02 -0.97710250549E-02  0.32213193355E+01  0.32215861703E+01  0.40000000000E-01 0.  1.
</event>
<event>
 5   0  0.6200596E+07  0.9118800E+02  0.7818608E-02  0.1180000E+00
       11   -1    0    0    0    0  0.00000000000E+00  0.00000000000E+00  0.39999999673E+01  0.40000000000E+01  0.51109989000E-03 0. -1.
     -623   -1    0    0    0    0  0.00000000000E+00  0.00000000000E+00  0.12525980253E-10  0.17130000000E+03  0.17130000000E+03 0.  1.
       11    1    1    2    0    0  0.15861096996E-02  0.23852836435E-02  0.11494908858E-01  0.11857464876E-01  0.51109989000E-03 0. -1.
     -623    1    1    2    0    0 -0.50646288809E-03 -0.34152159723E-02  0.56343792139E-03  0.17130000004E+03  0.17130000000E+03 0.  1.
      622    1    1    2    0    0 -0.10796468115E-02  0.10299323287E-02  0.39879416206E+01  0.39881424994E+01  0.40000000000E-01 0. -1.
</event>
<event>
 5   0  0.6200596E+07  0.9118800E+02  0.7818608E-02  0.1180000E+00
       11   -1    0    0    0    0  0.00000000000E+00  0.00000000000E+00  0.39999999673E+01  0.40000000000E+01  0.51109989000E-03 0.  1.
     -623   -1    0    0    0    0  0.00000000000E+00  0.00000000000E+00  0.12525980253E-10  0.17130000000E+03  0.17130000000E+03 0. -1.
       11    1    1    2    0    0  0.33798228502E-02  0.46280216634E-04  0.61193251613E-01  0.61288666235E-01  0.51109989000E-03 0.  1.
     -623    1    1    2    0    0 -0.15189130178E-02 -0.17272647263E-02  0.29931340171E-03  0.17130000002E+03  0.17130000000E+03 0. -1.
      622    1    1    2    0    0 -0.18609098324E-02  0.16809845097E-02  0.39385074023E+01  0.39387113181E+01  0.40000000000E-01 0.  1.
</event>
<event>
 5   0  0.6200596E+07  0.9118800E+02  0.7818608E-02  0.1180000E+00
       11   -1    0    0    0    0  0.00000000000E+00  0.00000000000E+00  0.39999999673E+01  0.40000000000E+01  0.51109989000E-03 0.  1.
     -623   -1    0    0    0    0  0.00000000000E+00  0.00000000000E+00  0.12525980253E-10  0.17130000000E+03  0.17130000000E+03 0.  1.
       11    1    1    2    0    0  0.11996067953E-03 -0.10853691329E-01  0.22412622364E+00  0.22438948806E+00  0.51109989000E-03 0.  1.
     -623    1    1    2    0    0 -0.21483362210E-01  0.15078579770E-01  0.53994352096E-03  0.17130000201E+03  0.17130000000E+03 0.  1.
      622    1    1    2    0    0  0.21363401530E-01 -0.42248884411E-02  0.37753338002E+01  0.37756085003E+01  0.40000000000E-01 0.  1.
</event>
<event>
 5   0  0.6200596E+07  0.9118800E+02  0.7818608E-02  0.1180000E+00
       11   -1    0    0    0    0  0.00000000000E+00  0.00000000000E+00  0.39999999673E+01  0.40000000000E+01  0.51109989000E-03 0. -1.
     -623   -1    0    0    0    0  0.00000000000E+00  0.00000000000E+00  0.12525980253E-10  0.17130000000E+03  0.17130000000E+03 0.  1.
       11    1    1    2    0    0 -0.16929395814E-02  0.75934630952E-02  0.43827182935E+00  0.43834117346E+00  0.51109989000E-03 0. -1.
     -623    1    1    2    0    0  0.17102815426E-02  0.11685221196E-02  0.30472414060E-03  0.17130000001E+03  0.17130000000E+03 0.  1.
      622    1    1    2    0    0 -0.17341961108E-04 -0.87619852148E-02  0.35614234139E+01  0.35616588137E+01  0.40000000000E-01 0. -1.
</event>
<event>
 5   0  0.6200596E+07  0.9118800E+02  0.7818608E-02  0.1180000E+00
       11   -1    0    0    0    0  0.00000000000E+00  0.00000000000E+00  0.39999999673E+01  0.40000000000E+01  0.51109989000E-03 0.  1.
     -623   -1    0    0    0    0  0.00000000000E+00  0.00000000000E+00  0.12525980253E-10  0.17130000000E+03  0.17130000000E+03 0.  1.
       11    1    1    2    0    0 -0.12437597726E-01 -0.93690670390E-02  0.15502431398E+01  0.15503214270E+01  0.51109989000E-03 0.  1.
     -623    1    1    2    0    0 -0.22909570954E-02  0.14441918118E-01  0.45501147512E-03  0.17130000062E+03  0.17130000000E+03 0.  1.
      622    1    1    2    0    0  0.14728554821E-01 -0.50728510793E-02  0.24493018160E+01  0.24496779483E+01  0.40000000000E-01 0. -1.
</event>
<event>
 5   0  0.6200596E+07  0.9118800E+02  0.7818608E-02  0.1180000E+00
       11   -1    0    0    0    0  0.00000000000E+00  0.00000000000E+00  0.39999999673E+01  0.40000000000E+01  0.51109989000E-03 0. -1.
     -623   -1    0    0    0    0  0.00000000000E+00  0.00000000000E+00  0.12525980253E-10  0.17130000000E+03  0.17130000000E+03 0.  1.
       11    1    1    2    0    0 -0.12956342819E-01 -0.13634912116E-01  0.13304850748E+00  0.13437240867E+00  0.51109989000E-03 0. -1.
     -623    1    1    2    0    0  0.18544848161E-01  0.13687183488E-01  0.15364240753E-02  0.17130000156E+03  0.17130000000E+03 0.  1.
      622    1    1    2    0    0 -0.55885053419E-02 -0.52271372047E-04  0.38654150358E+01  0.38656260338E+01  0.40000000000E-01 0. -1.
</event>
<event>
 5   0  0.6200596E+07  0.9118800E+02  0.7818608E-02  0.1180000E+00
       11   -1    0    0    0    0  0.00000000000E+00  0.00000000000E+00  0.39999999673E+01  0.40000000000E+01  0.51109989000E-03 0. -1.
     -623   -1    0    0    0    0  0.00000000000E+00  0.00000000000E+00  0.12525980253E-10  0.17130000000E+03  0.17130000000E+03 0.  1.
       11    1    1    2    0    0  0.48914321573E-02  0.35352216393E-02  0.14322712374E-01  0.15550730267E-01  0.51109989000E-03 0. -1.
     -623    1    1    2    0    0 -0.41991467389E-02 -0.18640353646E-02  0.14292490904E-02  0.17130000007E+03  0.17130000000E+03 0.  1.
      622    1    1    2    0    0 -0.69228541838E-03 -0.16711862747E-02  0.39842480059E+01  0.39844492022E+01  0.40000000000E-01 0. -1.
</event>
<event>
 5   0  0.6200596E+07  0.9118800E+02  0.7818608E-02  0.1180000E+00
       11   -1    0    0    0    0  0.00000000000E+00  0.00000000000E+00  0.39999999673E+01  0.40000000000E+01  0.51109989000E-03 0. -1.
     -623   -1    0    0    0    0  0.00000000000E+00  0.00000000000E+00  0.12525980253E-10  0.17130000000E+03  0.17130000000E+03 0.  1.
       11    1    1    2    0    0 -0.38830726338E-03  0.48235029167E-04  0.32806824595E-02  0.33432332076E-02  0.51109989000E-03 0. -1.
     -623    1    1    2    0    0  0.12882656934E-02  0.10213891749E-02  0.26294298323E-03  0.17130000001E+03  0.17130000000E+03 0.  1.
      622    1    1    2    0    0 -0.89995843005E-03 -0.10696242041E-02  0.39964563419E+01  0.39966567587E+01  0.40000000000E-01 0. -1.
</event>
<event>
 5   0  0.6200596E+07  0.9118800E+02  0.7818608E-02  0.1180000E+00
       11   -1    0    0    0    0  0.00000000000E+00  0.00000000000E+00  0.39999999673E+01  0.40000000000E+01  0.51109989000E-03 0.  1.
     -623   -1    0    0    0    0  0.00000000000E+00  0.00000000000E+00  0.12525980253E-10  0.17130000000E+03  0.17130000000E+03 0. -1.
       11    1    1    2    0    0 -0.37323389065E-02 -0.18354893776E-01  0.64855363713E-01  0.67507865489E-01  0.51109989000E-03 0.  1.
     -623    1    1    2    0    0  0.41080765780E-02  0.96538994907E-02  0.28658973472E-02  0.17130000035E+03  0.17130000000E+03 0. -1.
      622    1    1    2    0    0 -0.37573767149E-03  0.87009942854E-02  0.39322787063E+01  0.39324917892E+01  0.40000000000E-01 0.  1.
</event>
<event>
 5   0  0.6200596E+07  0.9118800E+02  0.7818608E-02  0.1180000E+00
       11   -1    0    0    0    0  0.00000000000E+00  0.00000000000E+00  0.39999999673E+01  0.40000000000E+01  0.51109989000E-03 0. -1.
     -623   -1    0    0    0    0  0.00000000000E+00  0.00000000000E+00  0.12525980253E-10  0.17130000000E+03  0.17130000000E+03 0. -1.
       11    1    1    2    0    0 -0.66639704439E-02  0.10274017958E-01  0.83062919395E-01  0.83962335282E-01  0.51109989000E-03 0. -1.
     -623    1    1    2    0    0 -0.16371370711E-02 -0.10800498609E-02  0.11232835897E-02  0.17130000001E+03  0.17130000000E+03 0. -1.
      622    1    1    2    0    0  0.83011075151E-02 -0.91939680969E-02  0.39158137644E+01  0.39160376498E+01  0.40000000000E-01 0. -1.
</event>
<event>
 5   0  0.6200596E+07  0.9118800E+02  0.7818608E-02  0.1180000E+00
       11   -1    0    0    0    0  0.00000000000E+00  0.00000000000E+00  0.39999999673E+01  0.40000000000E+01  0.51109989000E-03 0.  1.
     -623   -1    0    0    0    0  0.00000000000E+00  0.00000000000E+00  0.12525980253E-10  0.17130000000E+03  0.17130000000E+03 0.  1.
       11    1    1    2    0    0 -0.62092038417E-02  0.16832726051E-01  0.19887572633E+00  0.19968402696E+00  0.51109989000E-03 0.  1.
     -623    1    1    2    0    0  0.12313967086E-02 -0.76932659293E-03  0.10560032131E-02  0.17130000001E+03  0.17130000000E+03 0.  1.
      622    1    1    2    0    0  0.49778071330E-02 -0.16063399458E-01  0.38000682378E+01  0.38003159636E+01  0.40000000000E-01 0.  1.
</event>
<event>
 5   0  0.6200596E+07  0.9118800E+02  0.7818608E-02  0.1180000E+00
       11   -1    0    0    0    0  0.00000000000E+00  0.00000000000E+00  0.39999999673E+01  0.40000000000E+01  0.51109989000E-03 0. -1.
     -623   -1    0    0    0    0  0.00000000000E+00  0.00000000000E+00  0.12525980253E-10  0.17130000000E+03  0.17130000000E+03 0.  1.
       11    1    1    2    0    0 -0.21192294971E-01 -0.51750469851E-02  0.31138131854E+00  0.31214496830E+00  0.51109989000E-03 0. -1.
     -623    1    1    2    0    0  0.17444447956E-02  0.43114467294E-02  0.10320014967E-02  0.17130000007E+03  0.17130000000E+03 0.  1.
      622    1    1    2    0    0  0.19447850175E-01  0.86360025573E-03  0.36875866473E+01  0.36878549654E+01  0.40000000000E-01 0. -1.
</event>
<event>
 5   0  0.6200596E+07  0.9118800E+02  0.7818608E-02  0.1180000E+00
       11   -1    0    0    0    0  0.00000000000E+00  0.00000000000E+00  0.39999999673E+01  0.40000000000E+01  0.51109989000E-03 0.  1.
     -623   -1    0    0    0    0  0.00000000000E+00  0.00000000000E+00  0.12525980253E-10  0.17130000000E+03  0.17130000000E+03 0. -1.
       11    1    1    2    0    0  0.13038408243E-02 -0.18152490698E-02  0.50275686002E-01  0.50327934135E-01  0.51109989000E-03 0.  1.
     -623    1    1    2    0    0 -0.30454800212E-02 -0.13332178784E-02  0.25644057648E-03  0.17130000003E+03  0.17130000000E+03 0. -1.
      622    1    1    2    0    0  0.17416391969E-02  0.31484669482E-02  0.39494678408E+01  0.39496720334E+01  0.40000000000E-01 0.  1.
</event>
<event>
 5   0  0.6200596E+07  0.9118800E+02  0.7818608E-02  0.1180000E+00
       11   -1    0    0    0    0  0.00000000000E+00  0.00000000000E+00  0.39999999673E+01  0.40000000000E+01  0.51109989000E-03 0.  1.
     -623   -1    0    0    0    0  0.00000000000E+00  0.00000000000E+00  0.12525980253E-10  0.17130000000E+03  0.17130000000E+03 0. -1.
       11    1    1    2    0    0 -0.46581074635E-03 -0.25347041643E-03  0.41288613468E-02  0.41940367502E-02  0.51109989000E-03 0.  1.
     -623    1    1    2    0    0 -0.10645363236E-02  0.29703420965E-02  0.26660372704E-03  0.17130000003E+03  0.17130000000E+03 0. -1.
      622    1    1    2    0    0  0.15303470699E-02 -0.27168716800E-02  0.39956045023E+01  0.39958059340E+01  0.40000000000E-01 0.  1.
</event>
<event>
 5   0  0.6200596E+07  0.9118800E+02  0.7818608E-02  0.1180000E+00
       11   -1    0    0    0    0  0.00000000000E+00  0.00000000000E+00  0.39999999673E+01  0.40000000000E+01  0.51109989000E-03 0.  1.
     -623   -1    0    0    0    0  0.00000000000E+00  0.00000000000E+00  0.12525980253E-10  0.17130000000E+03  0.17130000000E+03 0.  1.
       11    1    1    2    0    0 -0.14150084625E-01 -0.98249318677E-02  0.62891560510E+00  0.62915169374E+00  0.51109989000E-03 0.  1.
     -623    1    1    2    0    0  0.18004144831E-01  0.42566607204E-01  0.64086160871E-03  0.17130000624E+03  0.17130000000E+03 0.  1.
      622    1    1    2    0    0 -0.38540602061E-02 -0.32741675337E-01  0.33704435007E+01  0.33708420702E+01  0.40000000000E-01 0.  1.
</event>
<event>
 5   0  0.6200596E+07  0.9118800E+02  0.7818608E-02  0.1180000E+00
       11   -1    0    0    0    0  0.00000000000E+00  0.00000000000E+00  0.39999999673E+01  0.40000000000E+01  0.51109989000E-03 0.  1.
     -623   -1    0    0    0    0  0.00000000000E+00  0.00000000000E+00  0.12525980253E-10  0.17130000000E+03  0.17130000000E+03 0.  1.
       11    1    1    2    0    0  0.52527031685E-03  0.15823085684E-01  0.98921287330E+00  0.98933968680E+00  0.51109989000E-03 0.  1.
     -623    1    1    2    0    0 -0.16215319100E-02  0.64604659031E-02  0.47531962670E-03  0.17130000013E+03  0.17130000000E+03 0.  1.
      622    1    1    2    0    0  0.10962615932E-02 -0.22283551587E-01  0.30103117744E+01  0.30106601830E+01  0.40000000000E-01 0.  0.
</event>
<event>
 5   0  0.6200596E+07  0.9118800E+02  0.7818608E-02  0.1180000E+00
       11   -1    0    0    0    0  0.00000000000E+00  0.00000000000E+00  0.39999999673E+01  0.40000000000E+01  0.51109989000E-03 0. -1.
     -623   -1    0    0    0    0  0.00000000000E+00  0.00000000000E+00  0.12525980253E-10  0.17130000000E+03  0.17130000000E+03 0.  1.
       11    1    1    2    0    0 -0.11993488664E-02  0.21920192485E-02  0.13415428063E+00  0.13417852144E+00  0.51109989000E-03 0. -1.
     -623    1    1    2    0    0  0.12465330930E-03 -0.16575002912E-03  0.23183623913E-03  0.17130000000E+03  0.17130000000E+03 0.  1.
      622    1    1    2    0    0  0.10746955571E-02 -0.20262692194E-02  0.38656138505E+01  0.38658214783E+01  0.40000000000E-01 0. -1.
</event>
<event>
 5   0  0.6200596E+07  0.9118800E+02  0.7818608E-02  0.1180000E+00
       11   -1    0    0    0    0  0.00000000000E+00  0.00000000000E+00  0.39999999673E+01  0.40000000000E+01  0.51109989000E-03 0.  1.
     -623   -1    0    0    0    0  0.00000000000E+00  0.00000000000E+00  0.12525980253E-10  0.17130000000E+03  0.17130000000E+03 0.  1.
       11    1    1    2    0    0  0.79198044315E-02 -0.27492677679E-01  0.48775041991E+00  0.48858909523E+00  0.51109989000E-03 0.  1.
     -623    1    1    2    0    0  0.17335194780E-02  0.26408536052E-02  0.11677327040E-02  0.17130000003E+03  0.17130000000E+03 0.  1.
      622    1    1    2    0    0 -0.96533239096E-02  0.24851824074E-01  0.35110818147E+01  0.35114108717E+01  0.40000000000E-01 0.  1.
</event>
<event>
 5   0  0.6200596E+07  0.9118800E+02  0.7818608E-02  0.1180000E+00
       11   -1    0    0    0    0  0.00000000000E+00  0.00000000000E+00  0.39999999673E+01  0.40000000000E+01  0.51109989000E-03 0. -1.
     -623   -1    0    0    0    0  0.00000000000E+00  0.00000000000E+00  0.12525980253E-10  0.17130000000E+03  0.17130000000E+03 0.  1.
       11    1    1    2    0    0  0.21192801277E-03  0.35418380496E-02  0.84917757879E-01  0.84993390068E-01  0.51109989000E-03 0. -1.
     -623    1    1    2    0    0 -0.98456315457E-03 -0.34950564227E-03  0.28132806885E-03  0.17130000000E+03  0.17130000000E+03 0.  1.
      622    1    1    2    0    0  0.77263514179E-03 -0.31923324073E-02  0.39148008814E+01  0.39150066065E+01  0.40000000000E-01 0. -1.
</event>
<event>
 5   0  0.6200596E+07  0.9118800E+02  0.7818608E-02  0.1180000E+00
       11   -1    0    0    0    0  0.00000000000E+00  0.00000000000E+00  0.39999999673E+01  0.40000000000E+01  0.51109989000E-03 0. -1.
     -623   -1    0    0    0    0  0.00000000000E+00  0.00000000000E+00  0.12525980253E-10  0.17130000000E+03  0.17130000000E+03 0. -1.
       11    1    1    2    0    0  0.17593951355E-02  0.12411880397E-02  0.72859757834E-02  0.76146360405E-02  0.51109989000E-03 0. -1.
     -623    1    1    2    0    0 -0.15937761840E-02 -0.47880824071E-02  0.53066833239E-03  0.17130000008E+03  0.17130000000E+03 0. -1.
      622    1    1    2    0    0 -0.16561895155E-03  0.35468943674E-02  0.39921833232E+01  0.39923852888E+01  0.40000000000E-01 0. -1.
</event>
<event>
 5   0  0.6200596E+07  0.9118800E+02  0.7818608E-02  0.1180000E+00
       11   -1    0    0    0    0  0.00000000000E+00  0.00000000000E+00  0.39999999673E+01  0.40000000000E+01  0.51109989000E-03 0. -1.
     -623   -1    0    0    0    0  0.00000000000E+00  0.00000000000E+00  0.12525980253E-10  0.17130000000E+03  0.17130000000E+03 0. -1.
       11    1    1    2    0    0  0.14416562839E-01  0.28701004901E-01  0.12987824227E+01  0.12991795979E+01  0.51109989000E-03 0. -1.
     -623    1    1    2    0    0 -0.98649519035E-03  0.21935482188E-02  0.90350737142E-03  0.17130000002E+03  0.17130000000E+03 0. -1.
      622    1    1    2    0    0 -0.13430067648E-01 -0.30894553120E-01  0.27003140373E+01  0.27008203828E+01  0.40000000000E-01 0.  1.
</event>
<event>
 5   0  0.6200596E+07  0.9118800E+02  0.7818608E-02  0.1180000E+00
       11   -1    0    0    0    0  0.00000000000E+00  0.00000000000E+00  0.39999999673E+01  0.40000000000E+01  0.51109989000E-03 0.  1.
     -623   -1    0    0    0    0  0.00000000000E+00  0.00000000000E+00  0.12525980253E-10  0.17130000000E+03  0.17130000000E+03 0.  1.
       11    1    1    2    0    0 -0.41511356449E-02 -0.11895820729E-02  0.79304374896E-01  0.79423498618E-01  0.51109989000E-03 0.  1.
     -623    1    1    2    0    0  0.77851321429E-03 -0.13267584404E-02  0.32541350764E-03  0.17130000001E+03  0.17130000000E+03 0.  1.
      622    1    1    2    0    0  0.33726224307E-02  0.25163405132E-02  0.39203701790E+01  0.39205764942E+01  0.40000000000E-01 0.  1.
</event>
<event>
 5   0  0.6200596E+07  0.9118800E+02  0.7818608E-02  0.1180000E+00
       11   -1    0    0    0    0  0.00000000000E+00  0.00000000000E+00  0.39999999673E+01  0.40000000000E+01  0.51109989000E-03 0. -1.
     -623   -1    0    0    0    0  0.00000000000E+00  0.00000000000E+00  0.12525980253E-10  0.17130000000E+03  0.17130000000E+03 0.  1.
       11    1    1    2    0    0 -0.11438575454E-02  0.33470432793E-02  0.52140055727E-01  0.52262393185E-01  0.51109989000E-03 0. -1.
     -623    1    1    2    0    0  0.10023649650E-02 -0.13986972091E-03  0.32626640318E-03  0.17130000000E+03  0.17130000000E+03 0.  1.
      622    1    1    2    0    0  0.14149258044E-03 -0.32071735584E-02  0.39475336452E+01  0.39477376035E+01  0.40000000000E-01 0. -1.
</event>
<event>
 5   0  0.6200596E+07  0.9118800E+02  0.7818608E-02  0.1180000E+00
       11   -1    0    0    0    0  0.00000000000E+00  0.00000000000E+00  0.39999999673E+01  0.40000000000E+01  0.51109989000E-03 0.  1.
     -623   -1    0    0    0    0  0.00000000000E+00  0.00000000000E+00  0.12525980253E-10  0.17130000000E+03  0.17130000000E+03 0. -1.
       11    1    1    2    0    0  0.14752702574E-01  0.19262457964E-02  0.11585170233E+01  0.11586126648E+01  0.51109989000E-03 0.  1.
     -623    1    1    2    0    0 -0.12095561954E-02  0.25421040405E-02  0.41299224721E-03  0.17130000002E+03  0.17130000000E+03 0. -1.
      622    1    1    2    0    0 -0.13543146378E-01 -0.44683498370E-02  0.28410699519E+01  0.28413873116E+01  0.40000000000E-01 0.  1.
</event>
<event>
 5   0  0.6200596E+07  0.9118800E+02  0.7818608E-02  0.1180000E+00
       11   -1    0    0    0    0  0.00000000000E+00  0.00000000000E+00  0.39999999673E+01  0.40000000000E+01  0.51109989000E-03 0.  1.
     -623   -1    0    0    0    0  0.00000000000E+00  0.00000000000E+00  0.12525980253E-10  0.17130000000E+03  0.17130000000E+03 0.  1.
       11    1    1    2    0    0 -0.27137300158E-02 -0.71400830013E-02  0.26404220618E-01  0.27491620605E-01  0.51109989000E-03 0.  1.
     -623    1    1    2    0    0  0.25342421957E-02  0.61190403956E-03  0.12941496119E-02  0.17130000002E+03  0.17130000000E+03 0.  1.
      622    1    1    2    0    0  0.17948782005E-03  0.65281789617E-02  0.39723015971E+01  0.39725083547E+01  0.40000000000E-01 0.  1.
</event>
<event>
 5   0  0.6200596E+07  0.9118800E+02  0.7818608E-02  0.1180000E+00
       11   -1    0    0    0    0  0.00000000000E+00  0.00000000000E+00  0.39999999673E+01  0.40000000000E+01  0.51109989000E-03 0. -1.
     -623   -1    0    0    0    0  0.00000000000E+00  0.00000000000E+00  0.12525980253E-10  0.17130000000E+03  0.17130000000E+03 0.  1.
       11    1    1    2    0    0  0.37002124876E-03 -0.66566552285E-03  0.27664047712E-01  0.27679248275E-01  0.51109989000E-03 0. -1.
     -623    1    1    2    0    0 -0.83447739178E-03 -0.51623341274E-03  0.21677257302E-03  0.17130000000E+03  0.17130000000E+03 0.  1.
      622    1    1    2    0    0  0.46445614302E-03  0.11818989356E-02  0.39721191471E+01  0.39723207488E+01  0.40000000000E-01 0. -1.
</event>
<event>
 5   0  0.6200596E+07  0.9118800E+02  0.7818608E-02  0.1180000E+00
       11   -1    0    0    0    0  0.00000000000E+00  0.00000000000E+00  0.39999999673E+01  0.40000000000E+01  0.51109989000E-03 0. -1.
     -623   -1    0    0    0    0  0.00000000000E+00  0.00000000000E+00  0.12525980253E-10  0.17130000000E+03  0.17130000000E+03 0.  1.
       11    1    1    2    0    0  0.15132290635E-01 -0.12460974563E-01  0.36728056264E+00  0.36780366369E+00  0.51109989000E-03 0. -1.
     -623    1    1    2    0    0  0.24776329094E-02  0.24479627894E-02  0.79985922874E-03  0.17130000004E+03  0.17130000000E+03 0.  1.
      622    1    1    2    0    0 -0.17609923545E-01  0.10013011774E-01  0.36319195455E+01  0.36321962990E+01  0.40000000000E-01 0. -1.
</event>
<event>
 5   0  0.6200596E+07  0.9118800E+02  0.7818608E-02  0.1180000E+00
       11   -1    0    0    0    0  0.00000000000E+00  0.00000000000E+00  0.39999999673E+01  0.40000000000E+01  0.51109989000E-03 0. -1.
     -623   -1    0    0    0    0  0.00000000000E+00  0.00000000000E+00  0.12525980253E-10  0.17130000000E+03  0.17130000000E+03 0. -1.
       11    1    1    2    0    0  0.22355832133E-02  0.52542419667E-01  0.12130958436E+01  0.12142353523E+01  0.51109989000E-03 0. -1.
     -623    1    1    2    0    0 -0.51354390056E-02 -0.30930416552E-01  0.15148941575E-02  0.17130000288E+03  0.17130000000E+03 0. -1.
      622    1    1    2    0    0  0.28998557924E-02 -0.21612003115E-01  0.27853892296E+01  0.27857617716E+01  0.40000000000E-01 0. -1.
</event>
<event>
 5   0  0.6200596E+07  0.9118800E+02  0.7818608E-02  0.1180000E+00
       11   -1    0    0    0    0  0.00000000000E+00  0.00000000000E+00  0.39999999673E+01  0.40000000000E+01  0.51109989000E-03 0.  1.
     -623   -1    0    0    0    0  0.00000000000E+00  0.00000000000E+00  0.12525980253E-10  0.17130000000E+03  0.17130000000E+03 0.  1.
       11    1    1    2    0    0 -0.12631527190E-02 -0.40069885503E-03  0.95258591532E-02  0.96311644582E-02  0.51109989000E-03 0.  1.
     -623    1    1    2    0    0  0.48952446217E-03  0.20576607056E-02  0.30619278688E-03  0.17130000001E+03  0.17130000000E+03 0.  1.
      622    1    1    2    0    0  0.77362825681E-03 -0.16569618505E-02  0.39901679154E+01  0.39903688222E+01  0.40000000000E-01 0.  1.
</event>
<event>
 5   0  0.6200596E+07  0.9118800E+02  0.7818608E-02  0.1180000E+00
       11   -1    0    0    0    0  0.00000000000E+00  0.00000000000E+00  0.39999999673E+01  0.40000000000E+01  0.51109989000E-03 0.  1.
     -623   -1    0    0    0    0  0.00000000000E+00  0.00000000000E+00  0.12525980253E-10  0.17130000000E+03  0.17130000000E+03 0. -1.
       11    1    1    2    0    0 -0.13405508111E-01 -0.55760083932E-02  0.19664980388E-01  0.24449380197E-01  0.51109989000E-03 0.  1.
     -623    1    1    2    0    0  0.84872057121E-02 -0.21161996216E-02  0.49963830521E-02  0.17130000030E+03  0.17130000000E+03 0. -1.
      622    1    1    2    0    0  0.49183023985E-02  0.76922080148E-02  0.39753386039E+01  0.39755503236E+01  0.40000000000E-01 0.  1.
</event>
<event>
 5   0  0.6200596E+07  0.9118800E+02  0.7818608E-02  0.1180000E+00
       11   -1    0    0    0    0  0.00000000000E+00  0.00000000000E+00  0.39999999673E+01  0.40000000000E+01  0.51109989000E-03 0.  1.
     -623   -1    0    0    0    0  0.00000000000E+00  0.00000000000E+00  0.12525980253E-10  0.17130000000E+03  0.17130000000E+03 0. -1.
       11    1    1    2    0    0  0.38136918874E-03 -0.51901512154E-03  0.58334727996E-01  0.58340522204E-01  0.51109989000E-03 0.  1.
     -623    1    1    2    0    0 -0.37667907585E-03 -0.11623201307E-02  0.20909009320E-03  0.17130000000E+03  0.17130000000E+03 0. -1.
      622    1    1    2    0    0 -0.46901128871E-05  0.16813352523E-02  0.39414561493E+01  0.39416594733E+01  0.40000000000E-01 0.  1.
</event>
<event>
 5   0  0.6200596E+07  0.9118800E+02  0.7818608E-02  0.1180000E+00
       11   -1    0    0    0    0  0.00000000000E+00  0.00000000000E+00  0.39999999673E+01  0.40000000000E+01  0.51109989000E-03 0. -1.
     -623   -1    0    0    0    0  0.00000000000E+00  0.00000000000E+00  0.12525980253E-10  0.17130000000E+03  0.17130000000E+03 0. -1.
       11    1    1    2    0    0 -0.57602892125E-02 -0.22510343539E-02  0.10799734787E+00  0.10817548916E+00  0.51109989000E-03 0. -1.
     -623    1    1    2    0    0 -0.14493799480E-02  0.23492321982E-02  0.39037549904E-03  0.17130000002E+03  0.17130000000E+03 0. -1.
      622    1    1    2    0    0  0.72096691605E-02 -0.98197844299E-04  0.38916122440E+01  0.38918244882E+01  0.40000000000E-01 0. -1.
</event>
<event>
 5   0  0.6200596E+07  0.9118800E+02  0.7818608E-02  0.1180000E+00
       11   -1    0    0    0    0  0.00000000000E+00  0.00000000000E+00  0.39999999673E+01  0.40000000000E+01  0.51109989000E-03 0.  1.
     -623   -1    0    0    0    0  0.00000000000E+00  0.00000000000E+00  0.12525980253E-10  0.17130000000E+03  0.17130000000E+03 0.  1.
       11    1    1    2    0    0  0.46265942926E-01 -0.23114538497E-02  0.73024577318E+00  0.73171376286E+00  0.51109989000E-03 0.  1.
     -623    1    1    2    0    0  0.35716682484E-02  0.33560703624E-02  0.20930264207E-02  0.17130000008E+03  0.17130000000E+03 0.  1.
      622    1    1    2    0    0 -0.49837611175E-01 -0.10446165126E-02  0.32676611678E+01  0.32682861542E+01  0.40000000000E-01 0.  1.
</event>
<event>
 5   0  0.6200596E+07  0.9118800E+02  0.7818608E-02  0.1180000E+00
       11   -1    0    0    0    0  0.00000000000E+00  0.00000000000E+00  0.39999999673E+01  0.40000000000E+01  0.51109989000E-03 0.  1.
     -623   -1    0    0    0    0  0.00000000000E+00  0.00000000000E+00  0.12525980253E-10  0.17130000000E+03  0.17130000000E+03 0. -1.
       11    1    1    2    0    0  0.74961374197E-02  0.31034138018E-02  0.82899482755E+00  0.82903468478E+00  0.51109989000E-03 0.  1.
     -623    1    1    2    0    0 -0.46543300777E-03  0.73148925671E-03  0.30224023177E-03  0.17130000000E+03  0.17130000000E+03 0. -1.
      622    1    1    2    0    0 -0.70307044119E-02 -0.38349030585E-02  0.31707028996E+01  0.31709653128E+01  0.40000000000E-01 0.  1.
</event>
<event>
 5   0  0.6200596E+07  0.9118800E+02  0.7818608E-02  0.1180000E+00
       11   -1    0    0    0    0  0.00000000000E+00  0.00000000000E+00  0.39999999673E+01  0.40000000000E+01  0.51109989000E-03 0. -1.
     -623   -1    0    0    0    0  0.00000000000E+00  0.00000000000E+00  0.12525980253E-10  0.17130000000E+03  0.17130000000E+03 0. -1.
       11    1    1    2    0    0 -0.23964099576E-03 -0.89597895099E-03  0.23201811094E-01  0.23225965324E-01  0.51109989000E-03 0. -1.
     -623    1    1    2    0    0 -0.12845149825E-02  0.50300219280E-03  0.22561197207E-03  0.17130000001E+03  0.17130000000E+03 0. -1.
      622    1    1    2    0    0  0.15241559783E-02  0.39297675818E-03  0.39765725443E+01  0.39767740290E+01  0.40000000000E-01 0. -1.
</event>
<event>
 5   0  0.6200596E+07  0.9118800E+02  0.7818608E-02  0.1180000E+00
       11   -1    0    0    0    0  0.00000000000E+00  0.00000000000E+00  0.39999999673E+01  0.40000000000E+01  0.51109989000E-03 0.  1.
     -623   -1    0    0    0    0  0.00000000000E+00  0.00000000000E+00  0.12525980253E-10  0.17130000000E+03  0.17130000000E+03 0.  1.
       11    1    1    2    0    0 -0.29177317866E-02 -0.82364072051E-05  0.42887697234E-02  0.52122924230E-02  0.51109989000E-03 0.  1.
     -623    1    1    2    0    0  0.11110420478E-02 -0.22669015346E-03  0.11241789531E-02  0.17130000001E+03  0.17130000000E+03 0.  1.
      622    1    1    2    0    0  0.18066897388E-02  0.23492656067E-03  0.39945870187E+01  0.39947877001E+01  0.40000000000E-01 0.  1.
</event>
<event>
 5   0  0.6200596E+07  0.9118800E+02  0.7818608E-02  0.1180000E+00
       11   -1    0    0    0    0  0.00000000000E+00  0.00000000000E+00  0.39999999673E+01  0.40000000000E+01  0.51109989000E-03 0. -1.
     -623   -1    0    0    0    0  0.00000000000E+00  0.00000000000E+00  0.12525980253E-10  0.17130000000E+03  0.17130000000E+03 0. -1.
       11    1    1    2    0    0  0.26294505331E-02  0.77433872275E-03  0.82329104680E+00  0.82329576859E+00  0.51109989000E-03 0. -1.
     -623    1    1    2    0    0  0.54496357072E-04 -0.35457766566E-02  0.25891229767E-03  0.17130000004E+03  0.17130000000E+03 0. -1.
      622    1    1    2    0    0 -0.26839468902E-02  0.27714379338E-02  0.31764500083E+01  0.31767041945E+01  0.40000000000E-01 0. -1.
</event>
<event>
 5   0  0.6200596E+07  0.9118800E+02  0.7818608E-02  0.1180000E+00
       11   -1    0    0    0    0  0.00000000000E+00  0.00000000000E+00  0.39999999673E+01  0.40000000000E+01  0.51109989000E-03 0.  1.
     -623   -1    0    0    0    0  0.00000000000E+00  0.00000000000E+00  0.12525980253E-10  0.17130000000E+03  0.17130000000E+03 0. -1.
       11    1    1    2    0    0 -0.29732517135E-02  0.33448770533E-02  0.60580453666E+00  0.60582128246E+00  0.51109989000E-03 0.  1.
     -623    1    1    2    0    0 -0.19529775921E-02 -0.56577869873E-02  0.25688704100E-03  0.17130000010E+03  0.17130000000E+03 0. -1.
      622    1    1    2    0    0  0.49262293056E-02  0.23129099340E-02  0.33939385437E+01  0.33941786128E+01  0.40000000000E-01 0.  1.
</event>
<event>
 5   0  0.6200596E+07  0.9118800E+02  0.7818608E-02  0.1180000E+00
       11   -1    0    0    0    0  0.00000000000E+00  0.00000000000E+00  0.39999999673E+01  0.40000000000E+01  0.51109989000E-03 0.  1.
     -623   -1    0    0    0    0  0.00000000000E+00  0.00000000000E+00  0.12525980253E-10  0.17130000000E+03  0.17130000000E+03 0. -1.
       11    1    1    2    0    0  0.64172329972E-03 -0.69186057830E-02  0.12629820918E+01  0.12630013082E+01  0.51109989000E-03 0.  1.
     -623    1    1    2    0    0 -0.20544997291E-02  0.23273048145E-03  0.32003464278E-03  0.17130000001E+03  0.17130000000E+03 0. -1.
      622    1    1    2    0    0  0.14127764293E-02  0.66858753015E-02  0.27366978409E+01  0.27369986791E+01  0.40000000000E-01 0.  1.
</event>
<event>
 5   0  0.6200596E+07  0.9118800E+02  0.7818608E-02  0.1180000E+00
       11   -1    0    0    0    0  0.00000000000E+00  0.00000000000E+00  0.39999999673E+01  0.40000000000E+01  0.51109989000E-03 0.  1.
     -623   -1    0    0    0    0  0.00000000000E+00  0.00000000000E+00  0.12525980253E-10  0.17130000000E+03  0.17130000000E+03 0.  1.
       11    1    1    2    0    0 -0.29990773595E-01  0.11011260181E-01  0.97520147653E+00  0.97572479491E+00  0.51109989000E-03 0.  1.
     -623    1    1    2    0    0  0.24825423590E-01 -0.62063363965E-02  0.79796569622E-03  0.17130000191E+03  0.17130000000E+03 0.  1.
      622    1    1    2    0    0  0.51653500055E-02 -0.48049237841E-02  0.30240005251E+01  0.30242732919E+01  0.40000000000E-01 0.  0.
</event>
<event>
 5   0  0.6200596E+07  0.9118800E+02  0.7818608E-02  0.1180000E+00
       11   -1    0    0    0    0  0.00000000000E+00  0.00000000000E+00  0.39999999673E+01  0.40000000000E+01  0.51109989000E-03 0.  1.
     -623   -1    0    0    0    0  0.00000000000E+00  0.00000000000E+00  0.12525980253E-10  0.17130000000E+03  0.17130000000E+03 0.  1.
       11    1    1    2    0    0 -0.74788674879E-03  0.20063413049E-03  0.29115411702E-02  0.30557950655E-02  0.51109989000E-03 0. -1.
     -623    1    1    2    0    0 -0.48211332378E-03 -0.81355429415E-04  0.34457126439E-03  0.17130000000E+03  0.17130000000E+03 0.  1.
      622    1    1    2    0    0  0.12300000726E-02 -0.11927870108E-03  0.39967438549E+01  0.39969442039E+01  0.40000000000E-01 0.  1.
</event>
<event>
 5   0  0.6200596E+07  0.9118800E+02  0.7818608E-02  0.1180000E+00
       11   -1    0    0    0    0  0.00000000000E+00  0.00000000000E+00  0.39999999673E+01  0.40000000000E+01  0.51109989000E-03 0.  1.
     -623   -1    0    0    0    0  0.00000000000E+00  0.00000000000E+00  0.12525980253E-10  0.17130000000E+03  0.17130000000E+03 0. -1.
       11    1    1    2    0    0 -0.19971240338E-02  0.19622715982E-02  0.10114826523E-01  0.10507613998E-01  0.51109989000E-03 0.  1.
     -623    1    1    2    0    0  0.13487659916E-02 -0.17556943506E-03  0.59374586439E-03  0.17130000001E+03  0.17130000000E+03 0. -1.
      622    1    1    2    0    0  0.64835804220E-03 -0.17867021632E-02  0.39892913950E+01  0.39894923796E+01  0.40000000000E-01 0.  1.
</event>
<event>
 5   0  0.6200596E+07  0.9118800E+02  0.7818608E-02  0.1180000E+00
       11   -1    0    0    0    0  0.00000000000E+00  0.00000000000E+00  0.39999999673E+01  0.40000000000E+01  0.51109989000E-03 0. -1.
     -623   -1    0    0    0    0  0.00000000000E+00  0.00000000000E+00  0.12525980253E-10  0.17130000000E+03  0.17130000000E+03 0.  1.
       11    1    1    2    0    0  0.10929882722E-01  0.20381527208E-02  0.15320789187E+01  0.15321193461E+01  0.51109989000E-03 0. -1.
     -623    1    1    2    0    0 -0.64143170778E-02  0.55486540637E-02  0.38058628583E-03  0.17130000021E+03  0.17130000000E+03 0.  1.
      622    1    1    2    0    0 -0.45155656443E-02 -0.75868067846E-02  0.24675404623E+01  0.24678804435E+01  0.40000000000E-01 0. -1.
</event>
<event>
 5   0  0.6200596E+07  0.9118800E+02  0.7818608E-02  0.1180000E+00
       11   -1    0    0    0    0  0.00000000000E+00  0.00000000000E+00  0.39999999673E+01  0.40000000000E+01  0.51109989000E-03 0. -1.
     -623   -1    0    0    0    0  0.00000000000E+00  0.00000000000E+00  0.12525980253E-10  0.17130000000E+03  0.17130000000E+03 0. -1.
       11    1    1    2    0    0 -0.76557896521E-03  0.48599461158E-02  0.29689834341E-01  0.30099047689E-01  0.51109989000E-03 0. -1.
     -623    1    1    2    0    0  0.34833604491E-02 -0.62416302723E-03  0.61393003357E-03  0.17130000004E+03  0.17130000000E+03 0. -1.
      622    1    1    2    0    0 -0.27177814839E-02 -0.42357830885E-02  0.39696962030E+01  0.39699009147E+01  0.40000000000E-01 0. -1.
</event>
<event>
 5   0  0.6200596E+07  0.9118800E+02  0.7818608E-02  0.1180000E+00
       11   -1    0    0    0    0  0.00000000000E+00  0.00000000000E+00  0.39999999673E+01  0.40000000000E+01  0.51109989000E-03 0. -1.
     -623   -1    0    0    0    0  0.00000000000E+00  0.00000000000E+00  0.12525980253E-10  0.17130000000E+03  0.17130000000E+03 0. -1.
       11    1    1    2    0    0  0.14595434383E-02 -0.89040965171E-03  0.26105650790E-01  0.26166568746E-01  0.51109989000E-03 0. -1.
     -623    1    1    2    0    0 -0.15399224770E-02 -0.67370906558E-04  0.26233073624E-03  0.17130000001E+03  0.17130000000E+03 0. -1.
      622    1    1    2    0    0  0.80379038655E-04  0.95778055827E-03  0.39736319858E+01  0.39738334241E+01  0.40000000000E-01 0. -1.
</event>
<event>
 5   0  0.6200596E+07  0.9118800E+02  0.7818608E-02  0.1180000E+00
       11   -1    0    0    0    0  0.00000000000E+00  0.00000000000E+00  0.39999999673E+01  0.40000000000E+01  0.51109989000E-03 0.  1.
     -623   -1    0    0    0    0  0.00000000000E+00  0.00000000000E+00  0.12525980253E-10  0.17130000000E+03  0.17130000000E+03 0.  1.
       11    1    1    2    0    0 -0.34488303201E-02 -0.61695147826E-02  0.61499635620E-01  0.61906572707E-01  0.51109989000E-03 0.  1.
     -623    1    1    2    0    0  0.27205976240E-02  0.77758340700E-03  0.61383691570E-03  0.17130000002E+03  0.17130000000E+03 0.  1.
      622    1    1    2    0    0  0.72823269614E-03  0.53919313756E-02  0.39378864948E+01  0.39380934028E+01  0.40000000000E-01 0.  1.
</event>
<event>
 5   0  0.6200596E+07  0.9118800E+02  0.7818608E-02  0.1180000E+00
       11   -1    0    0    0    0  0.00000000000E+00  0.00000000000E+00  0.39999999673E+01  0.40000000000E+01  0.51109989000E-03 0.  1.
     -623   -1    0    0    0    0  0.00000000000E+00  0.00000000000E+00  0.12525980253E-10  0.17130000000E+03  0.17130000000E+03 0. -1.
       11    1    1    2    0    0 -0.32469585129E-02  0.43401648665E-02  0.59763418441E+00  0.59765898251E+00  0.51109989000E-03 0.  1.
     -623    1    1    2    0    0 -0.48281686703E-03 -0.16298190415E-02  0.26303856238E-03  0.17130000001E+03  0.17130000000E+03 0. -1.
      622    1    1    2    0    0  0.37297753799E-02 -0.27103458250E-02  0.34021027444E+01  0.34023410089E+01  0.40000000000E-01 0.  1.
</event>
<event>
 5   0  0.6200596E+07  0.9118800E+02  0.7818608E-02  0.1180000E+00
       11   -1    0    0    0    0  0.00000000000E+00  0.00000000000E+00  0.39999999673E+01  0.40000000000E+01  0.51109989000E-03 0. -1.
     -623   -1    0    0    0    0  0.00000000000E+00  0.00000000000E+00  0.12525980253E-10  0.17130000000E+03  0.17130000000E+03 0.  1.
       11    1    1    2    0    0 -0.22205841790E-02  0.89272725103E-02  0.87285434194E+00  0.87290296749E+00  0.51109989000E-03 0. -1.
     -623    1    1    2    0    0 -0.38993994653E-03 -0.33680151594E-03  0.31732296682E-03  0.17130000000E+03  0.17130000000E+03 0.  1.
      622    1    1    2    0    0  0.26105241255E-02 -0.85904709944E-02  0.31268283024E+01  0.31270970314E+01  0.40000000000E-01 0. -1.
</event>
<event>
 5   0  0.6200596E+07  0.9118800E+02  0.7818608E-02  0.1180000E+00
       11   -1    0    0    0    0  0.00000000000E+00  0.00000000000E+00  0.39999999673E+01  0.40000000000E+01  0.51109989000E-03 0. -1.
     -623   -1    0    0    0    0  0.00000000000E+00  0.00000000000E+00  0.12525980253E-10  0.17130000000E+03  0.17130000000E+03 0. -1.
       11    1    1    2    0    0 -0.37882139827E-01 -0.26797451047E-04  0.94370080286E-01  0.10169085756E+00  0.51109989000E-03 0. -1.
     -623    1    1    2    0    0  0.35339767516E-01  0.75453091427E-02  0.75380246124E-02  0.17130000398E+03  0.17130000000E+03 0. -1.
      622    1    1    2    0    0  0.25423723111E-02 -0.75185116917E-02  0.38980918625E+01  0.38983051651E+01  0.40000000000E-01 0. -1.
</event>
<event>
 5   0  0.6200596E+07  0.9118800E+02  0.7818608E-02  0.1180000E+00
       11   -1    0    0    0    0  0.00000000000E+00  0.00000000000E+00  0.39999999673E+01  0.40000000000E+01  0.51109989000E-03 0. -1.
     -623   -1    0    0    0    0  0.00000000000E+00  0.00000000000E+00  0.12525980253E-10  0.17130000000E+03  0.17130000000E+03 0.  1.
       11    1    1    2    0    0  0.13548386935E-01 -0.73925973261E-02  0.21114858152E+01  0.21115422843E+01  0.51109989000E-03 0. -1.
     -623    1    1    2    0    0  0.32330056650E-02  0.60933089869E-01  0.13248985992E-02  0.17130001087E+03  0.17130000000E+03 0.  1.
      622    1    1    2    0    0 -0.16781392600E-01 -0.53540492542E-01  0.18871892535E+01  0.18884468428E+01  0.40000000000E-01 0.  0.
</event>
<event>
 5   0  0.6200596E+07  0.9118800E+02  0.7818608E-02  0.1180000E+00
       11   -1    0    0    0    0  0.00000000000E+00  0.00000000000E+00  0.39999999673E+01  0.40000000000E+01  0.51109989000E-03 0.  1.
     -623   -1    0    0    0    0  0.00000000000E+00  0.00000000000E+00  0.12525980253E-10  0.17130000000E+03  0.17130000000E+03 0. -1.
       11    1    1    2    0    0 -0.92932884899E-02  0.89050969788E-02  0.12125670695E+00  0.12193898542E+00  0.51109989000E-03 0.  1.
     -623    1    1    2    0    0 -0.71212457880E-02 -0.10167674614E-01  0.92393843165E-03  0.17130000045E+03  0.17130000000E+03 0. -1.
      622    1    1    2    0    0  0.16414534278E-01  0.12625776353E-02  0.38778193220E+01  0.38780605623E+01  0.40000000000E-01 0.  1.
</event>
<event>
 5   0  0.6200596E+07  0.9118800E+02  0.7818608E-02  0.1180000E+00
       11   -1    0    0    0    0  0.00000000000E+00  0.00000000000E+00  0.39999999673E+01  0.40000000000E+01  0.51109989000E-03 0.  1.
     -623   -1    0    0    0    0  0.00000000000E+00  0.00000000000E+00  0.12525980253E-10  0.17130000000E+03  0.17130000000E+03 0.  1.
       11    1    1    2    0    0  0.59384789525E-02  0.22474710315E-03  0.20266078378E+00  0.20274854018E+00  0.51109989000E-03 0.  1.
     -623    1    1    2    0    0  0.18062793059E-02  0.18463760690E-03  0.30633870609E-03  0.17130000001E+03  0.17130000000E+03 0.  1.
      622    1    1    2    0    0 -0.77447582584E-02 -0.40938471006E-03  0.37970328449E+01  0.37972514499E+01  0.40000000000E-01 0.  1.
</event>
<event>
 5   0  0.6200596E+07  0.9118800E+02  0.7818608E-02  0.1180000E+00
       11   -1    0    0    0    0  0.00000000000E+00  0.00000000000E+00  0.39999999673E+01  0.40000000000E+01  0.51109989000E-03 0. -1.
     -623   -1    0    0    0    0  0.00000000000E+00  0.00000000000E+00  0.12525980253E-10  0.17130000000E+03  0.17130000000E+03 0. -1.
       11    1    1    2    0    0  0.16801853191E-02  0.11588389402E-02  0.95431486808E-02  0.97723507045E-02  0.51109989000E-03 0. -1.
     -623    1    1    2    0    0 -0.27225679623E-02 -0.20371179336E-03  0.42993701081E-03  0.17130000002E+03  0.17130000000E+03 0. -1.
      622    1    1    2    0    0  0.10423826432E-02 -0.95512714684E-03  0.39900268817E+01  0.39902276270E+01  0.40000000000E-01 0. -1.
</event>
<event>
 5   0  0.6200596E+07  0.9118800E+02  0.7818608E-02  0.1180000E+00
       11   -1    0    0    0    0  0.00000000000E+00  0.00000000000E+00  0.39999999673E+01  0.40000000000E+01  0.51109989000E-03 0. -1.
     -623   -1    0    0    0    0  0.00000000000E+00  0.00000000000E+00  0.12525980253E-10  0.17130000000E+03  0.17130000000E+03 0.  1.
       11    1    1    2    0    0 -0.10823513482E-02 -0.16290850652E-01  0.73005504913E+00  0.73023776900E+00  0.51109989000E-03 0. -1.
     -623    1    1    2    0    0 -0.18079235803E-02  0.13404004307E-02  0.46283740663E-03  0.17130000002E+03  0.17130000000E+03 0.  1.
      622    1    1    2    0    0  0.28902749285E-02  0.14950450221E-01  0.32694820808E+01  0.32697622156E+01  0.40000000000E-01 0. -1.
</event>
<event>
 5   0  0.6200596E+07  0.9118800E+02  0.7818608E-02  0.1180000E+00
       11   -1    0    0    0    0  0.00000000000E+00  0.00000000000E+00  0.39999999673E+01  0.40000000000E+01  0.51109989000E-03 0. -1.
     -623   -1    0    0    0    0  0.00000000000E+00  0.00000000000E+00  0.12525980253E-10  0.17130000000E+03  0.17130000000E+03 0. -1.
       11    1    1    2    0    0 -0.14348731594E-02  0.19124699239E-01  0.68604310282E+00  0.68631130920E+00  0.51109989000E-03 0. -1.
     -623    1    1    2    0    0 -0.74889237410E-03 -0.80772473256E-04  0.56505516522E-03  0.17130000000E+03  0.17130000000E+03 0. -1.
      622    1    1    2    0    0  0.21837655335E-02 -0.19043926766E-01  0.33133918094E+01  0.33136886882E+01  0.40000000000E-01 0. -1.
</event>
<event>
 5   0  0.6200596E+07  0.9118800E+02  0.7818608E-02  0.1180000E+00
       11   -1    0    0    0    0  0.00000000000E+00  0.00000000000E+00  0.39999999673E+01  0.40000000000E+01  0.51109989000E-03 0. -1.
     -623   -1    0    0    0    0  0.00000000000E+00  0.00000000000E+00  0.12525980253E-10  0.17130000000E+03  0.17130000000E+03 0.  1.
       11    1    1    2    0    0  0.45030610392E-03 -0.80824206745E-03  0.15376927223E-01  0.15413213286E-01  0.51109989000E-03 0. -1.
     -623    1    1    2    0    0  0.38614952954E-03  0.22720067430E-03  0.23716304018E-03  0.17130000000E+03  0.17130000000E+03 0.  1.
      622    1    1    2    0    0 -0.83645563346E-03  0.58104139315E-03  0.39843858771E+01  0.39845867860E+01  0.40000000000E-01 0. -1.
</event>
<event>
 5   0  0.6200596E+07  0.9118800E+02  0.7818608E-02  0.1180000E+00
       11   -1    0    0    0    0  0.00000000000E+00  0.00000000000E+00  0.39999999673E+01  0.40000000000E+01  0.51109989000E-03 0.  1.
     -623   -1    0    0    0    0  0.00000000000E+00  0.00000000000E+00  0.12525980253E-10  0.17130000000E+03  0.17130000000E+03 0.  1.
       11    1    1    2    0    0  0.11292614408E-02  0.10440945465E-02  0.29668618080E-01  0.29712850500E-01  0.51109989000E-03 0.  1.
     -623    1    1    2    0    0 -0.43189934863E-03 -0.14683117384E-03  0.24586507872E-03  0.17130000000E+03  0.17130000000E+03 0.  1.
      622    1    1    2    0    0 -0.69736209213E-03 -0.89726337266E-03  0.39700854842E+01  0.39702871487E+01  0.40000000000E-01 0.  1.
</event>
<event>
 5   0  0.6200596E+07  0.9118800E+02  0.7818608E-02  0.1180000E+00
       11   -1    0    0    0    0  0.00000000000E+00  0.00000000000E+00  0.39999999673E+01  0.40000000000E+01  0.51109989000E-03 0. -1.
     -623   -1    0    0    0    0  0.00000000000E+00  0.00000000000E+00  0.12525980253E-10  0.17130000000E+03  0.17130000000E+03 0.  1.
       11    1    1    2    0    0  0.42859906034E-02 -0.69421528823E-02  0.30844521068E+00  0.30855351628E+00  0.51109989000E-03 0. -1.
     -623    1    1    2    0    0 -0.40729404163E-02  0.42831691968E-03  0.33079939088E-03  0.17130000005E+03  0.17130000000E+03 0.  1.
      622    1    1    2    0    0 -0.21305018715E-03  0.65138359626E-02  0.36912239573E+01  0.36914464344E+01  0.40000000000E-01 0. -1.
</event>
<event>
 5   0  0.6200596E+07  0.9118800E+02  0.7818608E-02  0.1180000E+00
       11   -1    0    0    0    0  0.00000000000E+00  0.00000000000E+00  0.39999999673E+01  0.40000000000E+01  0.51109989000E-03 0.  1.
     -623   -1    0    0    0    0  0.00000000000E+00  0.00000000000E+00  0.12525980253E-10  0.17130000000E+03  0.17130000000E+03 0.  1.
       11    1    1    2    0    0 -0.24779140219E-02 -0.29617381594E-02  0.31449343569E-01  0.31689657370E-01  0.51109989000E-03 0.  1.
     -623    1    1    2    0    0  0.65462732339E-02  0.13535278589E-03  0.44510129426E-03  0.17130000013E+03  0.17130000000E+03 0.  1.
      622    1    1    2    0    0 -0.40683592120E-02  0.28263853735E-02  0.39681055225E+01  0.39683102169E+01  0.40000000000E-01 0.  1.
</event>
<event>
 5   0  0.6200596E+07  0.9118800E+02  0.7818608E-02  0.1180000E+00
       11   -1    0    0    0    0  0.00000000000E+00  0.00000000000E+00  0.39999999673E+01  0.40000000000E+01  0.51109989000E-03 0.  1.
     -623   -1    0    0    0    0  0.00000000000E+00  0.00000000000E+00  0.12525980253E-10  0.17130000000E+03  0.17130000000E+03 0.  1.
       11    1    1    2    0    0  0.16510893073E-02 -0.55943839981E-02  0.18828002330E+01  0.18828093376E+01  0.51109989000E-03 0.  1.
     -623    1    1    2    0    0  0.18025951504E-02 -0.79291787647E-04  0.39739589252E-03  0.17130000001E+03  0.17130000000E+03 0.  1.
      622    1    1    2    0    0 -0.34536844576E-02  0.56736757858E-02  0.21168023385E+01  0.21171906524E+01  0.40000000000E-01 0.  1.
</event>
<event>
 5   0  0.6200596E+07  0.9118800E+02  0.7818608E-02  0.1180000E+00
       11   -1    0    0    0    0  0.00000000000E+00  0.00000000000E+00  0.39999999673E+01  0.40000000000E+01  0.51109989000E-03 0. -1.
     -623   -1    0    0    0    0  0.00000000000E+00  0.00000000000E+00  0.12525980253E-10  0.17130000000E+03  0.17130000000E+03 0. -1.
       11    1    1    2    0    0  0.40764070129E-03  0.13263221788E-02  0.18001524607E-02  0.23296076169E-02  0.51109989000E-03 0.  1.
     -623    1    1    2    0    0  0.39065021547E-03 -0.60525168221E-03  0.72969188509E-03  0.17130000000E+03  0.17130000000E+03 0. -1.
      622    1    1    2    0    0 -0.79829091676E-03 -0.72107049654E-03  0.39974701230E+01  0.39976703893E+01  0.40000000000E-01 0. -1.
</event>
<event>
 5   0  0.6200596E+07  0.9118800E+02  0.7818608E-02  0.1180000E+00
       11   -1    0    0    0    0  0.00000000000E+00  0.00000000000E+00  0.39999999673E+01  0.40000000000E+01  0.51109989000E-03 0. -1.
     -623   -1    0    0    0    0  0.00000000000E+00  0.00000000000E+00  0.12525980253E-10  0.17130000000E+03  0.17130000000E+03 0.  1.
       11    1    1    2    0    0 -0.30369437807E-02 -0.14329444519E-01  0.29788383677E+00  0.29824419096E+00  0.51109989000E-03 0. -1.
     -623    1    1    2    0    0 -0.20610681806E-02  0.21159757345E-02  0.60012833767E-03  0.17130000003E+03  0.17130000000E+03 0.  1.
      622    1    1    2    0    0  0.50980119612E-02  0.12213468785E-01  0.37015160022E+01  0.37017557825E+01  0.40000000000E-01 0. -1.
</event>
<event>
 5   0  0.6200596E+07  0.9118800E+02  0.7818608E-02  0.1180000E+00
       11   -1    0    0    0    0  0.00000000000E+00  0.00000000000E+00  0.39999999673E+01  0.40000000000E+01  0.51109989000E-03 0. -1.
     -623   -1    0    0    0    0  0.00000000000E+00  0.00000000000E+00  0.12525980253E-10  0.17130000000E+03  0.17130000000E+03 0.  1.
       11    1    1    2    0    0  0.34754860035E-01 -0.14173051725E-01  0.59537332730E-01  0.70382745769E-01  0.51109989000E-03 0. -1.
     -623    1    1    2    0    0 -0.35165578284E-01 -0.19110222367E-01  0.11194993063E-01  0.17130000504E+03  0.17130000000E+03 0.  1.
      622    1    1    2    0    0  0.41071824882E-03  0.33283274092E-01  0.39292676416E+01  0.39296122129E+01  0.40000000000E-01 0. -1.
</event>
<event>
 5   0  0.6200596E+07  0.9118800E+02  0.7818608E-02  0.1180000E+00
       11   -1    0    0    0    0  0.00000000000E+00  0.00000000000E+00  0.39999999673E+01  0.40000000000E+01  0.51109989000E-03 0.  1.
     -623   -1    0    0    0    0  0.00000000000E+00  0.00000000000E+00  0.12525980253E-10  0.17130000000E+03  0.17130000000E+03 0.  1.
       11    1    1    2    0    0 -0.67718808220E-02  0.10848636234E-02  0.21656524131E+00  0.21667441073E+00  0.51109989000E-03 0.  1.
     -623    1    1    2    0    0 -0.66304762528E-03 -0.11719421208E-02  0.32790938809E-03  0.17130000001E+03  0.17130000000E+03 0.  1.
      622    1    1    2    0    0  0.74349284473E-02  0.87078497313E-04  0.37831068167E+01  0.37833255837E+01  0.40000000000E-01 0.  1.
</event>
<event>
 5   0  0.6200596E+07  0.9118800E+02  0.7818608E-02  0.1180000E+00
       11   -1    0    0    0    0  0.00000000000E+00  0.00000000000E+00  0.39999999673E+01  0.40000000000E+01  0.51109989000E-03 0.  1.
     -623   -1    0    0    0    0  0.00000000000E+00  0.00000000000E+00  0.12525980253E-10  0.17130000000E+03  0.17130000000E+03 0. -1.
       11    1    1    2    0    0  0.35266427386E-02  0.77642042745E-02  0.23461540868E+00  0.23477089105E+00  0.51109989000E-03 0.  1.
     -623    1    1    2    0    0  0.11713152753E-01 -0.59198894132E-02  0.39972464619E-03  0.17130000050E+03  0.17130000000E+03 0. -1.
      622    1    1    2    0    0 -0.15239795491E-01 -0.18443148614E-02  0.37649848340E+01  0.37652286057E+01  0.40000000000E-01 0.  1.
</event>
<event>
 5   0  0.6200596E+07  0.9118800E+02  0.7818608E-02  0.1180000E+00
       11   -1    0    0    0    0  0.00000000000E+00  0.00000000000E+00  0.39999999673E+01  0.40000000000E+01  0.51109989000E-03 0.  1.
     -623   -1    0    0    0    0  0.00000000000E+00  0.00000000000E+00  0.12525980253E-10  0.17130000000E+03  0.17130000000E+03 0. -1.
       11    1    1    2    0    0 -0.90383277635E-02  0.80373382806E-02  0.50329144072E+00  0.50343701264E+00  0.51109989000E-03 0.  1.
     -623    1    1    2    0    0 -0.16362992629E-02 -0.33811812023E-02  0.39378023590E-03  0.17130000004E+03  0.17130000000E+03 0. -1.
      622    1    1    2    0    0  0.10674627026E-01 -0.46561570783E-02  0.34963147464E+01  0.34965629457E+01  0.40000000000E-01 0.  1.
</event>
<event>
 5   0  0.6200596E+07  0.9118800E+02  0.7818608E-02  0.1180000E+00
       11   -1    0    0    0    0  0.00000000000E+00  0.00000000000E+00  0.39999999673E+01  0.40000000000E+01  0.51109989000E-03 0.  1.
     -623   -1    0    0    0    0  0.00000000000E+00  0.00000000000E+00  0.12525980253E-10  0.17130000000E+03  0.17130000000E+03 0. -1.
       11    1    1    2    0    0 -0.15096712084E-01 -0.84699185716E-02  0.32184300585E+01  0.32184766510E+01  0.51109989000E-03 0.  1.
     -623    1    1    2    0    0  0.99007044006E-02  0.43375712117E-02  0.10994534927E-02  0.17130000034E+03  0.17130000000E+03 0. -1.
      622    1    1    2    0    0  0.51960076836E-02  0.41323473599E-02  0.78047045535E+00  0.78152300444E+00  0.40000000000E-01 0.  0.
</event>
<event>
 5   0  0.6200596E+07  0.9118800E+02  0.7818608E-02  0.1180000E+00
       11   -1    0    0    0    0  0.00000000000E+00  0.00000000000E+00  0.39999999673E+01  0.40000000000E+01  0.51109989000E-03 0.  1.
     -623   -1    0    0    0    0  0.00000000000E+00  0.00000000000E+00  0.12525980253E-10  0.17130000000E+03  0.17130000000E+03 0. -1.
       11    1    1    2    0    0  0.64433988612E-06  0.75537494254E-03  0.12364803826E-01  0.12398394496E-01  0.51109989000E-03 0.  1.
     -623    1    1    2    0    0  0.24789927612E-02 -0.64862901369E-03  0.23497668429E-03  0.17130000002E+03  0.17130000000E+03 0. -1.
      622    1    1    2    0    0 -0.24796371011E-02 -0.10674592885E-03  0.39874001869E+01  0.39876015862E+01  0.40000000000E-01 0.  1.
</event>
<event>
 5   0  0.6200596E+07  0.9118800E+02  0.7818608E-02  0.1180000E+00
       11   -1    0    0    0    0  0.00000000000E+00  0.00000000000E+00  0.39999999673E+01  0.40000000000E+01  0.51109989000E-03 0. -1.
     -623   -1    0    0    0    0  0.00000000000E+00  0.00000000000E+00  0.12525980253E-10  0.17130000000E+03  0.17130000000E+03 0.  1.
       11    1    1    2    0    0 -0.87871296399E-02  0.75952854121E-03  0.45454481672E+00  0.45463066566E+00  0.51109989000E-03 0. -1.
     -623    1    1    2    0    0 -0.13836807597E-01  0.33287730428E-02  0.38660896919E-03  0.17130000059E+03  0.17130000000E+03 0.  1.
      622    1    1    2    0    0  0.22623937237E-01 -0.40883015840E-02  0.35450685417E+01  0.35453687427E+01  0.40000000000E-01 0.  0.
</event>
<event>
 5   0  0.6200596E+07  0.9118800E+02  0.7818608E-02  0.1180000E+00
       11   -1    0    0    0    0  0.00000000000E+00  0.00000000000E+00  0.39999999673E+01  0.40000000000E+01  0.51109989000E-03 0. -1.
     -623   -1    0    0    0    0  0.00000000000E+00  0.00000000000E+00  0.12525980253E-10  0.17130000000E+03  0.17130000000E+03 0.  1.
       11    1    1    2    0    0 -0.11701650198E-01 -0.28646132894E-02  0.16412043514E-01  0.20365436907E-01  0.51109989000E-03 0. -1.
     -623    1    1    2    0    0 -0.57412941794E-02  0.20131157597E-01  0.42314093967E-02  0.17130000133E+03  0.17130000000E+03 0.  1.
      622    1    1    2    0    0  0.17442944377E-01 -0.17266544308E-01  0.39793565144E+01  0.39796332317E+01  0.40000000000E-01 0. -1.
</event>
<event>
 5   0  0.6200596E+07  0.9118800E+02  0.7818608E-02  0.1180000E+00
       11   -1    0    0    0    0  0.00000000000E+00  0.00000000000E+00  0.39999999673E+01  0.40000000000E+01  0.51109989000E-03 0.  1.
     -623   -1    0    0    0    0  0.00000000000E+00  0.00000000000E+00  0.12525980253E-10  0.17130000000E+03  0.17130000000E+03 0. -1.
       11    1    1    2    0    0 -0.12356177334E-02  0.23009922735E-03  0.25316903553E+00  0.25317267125E+00  0.51109989000E-03 0.  1.
     -623    1    1    2    0    0  0.37564517172E-02  0.12178390110E-02  0.21829663589E-03  0.17130000005E+03  0.17130000000E+03 0. -1.
      622    1    1    2    0    0 -0.25208339837E-02 -0.14479382383E-02  0.37466126352E+01  0.37468272831E+01  0.40000000000E-01 0.  1.
</event>
<event>
 5   0  0.6200596E+07  0.9118800E+02  0.7818608E-02  0.1180000E+00
       11   -1    0    0    0    0  0.00000000000E+00  0.00000000000E+00  0.39999999673E+01  0.40000000000E+01  0.51109989000E-03 0.  1.
     -623   -1    0    0    0    0  0.00000000000E+00  0.00000000000E+00  0.12525980253E-10  0.17130000000E+03  0.17130000000E+03 0.  1.
       11    1    1    2    0    0  0.37210757338E-02 -0.46386077390E-03  0.19680582060E-01  0.20041160196E-01  0.51109989000E-03 0.  1.
     -623    1    1    2    0    0 -0.73515643610E-03  0.18116144139E-02  0.56291810207E-03  0.17130000001E+03  0.17130000000E+03 0.  1.
      622    1    1    2    0    0 -0.29859192977E-02 -0.13477536400E-02  0.39797564672E+01  0.39799588277E+01  0.40000000000E-01 0.  1.
</event>
<event>
 5   0  0.6200596E+07  0.9118800E+02  0.7818608E-02  0.1180000E+00
       11   -1    0    0    0    0  0.00000000000E+00  0.00000000000E+00  0.39999999673E+01  0.40000000000E+01  0.51109989000E-03 0.  1.
     -623   -1    0    0    0    0  0.00000000000E+00  0.00000000000E+00  0.12525980253E-10  0.17130000000E+03  0.17130000000E+03 0. -1.
       11    1    1    2    0    0 -0.16226116705E-01 -0.20530421416E-01  0.23697319347E+01  0.23698764712E+01  0.51109989000E-03 0.  1.
     -623    1    1    2    0    0  0.12608369522E-01 -0.95644106322E-02  0.91799633221E-03  0.17130000073E+03  0.17130000000E+03 0. -1.
      622    1    1    2    0    0  0.36177471832E-02  0.30094832049E-01  0.16293500363E+01  0.16301227953E+01  0.40000000000E-01 0. -1.
</event>
<event>
 5   0  0.6200596E+07  0.9118800E+02  0.7818608E-02  0.1180000E+00
       11   -1    0    0    0    0  0.00000000000E+00  0.00000000000E+00  0.39999999673E+01  0.40000000000E+01  0.51109989000E-03 0. -1.
     -623   -1    0    0    0    0  0.00000000000E+00  0.00000000000E+00  0.12525980253E-10  0.17130000000E+03  0.17130000000E+03 0.  1.
       11    1    1    2    0    0 -0.23073011444E-02  0.32807473240E-02  0.38696957066E-01  0.38907616850E-01  0.51109989000E-03 0. -1.
     -623    1    1    2    0    0  0.14558755122E-02  0.55480775901E-03  0.41455297323E-03  0.17130000001E+03  0.17130000000E+03 0.  1.
      622    1    1    2    0    0  0.85142563220E-03 -0.38355550830E-02  0.39608884573E+01  0.39610923756E+01  0.40000000000E-01 0. -1.
</event>
<event>
 5   0  0.6200596E+07  0.9118800E+02  0.7818608E-02  0.1180000E+00
       11   -1    0    0    0    0  0.00000000000E+00  0.00000000000E+00  0.39999999673E+01  0.40000000000E+01  0.51109989000E-03 0. -1.
     -623   -1    0    0    0    0  0.00000000000E+00  0.00000000000E+00  0.12525980253E-10  0.17130000000E+03  0.17130000000E+03 0.  1.
       11    1    1    2    0    0 -0.25566833333E-03  0.13119407670E-02 -0.39880123144E-03  0.14855362934E-02  0.51109989000E-03 0. -1.
     -623    1    1    2    0    0 -0.70893934302E-03 -0.52296421038E-02  0.20865139171E-02  0.17130000009E+03  0.17130000000E+03 0.  1.
      622    1    1    2    0    0  0.96460767634E-03  0.39177013368E-02  0.39983122547E+01  0.39985143697E+01  0.40000000000E-01 0. -1.
</event>
<event>
 5   0  0.6200596E+07  0.9118800E+02  0.7818608E-02  0.1180000E+00
       11   -1    0    0    0    0  0.00000000000E+00  0.00000000000E+00  0.39999999673E+01  0.40000000000E+01  0.51109989000E-03 0. -1.
     -623   -1    0    0    0    0  0.00000000000E+00  0.00000000000E+00  0.12525980253E-10  0.17130000000E+03  0.17130000000E+03 0. -1.
       11    1    1    2    0    0 -0.13640277337E-02 -0.24527719344E-02  0.34661821150E+00  0.34662995028E+00  0.51109989000E-03 0. -1.
     -623    1    1    2    0    0 -0.62034557493E-04  0.42299724616E-04  0.23176236955E-03  0.17130000000E+03  0.17130000000E+03 0. -1.
      622    1    1    2    0    0  0.14260622911E-02  0.24104722098E-02  0.36531499935E+01  0.36533700496E+01  0.40000000000E-01 0. -1.
</event>
<event>
 5   0  0.6200596E+07  0.9118800E+02  0.7818608E-02  0.1180000E+00
       11   -1    0    0    0    0  0.00000000000E+00  0.00000000000E+00  0.39999999673E+01  0.40000000000E+01  0.51109989000E-03 0. -1.
     -623   -1    0    0    0    0  0.00000000000E+00  0.00000000000E+00  0.12525980253E-10  0.17130000000E+03  0.17130000000E+03 0.  1.
       11    1    1    2    0    0  0.11494548323E-01 -0.10263859779E-01  0.15140529163E+01  0.15141314230E+01  0.51109989000E-03 0. -1.
     -623    1    1    2    0    0  0.16900980950E-02  0.43774034369E-02  0.44231869333E-03  0.17130000006E+03  0.17130000000E+03 0.  1.
      622    1    1    2    0    0 -0.13184646418E-01  0.58864563424E-02  0.24855047323E+01  0.24858685122E+01  0.40000000000E-01 0. -1.
</event>
<event>
 5   0  0.6200596E+07  0.9118800E+02  0.7818608E-02  0.1180000E+00
       11   -1    0    0    0    0  0.00000000000E+00  0.00000000000E+00  0.39999999673E+01  0.40000000000E+01  0.51109989000E-03 0.  1.
     -623   -1    0    0    0    0  0.00000000000E+00  0.00000000000E+00  0.12525980253E-10  0.17130000000E+03  0.17130000000E+03 0.  1.
       11    1    1    2    0    0  0.41136699246E-03 -0.11171377203E-01  0.53465002511E+00  0.53476712638E+00  0.51109989000E-03 0.  1.
     -623    1    1    2    0    0 -0.66308029289E-02 -0.10516275223E-01  0.42184739321E-03  0.17130000045E+03  0.17130000000E+03 0.  1.
      622    1    1    2    0    0  0.62194359365E-02  0.21687652426E-01  0.34649280949E+01  0.34652324220E+01  0.40000000000E-01 0.  0.
</event>
<event>
 5   0  0.6200596E+07  0.9118800E+02  0.7818608E-02  0.1180000E+00
       11   -1    0    0    0    0  0.00000000000E+00  0.00000000000E+00  0.39999999673E+01  0.40000000000E+01  0.51109989000E-03 0. -1.
     -623   -1    0    0    0    0  0.00000000000E+00  0.00000000000E+00  0.12525980253E-10  0.17130000000E+03  0.17130000000E+03 0.  1.
       11    1    1    2    0    0 -0.27228602663E-02 -0.11422448368E-01  0.27734476671E+00  0.27759370875E+00  0.51109989000E-03 0. -1.
     -623    1    1    2    0    0 -0.38329732057E-02  0.52867574351E-03  0.48558959775E-03  0.17130000004E+03  0.17130000000E+03 0.  1.
      622    1    1    2    0    0  0.65558334720E-02  0.10893772625E-01  0.37221696110E+01  0.37224062469E+01  0.40000000000E-01 0. -1.
</event>
<event>
 5   0  0.6200596E+07  0.9118800E+02  0.7818608E-02  0.1180000E+00
       11   -1    0    0    0    0  0.00000000000E+00  0.00000000000E+00  0.39999999673E+01  0.40000000000E+01  0.51109989000E-03 0. -1.
     -623   -1    0    0    0    0  0.00000000000E+00  0.00000000000E+00  0.12525980253E-10  0.17130000000E+03  0.17130000000E+03 0.  1.
       11    1    1    2    0    0  0.19492620208E-01  0.51982361647E-02  0.25346561733E+00  0.25426770202E+00  0.51109989000E-03 0. -1.
     -623    1    1    2    0    0  0.50662574689E-01 -0.22373228114E-01  0.17210594212E-02  0.17130000896E+03  0.17130000000E+03 0.  1.
      622    1    1    2    0    0 -0.70155194898E-01  0.17174991949E-01  0.37448132906E+01  0.37457233365E+01  0.40000000000E-01 0. -1.
</event>
<event>
 5   0  0.6200596E+07  0.9118800E+02  0.7818608E-02  0.1180000E+00
       11   -1    0    0    0    0  0.00000000000E+00  0.00000000000E+00  0.39999999673E+01  0.40000000000E+01  0.51109989000E-03 0.  1.
     -623   -1    0    0    0    0  0.00000000000E+00  0.00000000000E+00  0.12525980253E-10  0.17130000000E+03  0.17130000000E+03 0. -1.
       11    1    1    2    0    0  0.19561188794E-01  0.78611641068E-02  0.10891515384E+01  0.10893556687E+01  0.51109989000E-03 0.  1.
     -623    1    1    2    0    0  0.25056157486E-02  0.53775693517E-02  0.59283680668E-03  0.17130000010E+03  0.17130000000E+03 0. -1.
      622    1    1    2    0    0 -0.22066804543E-01 -0.13238733458E-01  0.29102555922E+01  0.29106442276E+01  0.40000000000E-01 0.  1.
</event>
<event>
 5   0  0.6200596E+07  0.9118800E+02  0.7818608E-02  0.1180000E+00
       11   -1    0    0    0    0  0.00000000000E+00  0.00000000000E+00  0.39999999673E+01  0.40000000000E+01  0.51109989000E-03 0.  1.
     -623   -1    0    0    0    0  0.00000000000E+00  0.00000000000E+00  0.12525980253E-10  0.17130000000E+03  0.17130000000E+03 0. -1.
       11    1    1    2    0    0 -0.62222444779E-03 -0.14527190947E-03  0.38932244753E-02  0.39782767444E-02  0.51109989000E-03 0. -1.
     -623    1    1    2    0    0 -0.78505734897E-04  0.19426650771E-03  0.28528586427E-03  0.17130000000E+03  0.17130000000E+03 0. -1.
      622    1    1    2    0    0  0.70073018269E-03 -0.48994598234E-04  0.39958214570E+01  0.39960217229E+01  0.40000000000E-01 0.  1.
</event>
<event>
 5   0  0.6200596E+07  0.9118800E+02  0.7818608E-02  0.1180000E+00
       11   -1    0    0    0    0  0.00000000000E+00  0.00000000000E+00  0.39999999673E+01  0.40000000000E+01  0.51109989000E-03 0. -1.
     -623   -1    0    0    0    0  0.00000000000E+00  0.00000000000E+00  0.12525980253E-10  0.17130000000E+03  0.17130000000E+03 0.  1.
       11    1    1    2    0    0  0.13158541934E-01  0.31131479192E-02  0.19857642197E+01  0.19858103224E+01  0.51109989000E-03 0. -1.
     -623    1    1    2    0    0  0.84754587755E-03  0.19670437060E-02  0.49842074280E-03  0.17130000001E+03  0.17130000000E+03 0.  1.
      622    1    1    2    0    0 -0.14006087812E-01 -0.50801916252E-02  0.20137373269E+01  0.20141896635E+01  0.40000000000E-01 0. -1.
</event>
<event>
 5   0  0.6200596E+07  0.9118800E+02  0.7818608E-02  0.1180000E+00
       11   -1    0    0    0    0  0.00000000000E+00  0.00000000000E+00  0.39999999673E+01  0.40000000000E+01  0.51109989000E-03 0.  1.
     -623   -1    0    0    0    0  0.00000000000E+00  0.00000000000E+00  0.12525980253E-10  0.17130000000E+03  0.17130000000E+03 0.  1.
       11    1    1    2    0    0  0.72554596783E-02  0.50132816402E-02  0.85846430640E+00  0.85850975608E+00  0.51109989000E-03 0.  1.
     -623    1    1    2    0    0 -0.79762298677E-03 -0.22046820326E-02  0.30799358941E-03  0.17130000002E+03  0.17130000000E+03 0.  1.
      622    1    1    2    0    0 -0.64578366915E-02 -0.28085996077E-02  0.31412276674E+01  0.31414902276E+01  0.40000000000E-01 0.  1.
</event>
<event>
 5   0  0.6200596E+07  0.9118800E+02  0.7818608E-02  0.1180000E+00
       11   -1    0    0    0    0  0.00000000000E+00  0.00000000000E+00  0.39999999673E+01  0.40000000000E+01  0.51109989000E-03 0.  1.
     -623   -1    0    0    0    0  0.00000000000E+00  0.00000000000E+00  0.12525980253E-10  0.17130000000E+03  0.17130000000E+03 0.  1.
       11    1    1    2    0    0  0.74060954214E-02  0.42299623446E-02  0.20226494281E+00  0.20244532878E+00  0.51109989000E-03 0.  1.
     -623    1    1    2    0    0 -0.43366430739E-03  0.88894429316E-03  0.40087574557E-03  0.17130000000E+03  0.17130000000E+03 0.  1.
      622    1    1    2    0    0 -0.69724311141E-02 -0.51189066378E-02  0.37973341488E+01  0.37975546679E+01  0.40000000000E-01 0.  1.
</event>
<event>
 5   0  0.6200596E+07  0.9118800E+02  0.7818608E-02  0.1180000E+00
       11   -1    0    0    0    0  0.00000000000E+00  0.00000000000E+00  0.39999999673E+01  0.40000000000E+01  0.51109989000E-03 0.  1.
     -623   -1    0    0    0    0  0.00000000000E+00  0.00000000000E+00  0.12525980253E-10  0.17130000000E+03  0.17130000000E+03 0.  1.
       11    1    1    2    0    0 -0.45004617962E-02  0.64805806611E-02  0.52786547772E+00  0.52792468769E+00  0.51109989000E-03 0.  1.
     -623    1    1    2    0    0 -0.17256860181E-04 -0.15116341273E-03  0.29830387586E-03  0.17130000000E+03  0.17130000000E+03 0.  1.
      622    1    1    2    0    0  0.45177186564E-02 -0.63294172484E-02  0.34718361858E+01  0.34720753120E+01  0.40000000000E-01 0.  1.
</event>
<event>
 5   0  0.6200596E+07  0.9118800E+02  0.7818608E-02  0.1180000E+00
       11   -1    0    0    0    0  0.00000000000E+00  0.00000000000E+00  0.39999999673E+01  0.40000000000E+01  0.51109989000E-03 0.  1.
     -623   -1    0    0    0    0  0.00000000000E+00  0.00000000000E+00  0.12525980253E-10  0.17130000000E+03  0.17130000000E+03 0. -1.
       11    1    1    2    0    0  0.13412634726E-02  0.50585412252E-02  0.13948127963E+00  0.13958035828E+00  0.51109989000E-03 0.  1.
     -623    1    1    2    0    0 -0.13786755337E-01 -0.77904651192E-02  0.32804440058E-03  0.17130000073E+03  0.17130000000E+03 0. -1.
      622    1    1    2    0    0  0.12445491864E-01  0.27319238940E-02  0.38601906433E+01  0.38604189095E+01  0.40000000000E-01 0.  1.
</event>
<event>
 5   0  0.6200596E+07  0.9118800E+02  0.7818608E-02  0.1180000E+00
       11   -1    0    0    0    0  0.00000000000E+00  0.00000000000E+00  0.39999999673E+01  0.40000000000E+01  0.51109989000E-03 0.  1.
     -623   -1    0    0    0    0  0.00000000000E+00  0.00000000000E+00  0.12525980253E-10  0.17130000000E+03  0.17130000000E+03 0.  1.
       11    1    1    2    0    0 -0.15155623225E-01  0.47174818601E-01  0.89438529183E+00  0.89575692456E+00  0.51109989000E-03 0.  1.
     -623    1    1    2    0    0  0.29261200308E-01 -0.26111521066E-01  0.17373397947E-02  0.17130000450E+03  0.17130000000E+03 0.  1.
      622    1    1    2    0    0 -0.14105577083E-01 -0.21063297536E-01  0.31038773357E+01  0.31042385773E+01  0.40000000000E-01 0.  1.
</event>
<event>
 5   0  0.6200596E+07  0.9118800E+02  0.7818608E-02  0.1180000E+00
       11   -1    0    0    0    0  0.00000000000E+00  0.00000000000E+00  0.39999999673E+01  0.40000000000E+01  0.51109989000E-03 0. -1.
     -623   -1    0    0    0    0  0.00000000000E+00  0.00000000000E+00  0.12525980253E-10  0.17130000000E+03  0.17130000000E+03 0. -1.
       11    1    1    2    0    0  0.24313170961E-02  0.36535768295E-02  0.27713609057E-01  0.28063593410E-01  0.51109989000E-03 0. -1.
     -623    1    1    2    0    0 -0.53925768489E-03  0.42173421654E-03  0.55391364238E-03  0.17130000000E+03  0.17130000000E+03 0. -1.
      622    1    1    2    0    0 -0.18920594112E-02 -0.40753110460E-02  0.39717324447E+01  0.39719364043E+01  0.40000000000E-01 0. -1.
</event>
<event>
 5   0  0.6200596E+07  0.9118800E+02  0.7818608E-02  0.1180000E+00
       11   -1    0    0    0    0  0.00000000000E+00  0.00000000000E+00  0.39999999673E+01  0.40000000000E+01  0.51109989000E-03 0.  1.
     -623   -1    0    0    0    0  0.00000000000E+00  0.00000000000E+00  0.12525980253E-10  0.17130000000E+03  0.17130000000E+03 0.  1.
       11    1    1    2    0    0  0.27545815295E-02  0.27141411441E-03  0.37120634913E-01  0.37227196270E-01  0.51109989000E-03 0.  1.
     -623    1    1    2    0    0 -0.29953295203E-03  0.23500252803E-02  0.31005699993E-03  0.17130000002E+03  0.17130000000E+03 0.  1.
      622    1    1    2    0    0 -0.24550485775E-02 -0.26214393948E-02  0.39625692754E+01  0.39627727871E+01  0.40000000000E-01 0.  1.
</event>
<event>
 5   0  0.6200596E+07  0.9118800E+02  0.7818608E-02  0.1180000E+00
       11   -1    0    0    0    0  0.00000000000E+00  0.00000000000E+00  0.39999999673E+01  0.40000000000E+01  0.51109989000E-03 0.  1.
     -623   -1    0    0    0    0  0.00000000000E+00  0.00000000000E+00  0.12525980253E-10  0.17130000000E+03  0.17130000000E+03 0. -1.
       11    1    1    2    0    0  0.18612335724E-02 -0.45716405655E-03  0.10034896925E+00  0.10036857098E+00  0.51109989000E-03 0.  1.
     -623    1    1    2    0    0 -0.10260363175E-02 -0.18857851376E-02  0.22552899697E-03  0.17130000001E+03  0.17130000000E+03 0. -1.
      622    1    1    2    0    0 -0.83519725487E-03  0.23429491941E-02  0.38994254691E+01  0.38996314154E+01  0.40000000000E-01 0.  1.
</event>
<event>
 5   0  0.6200596E+07  0.9118800E+02  0.7818608E-02  0.1180000E+00
       11   -1    0    0    0    0  0.00000000000E+00  0.00000000000E+00  0.39999999673E+01  0.40000000000E+01  0.51109989000E-03 0. -1.
     -623   -1    0    0    0    0  0.00000000000E+00  0.00000000000E+00  0.12525980253E-10  0.17130000000E+03  0.17130000000E+03 0. -1.
       11    1    1    2    0    0 -0.37525688013E-02  0.23234913603E-02  0.17437688312E+00  0.17443348008E+00  0.51109989000E-03 0. -1.
     -623    1    1    2    0    0 -0.52686054762E-03 -0.42007837547E-03  0.26855817503E-03  0.17130000000E+03  0.17130000000E+03 0. -1.
      622    1    1    2    0    0  0.42794293489E-02 -0.19034129848E-02  0.38253545261E+01  0.38255665184E+01  0.40000000000E-01 0. -1.
</event>
<event>
 5   0  0.6200596E+07  0.9118800E+02  0.7818608E-02  0.1180000E+00
       11   -1    0    0    0    0  0.00000000000E+00  0.00000000000E+00  0.39999999673E+01  0.40000000000E+01  0.51109989000E-03 0. -1.
     -623   -1    0    0    0    0  0.00000000000E+00  0.00000000000E+00  0.12525980253E-10  0.17130000000E+03  0.17130000000E+03 0.  1.
       11    1    1    2    0    0 -0.15783661461E-01 -0.19026565920E-01  0.16097837204E+00  0.16286629998E+00  0.51109989000E-03 0. -1.
     -623    1    1    2    0    0  0.20817815442E-01  0.15480397147E-01  0.21033085978E-02  0.17130000198E+03  0.17130000000E+03 0.  1.
      622    1    1    2    0    0 -0.50341539811E-02  0.35461687729E-02  0.38369182867E+01  0.38371317227E+01  0.40000000000E-01 0. -1.
</event>
<event>
 5   0  0.6200596E+07  0.9118800E+02  0.7818608E-02  0.1180000E+00
       11   -1    0    0    0    0  0.00000000000E+00  0.00000000000E+00  0.39999999673E+01  0.40000000000E+01  0.51109989000E-03 0.  1.
     -623   -1    0    0    0    0  0.00000000000E+00  0.00000000000E+00  0.12525980253E-10  0.17130000000E+03  0.17130000000E+03 0. -1.
       11    1    1    2    0    0  0.11439579130E-02  0.30538727467E-03  0.13923498718E-01  0.13983094789E-01  0.51109989000E-03 0.  1.
     -623    1    1    2    0    0  0.19041992092E-03 -0.11228763852E-02  0.26058127234E-03  0.17130000000E+03  0.17130000000E+03 0. -1.
      622    1    1    2    0    0 -0.13343778339E-02  0.81748911057E-03  0.39858158874E+01  0.39860169012E+01  0.40000000000E-01 0.  1.
</event>
<event>
 5   0  0.6200596E+07  0.9118800E+02  0.7818608E-02  0.1180000E+00
       11   -1    0    0    0    0  0.00000000000E+00  0.00000000000E+00  0.39999999673E+01  0.40000000000E+01  0.51109989000E-03 0. -1.
     -623   -1    0    0    0    0  0.00000000000E+00  0.00000000000E+00  0.12525980253E-10  0.17130000000E+03  0.17130000000E+03 0.  1.
       11    1    1    2    0    0  0.12628918242E-01 -0.80881022058E-02  0.36064374728E+00  0.36095578766E+00  0.51109989000E-03 0. -1.
     -623    1    1    2    0    0 -0.41654462696E-03 -0.93343507621E-03  0.56353290819E-03  0.17130000000E+03  0.17130000000E+03 0.  1.
      622    1    1    2    0    0 -0.12212373615E-01  0.90215372820E-02  0.36387926872E+01  0.36390442084E+01  0.40000000000E-01 0. -1.
</event>
<event>
 5   0  0.6200596E+07  0.9118800E+02  0.7818608E-02  0.1180000E+00
       11   -1    0    0    0    0  0.00000000000E+00  0.00000000000E+00  0.39999999673E+01  0.40000000000E+01  0.51109989000E-03 0. -1.
     -623   -1    0    0    0    0  0.00000000000E+00  0.00000000000E+00  0.12525980253E-10  0.17130000000E+03  0.17130000000E+03 0. -1.
       11    1    1    2    0    0 -0.16572660389E-02  0.24858457556E-04  0.94552312062E-02  0.96129999200E-02  0.51109989000E-03 0. -1.
     -623    1    1    2    0    0 -0.73963544182E-03  0.13307317362E-02  0.35918023719E-03  0.17130000001E+03  0.17130000000E+03 0. -1.
      622    1    1    2    0    0  0.23969014808E-02 -0.13555901937E-02  0.39901855559E+01  0.39903869929E+01  0.40000000000E-01 0. -1.
</event>
<event>
 5   0  0.6200596E+07  0.9118800E+02  0.7818608E-02  0.1180000E+00
       11   -1    0    0    0    0  0.00000000000E+00  0.00000000000E+00  0.39999999673E+01  0.40000000000E+01  0.51109989000E-03 0. -1.
     -623   -1    0    0    0    0  0.00000000000E+00  0.00000000000E+00  0.12525980253E-10  0.17130000000E+03  0.17130000000E+03 0.  1.
       11    1    1    2    0    0  0.20286207714E-02  0.28114985418E-02  0.71011026938E+00  0.71011891661E+00  0.51109989000E-03 0. -1.
     -623    1    1    2    0    0  0.63368709145E-03  0.31205458334E-03  0.25435533903E-03  0.17130000000E+03  0.17130000000E+03 0.  1.
      622    1    1    2    0    0 -0.26623078629E-02 -0.31235531251E-02  0.32896353426E+01  0.32898810817E+01  0.40000000000E-01 0. -1.
</event>
<event>
 5   0  0.6200596E+07  0.9118800E+02  0.7818608E-02  0.1180000E+00
       11   -1    0    0    0    0  0.00000000000E+00  0.00000000000E+00  0.39999999673E+01  0.40000000000E+01  0.51109989000E-03 0.  1.
     -623   -1    0    0    0    0  0.00000000000E+00  0.00000000000E+00  0.12525980253E-10  0.17130000000E+03  0.17130000000E+03 0.  1.
       11    1    1    2    0    0  0.19662875742E-01  0.91987210249E-02  0.20183806425E+00  0.20300273533E+00  0.51109989000E-03 0.  1.
     -623    1    1    2    0    0 -0.64489049441E-02 -0.12159313339E-01  0.14000444628E-02  0.17130000056E+03  0.17130000000E+03 0.  1.
      622    1    1    2    0    0 -0.13213970798E-01  0.29605923136E-02  0.37967618586E+01  0.37969967060E+01  0.40000000000E-01 0.  1.
</event>
<event>
 5   0  0.6200596E+07  0.9118800E+02  0.7818608E-02  0.1180000E+00
       11   -1    0    0    0    0  0.00000000000E+00  0.00000000000E+00  0.39999999673E+01  0.40000000000E+01  0.51109989000E-03 0. -1.
     -623   -1    0    0    0    0  0.00000000000E+00  0.00000000000E+00  0.12525980253E-10  0.17130000000E+03  0.17130000000E+03 0. -1.
       11    1    1    2    0    0  0.14342451783E-02 -0.29914641718E-02  0.84938401475E-01  0.85004700951E-01  0.51109989000E-03 0. -1.
     -623    1    1    2    0    0  0.68802697831E-03 -0.99327308005E-04  0.27241168951E-03  0.17130000000E+03  0.17130000000E+03 0. -1.
      622    1    1    2    0    0 -0.21222721566E-02  0.30907914798E-02  0.39147891542E+01  0.39149952974E+01  0.40000000000E-01 0. -1.
</event>
<event>
 5   0  0.6200596E+07  0.9118800E+02  0.7818608E-02  0.1180000E+00
       11   -1    0    0    0    0  0.00000000000E+00  0.00000000000E+00  0.39999999673E+01  0.40000000000E+01  0.51109989000E-03 0.  1.
     -623   -1    0    0    0    0  0.00000000000E+00  0.00000000000E+00  0.12525980253E-10  0.17130000000E+03  0.17130000000E+03 0. -1.
       11    1    1    2    0    0 -0.19290492301E-01 -0.48549921700E-01  0.10397506185E+01  0.10410623554E+01  0.51109989000E-03 0.  1.
     -623    1    1    2    0    0  0.11063582029E-02  0.11023187976E-01  0.18763356750E-02  0.17130000037E+03  0.17130000000E+03 0. -1.
      622    1    1    2    0    0  0.18184134098E-01  0.37526733723E-01  0.29583730132E+01  0.29589372761E+01  0.40000000000E-01 0.  1.
</event>
<event>
 5   0  0.6200596E+07  0.9118800E+02  0.7818608E-02  0.1180000E+00
       11   -1    0    0    0    0  0.00000000000E+00  0.00000000000E+00  0.39999999673E+01  0.40000000000E+01  0.51109989000E-03 0. -1.
     -623   -1    0    0    0    0  0.00000000000E+00  0.00000000000E+00  0.12525980253E-10  0.17130000000E+03  0.17130000000E+03 0.  1.
       11    1    1    2    0    0  0.72131899887E-01 -0.16209189871E-01  0.23544454777E+01  0.23556059767E+01  0.51109989000E-03 0. -1.
     -623    1    1    2    0    0 -0.39468378781E-01 -0.71227416850E-02  0.21419016229E-02  0.17130000471E+03  0.17130000000E+03 0.  1.
      622    1    1    2    0    0 -0.32663521106E-01  0.23331931556E-01  0.16434125880E+01  0.16443893150E+01  0.40000000000E-01 0.  0.
</event>
<event>
 5   0  0.6200596E+07  0.9118800E+02  0.7818608E-02  0.1180000E+00
       11   -1    0    0    0    0  0.00000000000E+00  0.00000000000E+00  0.39999999673E+01  0.40000000000E+01  0.51109989000E-03 0.  1.
     -623   -1    0    0    0    0  0.00000000000E+00  0.00000000000E+00  0.12525980253E-10  0.17130000000E+03  0.17130000000E+03 0.  1.
       11    1    1    2    0    0  0.14165807828E-03 -0.80122491928E-03  0.58746857028E-02  0.59527458463E-02  0.51109989000E-03 0. -1.
     -623    1    1    2    0    0  0.24949442042E-03 -0.34517518178E-03  0.27851504955E-03  0.17130000000E+03  0.17130000000E+03 0.  1.
      622    1    1    2    0    0 -0.39115249870E-03  0.11464001011E-02  0.39938467666E+01  0.39940472534E+01  0.40000000000E-01 0.  1.
</event>
<event>
 5   0  0.6200596E+07  0.9118800E+02  0.7818608E-02  0.1180000E+00
       11   -1    0    0    0    0  0.00000000000E+00  0.00000000000E+00  0.39999999673E+01  0.40000000000E+01  0.51109989000E-03 0.  1.
     -623   -1    0    0    0    0  0.00000000000E+00  0.00000000000E+00  0.12525980253E-10  0.17130000000E+03  0.17130000000E+03 0.  1.
       11    1    1    2    0    0 -0.38652423579E-03 -0.41993123163E-02  0.41932190444E-01  0.42146808213E-01  0.51109989000E-03 0.  1.
     -623    1    1    2    0    0  0.10783369013E-02 -0.28793022402E-03  0.41932853922E-03  0.17130000000E+03  0.17130000000E+03 0.  1.
      622    1    1    2    0    0 -0.69181266549E-03  0.44872425403E-02  0.39576484484E+01  0.39578531876E+01  0.40000000000E-01 0.  1.
</event>
<event>
 5   0  0.6200596E+07  0.9118800E+02  0.7818608E-02  0.1180000E+00
       11   -1    0    0    0    0  0.00000000000E+00  0.00000000000E+00  0.39999999673E+01  0.40000000000E+01  0.51109989000E-03 0.  1.
     -623   -1    0    0    0    0  0.00000000000E+00  0.00000000000E+00  0.12525980253E-10  0.17130000000E+03  0.17130000000E+03 0. -1.
       11    1    1    2    0    0 -0.76031113722E-02  0.18100270114E-01  0.60039531356E-01  0.63169879123E-01  0.51109989000E-03 0.  1.
     -623    1    1    2    0    0  0.15282053171E-01  0.10868682346E-01  0.34486706387E-02  0.17130000106E+03  0.17130000000E+03 0. -1.
      622    1    1    2    0    0 -0.76789417984E-02 -0.28968952459E-01  0.39365117654E+01  0.39368290597E+01  0.40000000000E-01 0.  1.
</event>
<event>
 5   0  0.6200596E+07  0.9118800E+02  0.7818608E-02  0.1180000E+00
       11   -1    0    0    0    0  0.00000000000E+00  0.00000000000E+00  0.39999999673E+01  0.40000000000E+01  0.51109989000E-03 0. -1.
     -623   -1    0    0    0    0  0.00000000000E+00  0.00000000000E+00  0.12525980253E-10  0.17130000000E+03  0.17130000000E+03 0.  1.
       11    1    1    2    0    0 -0.80373591642E-02  0.36682070729E-02  0.86501439074E-01  0.86952947442E-01  0.51109989000E-03 0. -1.
     -623    1    1    2    0    0  0.16756227190E-02 -0.64542902174E-02  0.66221995077E-03  0.17130000013E+03  0.17130000000E+03 0.  1.
      622    1    1    2    0    0  0.63617364452E-02  0.27860831445E-02  0.39128363083E+01  0.39130469215E+01  0.40000000000E-01 0. -1.
</event>
<event>
 5   0  0.6200596E+07  0.9118800E+02  0.7818608E-02  0.1180000E+00
       11   -1    0    0    0    0  0.00000000000E+00  0.00000000000E+00  0.39999999673E+01  0.40000000000E+01  0.51109989000E-03 0.  1.
     -623   -1    0    0    0    0  0.00000000000E+00  0.00000000000E+00  0.12525980253E-10  0.17130000000E+03  0.17130000000E+03 0.  1.
       11    1    1    2    0    0  0.90371201928E-02 -0.17808961382E-01  0.16440446282E-01  0.25872343205E-01  0.51109989000E-03 0.  1.
     -623    1    1    2    0    0  0.34098394476E-02  0.73731041137E-02  0.96668325841E-02  0.17130000047E+03  0.17130000000E+03 0.  1.
      622    1    1    2    0    0 -0.12446959640E-01  0.10435857269E-01  0.39738926885E+01  0.39741271914E+01  0.40000000000E-01 0.  1.
</event>
<event>
 5   0  0.6200596E+07  0.9118800E+02  0.7818608E-02  0.1180000E+00
       11   -1    0    0    0    0  0.00000000000E+00  0.00000000000E+00  0.39999999673E+01  0.40000000000E+01  0.51109989000E-03 0. -1.
     -623   -1    0    0    0    0  0.00000000000E+00  0.00000000000E+00  0.12525980253E-10  0.17130000000E+03  0.17130000000E+03 0. -1.
       11    1    1    2    0    0 -0.19817339851E-02 -0.18838336322E-02  0.63307621997E-02  0.69149020035E-02  0.51109989000E-03 0. -1.
     -623    1    1    2    0    0  0.41945881261E-02  0.19892271403E-03  0.78548048817E-03  0.17130000005E+03  0.17130000000E+03 0. -1.
      622    1    1    2    0    0 -0.22128541410E-02  0.16849109182E-02  0.39928837247E+01  0.39930850447E+01  0.40000000000E-01 0. -1.
</event>
<event>
 5   0  0.6200596E+07  0.9118800E+02  0.7818608E-02  0.1180000E+00
       11   -1    0    0    0    0  0.00000000000E+00  0.00000000000E+00  0.39999999673E+01  0.40000000000E+01  0.51109989000E-03 0. -1.
     -623   -1    0    0    0    0  0.00000000000E+00  0.00000000000E+00  0.12525980253E-10  0.17130000000E+03  0.17130000000E+03 0. -1.
       11    1    1    2    0    0 -0.22984406088E-02 -0.10705946233E-01  0.57079018626E-01  0.58122075865E-01  0.51109989000E-03 0. -1.
     -623    1    1    2    0    0  0.78343003886E-02  0.66457925718E-02  0.12522699384E-02  0.17130000031E+03  0.17130000000E+03 0. -1.
      622    1    1    2    0    0 -0.55358597797E-02  0.40601536610E-02  0.39416686788E+01  0.39418776115E+01  0.40000000000E-01 0. -1.
</event>
<event>
 5   0  0.6200596E+07  0.9118800E+02  0.7818608E-02  0.1180000E+00
       11   -1    0    0    0    0  0.00000000000E+00  0.00000000000E+00  0.39999999673E+01  0.40000000000E+01  0.51109989000E-03 0.  1.
     -623   -1    0    0    0    0  0.00000000000E+00  0.00000000000E+00  0.12525980253E-10  0.17130000000E+03  0.17130000000E+03 0. -1.
       11    1    1    2    0    0  0.71254630699E-03  0.56711192937E-02  0.78648731889E+00  0.78650825381E+00  0.51109989000E-03 0.  1.
     -623    1    1    2    0    0  0.27607645164E-02 -0.21349665168E-02  0.27372105295E-03  0.17130000004E+03  0.17130000000E+03 0. -1.
      622    1    1    2    0    0 -0.34733108234E-02 -0.35361527769E-02  0.32132389274E+01  0.32134917104E+01  0.40000000000E-01 0.  1.
</event>
<event>
 5   0  0.6200596E+07  0.9118800E+02  0.7818608E-02  0.1180000E+00
       11   -1    0    0    0    0  0.00000000000E+00  0.00000000000E+00  0.39999999673E+01  0.40000000000E+01  0.51109989000E-03 0. -1.
     -623   -1    0    0    0    0  0.00000000000E+00  0.00000000000E+00  0.12525980253E-10  0.17130000000E+03  0.17130000000E+03 0.  1.
       11    1    1    2    0    0  0.25568892982E-02  0.16108710344E-02  0.27241425586E+00  0.27243149709E+00  0.51109989000E-03 0. -1.
     -623    1    1    2    0    0 -0.86587644195E-04  0.33021743367E-03  0.23315640827E-03  0.17130000000E+03  0.17130000000E+03 0.  1.
      622    1    1    2    0    0 -0.24703016540E-02 -0.19410884681E-02  0.37273525551E+01  0.37275685024E+01  0.40000000000E-01 0. -1.
</event>
<event>
 5   0  0.6200596E+07  0.9118800E+02  0.7818608E-02  0.1180000E+00
       11   -1    0    0    0    0  0.00000000000E+00  0.00000000000E+00  0.39999999673E+01  0.40000000000E+01  0.51109989000E-03 0.  1.
     -623   -1    0    0    0    0  0.00000000000E+00  0.00000000000E+00  0.12525980253E-10  0.17130000000E+03  0.17130000000E+03 0. -1.
       11    1    1    2    0    0  0.23160681928E-02  0.41279159658E-02  0.11324101751E+01  0.11324201825E+01  0.51109989000E-03 0.  1.
     -623    1    1    2    0    0  0.36420825632E-02 -0.32498598258E-02  0.29536391424E-03  0.17130000007E+03  0.17130000000E+03 0. -1.
      622    1    1    2    0    0 -0.59581507560E-02 -0.87805614004E-03  0.28672944283E+01  0.28675797477E+01  0.40000000000E-01 0.  1.
</event>
<event>
 5   0  0.6200596E+07  0.9118800E+02  0.7818608E-02  0.1180000E+00
       11   -1    0    0    0    0  0.00000000000E+00  0.00000000000E+00  0.39999999673E+01  0.40000000000E+01  0.51109989000E-03 0. -1.
     -623   -1    0    0    0    0  0.00000000000E+00  0.00000000000E+00  0.12525980253E-10  0.17130000000E+03  0.17130000000E+03 0. -1.
       11    1    1    2    0    0  0.22055551785E-03 -0.10170149897E-01  0.39201769075E-01  0.40503339542E-01  0.51109989000E-03 0. -1.
     -623    1    1    2    0    0 -0.21405988648E-02  0.98195131499E-03  0.15147386954E-02  0.17130000002E+03  0.17130000000E+03 0. -1.
      622    1    1    2    0    0  0.19200433470E-02  0.91881985822E-02  0.39592834596E+01  0.39594966376E+01  0.40000000000E-01 0. -1.
</event>
<event>
 5   0  0.6200596E+07  0.9118800E+02  0.7818608E-02  0.1180000E+00
       11   -1    0    0    0    0  0.00000000000E+00  0.00000000000E+00  0.39999999673E+01  0.40000000000E+01  0.51109989000E-03 0. -1.
     -623   -1    0    0    0    0  0.00000000000E+00  0.00000000000E+00  0.12525980253E-10  0.17130000000E+03  0.17130000000E+03 0. -1.
       11    1    1    2    0    0 -0.19039742458E-02  0.18746910606E-02  0.31437224082E-01  0.31554712240E-01  0.51109989000E-03 0. -1.
     -623    1    1    2    0    0  0.22984628533E-02  0.58665311470E-03  0.31985058873E-03  0.17130000002E+03  0.17130000000E+03 0. -1.
      622    1    1    2    0    0 -0.39448860757E-03 -0.24613441753E-02  0.39682428927E+01  0.39684452710E+01  0.40000000000E-01 0. -1.
</event>
<event>
 5   0  0.6200596E+07  0.9118800E+02  0.7818608E-02  0.1180000E+00
       11   -1    0    0    0    0  0.00000000000E+00  0.00000000000E+00  0.39999999673E+01  0.40000000000E+01  0.51109989000E-03 0.  1.
     -623   -1    0    0    0    0  0.00000000000E+00  0.00000000000E+00  0.12525980253E-10  0.17130000000E+03  0.17130000000E+03 0. -1.
       11    1    1    2    0    0  0.10172151550E-03 -0.97673204506E-03  0.85080202084E-02  0.85797424993E-02  0.51109989000E-03 0.  1.
     -623    1    1    2    0    0 -0.88324108343E-03  0.18044275306E-02  0.27229892823E-03  0.17130000001E+03  0.17130000000E+03 0. -1.
      622    1    1    2    0    0  0.78151956792E-03 -0.82769548555E-03  0.39912196482E+01  0.39914202455E+01  0.40000000000E-01 0.  1.
</event>
<event>
 5   0  0.6200596E+07  0.9118800E+02  0.7818608E-02  0.1180000E+00
       11   -1    0    0    0    0  0.00000000000E+00  0.00000000000E+00  0.39999999673E+01  0.40000000000E+01  0.51109989000E-03 0. -1.
     -623   -1    0    0    0    0  0.00000000000E+00  0.00000000000E+00  0.12525980253E-10  0.17130000000E+03  0.17130000000E+03 0.  1.
       11    1    1    2    0    0 -0.10686205188E-01 -0.10707068265E-01  0.15595877102E+00  0.15669153063E+00  0.51109989000E-03 0. -1.
     -623    1    1    2    0    0  0.16579137499E-01  0.12910363068E-01  0.94732774201E-03  0.17130000129E+03  0.17130000000E+03 0.  1.
      622    1    1    2    0    0 -0.58929323111E-02 -0.22032948030E-02  0.38430938686E+01  0.38433071779E+01  0.40000000000E-01 0. -1.
</event>
<event>
 5   0  0.6200596E+07  0.9118800E+02  0.7818608E-02  0.1180000E+00
       11   -1    0    0    0    0  0.00000000000E+00  0.00000000000E+00  0.39999999673E+01  0.40000000000E+01  0.51109989000E-03 0. -1.
     -623   -1    0    0    0    0  0.00000000000E+00  0.00000000000E+00  0.12525980253E-10  0.17130000000E+03  0.17130000000E+03 0. -1.
       11    1    1    2    0    0 -0.94535090179E-02 -0.83047539894E-02  0.39097103134E+00  0.39117380580E+00  0.51109989000E-03 0. -1.
     -623    1    1    2    0    0 -0.62181911730E-04 -0.62845855015E-03  0.44803257531E-03  0.17130000000E+03  0.17130000000E+03 0. -1.
      622    1    1    2    0    0  0.95156909296E-02  0.89332125396E-02  0.36085809034E+01  0.36088261925E+01  0.40000000000E-01 0. -1.
</event>
<event>
 5   0  0.6200596E+07  0.9118800E+02  0.7818608E-02  0.1180000E+00
       11   -1    0    0    0    0  0.00000000000E+00  0.00000000000E+00  0.39999999673E+01  0.40000000000E+01  0.51109989000E-03 0.  1.
     -623   -1    0    0    0    0  0.00000000000E+00  0.00000000000E+00  0.12525980253E-10  0.17130000000E+03  0.17130000000E+03 0. -1.
       11    1    1    2    0    0  0.49481771639E-01 -0.56011177041E-02  0.33534484247E+01  0.33538181848E+01  0.51109989000E-03 0.  1.
     -623    1    1    2    0    0 -0.21944751158E-02 -0.37260181596E-02  0.34125685855E-02  0.17130000009E+03  0.17130000000E+03 0. -1.
      622    1    1    2    0    0 -0.47287296523E-01  0.93271358637E-02  0.64313897408E+00  0.64618172665E+00  0.40000000000E-01 0.  1.
</event>
<event>
 5   0  0.6200596E+07  0.9118800E+02  0.7818608E-02  0.1180000E+00
       11   -1    0    0    0    0  0.00000000000E+00  0.00000000000E+00  0.39999999673E+01  0.40000000000E+01  0.51109989000E-03 0.  1.
     -623   -1    0    0    0    0  0.00000000000E+00  0.00000000000E+00  0.12525980253E-10  0.17130000000E+03  0.17130000000E+03 0. -1.
       11    1    1    2    0    0  0.35959403563E-02  0.35042264833E-02  0.10734692366E+00  0.10746549972E+00  0.51109989000E-03 0.  1.
     -623    1    1    2    0    0 -0.38568138792E-03 -0.14250664597E-02  0.32595630549E-03  0.17130000001E+03  0.17130000000E+03 0. -1.
      622    1    1    2    0    0 -0.32102589684E-02 -0.20791600236E-02  0.38923270874E+01  0.38925344936E+01  0.40000000000E-01 0.  1.
</event>
<event>
 5   0  0.6200596E+07  0.9118800E+02  0.7818608E-02  0.1180000E+00
       11   -1    0    0    0    0  0.00000000000E+00  0.00000000000E+00  0.39999999673E+01  0.40000000000E+01  0.51109989000E-03 0. -1.
     -623   -1    0    0    0    0  0.00000000000E+00  0.00000000000E+00  0.12525980253E-10  0.17130000000E+03  0.17130000000E+03 0.  1.
       11    1    1    2    0    0 -0.95025957148E-02  0.52244463260E-03  0.11598589637E+01  0.11598981202E+01  0.51109989000E-03 0. -1.
     -623    1    1    2    0    0  0.15436979004E-01 -0.33279070883E-02  0.32913243711E-03  0.17130000073E+03  0.17130000000E+03 0.  1.
      622    1    1    2    0    0 -0.59343832896E-02  0.28054624557E-02  0.28398118712E+01  0.28401011516E+01  0.40000000000E-01 0. -1.
</event>
<event>
 5   0  0.6200596E+07  0.9118800E+02  0.7818608E-02  0.1180000E+00
       11   -1    0    0    0    0  0.00000000000E+00  0.00000000000E+00  0.39999999673E+01  0.40000000000E+01  0.51109989000E-03 0.  1.
     -623   -1    0    0    0    0  0.00000000000E+00  0.00000000000E+00  0.12525980253E-10  0.17130000000E+03  0.17130000000E+03 0.  1.
       11    1    1    2    0    0  0.10100128204E-02  0.25753301968E-02  0.30035405397E+00  0.30036722759E+00  0.51109989000E-03 0.  1.
     -623    1    1    2    0    0 -0.67605492900E-02 -0.79242645141E-03  0.23441945915E-03  0.17130000014E+03  0.17130000000E+03 0.  1.
      622    1    1    2    0    0  0.57505364696E-02 -0.17829037454E-02  0.36994114939E+01  0.36996326370E+01  0.40000000000E-01 0.  1.
</event>
<event>
 5   0  0.6200596E+07  0.9118800E+02  0.7818608E-02  0.1180000E+00
       11   -1    0    0    0    0  0.00000000000E+00  0.00000000000E+00  0.39999999673E+01  0.40000000000E+01  0.51109989000E-03 0. -1.
     -623   -1    0    0    0    0  0.00000000000E+00  0.00000000000E+00  0.12525980253E-10  0.17130000000E+03  0.17130000000E+03 0. -1.
       11    1    1    2    0    0 -0.58757816790E-03  0.18324434232E-02  0.54934697039E-01  0.54970767293E-01  0.51109989000E-03 0. -1.
     -623    1    1    2    0    0 -0.92483757277E-03 -0.53054950137E-03  0.23933790238E-03  0.17130000000E+03  0.17130000000E+03 0. -1.
      622    1    1    2    0    0  0.15124157407E-02 -0.13018939218E-02  0.39448259324E+01  0.39450292292E+01  0.40000000000E-01 0. -1.
</event>
<event>
 5   0  0.6200596E+07  0.9118800E+02  0.7818608E-02  0.1180000E+00
       11   -1    0    0    0    0  0.00000000000E+00  0.00000000000E+00  0.39999999673E+01  0.40000000000E+01  0.51109989000E-03 0.  1.
     -623   -1    0    0    0    0  0.00000000000E+00  0.00000000000E+00  0.12525980253E-10  0.17130000000E+03  0.17130000000E+03 0.  1.
       11    1    1    2    0    0  0.32751354096E-03 -0.37926379013E-02  0.77609026986E-01  0.77704013139E-01  0.51109989000E-03 0.  1.
     -623    1    1    2    0    0 -0.30705688288E-03 -0.12109226721E-04  0.30076703667E-03  0.17130000000E+03  0.17130000000E+03 0.  1.
      622    1    1    2    0    0 -0.20456658079E-04  0.38047471281E-02  0.39220901733E+01  0.39222959863E+01  0.40000000000E-01 0.  1.
</event>
<event>
 5   0  0.6200596E+07  0.9118800E+02  0.7818608E-02  0.1180000E+00
       11   -1    0    0    0    0  0.00000000000E+00  0.00000000000E+00  0.39999999673E+01  0.40000000000E+01  0.51109989000E-03 0. -1.
     -623   -1    0    0    0    0  0.00000000000E+00  0.00000000000E+00  0.12525980253E-10  0.17130000000E+03  0.17130000000E+03 0. -1.
       11    1    1    2    0    0 -0.24246018437E-01  0.24549937261E-02  0.66070106488E-01  0.70423125444E-01  0.51109989000E-03 0. -1.
     -623    1    1    2    0    0  0.15337312347E-01  0.66522977079E-02  0.45781060522E-02  0.17130000088E+03  0.17130000000E+03 0. -1.
      622    1    1    2    0    0  0.89087060893E-02 -0.91072914340E-02  0.39293517548E+01  0.39295759976E+01  0.40000000000E-01 0. -1.
</event>
<event>
 5   0  0.6200596E+07  0.9118800E+02  0.7818608E-02  0.1180000E+00
       11   -1    0    0    0    0  0.00000000000E+00  0.00000000000E+00  0.39999999673E+01  0.40000000000E+01  0.51109989000E-03 0. -1.
     -623   -1    0    0    0    0  0.00000000000E+00  0.00000000000E+00  0.12525980253E-10  0.17130000000E+03  0.17130000000E+03 0.  1.
       11    1    1    2    0    0 -0.13493909802E-01  0.55635215205E-02  0.62213029310E+00  0.62230169628E+00  0.51109989000E-03 0. -1.
     -623    1    1    2    0    0  0.24928303393E-01 -0.10875574545E-01  0.43391933976E-03  0.17130000216E+03  0.17130000000E+03 0.  1.
      622    1    1    2    0    0 -0.11434393590E-01  0.53120530243E-02  0.33774357549E+01  0.33776961441E+01  0.40000000000E-01 0. -1.
</event>
<event>
 5   0  0.6200596E+07  0.9118800E+02  0.7818608E-02  0.1180000E+00
       11   -1    0    0    0    0  0.00000000000E+00  0.00000000000E+00  0.39999999673E+01  0.40000000000E+01  0.51109989000E-03 0. -1.
     -623   -1    0    0    0    0  0.00000000000E+00  0.00000000000E+00  0.12525980253E-10  0.17130000000E+03  0.17130000000E+03 0.  1.
       11    1    1    2    0    0 -0.92988701147E-02  0.56331719678E-02  0.27431080971E+00  0.27452665291E+00  0.51109989000E-03 0. -1.
     -623    1    1    2    0    0 -0.48404446509E-03 -0.12190568173E-02  0.44602084287E-03  0.17130000001E+03  0.17130000000E+03 0.  1.
      622    1    1    2    0    0  0.97829145798E-02 -0.44141151504E-02  0.37252431368E+01  0.37254733415E+01  0.40000000000E-01 0. -1.
</event>
<event>
 5   0  0.6200596E+07  0.9118800E+02  0.7818608E-02  0.1180000E+00
       11   -1    0    0    0    0  0.00000000000E+00  0.00000000000E+00  0.39999999673E+01  0.40000000000E+01  0.51109989000E-03 0. -1.
     -623   -1    0    0    0    0  0.00000000000E+00  0.00000000000E+00  0.12525980253E-10  0.17130000000E+03  0.17130000000E+03 0.  1.
       11    1    1    2    0    0  0.18386885391E-01 -0.23972531898E-01  0.69764388954E+00  0.69829794335E+00  0.51109989000E-03 0. -1.
     -623    1    1    2    0    0  0.88155827352E-03  0.12563131367E-02  0.10307219135E-02  0.17130000001E+03  0.17130000000E+03 0.  1.
      622    1    1    2    0    0 -0.19268443664E-01  0.22716218762E-01  0.33013253559E+01  0.33017020467E+01  0.40000000000E-01 0. -1.
</event>
<event>
 5   0  0.6200596E+07  0.9118800E+02  0.7818608E-02  0.1180000E+00
       11   -1    0    0    0    0  0.00000000000E+00  0.00000000000E+00  0.39999999673E+01  0.40000000000E+01  0.51109989000E-03 0. -1.
     -623   -1    0    0    0    0  0.00000000000E+00  0.00000000000E+00  0.12525980253E-10  0.17130000000E+03  0.17130000000E+03 0.  1.
       11    1    1    2    0    0 -0.38490251465E-02 -0.56557202663E-02  0.12275814231E+00  0.12294968439E+00  0.51109989000E-03 0. -1.
     -623    1    1    2    0    0  0.13731751601E-02 -0.70194886756E-03  0.40386835677E-03  0.17130000001E+03  0.17130000000E+03 0.  1.
      622    1    1    2    0    0  0.24758499864E-02  0.63576691339E-02  0.38768379567E+01  0.38770503082E+01  0.40000000000E-01 0. -1.
</event>
<event>
 5   0  0.6200596E+07  0.9118800E+02  0.7818608E-02  0.1180000E+00
       11   -1    0    0    0    0  0.00000000000E+00  0.00000000000E+00  0.39999999673E+01  0.40000000000E+01  0.51109989000E-03 0.  1.
     -623   -1    0    0    0    0  0.00000000000E+00  0.00000000000E+00  0.12525980253E-10  0.17130000000E+03  0.17130000000E+03 0.  1.
       11    1    1    2    0    0  0.91815386900E-02 -0.58805431721E-02  0.15672692038E+00  0.15710655695E+00  0.51109989000E-03 0.  1.
     -623    1    1    2    0    0 -0.28425758697E-04 -0.40333759276E-02  0.61152453621E-03  0.17130000005E+03  0.17130000000E+03 0.  1.
      622    1    1    2    0    0 -0.91531129313E-02  0.99139190997E-02  0.38426615224E+01  0.38428933945E+01  0.40000000000E-01 0.  1.
</event>
<event>
 5   0  0.6200596E+07  0.9118800E+02  0.7818608E-02  0.1180000E+00
       11   -1    0    0    0    0  0.00000000000E+00  0.00000000000E+00  0.39999999673E+01  0.40000000000E+01  0.51109989000E-03 0.  1.
     -623   -1    0    0    0    0  0.00000000000E+00  0.00000000000E+00  0.12525980253E-10  0.17130000000E+03  0.17130000000E+03 0. -1.
       11    1    1    2    0    0 -0.54742767011E-04  0.97023957733E-03  0.32142575500E-01  0.32161323721E-01  0.51109989000E-03 0.  1.
     -623    1    1    2    0    0  0.29097232600E-02 -0.99130557276E-03  0.22139676100E-03  0.17130000003E+03  0.17130000000E+03 0. -1.
      622    1    1    2    0    0 -0.28549804930E-02  0.21065995434E-04  0.39676359951E+01  0.39678386486E+01  0.40000000000E-01 0.  1.
</event>
<event>
 5   0  0.6200596E+07  0.9118800E+02  0.7818608E-02  0.1180000E+00
       11   -1    0    0    0    0  0.00000000000E+00  0.00000000000E+00  0.39999999673E+01  0.40000000000E+01  0.51109989000E-03 0.  1.
     -623   -1    0    0    0    0  0.00000000000E+00  0.00000000000E+00  0.12525980253E-10  0.17130000000E+03  0.17130000000E+03 0. -1.
       11    1    1    2    0    0  0.96779410852E-03 -0.11404853320E-01  0.14641326978E+00  0.14686086644E+00  0.51109989000E-03 0.  1.
     -623    1    1    2    0    0 -0.23262122145E-02  0.15040604296E-01  0.65782481088E-03  0.17130000068E+03  0.17130000000E+03 0. -1.
      622    1    1    2    0    0  0.13584181060E-02 -0.36357509759E-02  0.38529288728E+01  0.38531384562E+01  0.40000000000E-01 0.  1.
</event>
<event>
 5   0  0.6200596E+07  0.9118800E+02  0.7818608E-02  0.1180000E+00
       11   -1    0    0    0    0  0.00000000000E+00  0.00000000000E+00  0.39999999673E+01  0.40000000000E+01  0.51109989000E-03 0.  1.
     -623   -1    0    0    0    0  0.00000000000E+00  0.00000000000E+00  0.12525980253E-10  0.17130000000E+03  0.17130000000E+03 0.  1.
       11    1    1    2    0    0 -0.17399818595E-02 -0.16759306872E-02  0.60162170733E-01  0.60212824955E-01  0.51109989000E-03 0.  1.
     -623    1    1    2    0    0 -0.35863655967E-03  0.78010378609E-03  0.25434662832E-03  0.17130000000E+03  0.17130000000E+03 0.  1.
      622    1    1    2    0    0  0.20986184192E-02  0.89582690112E-03  0.39395834500E+01  0.39397871727E+01  0.40000000000E-01 0.  1.
</event>
<event>
 5   0  0.6200596E+07  0.9118800E+02  0.7818608E-02  0.1180000E+00
       11   -1    0    0    0    0  0.00000000000E+00  0.00000000000E+00  0.39999999673E+01  0.40000000000E+01  0.51109989000E-03 0. -1.
     -623   -1    0    0    0    0  0.00000000000E+00  0.00000000000E+00  0.12525980253E-10  0.17130000000E+03  0.17130000000E+03 0.  1.
       11    1    1    2    0    0 -0.12155087866E-01  0.17778867618E-01  0.78987072649E+00  0.79016445129E+00  0.51109989000E-03 0. -1.
     -623    1    1    2    0    0 -0.19111948014E-02 -0.14664800463E-03  0.62220423858E-03  0.17130000001E+03  0.17130000000E+03 0.  1.
      622    1    1    2    0    0  0.14066282667E-01 -0.17632219613E-01  0.32095070366E+01  0.32098355369E+01  0.40000000000E-01 0. -1.
</event>
<event>
 5   0  0.6200596E+07  0.9118800E+02  0.7818608E-02  0.1180000E+00
       11   -1    0    0    0    0  0.00000000000E+00  0.00000000000E+00  0.39999999673E+01  0.40000000000E+01  0.51109989000E-03 0.  1.
     -623   -1    0    0    0    0  0.00000000000E+00  0.00000000000E+00  0.12525980253E-10  0.17130000000E+03  0.17130000000E+03 0. -1.
       11    1    1    2    0    0  0.10350918732E-01 -0.96851908367E-02  0.37550030008E-01  0.40139885605E-01  0.51109989000E-03 0.  1.
     -623    1    1    2    0    0 -0.57754221418E-02  0.18117040210E-02  0.28024568143E-02  0.17130000013E+03  0.17130000000E+03 0. -1.
      622    1    1    2    0    0 -0.45754965901E-02  0.78734868156E-02  0.39596474805E+01  0.39598599845E+01  0.40000000000E-01 0.  1.
</event>
<event>
 5   0  0.6200596E+07  0.9118800E+02  0.7818608E-02  0.1180000E+00
       11   -1    0    0    0    0  0.00000000000E+00  0.00000000000E+00  0.39999999673E+01  0.40000000000E+01  0.51109989000E-03 0.  1.
     -623   -1    0    0    0    0  0.00000000000E+00  0.00000000000E+00  0.12525980253E-10  0.17130000000E+03  0.17130000000E+03 0. -1.
       11    1    1    2    0    0  0.65134645658E-02  0.64684618353E-02  0.12630699533E+00  0.12664116435E+00  0.51109989000E-03 0.  1.
     -623    1    1    2    0    0 -0.71566435807E-02  0.42740806702E-04  0.54635779846E-03  0.17130000015E+03  0.17130000000E+03 0. -1.
      622    1    1    2    0    0  0.64317901491E-03 -0.65112026420E-02  0.38731466142E+01  0.38733586853E+01  0.40000000000E-01 0.  1.
</event>
<event>
 5   0  0.6200596E+07  0.9118800E+02  0.7818608E-02  0.1180000E+00
       11   -1    0    0    0    0  0.00000000000E+00  0.00000000000E+00  0.39999999673E+01  0.40000000000E+01  0.51109989000E-03 0.  1.
     -623   -1    0    0    0    0  0.00000000000E+00  0.00000000000E+00  0.12525980253E-10  0.17130000000E+03  0.17130000000E+03 0.  1.
       11    1    1    2    0    0  0.26520769763E-02  0.23359864791E-02  0.87459792101E+00  0.87460521094E+00  0.51109989000E-03 0.  1.
     -623    1    1    2    0    0 -0.35079979817E-02 -0.18641897036E-02  0.26343452773E-03  0.17130000005E+03  0.17130000000E+03 0.  1.
      622    1    1    2    0    0  0.85592100535E-03 -0.47179677545E-03  0.31251386118E+01  0.31253947428E+01  0.40000000000E-01 0.  1.
</event>
<event>
 5   0  0.6200596E+07  0.9118800E+02  0.7818608E-02  0.1180000E+00
       11   -1    0    0    0    0  0.00000000000E+00  0.00000000000E+00  0.39999999673E+01  0.40000000000E+01  0.51109989000E-03 0. -1.
     -623   -1    0    0    0    0  0.00000000000E+00  0.00000000000E+00  0.12525980253E-10  0.17130000000E+03  0.17130000000E+03 0. -1.
       11    1    1    2    0    0 -0.18624012704E-01  0.34005623411E-03  0.21748832998E+00  0.21828514468E+00  0.51109989000E-03 0. -1.
     -623    1    1    2    0    0  0.24552360679E-02 -0.18971278399E-02  0.10432510803E-02  0.17130000003E+03  0.17130000000E+03 0. -1.
      622    1    1    2    0    0  0.16168776637E-01  0.15570716058E-02  0.37814683863E+01  0.37817148240E+01  0.40000000000E-01 0. -1.
</event>
<event>
 5   0  0.6200596E+07  0.9118800E+02  0.7818608E-02  0.1180000E+00
       11   -1    0    0    0    0  0.00000000000E+00  0.00000000000E+00  0.39999999673E+01  0.40000000000E+01  0.51109989000E-03 0.  1.
     -623   -1    0    0    0    0  0.00000000000E+00  0.00000000000E+00  0.12525980253E-10  0.17130000000E+03  0.17130000000E+03 0. -1.
       11    1    1    2    0    0 -0.37824804335E-02  0.43459752362E-02  0.35467785584E+00  0.35472501646E+00  0.51109989000E-03 0.  1.
     -623    1    1    2    0    0  0.35704542646E-03 -0.95715514404E-05  0.27078632053E-03  0.17130000000E+03  0.17130000000E+03 0. -1.
      622    1    1    2    0    0  0.34254350071E-02 -0.43364036848E-02  0.36450513252E+01  0.36452749830E+01  0.40000000000E-01 0.  1.
</event>
<event>
 5   0  0.6200596E+07  0.9118800E+02  0.7818608E-02  0.1180000E+00
       11   -1    0    0    0    0  0.00000000000E+00  0.00000000000E+00  0.39999999673E+01  0.40000000000E+01  0.51109989000E-03 0. -1.
     -623   -1    0    0    0    0  0.00000000000E+00  0.00000000000E+00  0.12525980253E-10  0.17130000000E+03  0.17130000000E+03 0.  1.
       11    1    1    2    0    0 -0.27265008399E-02 -0.39399883271E-01  0.10246269628E+01  0.10253879553E+01  0.51109989000E-03 0. -1.
     -623    1    1    2    0    0 -0.62163282332E-02  0.25941261113E-02  0.12712304099E-02  0.17130000014E+03  0.17130000000E+03 0.  1.
      622    1    1    2    0    0  0.89428290731E-02  0.36805757160E-01  0.29741017741E+01  0.29746119076E+01  0.40000000000E-01 0.  0.
</event>
<event>
 5   0  0.6200596E+07  0.9118800E+02  0.7818608E-02  0.1180000E+00
       11   -1    0    0    0    0  0.00000000000E+00  0.00000000000E+00  0.39999999673E+01  0.40000000000E+01  0.51109989000E-03 0. -1.
     -623   -1    0    0    0    0  0.00000000000E+00  0.00000000000E+00  0.12525980253E-10  0.17130000000E+03  0.17130000000E+03 0. -1.
       11    1    1    2    0    0 -0.23778279912E-01  0.12739134166E-02  0.23496615415E+01  0.23497822559E+01  0.51109989000E-03 0. -1.
     -623    1    1    2    0    0  0.58858866814E-02 -0.29078930007E-02  0.70350404918E-03  0.17130000013E+03  0.17130000000E+03 0. -1.
      622    1    1    2    0    0  0.17892393231E-01  0.16339795841E-02  0.16496349218E+01  0.16502176168E+01  0.40000000000E-01 0.  0.
</event>
<event>
 5   0  0.6200596E+07  0.9118800E+02  0.7818608E-02  0.1180000E+00
       11   -1    0    0    0    0  0.00000000000E+00  0.00000000000E+00  0.39999999673E+01  0.40000000000E+01  0.51109989000E-03 0.  1.
     -623   -1    0    0    0    0  0.00000000000E+00  0.00000000000E+00  0.12525980253E-10  0.17130000000E+03  0.17130000000E+03 0. -1.
       11    1    1    2    0    0  0.48651796224E-02 -0.18057953505E-02  0.61162809899E-01  0.61384700095E-01  0.51109989000E-03 0.  1.
     -623    1    1    2    0    0 -0.36814205952E-02 -0.28974836924E-02  0.42803071080E-03  0.17130000006E+03  0.17130000000E+03 0. -1.
      622    1    1    2    0    0 -0.11837590272E-02  0.47032790428E-02  0.39384091268E+01  0.39386152353E+01  0.40000000000E-01 0.  1.
</event>
<event>
 5   0  0.6200596E+07  0.9118800E+02  0.7818608E-02  0.1180000E+00
       11   -1    0    0    0    0  0.00000000000E+00  0.00000000000E+00  0.39999999673E+01  0.40000000000E+01  0.51109989000E-03 0. -1.
     -623   -1    0    0    0    0  0.00000000000E+00  0.00000000000E+00  0.12525980253E-10  0.17130000000E+03  0.17130000000E+03 0.  1.
       11    1    1    2    0    0  0.10734013555E-02  0.19694939000E-02  0.13265189078E+00  0.13267183742E+00  0.51109989000E-03 0. -1.
     -623    1    1    2    0    0  0.16638843964E-02  0.19110621022E-02  0.22971539023E-03  0.17130000002E+03  0.17130000000E+03 0.  1.
      622    1    1    2    0    0 -0.27372857519E-02 -0.38805560022E-02  0.38671183612E+01  0.38673281437E+01  0.40000000000E-01 0. -1.
</event>
<event>
 5   0  0.6200596E+07  0.9118800E+02  0.7818608E-02  0.1180000E+00
       11   -1    0    0    0    0  0.00000000000E+00  0.00000000000E+00  0.39999999673E+01  0.40000000000E+01  0.51109989000E-03 0.  1.
     -623   -1    0    0    0    0  0.00000000000E+00  0.00000000000E+00  0.12525980253E-10  0.17130000000E+03  0.17130000000E+03 0. -1.
       11    1    1    2    0    0 -0.35127397139E-02 -0.27651516440E-02  0.21781629490E+00  0.21786276632E+00  0.51109989000E-03 0.  1.
     -623    1    1    2    0    0  0.21739191410E-02  0.50593291261E-02  0.25898683546E-03  0.17130000009E+03  0.17130000000E+03 0. -1.
      622    1    1    2    0    0  0.13388205730E-02 -0.22941774821E-02  0.37819246856E+01  0.37821371450E+01  0.40000000000E-01 0.  1.
</event>
<event>
 5   0  0.6200596E+07  0.9118800E+02  0.7818608E-02  0.1180000E+00
       11   -1    0    0    0    0  0.00000000000E+00  0.00000000000E+00  0.39999999673E+01  0.40000000000E+01  0.51109989000E-03 0. -1.
     -623   -1    0    0    0    0  0.00000000000E+00  0.00000000000E+00  0.12525980253E-10  0.17130000000E+03  0.17130000000E+03 0. -1.
       11    1    1    2    0    0  0.81406988960E-02 -0.20083671770E-02  0.12287351290E+01  0.12287638434E+01  0.51109989000E-03 0. -1.
     -623    1    1    2    0    0  0.65047491465E-03  0.10209500763E-01  0.34376459969E-03  0.17130000031E+03  0.17130000000E+03 0. -1.
      622    1    1    2    0    0 -0.87911738106E-02 -0.82011335857E-02  0.27709210738E+01  0.27712358508E+01  0.40000000000E-01 0. -1.
</event>
<event>
 5   0  0.6200596E+07  0.9118800E+02  0.7818608E-02  0.1180000E+00
       11   -1    0    0    0    0  0.00000000000E+00  0.00000000000E+00  0.39999999673E+01  0.40000000000E+01  0.51109989000E-03 0.  1.
     -623   -1    0    0    0    0  0.00000000000E+00  0.00000000000E+00  0.12525980253E-10  0.17130000000E+03  0.17130000000E+03 0.  1.
       11    1    1    2    0    0  0.49055901398E-02 -0.26873801426E-03  0.84398722679E-02  0.97790438514E-02  0.51109989000E-03 0.  1.
     -623    1    1    2    0    0 -0.10297150719E-02 -0.15409700860E-02  0.15419440003E-02  0.17130000002E+03  0.17130000000E+03 0.  1.
      622    1    1    2    0    0 -0.38758750679E-02  0.18097081002E-02  0.39900181511E+01  0.39902209392E+01  0.40000000000E-01 0.  1.
</event>
<event>
 5   0  0.6200596E+07  0.9118800E+02  0.7818608E-02  0.1180000E+00
       11   -1    0    0    0    0  0.00000000000E+00  0.00000000000E+00  0.39999999673E+01  0.40000000000E+01  0.51109989000E-03 0.  1.
     -623   -1    0    0    0    0  0.00000000000E+00  0.00000000000E+00  0.12525980253E-10  0.17130000000E+03  0.17130000000E+03 0. -1.
       11    1    1    2    0    0 -0.89854915445E-02  0.10755569223E-02  0.10539883355E+00  0.10578785949E+00  0.51109989000E-03 0.  1.
     -623    1    1    2    0    0  0.12575566245E-01 -0.17673779893E-01  0.63283651201E-03  0.17130000137E+03  0.17130000000E+03 0. -1.
      622    1    1    2    0    0 -0.35900747005E-02  0.16598222971E-01  0.38939682973E+01  0.38942107660E+01  0.40000000000E-01 0.  1.
</event>
<event>
 5   0  0.6200596E+07  0.9118800E+02  0.7818608E-02  0.1180000E+00
       11   -1    0    0    0    0  0.00000000000E+00  0.00000000000E+00  0.39999999673E+01  0.40000000000E+01  0.51109989000E-03 0.  1.
     -623   -1    0    0    0    0  0.00000000000E+00  0.00000000000E+00  0.12525980253E-10  0.17130000000E+03  0.17130000000E+03 0. -1.
       11    1    1    2    0    0 -0.17555151516E-04  0.28398486545E-03  0.39501309807E-02  0.39932083432E-02  0.51109989000E-03 0.  1.
     -623    1    1    2    0    0  0.20255066302E-02  0.54881302625E-03  0.24385392385E-03  0.17130000001E+03  0.17130000000E+03 0. -1.
      622    1    1    2    0    0 -0.20079514787E-02 -0.83279789170E-03  0.39958059825E+01  0.39960067786E+01  0.40000000000E-01 0.  1.
</event>
<event>
 5   0  0.6200596E+07  0.9118800E+02  0.7818608E-02  0.1180000E+00
       11   -1    0    0    0    0  0.00000000000E+00  0.00000000000E+00  0.39999999673E+01  0.40000000000E+01  0.51109989000E-03 0.  1.
     -623   -1    0    0    0    0  0.00000000000E+00  0.00000000000E+00  0.12525980253E-10  0.17130000000E+03  0.17130000000E+03 0. -1.
       11    1    1    2    0    0  0.98059903822E-03  0.73196305924E-03  0.81523660240E-02  0.82595179606E-02  0.51109989000E-03 0.  1.
     -623    1    1    2    0    0 -0.15296344841E-02  0.80955500304E-03  0.30788260207E-03  0.17130000001E+03  0.17130000000E+03 0. -1.
      622    1    1    2    0    0  0.54903544593E-03 -0.15415180623E-02  0.39915397187E+01  0.39917404730E+01  0.40000000000E-01 0.  1.
</event>
<event>
 5   0  0.6200596E+07  0.9118800E+02  0.7818608E-02  0.1180000E+00
       11   -1    0    0    0    0  0.00000000000E+00  0.00000000000E+00  0.39999999673E+01  0.40000000000E+01  0.51109989000E-03 0.  1.
     -623   -1    0    0    0    0  0.00000000000E+00  0.00000000000E+00  0.12525980253E-10  0.17130000000E+03  0.17130000000E+03 0. -1.
       11    1    1    2    0    0  0.12342687391E-01  0.11734956252E-01  0.12970911709E+01  0.12972030750E+01  0.51109989000E-03 0.  1.
     -623    1    1    2    0    0  0.31735303152E-02  0.25332959405E-01  0.70855565247E-03  0.17130000190E+03  0.17130000000E+03 0. -1.
      622    1    1    2    0    0 -0.15516217706E-01 -0.37067915657E-01  0.27022002409E+01  0.27027950209E+01  0.40000000000E-01 0.  0.
</event>
<event>
 5   0  0.6200596E+07  0.9118800E+02  0.7818608E-02  0.1180000E+00
       11   -1    0    0    0    0  0.00000000000E+00  0.00000000000E+00  0.39999999673E+01  0.40000000000E+01  0.51109989000E-03 0. -1.
     -623   -1    0    0    0    0  0.00000000000E+00  0.00000000000E+00  0.12525980253E-10  0.17130000000E+03  0.17130000000E+03 0.  1.
       11    1    1    2    0    0  0.31175392079E-03  0.78201533129E-03  0.20452635265E-02  0.22700356038E-02  0.51109989000E-03 0. -1.
     -623    1    1    2    0    0 -0.66619006778E-03  0.55484556409E-03  0.42509998430E-03  0.17130000000E+03  0.17130000000E+03 0.  1.
      622    1    1    2    0    0  0.35443614700E-03 -0.13368608954E-02  0.39975296038E+01  0.39977299617E+01  0.40000000000E-01 0. -1.
</event>
<event>
 5   0  0.6200596E+07  0.9118800E+02  0.7818608E-02  0.1180000E+00
       11   -1    0    0    0    0  0.00000000000E+00  0.00000000000E+00  0.39999999673E+01  0.40000000000E+01  0.51109989000E-03 0.  1.
     -623   -1    0    0    0    0  0.00000000000E+00  0.00000000000E+00  0.12525980253E-10  0.17130000000E+03  0.17130000000E+03 0.  1.
       11    1    1    2    0    0  0.38803440913E-02  0.11758819716E-02  0.37288518245E-01  0.37511792574E-01  0.51109989000E-03 0.  1.
     -623    1    1    2    0    0 -0.12593889730E-02  0.12775771660E-02  0.42677654701E-03  0.17130000001E+03  0.17130000000E+03 0.  1.
      622    1    1    2    0    0 -0.26209551183E-02 -0.24534591376E-02  0.39622846726E+01  0.39624881975E+01  0.40000000000E-01 0.  1.
</event>
<event>
 5   0  0.6200596E+07  0.9118800E+02  0.7818608E-02  0.1180000E+00
       11   -1    0    0    0    0  0.00000000000E+00  0.00000000000E+00  0.39999999673E+01  0.40000000000E+01  0.51109989000E-03 0.  1.
     -623   -1    0    0    0    0  0.00000000000E+00  0.00000000000E+00  0.12525980253E-10  0.17130000000E+03  0.17130000000E+03 0. -1.
       11    1    1    2    0    0 -0.17566109462E-02  0.48432296554E-03  0.11157882090E+00  0.11159486882E+00  0.51109989000E-03 0.  1.
     -623    1    1    2    0    0  0.38395683915E-03 -0.83962323605E-03  0.22202175993E-03  0.17130000000E+03  0.17130000000E+03 0. -1.
      622    1    1    2    0    0  0.13726541071E-02  0.35530027051E-03  0.38881991247E+01  0.38884051286E+01  0.40000000000E-01 0.  1.
</event>
<event>
 5   0  0.6200596E+07  0.9118800E+02  0.7818608E-02  0.1180000E+00
       11   -1    0    0    0    0  0.00000000000E+00  0.00000000000E+00  0.39999999673E+01  0.40000000000E+01  0.51109989000E-03 0. -1.
     -623   -1    0    0    0    0  0.00000000000E+00  0.00000000000E+00  0.12525980253E-10  0.17130000000E+03  0.17130000000E+03 0. -1.
       11    1    1    2    0    0  0.31494157283E-02 -0.42915463533E-02  0.31219831349E-02  0.61922684630E-02  0.51109989000E-03 0. -1.
     -623    1    1    2    0    0 -0.24975368457E-02  0.63884671517E-02  0.32713401004E-02  0.17130000017E+03  0.17130000000E+03 0. -1.
      622    1    1    2    0    0 -0.65187888264E-03 -0.20969207984E-02  0.39936066441E+01  0.39938075630E+01  0.40000000000E-01 0. -1.
</event>
<event>
 5   0  0.6200596E+07  0.9118800E+02  0.7818608E-02  0.1180000E+00
       11   -1    0    0    0    0  0.00000000000E+00  0.00000000000E+00  0.39999999673E+01  0.40000000000E+01  0.51109989000E-03 0.  1.
     -623   -1    0    0    0    0  0.00000000000E+00  0.00000000000E+00  0.12525980253E-10  0.17130000000E+03  0.17130000000E+03 0.  1.
       11    1    1    2    0    0  0.17747654287E-01  0.38053486235E-02  0.16242922467E+01  0.16243937403E+01  0.51109989000E-03 0.  1.
     -623    1    1    2    0    0 -0.14926639631E-02  0.79624194557E-03  0.49832816168E-03  0.17130000001E+03  0.17130000000E+03 0.  1.
      622    1    1    2    0    0 -0.16254990324E-01 -0.46015905690E-02  0.23752093925E+01  0.23756062506E+01  0.40000000000E-01 0.  1.
</event>
<event>
 5   0  0.6200596E+07  0.9118800E+02  0.7818608E-02  0.1180000E+00
       11   -1    0    0    0    0  0.00000000000E+00  0.00000000000E+00  0.39999999673E+01  0.40000000000E+01  0.51109989000E-03 0. -1.
     -623   -1    0    0    0    0  0.00000000000E+00  0.00000000000E+00  0.12525980253E-10  0.17130000000E+03  0.17130000000E+03 0. -1.
       11    1    1    2    0    0  0.20014051833E-02 -0.17756248283E-01  0.77487200813E+00  0.77507817682E+00  0.51109989000E-03 0. -1.
     -623    1    1    2    0    0  0.44893059344E-02  0.15049612298E-02  0.50176303680E-03  0.17130000007E+03  0.17130000000E+03 0. -1.
      622    1    1    2    0    0 -0.64907111178E-02  0.16251287053E-01  0.32246261962E+01  0.32249217570E+01  0.40000000000E-01 0. -1.
</event>
<event>
 5   0  0.6200596E+07  0.9118800E+02  0.7818608E-02  0.1180000E+00
       11   -1    0    0    0    0  0.00000000000E+00  0.00000000000E+00  0.39999999673E+01  0.40000000000E+01  0.51109989000E-03 0.  1.
     -623   -1    0    0    0    0  0.00000000000E+00  0.00000000000E+00  0.12525980253E-10  0.17130000000E+03  0.17130000000E+03 0. -1.
       11    1    1    2    0    0 -0.11329354239E-02  0.89815249694E-03  0.39805234877E-02  0.42656781036E-02  0.51109989000E-03 0.  1.
     -623    1    1    2    0    0 -0.31432763479E-03 -0.86711997062E-03  0.48560590968E-03  0.17130000000E+03  0.17130000000E+03 0. -1.
      622    1    1    2    0    0  0.14472630587E-02 -0.31032526317E-04  0.39955338380E+01  0.39957343187E+01  0.40000000000E-01 0.  1.
</event>
<event>
 5   0  0.6200596E+07  0.9118800E+02  0.7818608E-02  0.1180000E+00
       11   -1    0    0    0    0  0.00000000000E+00  0.00000000000E+00  0.39999999673E+01  0.40000000000E+01  0.51109989000E-03 0.  1.
     -623   -1    0    0    0    0  0.00000000000E+00  0.00000000000E+00  0.12525980253E-10  0.17130000000E+03  0.17130000000E+03 0. -1.
       11    1    1    2    0    0 -0.43502009342E-01 -0.33262896332E-01  0.17179650190E+01  0.17188376633E+01  0.51109989000E-03 0.  1.
     -623    1    1    2    0    0 -0.10118933045E-02  0.88617547540E-02  0.17885579282E-02  0.17130000024E+03  0.17130000000E+03 0. -1.
      622    1    1    2    0    0  0.44513902646E-01  0.24401141578E-01  0.22802463904E+01  0.22811620952E+01  0.40000000000E-01 0.  0.
</event>
<event>
 5   0  0.6200596E+07  0.9118800E+02  0.7818608E-02  0.1180000E+00
       11   -1    0    0    0    0  0.00000000000E+00  0.00000000000E+00  0.39999999673E+01  0.40000000000E+01  0.51109989000E-03 0.  1.
     -623   -1    0    0    0    0  0.00000000000E+00  0.00000000000E+00  0.12525980253E-10  0.17130000000E+03  0.17130000000E+03 0. -1.
       11    1    1    2    0    0  0.90661324141E-02 -0.10024844915E-03  0.41677722847E+00  0.41687614971E+00  0.51109989000E-03 0.  1.
     -623    1    1    2    0    0 -0.12774634270E-01  0.11865541645E-02  0.32472913816E-03  0.17130000048E+03  0.17130000000E+03 0. -1.
      622    1    1    2    0    0  0.37085018557E-02 -0.10863057153E-02  0.35828980098E+01  0.35831233695E+01  0.40000000000E-01 0.  0.
</event>
<event>
 5   0  0.6200596E+07  0.9118800E+02  0.7818608E-02  0.1180000E+00
       11   -1    0    0    0    0  0.00000000000E+00  0.00000000000E+00  0.39999999673E+01  0.40000000000E+01  0.51109989000E-03 0.  1.
     -623   -1    0    0    0    0  0.00000000000E+00  0.00000000000E+00  0.12525980253E-10  0.17130000000E+03  0.17130000000E+03 0. -1.
       11    1    1    2    0    0  0.16099344806E-01  0.29797236381E-02  0.11593681256E+01  0.11594838419E+01  0.51109989000E-03 0.  1.
     -623    1    1    2    0    0 -0.20936036891E-02  0.39733799890E-03  0.43389075305E-03  0.17130000001E+03  0.17130000000E+03 0. -1.
      622    1    1    2    0    0 -0.14005741117E-01 -0.33770616370E-02  0.28401979510E+01  0.28405161443E+01  0.40000000000E-01 0.  1.
</event>
<event>
 5   0  0.6200596E+07  0.9118800E+02  0.7818608E-02  0.1180000E+00
       11   -1    0    0    0    0  0.00000000000E+00  0.00000000000E+00  0.39999999673E+01  0.40000000000E+01  0.51109989000E-03 0.  1.
     -623   -1    0    0    0    0  0.00000000000E+00  0.00000000000E+00  0.12525980253E-10  0.17130000000E+03  0.17130000000E+03 0.  1.
       11    1    1    2    0    0  0.15404855778E-01  0.17322551728E-01  0.20069986538E+01  0.20071325910E+01  0.51109989000E-03 0.  1.
     -623    1    1    2    0    0 -0.10478818164E-01 -0.31233657225E-01  0.59319917333E-03  0.17130000317E+03  0.17130000000E+03 0.  1.
      622    1    1    2    0    0 -0.49260376138E-02  0.13911105497E-01  0.19924081144E+01  0.19928642400E+01  0.40000000000E-01 0.  1.
</event>
<event>
 5   0  0.6200596E+07  0.9118800E+02  0.7818608E-02  0.1180000E+00
       11   -1    0    0    0    0  0.00000000000E+00  0.00000000000E+00  0.39999999673E+01  0.40000000000E+01  0.51109989000E-03 0. -1.
     -623   -1    0    0    0    0  0.00000000000E+00  0.00000000000E+00  0.12525980253E-10  0.17130000000E+03  0.17130000000E+03 0. -1.
       11    1    1    2    0    0 -0.44684038622E-02  0.78436909610E-02  0.14689734869E+00  0.14717534574E+00  0.51109989000E-03 0. -1.
     -623    1    1    2    0    0  0.19408976283E-02 -0.52123053823E-02  0.48742859097E-03  0.17130000009E+03  0.17130000000E+03 0. -1.
      622    1    1    2    0    0  0.25275062338E-02 -0.26313855787E-02  0.38526151901E+01  0.38528245633E+01  0.40000000000E-01 0. -1.
</event>
<event>
 5   0  0.6200596E+07  0.9118800E+02  0.7818608E-02  0.1180000E+00
       11   -1    0    0    0    0  0.00000000000E+00  0.00000000000E+00  0.39999999673E+01  0.40000000000E+01  0.51109989000E-03 0. -1.
     -623   -1    0    0    0    0  0.00000000000E+00  0.00000000000E+00  0.12525980253E-10  0.17130000000E+03  0.17130000000E+03 0. -1.
       11    1    1    2    0    0  0.10085028712E-02  0.31003826921E-03  0.30247599321E-02  0.32440090521E-02  0.51109989000E-03 0. -1.
     -623    1    1    2    0    0 -0.62885947942E-04  0.57607002357E-03  0.41959542201E-03  0.17130000000E+03  0.17130000000E+03 0. -1.
      622    1    1    2    0    0 -0.94561692327E-03 -0.88610829278E-03  0.39965556120E+01  0.39967559895E+01  0.40000000000E-01 0. -1.
</event>
<event>
 5   0  0.6200596E+07  0.9118800E+02  0.7818608E-02  0.1180000E+00
       11   -1    0    0    0    0  0.00000000000E+00  0.00000000000E+00  0.39999999673E+01  0.40000000000E+01  0.51109989000E-03 0. -1.
     -623   -1    0    0    0    0  0.00000000000E+00  0.00000000000E+00  0.12525980253E-10  0.17130000000E+03  0.17130000000E+03 0. -1.
       11    1    1    2    0    0  0.18931021939E-01 -0.45640127253E-02  0.17029193259E+01  0.17030307412E+01  0.51109989000E-03 0. -1.
     -623    1    1    2    0    0 -0.11551865608E-01  0.21361843840E-02  0.47323576357E-03  0.17130000040E+03  0.17130000000E+03 0. -1.
      622    1    1    2    0    0 -0.73791563308E-02  0.24278283413E-02  0.22966074057E+01  0.22969688553E+01  0.40000000000E-01 0.  0.
</event>
<event>
 5   0  0.6200596E+07  0.9118800E+02  0.7818608E-02  0.1180000E+00
       11   -1    0    0    0    0  0.00000000000E+00  0.00000000000E+00  0.39999999673E+01  0.40000000000E+01  0.51109989000E-03 0.  1.
     -623   -1    0    0    0    0  0.00000000000E+00  0.00000000000E+00  0.12525980253E-10  0.17130000000E+03  0.17130000000E+03 0. -1.
       11    1    1    2    0    0  0.90862200102E-02  0.11067506246E-01  0.37141587201E-01  0.39809644696E-01  0.51109989000E-03 0.  1.
     -623    1    1    2    0    0 -0.16375239384E-01 -0.14051007560E-01  0.28792559673E-02  0.17130000138E+03  0.17130000000E+03 0. -1.
      622    1    1    2    0    0  0.72890193740E-02  0.29835013146E-02  0.39599791242E+01  0.39601889721E+01  0.40000000000E-01 0.  1.
</event>
<event>
 5   0  0.6200596E+07  0.9118800E+02  0.7818608E-02  0.1180000E+00
       11   -1    0    0    0    0  0.00000000000E+00  0.00000000000E+00  0.39999999673E+01  0.40000000000E+01  0.51109989000E-03 0.  1.
     -623   -1    0    0    0    0  0.00000000000E+00  0.00000000000E+00  0.12525980253E-10  0.17130000000E+03  0.17130000000E+03 0.  1.
       11    1    1    2    0    0 -0.17284015557E-01  0.21418168296E-01  0.15772370791E+00  0.16010778990E+00  0.51109989000E-03 0.  1.
     -623    1    1    2    0    0  0.16066293154E-01 -0.16679825409E-01  0.25970962215E-02  0.17130000159E+03  0.17130000000E+03 0.  1.
      622    1    1    2    0    0  0.12177224028E-02 -0.47383428874E-02  0.38396791632E+01  0.38398906249E+01  0.40000000000E-01 0.  1.
</event>
<event>
 5   0  0.6200596E+07  0.9118800E+02  0.7818608E-02  0.1180000E+00
       11   -1    0    0    0    0  0.00000000000E+00  0.00000000000E+00  0.39999999673E+01  0.40000000000E+01  0.51109989000E-03 0. -1.
     -623   -1    0    0    0    0  0.00000000000E+00  0.00000000000E+00  0.12525980253E-10  0.17130000000E+03  0.17130000000E+03 0.  1.
       11    1    1    2    0    0  0.95606321282E-02  0.54419592630E-02  0.19775248079E-01  0.22634978844E-01  0.51109989000E-03 0. -1.
     -623    1    1    2    0    0 -0.38571889253E-02 -0.12460628083E-01  0.30716481855E-02  0.17130000052E+03  0.17130000000E+03 0.  1.
      622    1    1    2    0    0 -0.57034432029E-02  0.70186688196E-02  0.39771530711E+01  0.39773644970E+01  0.40000000000E-01 0. -1.
</event>
<event>
 5   0  0.6200596E+07  0.9118800E+02  0.7818608E-02  0.1180000E+00
       11   -1    0    0    0    0  0.00000000000E+00  0.00000000000E+00  0.39999999673E+01  0.40000000000E+01  0.51109989000E-03 0. -1.
     -623   -1    0    0    0    0  0.00000000000E+00  0.00000000000E+00  0.12525980253E-10  0.17130000000E+03  0.17130000000E+03 0. -1.
       11    1    1    2    0    0 -0.65033202578E-02 -0.17236057788E-01  0.22375507841E+00  0.22451274173E+00  0.51109989000E-03 0. -1.
     -623    1    1    2    0    0  0.45846875957E-02  0.14777583913E-02  0.10029763477E-02  0.17130000007E+03  0.17130000000E+03 0. -1.
      622    1    1    2    0    0  0.19186326621E-02  0.15758299397E-01  0.37752419126E+01  0.37754871876E+01  0.40000000000E-01 0. -1.
</event>
<event>
 5   0  0.6200596E+07  0.9118800E+02  0.7818608E-02  0.1180000E+00
       11   -1    0    0    0    0  0.00000000000E+00  0.00000000000E+00  0.39999999673E+01  0.40000000000E+01  0.51109989000E-03 0.  1.
     -623   -1    0    0    0    0  0.00000000000E+00  0.00000000000E+00  0.12525980253E-10  0.17130000000E+03  0.17130000000E+03 0. -1.
       11    1    1    2    0    0 -0.18425246267E-02 -0.29839458493E-02  0.45957444510E+00  0.45958810976E+00  0.51109989000E-03 0.  1.
     -623    1    1    2    0    0  0.41753675771E-02 -0.28714572975E-02  0.24528777827E-03  0.17130000008E+03  0.17130000000E+03 0. -1.
      622    1    1    2    0    0 -0.23328429504E-02  0.58554031468E-02  0.35401802345E+01  0.35404118151E+01  0.40000000000E-01 0.  1.
</event>
<event>
 5   0  0.6200596E+07  0.9118800E+02  0.7818608E-02  0.1180000E+00
       11   -1    0    0    0    0  0.00000000000E+00  0.00000000000E+00  0.39999999673E+01  0.40000000000E+01  0.51109989000E-03 0.  1.
     -623   -1    0    0    0    0  0.00000000000E+00  0.00000000000E+00  0.12525980253E-10  0.17130000000E+03  0.17130000000E+03 0.  1.
       11    1    1    2    0    0 -0.10367988707E-02  0.11931597199E-01  0.13207576382E+00  0.13261865092E+00  0.51109989000E-03 0.  1.
     -623    1    1    2    0    0  0.64500998298E-02  0.17134577063E-03  0.77256949324E-03  0.17130000012E+03  0.17130000000E+03 0.  1.
      622    1    1    2    0    0 -0.54133009591E-02 -0.12102942970E-01  0.38671516340E+01  0.38673812258E+01  0.40000000000E-01 0.  1.
</event>
<event>
 5   0  0.6200596E+07  0.9118800E+02  0.7818608E-02  0.1180000E+00
       11   -1    0    0    0    0  0.00000000000E+00  0.00000000000E+00  0.39999999673E+01  0.40000000000E+01  0.51109989000E-03 0.  1.
     -623   -1    0    0    0    0  0.00000000000E+00  0.00000000000E+00  0.12525980253E-10  0.17130000000E+03  0.17130000000E+03 0. -1.
       11    1    1    2    0    0 -0.68156123931E-02 -0.27424905405E-02  0.15349653936E+01  0.15349830601E+01  0.51109989000E-03 0.  1.
     -623    1    1    2    0    0  0.15573018236E-02  0.11860078880E-02  0.34830874490E-03  0.17130000001E+03  0.17130000000E+03 0. -1.
      622    1    1    2    0    0  0.52583105695E-02  0.15564826525E-02  0.24646862650E+01  0.24650169284E+01  0.40000000000E-01 0.  1.
</event>
<event>
 5   0  0.6200596E+07  0.9118800E+02  0.7818608E-02  0.1180000E+00
       11   -1    0    0    0    0  0.00000000000E+00  0.00000000000E+00  0.39999999673E+01  0.40000000000E+01  0.51109989000E-03 0.  1.
     -623   -1    0    0    0    0  0.00000000000E+00  0.00000000000E+00  0.12525980253E-10  0.17130000000E+03  0.17130000000E+03 0.  1.
       11    1    1    2    0    0  0.59667407090E-03 -0.11609951776E-03  0.32066083030E-02  0.33034915612E-02  0.51109989000E-03 0.  1.
     -623    1    1    2    0    0 -0.14160507451E-02  0.79279715137E-03  0.29717017350E-03  0.17130000001E+03  0.17130000000E+03 0.  1.
      622    1    1    2    0    0  0.81937667416E-03 -0.67669763361E-03  0.39964961889E+01  0.39966965005E+01  0.40000000000E-01 0.  1.
</event>
<event>
 5   0  0.6200596E+07  0.9118800E+02  0.7818608E-02  0.1180000E+00
       11   -1    0    0    0    0  0.00000000000E+00  0.00000000000E+00  0.39999999673E+01  0.40000000000E+01  0.51109989000E-03 0. -1.
     -623   -1    0    0    0    0  0.00000000000E+00  0.00000000000E+00  0.12525980253E-10  0.17130000000E+03  0.17130000000E+03 0. -1.
       11    1    1    2    0    0  0.13619581584E-01  0.28339081403E-02  0.15034231604E+00  0.15098542065E+00  0.51109989000E-03 0. -1.
     -623    1    1    2    0    0 -0.88446418991E-04 -0.16227246532E-02  0.87490909132E-03  0.17130000001E+03  0.17130000000E+03 0. -1.
      622    1    1    2    0    0 -0.13531135165E-01 -0.12111834871E-02  0.38487827422E+01  0.38490145694E+01  0.40000000000E-01 0. -1.
</event>
<event>
 5   0  0.6200596E+07  0.9118800E+02  0.7818608E-02  0.1180000E+00
       11   -1    0    0    0    0  0.00000000000E+00  0.00000000000E+00  0.39999999673E+01  0.40000000000E+01  0.51109989000E-03 0.  1.
     -623   -1    0    0    0    0  0.00000000000E+00  0.00000000000E+00  0.12525980253E-10  0.17130000000E+03  0.17130000000E+03 0.  1.
       11    1    1    2    0    0 -0.10763371836E-02  0.13441325262E-02  0.15593798146E-01  0.15696909131E-01  0.51109989000E-03 0.  1.
     -623    1    1    2    0    0  0.63443271056E-03  0.53684665570E-04  0.30414251347E-03  0.17130000000E+03  0.17130000000E+03 0.  1.
      622    1    1    2    0    0  0.44190447303E-03 -0.13978171918E-02  0.39841020267E+01  0.39843030894E+01  0.40000000000E-01 0.  1.
</event>
<event>
 5   0  0.6200596E+07  0.9118800E+02  0.7818608E-02  0.1180000E+00
       11   -1    0    0    0    0  0.00000000000E+00  0.00000000000E+00  0.39999999673E+01  0.40000000000E+01  0.51109989000E-03 0.  1.
     -623   -1    0    0    0    0  0.00000000000E+00  0.00000000000E+00  0.12525980253E-10  0.17130000000E+03  0.17130000000E+03 0.  1.
       11    1    1    2    0    0  0.14828728827E-02  0.20813876500E-02  0.16616247067E-01  0.16819392830E-01  0.51109989000E-03 0.  1.
     -623    1    1    2    0    0  0.16836474133E-02 -0.19722981415E-02  0.40524302229E-03  0.17130000002E+03  0.17130000000E+03 0.  1.
      622    1    1    2    0    0 -0.31665202960E-02 -0.10908950847E-03  0.39829784773E+01  0.39831805871E+01  0.40000000000E-01 0.  1.
</event>
<event>
 5   0  0.6200596E+07  0.9118800E+02  0.7818608E-02  0.1180000E+00
       11   -1    0    0    0    0  0.00000000000E+00  0.00000000000E+00  0.39999999673E+01  0.40000000000E+01  0.51109989000E-03 0. -1.
     -623   -1    0    0    0    0  0.00000000000E+00  0.00000000000E+00  0.12525980253E-10  0.17130000000E+03  0.17130000000E+03 0. -1.
       11    1    1    2    0    0  0.23540739965E-02  0.55469417419E-03  0.63448438238E-02  0.68093770200E-02  0.51109989000E-03 0. -1.
     -623    1    1    2    0    0 -0.63265400960E-05 -0.15359899532E-02  0.66566558999E-03  0.17130000001E+03  0.17130000000E+03 0. -1.
      622    1    1    2    0    0 -0.23477474564E-02  0.98129577901E-03  0.39929894579E+01  0.39931906148E+01  0.40000000000E-01 0. -1.
</event>
<event>
 5   0  0.6200596E+07  0.9118800E+02  0.7818608E-02  0.1180000E+00
       11   -1    0    0    0    0  0.00000000000E+00  0.00000000000E+00  0.39999999673E+01  0.40000000000E+01  0.51109989000E-03 0.  1.
     -623   -1    0    0    0    0  0.00000000000E+00  0.00000000000E+00  0.12525980253E-10  0.17130000000E+03  0.17130000000E+03 0. -1.
       11    1    1    2    0    0 -0.41987986350E-02 -0.12151083668E-01  0.20918856178E+00  0.20958385993E+00  0.51109989000E-03 0.  1.
     -623    1    1    2    0    0  0.24294100515E-02 -0.61670741786E-03  0.62826753880E-03  0.17130000002E+03  0.17130000000E+03 0. -1.
      622    1    1    2    0    0  0.17693885836E-02  0.12767791086E-01  0.37901831380E+01  0.37904161206E+01  0.40000000000E-01 0.  1.
</event>
<event>
 5   0  0.6200596E+07  0.9118800E+02  0.7818608E-02  0.1180000E+00
       11   -1    0    0    0    0  0.00000000000E+00  0.00000000000E+00  0.39999999673E+01  0.40000000000E+01  0.51109989000E-03 0.  1.
     -623   -1    0    0    0    0  0.00000000000E+00  0.00000000000E+00  0.12525980253E-10  0.17130000000E+03  0.17130000000E+03 0.  1.
       11    1    1    2    0    0 -0.27414317103E-02 -0.97063150904E-02  0.63629089979E+00  0.63637103829E+00  0.51109989000E-03 0.  1.
     -623    1    1    2    0    0 -0.65242649396E-03  0.84817806113E-03  0.33133342709E-03  0.17130000000E+03  0.17130000000E+03 0.  1.
      622    1    1    2    0    0  0.33938582043E-02  0.88581370292E-02  0.33633777341E+01  0.33636289580E+01  0.40000000000E-01 0.  1.
</event>
<event>
 5   0  0.6200596E+07  0.9118800E+02  0.7818608E-02  0.1180000E+00
       11   -1    0    0    0    0  0.00000000000E+00  0.00000000000E+00  0.39999999673E+01  0.40000000000E+01  0.51109989000E-03 0.  1.
     -623   -1    0    0    0    0  0.00000000000E+00  0.00000000000E+00  0.12525980253E-10  0.17130000000E+03  0.17130000000E+03 0.  1.
       11    1    1    2    0    0  0.42411185107E-02 -0.57001196586E-02  0.55893298588E+00  0.55897837380E+00  0.51109989000E-03 0.  1.
     -623    1    1    2    0    0 -0.64307341631E-03  0.36116270621E-04  0.28439678329E-03  0.17130000000E+03  0.17130000000E+03 0.  1.
      622    1    1    2    0    0 -0.35980450944E-02  0.56640033880E-02  0.34407825847E+01  0.34410216248E+01  0.40000000000E-01 0.  1.
</event>
<event>
 5   0  0.6200596E+07  0.9118800E+02  0.7818608E-02  0.1180000E+00
       11   -1    0    0    0    0  0.00000000000E+00  0.00000000000E+00  0.39999999673E+01  0.40000000000E+01  0.51109989000E-03 0. -1.
     -623   -1    0    0    0    0  0.00000000000E+00  0.00000000000E+00  0.12525980253E-10  0.17130000000E+03  0.17130000000E+03 0.  1.
       11    1    1    2    0    0 -0.11949961356E-01 -0.22017486503E-01  0.54804479614E+00  0.54861729019E+00  0.51109989000E-03 0. -1.
     -623    1    1    2    0    0  0.82915764117E-02  0.23726232890E-02  0.86233103080E-03  0.17130000022E+03  0.17130000000E+03 0.  1.
      622    1    1    2    0    0  0.36583849441E-02  0.19644863214E-01  0.34510928402E+01  0.34513824905E+01  0.40000000000E-01 0. -1.
</event>
<event>
 5   0  0.6200596E+07  0.9118800E+02  0.7818608E-02  0.1180000E+00
       11   -1    0    0    0    0  0.00000000000E+00  0.00000000000E+00  0.39999999673E+01  0.40000000000E+01  0.51109989000E-03 0. -1.
     -623   -1    0    0    0    0  0.00000000000E+00  0.00000000000E+00  0.12525980253E-10  0.17130000000E+03  0.17130000000E+03 0.  1.
       11    1    1    2    0    0  0.11157670172E-01 -0.11809744086E+00  0.14922535019E+01  0.14969610129E+01  0.51109989000E-03 0. -1.
     -623    1    1    2    0    0 -0.16110272811E-01 -0.45125134054E-02  0.80382009924E-02  0.17130000101E+03  0.17130000000E+03 0.  1.
      622    1    1    2    0    0  0.49526026385E-02  0.12260995427E+00  0.24997082645E+01  0.25030379815E+01  0.40000000000E-01 0. -1.
</event>
<event>
 5   0  0.6200596E+07  0.9118800E+02  0.7818608E-02  0.1180000E+00
       11   -1    0    0    0    0  0.00000000000E+00  0.00000000000E+00  0.39999999673E+01  0.40000000000E+01  0.51109989000E-03 0. -1.
     -623   -1    0    0    0    0  0.00000000000E+00  0.00000000000E+00  0.12525980253E-10  0.17130000000E+03  0.17130000000E+03 0. -1.
       11    1    1    2    0    0 -0.26587525269E-01  0.89252502621E-02  0.63046029851E+00  0.63108399267E+00  0.51109989000E-03 0. -1.
     -623    1    1    2    0    0 -0.15560719758E-01 -0.29906927793E-02  0.11307851493E-02  0.17130000074E+03  0.17130000000E+03 0. -1.
      622    1    1    2    0    0  0.42148245027E-01 -0.59345574828E-02  0.33684088837E+01  0.33689152707E+01  0.40000000000E-01 0. -1.
</event>
<event>
 5   0  0.6200596E+07  0.9118800E+02  0.7818608E-02  0.1180000E+00
       11   -1    0    0    0    0  0.00000000000E+00  0.00000000000E+00  0.39999999673E+01  0.40000000000E+01  0.51109989000E-03 0. -1.
     -623   -1    0    0    0    0  0.00000000000E+00  0.00000000000E+00  0.12525980253E-10  0.17130000000E+03  0.17130000000E+03 0. -1.
       11    1    1    2    0    0  0.19059880135E-02 -0.37355469833E-02  0.38551453928E-01  0.38782250118E-01  0.51109989000E-03 0. -1.
     -623    1    1    2    0    0 -0.39837778749E-03  0.49238477125E-02  0.43326372797E-03  0.17130000007E+03  0.17130000000E+03 0. -1.
      622    1    1    2    0    0 -0.15076102260E-02 -0.11883007293E-02  0.39610152497E+01  0.39612176781E+01  0.40000000000E-01 0. -1.
</event>
<event>
 5   0  0.6200596E+07  0.9118800E+02  0.7818608E-02  0.1180000E+00
       11   -1    0    0    0    0  0.00000000000E+00  0.00000000000E+00  0.39999999673E+01  0.40000000000E+01  0.51109989000E-03 0. -1.
     -623   -1    0    0    0    0  0.00000000000E+00  0.00000000000E+00  0.12525980253E-10  0.17130000000E+03  0.17130000000E+03 0.  1.
       11    1    1    2    0    0 -0.10906569318E-01  0.18534410891E-01  0.15750424020E-01  0.26661108749E-01  0.51109989000E-03 0. -1.
     -623    1    1    2    0    0  0.25836275540E-02 -0.38315204531E-01  0.11174627045E-01  0.17130000467E+03  0.17130000000E+03 0.  1.
      622    1    1    2    0    0  0.83229417643E-02  0.19780793641E-01  0.39730749163E+01  0.39733342222E+01  0.40000000000E-01 0. -1.
</event>
<event>
 5   0  0.6200596E+07  0.9118800E+02  0.7818608E-02  0.1180000E+00
       11   -1    0    0    0    0  0.00000000000E+00  0.00000000000E+00  0.39999999673E+01  0.40000000000E+01  0.51109989000E-03 0.  1.
     -623   -1    0    0    0    0  0.00000000000E+00  0.00000000000E+00  0.12525980253E-10  0.17130000000E+03  0.17130000000E+03 0. -1.
       11    1    1    2    0    0  0.10553069707E-01 -0.17870370070E-01  0.35801003420E+00  0.35861143766E+00  0.51109989000E-03 0.  1.
     -623    1    1    2    0    0 -0.77472104219E-02 -0.42793497497E-02  0.88975641349E-03  0.17130000023E+03  0.17130000000E+03 0. -1.
      622    1    1    2    0    0 -0.28058592853E-02  0.22149719820E-01  0.36411001767E+01  0.36413883314E+01  0.40000000000E-01 0.  1.
</event>
<event>
 5   0  0.6200596E+07  0.9118800E+02  0.7818608E-02  0.1180000E+00
       11   -1    0    0    0    0  0.00000000000E+00  0.00000000000E+00  0.39999999673E+01  0.40000000000E+01  0.51109989000E-03 0. -1.
     -623   -1    0    0    0    0  0.00000000000E+00  0.00000000000E+00  0.12525980253E-10  0.17130000000E+03  0.17130000000E+03 0.  1.
       11    1    1    2    0    0 -0.15171318656E-04 -0.63068540098E-03  0.24247412352E+00  0.24247548286E+00  0.51109989000E-03 0. -1.
     -623    1    1    2    0    0  0.61760954056E-04  0.41084697801E-03  0.21424622626E-03  0.17130000000E+03  0.17130000000E+03 0.  1.
      622    1    1    2    0    0 -0.46589635400E-04  0.21983842296E-03  0.37573115976E+01  0.37575245165E+01  0.40000000000E-01 0. -1.
</event>
<event>
 5   0  0.6200596E+07  0.9118800E+02  0.7818608E-02  0.1180000E+00
       11   -1    0    0    0    0  0.00000000000E+00  0.00000000000E+00  0.39999999673E+01  0.40000000000E+01  0.51109989000E-03 0. -1.
     -623   -1    0    0    0    0  0.00000000000E+00  0.00000000000E+00  0.12525980253E-10  0.17130000000E+03  0.17130000000E+03 0.  1.
       11    1    1    2    0    0 -0.32164291250E-02  0.11381122431E-01  0.36814976420E+00  0.36834004054E+00  0.51109989000E-03 0. -1.
     -623    1    1    2    0    0 -0.27621270862E-02 -0.10102664300E-01  0.41600241767E-03  0.17130000032E+03  0.17130000000E+03 0.  1.
      622    1    1    2    0    0  0.59785562112E-02 -0.12784581313E-02  0.36314342007E+01  0.36316596388E+01  0.40000000000E-01 0. -1.
</event>
<event>
 5   0  0.6200596E+07  0.9118800E+02  0.7818608E-02  0.1180000E+00
       11   -1    0    0    0    0  0.00000000000E+00  0.00000000000E+00  0.39999999673E+01  0.40000000000E+01  0.51109989000E-03 0.  1.
     -623   -1    0    0    0    0  0.00000000000E+00  0.00000000000E+00  0.12525980253E-10  0.17130000000E+03  0.17130000000E+03 0. -1.
       11    1    1    2    0    0 -0.25661786619E-02  0.33908302947E-02  0.38918500718E-01  0.39153466289E-01  0.51109989000E-03 0.  1.
     -623    1    1    2    0    0  0.32376574555E-02  0.33694994884E-05  0.43845756911E-03  0.17130000003E+03  0.17130000000E+03 0. -1.
      622    1    1    2    0    0 -0.67147879359E-03 -0.33941997942E-02  0.39606430091E+01  0.39608465026E+01  0.40000000000E-01 0.  1.
</event>
<event>
 5   0  0.6200596E+07  0.9118800E+02  0.7818608E-02  0.1180000E+00
       11   -1    0    0    0    0  0.00000000000E+00  0.00000000000E+00  0.39999999673E+01  0.40000000000E+01  0.51109989000E-03 0. -1.
     -623   -1    0    0    0    0  0.00000000000E+00  0.00000000000E+00  0.12525980253E-10  0.17130000000E+03  0.17130000000E+03 0.  1.
       11    1    1    2    0    0  0.41044319543E-03  0.57632361699E-03  0.44155799135E+00  0.44155885401E+00  0.51109989000E-03 0. -1.
     -623    1    1    2    0    0  0.13647102520E-03  0.67663647832E-04  0.22575519723E-03  0.17130000000E+03  0.17130000000E+03 0.  1.
      622    1    1    2    0    0 -0.54691422062E-03 -0.64398726482E-03  0.35582162208E+01  0.35584411458E+01  0.40000000000E-01 0. -1.
</event>
<event>
 5   0  0.6200596E+07  0.9118800E+02  0.7818608E-02  0.1180000E+00
       11   -1    0    0    0    0  0.00000000000E+00  0.00000000000E+00  0.39999999673E+01  0.40000000000E+01  0.51109989000E-03 0. -1.
     -623   -1    0    0    0    0  0.00000000000E+00  0.00000000000E+00  0.12525980253E-10  0.17130000000E+03  0.17130000000E+03 0.  1.
       11    1    1    2    0    0  0.27994850833E-01  0.31545257351E-01  0.37977379487E+00  0.38210889995E+00  0.51109989000E-03 0. -1.
     -623    1    1    2    0    0 -0.97256146747E-02  0.57702551872E-02  0.27951871948E-02  0.17130000040E+03  0.17130000000E+03 0.  1.
      622    1    1    2    0    0 -0.18269236158E-01 -0.37315512538E-01  0.36174309853E+01  0.36178907040E+01  0.40000000000E-01 0. -1.
</event>
<event>
 5   0  0.6200596E+07  0.9118800E+02  0.7818608E-02  0.1180000E+00
       11   -1    0    0    0    0  0.00000000000E+00  0.00000000000E+00  0.39999999673E+01  0.40000000000E+01  0.51109989000E-03 0.  1.
     -623   -1    0    0    0    0  0.00000000000E+00  0.00000000000E+00  0.12525980253E-10  0.17130000000E+03  0.17130000000E+03 0. -1.
       11    1    1    2    0    0 -0.15261947594E-01  0.17202095427E-01  0.11050592987E+01  0.11052986719E+01  0.51109989000E-03 0.  1.
     -623    1    1    2    0    0 -0.42494512571E-02 -0.42510153943E-02  0.61056702969E-03  0.17130000011E+03  0.17130000000E+03 0. -1.
      622    1    1    2    0    0  0.19511398851E-01 -0.12951080032E-01  0.28943301016E+01  0.28947012216E+01  0.40000000000E-01 0.  1.
</event>
<event>
 5   0  0.6200596E+07  0.9118800E+02  0.7818608E-02  0.1180000E+00
       11   -1    0    0    0    0  0.00000000000E+00  0.00000000000E+00  0.39999999673E+01  0.40000000000E+01  0.51109989000E-03 0.  1.
     -623   -1    0    0    0    0  0.00000000000E+00  0.00000000000E+00  0.12525980253E-10  0.17130000000E+03  0.17130000000E+03 0. -1.
       11    1    1    2    0    0  0.38778419243E-03  0.38720175620E-02  0.20126296565E-01  0.20505412223E-01  0.51109989000E-03 0.  1.
     -623    1    1    2    0    0 -0.19115330201E-02 -0.77872090044E-02  0.58252511377E-03  0.17130000019E+03  0.17130000000E+03 0. -1.
      622    1    1    2    0    0  0.15237488277E-02  0.39151914423E-02  0.39792911457E+01  0.39794943991E+01  0.40000000000E-01 0.  1.
</event>
<event>
 5   0  0.6200596E+07  0.9118800E+02  0.7818608E-02  0.1180000E+00
       11   -1    0    0    0    0  0.00000000000E+00  0.00000000000E+00  0.39999999673E+01  0.40000000000E+01  0.51109989000E-03 0. -1.
     -623   -1    0    0    0    0  0.00000000000E+00  0.00000000000E+00  0.12525980253E-10  0.17130000000E+03  0.17130000000E+03 0. -1.
       11    1    1    2    0    0 -0.37219619053E-04  0.16884554330E-02  0.13625022730E+00  0.13626165245E+00  0.51109989000E-03 0. -1.
     -623    1    1    2    0    0 -0.91822634885E-03 -0.46691449487E-03  0.21876590272E-03  0.17130000000E+03  0.17130000000E+03 0. -1.
      622    1    1    2    0    0  0.95544596790E-03 -0.12215409381E-02  0.38635309742E+01  0.38637383443E+01  0.40000000000E-01 0. -1.
</event>
<event>
 5   0  0.6200596E+07  0.9118800E+02  0.7818608E-02  0.1180000E+00
       11   -1    0    0    0    0  0.00000000000E+00  0.00000000000E+00  0.39999999673E+01  0.40000000000E+01  0.51109989000E-03 0.  1.
     -623   -1    0    0    0    0  0.00000000000E+00  0.00000000000E+00  0.12525980253E-10  0.17130000000E+03  0.17130000000E+03 0. -1.
       11    1    1    2    0    0  0.14671065739E-02  0.46734847257E-02  0.11144878015E-01  0.12184555348E-01  0.51109989000E-03 0.  1.
     -623    1    1    2    0    0 -0.21558133230E-02 -0.59633678666E-02  0.12406507875E-02  0.17130000012E+03  0.17130000000E+03 0. -1.
      622    1    1    2    0    0  0.68870674910E-03  0.12898831409E-02  0.39876144386E+01  0.39878153228E+01  0.40000000000E-01 0.  1.
</event>
<event>
 5   0  0.6200596E+07  0.9118800E+02  0.7818608E-02  0.1180000E+00
       11   -1    0    0    0    0  0.00000000000E+00  0.00000000000E+00  0.39999999673E+01  0.40000000000E+01  0.51109989000E-03 0.  1.
     -623   -1    0    0    0    0  0.00000000000E+00  0.00000000000E+00  0.12525980253E-10  0.17130000000E+03  0.17130000000E+03 0. -1.
       11    1    1    2    0    0  0.41888849480E-02 -0.72481938661E-02  0.73133190552E+00  0.73137999721E+00  0.51109989000E-03 0.  1.
     -623    1    1    2    0    0  0.38166026771E-02 -0.49301153782E-03  0.31183522092E-03  0.17130000004E+03  0.17130000000E+03 0. -1.
      622    1    1    2    0    0 -0.80054876251E-02  0.77412054039E-02  0.32683562266E+01  0.32686199593E+01  0.40000000000E-01 0.  1.
</event>
<event>
 5   0  0.6200596E+07  0.9118800E+02  0.7818608E-02  0.1180000E+00
       11   -1    0    0    0    0  0.00000000000E+00  0.00000000000E+00  0.39999999673E+01  0.40000000000E+01  0.51109989000E-03 0. -1.
     -623   -1    0    0    0    0  0.00000000000E+00  0.00000000000E+00  0.12525980253E-10  0.17130000000E+03  0.17130000000E+03 0.  1.
       11    1    1    2    0    0  0.13486590886E-01 -0.71020895855E-02  0.65476200202E+00  0.65493959135E+00  0.51109989000E-03 0. -1.
     -623    1    1    2    0    0  0.25508063451E-02 -0.14204675221E-02  0.46605462456E-03  0.17130000003E+03  0.17130000000E+03 0.  1.
      622    1    1    2    0    0 -0.16037397231E-01  0.85225571075E-02  0.33447719107E+01  0.33450603831E+01  0.40000000000E-01 0.  0.
</event>
<event>
 5   0  0.6200596E+07  0.9118800E+02  0.7818608E-02  0.1180000E+00
       11   -1    0    0    0    0  0.00000000000E+00  0.00000000000E+00  0.39999999673E+01  0.40000000000E+01  0.51109989000E-03 0.  1.
     -623   -1    0    0    0    0  0.00000000000E+00  0.00000000000E+00  0.12525980253E-10  0.17130000000E+03  0.17130000000E+03 0.  1.
       11    1    1    2    0    0  0.17544005446E-02  0.27496683703E-02  0.41116420466E+00  0.41117745927E+00  0.51109989000E-03 0.  1.
     -623    1    1    2    0    0 -0.25459887270E-03 -0.20004007709E-03  0.23736284136E-03  0.17130000000E+03  0.17130000000E+03 0.  1.
      622    1    1    2    0    0 -0.14998016719E-02 -0.25496282932E-02  0.35885983999E+01  0.35888225403E+01  0.40000000000E-01 0.  1.
</event>
<event>
 5   0  0.6200596E+07  0.9118800E+02  0.7818608E-02  0.1180000E+00
       11   -1    0    0    0    0  0.00000000000E+00  0.00000000000E+00  0.39999999673E+01  0.40000000000E+01  0.51109989000E-03 0. -1.
     -623   -1    0    0    0    0  0.00000000000E+00  0.00000000000E+00  0.12525980253E-10  0.17130000000E+03  0.17130000000E+03 0.  1.
       11    1    1    2    0    0 -0.20853819471E-02 -0.21277413613E-02  0.99867803246E-01  0.99913539855E-01  0.51109989000E-03 0. -1.
     -623    1    1    2    0    0  0.12608047587E-03  0.43923279939E-03  0.25169152461E-03  0.17130000000E+03  0.17130000000E+03 0.  1.
      622    1    1    2    0    0  0.19593014712E-02  0.16885085619E-02  0.38998804726E+01  0.39000864594E+01  0.40000000000E-01 0. -1.
</event>
<event>
 5   0  0.6200596E+07  0.9118800E+02  0.7818608E-02  0.1180000E+00
       11   -1    0    0    0    0  0.00000000000E+00  0.00000000000E+00  0.39999999673E+01  0.40000000000E+01  0.51109989000E-03 0. -1.
     -623   -1    0    0    0    0  0.00000000000E+00  0.00000000000E+00  0.12525980253E-10  0.17130000000E+03  0.17130000000E+03 0.  1.
       11    1    1    2    0    0 -0.53908985421E-02 -0.18937154217E-01  0.10469289112E+00  0.10652952769E+00  0.51109989000E-03 0. -1.
     -623    1    1    2    0    0 -0.14363489239E-01  0.74585737678E-04  0.21385089738E-02  0.17130000062E+03  0.17130000000E+03 0.  1.
      622    1    1    2    0    0  0.19754387781E-01  0.18862568479E-01  0.38931685673E+01  0.38934698568E+01  0.40000000000E-01 0. -1.
</event>
<event>
 5   0  0.6200596E+07  0.9118800E+02  0.7818608E-02  0.1180000E+00
       11   -1    0    0    0    0  0.00000000000E+00  0.00000000000E+00  0.39999999673E+01  0.40000000000E+01  0.51109989000E-03 0.  1.
     -623   -1    0    0    0    0  0.00000000000E+00  0.00000000000E+00  0.12525980253E-10  0.17130000000E+03  0.17130000000E+03 0. -1.
       11    1    1    2    0    0 -0.10879773011E-02 -0.25785376775E-03  0.79768546657E-01  0.79778019773E-01  0.51109989000E-03 0.  1.
     -623    1    1    2    0    0  0.73521144189E-04  0.14014871103E-02  0.21381983502E-03  0.17130000001E+03  0.17130000000E+03 0. -1.
      622    1    1    2    0    0  0.10144561569E-02 -0.11436333425E-02  0.39200176009E+01  0.39202219743E+01  0.40000000000E-01 0.  1.
</event>
<event>
 5   0  0.6200596E+07  0.9118800E+02  0.7818608E-02  0.1180000E+00
       11   -1    0    0    0    0  0.00000000000E+00  0.00000000000E+00  0.39999999673E+01  0.40000000000E+01  0.51109989000E-03 0.  1.
     -623   -1    0    0    0    0  0.00000000000E+00  0.00000000000E+00  0.12525980253E-10  0.17130000000E+03  0.17130000000E+03 0.  1.
       11    1    1    2    0    0  0.54078519898E-03 -0.32102563176E-02  0.17318117695E+01  0.17318149048E+01  0.51109989000E-03 0.  1.
     -623    1    1    2    0    0  0.19473870532E-02 -0.35446700626E-03  0.36001337078E-03  0.17130000001E+03  0.17130000000E+03 0.  1.
      622    1    1    2    0    0 -0.24881722522E-02  0.35647233238E-02  0.22678281845E+01  0.22681850834E+01  0.40000000000E-01 0.  1.
</event>
<event>
 5   0  0.6200596E+07  0.9118800E+02  0.7818608E-02  0.1180000E+00
       11   -1    0    0    0    0  0.00000000000E+00  0.00000000000E+00  0.39999999673E+01  0.40000000000E+01  0.51109989000E-03 0. -1.
     -623   -1    0    0    0    0  0.00000000000E+00  0.00000000000E+00  0.12525980253E-10  0.17130000000E+03  0.17130000000E+03 0. -1.
       11    1    1    2    0    0 -0.29560517897E-02  0.14477397751E-01  0.45857571434E+00  0.45881399313E+00  0.51109989000E-03 0. -1.
     -623    1    1    2    0    0  0.22098430089E-02 -0.25166213846E-03  0.49283606340E-03  0.17130000002E+03  0.17130000000E+03 0. -1.
      622    1    1    2    0    0  0.74620878074E-03 -0.14225735613E-01  0.35409314170E+01  0.35411859917E+01  0.40000000000E-01 0. -1.
</event>
<event>
 5   0  0.6200596E+07  0.9118800E+02  0.7818608E-02  0.1180000E+00
       11   -1    0    0    0    0  0.00000000000E+00  0.00000000000E+00  0.39999999673E+01  0.40000000000E+01  0.51109989000E-03 0. -1.
     -623   -1    0    0    0    0  0.00000000000E+00  0.00000000000E+00  0.12525980253E-10  0.17130000000E+03  0.17130000000E+03 0. -1.
       11    1    1    2    0    0  0.36732705015E-02 -0.11450686954E-03  0.28457287240E+00  0.28459706069E+00  0.51109989000E-03 0. -1.
     -623    1    1    2    0    0 -0.14672433482E-03 -0.10104060885E-02  0.24132900191E-03  0.17130000000E+03  0.17130000000E+03 0. -1.
      622    1    1    2    0    0 -0.35265461666E-02  0.11249129580E-02  0.37151857660E+01  0.37154029361E+01  0.40000000000E-01 0. -1.
</event>
<event>
 5   0  0.6200596E+07  0.9118800E+02  0.7818608E-02  0.1180000E+00
       11   -1    0    0    0    0  0.00000000000E+00  0.00000000000E+00  0.39999999673E+01  0.40000000000E+01  0.51109989000E-03 0.  1.
     -623   -1    0    0    0    0  0.00000000000E+00  0.00000000000E+00  0.12525980253E-10  0.17130000000E+03  0.17130000000E+03 0. -1.
       11    1    1    2    0    0  0.19232782763E-01 -0.13388417116E-02  0.15883680233E+00  0.16000338567E+00  0.51109989000E-03 0.  1.
     -623    1    1    2    0    0 -0.28638495593E-02  0.26246231112E-02  0.14100453616E-02  0.17130000005E+03  0.17130000000E+03 0. -1.
      622    1    1    2    0    0 -0.16368933203E-01 -0.12857813996E-02  0.38397531197E+01  0.38399965645E+01  0.40000000000E-01 0.  1.
</event>
<event>
 5   0  0.6200596E+07  0.9118800E+02  0.7818608E-02  0.1180000E+00
       11   -1    0    0    0    0  0.00000000000E+00  0.00000000000E+00  0.39999999673E+01  0.40000000000E+01  0.51109989000E-03 0. -1.
     -623   -1    0    0    0    0  0.00000000000E+00  0.00000000000E+00  0.12525980253E-10  0.17130000000E+03  0.17130000000E+03 0.  1.
       11    1    1    2    0    0  0.90783333148E-02  0.99507069321E-02  0.73454604936E+00  0.73466971664E+00  0.51109989000E-03 0. -1.
     -623    1    1    2    0    0 -0.78080078790E-03 -0.21033938831E-02  0.38863056821E-03  0.17130000002E+03  0.17130000000E+03 0.  1.
      622    1    1    2    0    0 -0.82975325269E-02 -0.78473130490E-02  0.32650652874E+01  0.32653302682E+01  0.40000000000E-01 0.  0.
</event>
<event>
 5   0  0.6200596E+07  0.9118800E+02  0.7818608E-02  0.1180000E+00
       11   -1    0    0    0    0  0.00000000000E+00  0.00000000000E+00  0.39999999673E+01  0.40000000000E+01  0.51109989000E-03 0.  1.
     -623   -1    0    0    0    0  0.00000000000E+00  0.00000000000E+00  0.12525980253E-10  0.17130000000E+03  0.17130000000E+03 0.  1.
       11    1    1    2    0    0  0.89347447170E-03  0.95851481210E-03  0.35568735543E-01  0.35596533787E-01  0.51109989000E-03 0.  1.
     -623    1    1    2    0    0 -0.19785671449E-02 -0.47001221124E-03  0.22975737942E-03  0.17130000001E+03  0.17130000000E+03 0.  1.
      622    1    1    2    0    0  0.10850926732E-02 -0.48850260086E-03  0.39642014744E+01  0.39644034540E+01  0.40000000000E-01 0.  1.
</event>
<event>
 5   0  0.6200596E+07  0.9118800E+02  0.7818608E-02  0.1180000E+00
       11   -1    0    0    0    0  0.00000000000E+00  0.00000000000E+00  0.39999999673E+01  0.40000000000E+01  0.51109989000E-03 0.  1.
     -623   -1    0    0    0    0  0.00000000000E+00  0.00000000000E+00  0.12525980253E-10  0.17130000000E+03  0.17130000000E+03 0. -1.
       11    1    1    2    0    0 -0.39657923013E-01  0.45943685626E-01  0.27133413852E+00  0.27803965375E+00  0.51109989000E-03 0.  1.
     -623    1    1    2    0    0  0.94381068623E-02 -0.33146647658E-01  0.70687356236E-02  0.17130000361E+03  0.17130000000E+03 0. -1.
      622    1    1    2    0    0  0.30219816151E-01 -0.12797037968E-01  0.37215970932E+01  0.37219567335E+01  0.40000000000E-01 0.  1.
</event>
<event>
 5   0  0.6200596E+07  0.9118800E+02  0.7818608E-02  0.1180000E+00
       11   -1    0    0    0    0  0.00000000000E+00  0.00000000000E+00  0.39999999673E+01  0.40000000000E+01  0.51109989000E-03 0. -1.
     -623   -1    0    0    0    0  0.00000000000E+00  0.00000000000E+00  0.12525980253E-10  0.17130000000E+03  0.17130000000E+03 0.  1.
       11    1    1    2    0    0  0.19510231353E-01  0.35153860605E-02  0.48234957594E+00  0.48275706282E+00  0.51109989000E-03 0. -1.
     -623    1    1    2    0    0 -0.18554671900E-02 -0.94314038815E-02  0.68447141095E-03  0.17130000027E+03  0.17130000000E+03 0.  1.
      622    1    1    2    0    0 -0.17654764163E-01  0.59160178210E-02  0.35169659200E+01  0.35172426661E+01  0.40000000000E-01 0. -1.
</event>
<event>
 5   0  0.6200596E+07  0.9118800E+02  0.7818608E-02  0.1180000E+00
       11   -1    0    0    0    0  0.00000000000E+00  0.00000000000E+00  0.39999999673E+01  0.40000000000E+01  0.51109989000E-03 0.  1.
     -623   -1    0    0    0    0  0.00000000000E+00  0.00000000000E+00  0.12525980253E-10  0.17130000000E+03  0.17130000000E+03 0. -1.
       11    1    1    2    0    0 -0.63032930596E-02  0.10732917722E-01  0.10466393078E+00  0.10540268807E+00  0.51109989000E-03 0.  1.
     -623    1    1    2    0    0  0.19206086559E-02 -0.14538191159E-01  0.94909839121E-03  0.17130000063E+03  0.17130000000E+03 0. -1.
      622    1    1    2    0    0  0.43826844036E-02  0.38052734366E-02  0.38943869382E+01  0.38945966816E+01  0.40000000000E-01 0.  1.
</event>
<event>
 5   0  0.6200596E+07  0.9118800E+02  0.7818608E-02  0.1180000E+00
       11   -1    0    0    0    0  0.00000000000E+00  0.00000000000E+00  0.39999999673E+01  0.40000000000E+01  0.51109989000E-03 0. -1.
     -623   -1    0    0    0    0  0.00000000000E+00  0.00000000000E+00  0.12525980253E-10  0.17130000000E+03  0.17130000000E+03 0.  1.
       11    1    1    2    0    0  0.33224536321E-02  0.10570501321E-02  0.34897763090E+00  0.34899542137E+00  0.51109989000E-03 0. -1.
     -623    1    1    2    0    0  0.21061936920E-03  0.19826400417E-03  0.23880799401E-03  0.17130000000E+03  0.17130000000E+03 0.  1.
      622    1    1    2    0    0 -0.35330730013E-02 -0.12553141363E-02  0.36507835285E+01  0.36510045782E+01  0.40000000000E-01 0. -1.
</event>
<event>
 5   0  0.6200596E+07  0.9118800E+02  0.7818608E-02  0.1180000E+00
       11   -1    0    0    0    0  0.00000000000E+00  0.00000000000E+00  0.39999999673E+01  0.40000000000E+01  0.51109989000E-03 0.  1.
     -623   -1    0    0    0    0  0.00000000000E+00  0.00000000000E+00  0.12525980253E-10  0.17130000000E+03  0.17130000000E+03 0.  1.
       11    1    1    2    0    0 -0.51565100266E-01 -0.45374852767E-01  0.20868823563E+01  0.20880124682E+01  0.51109989000E-03 0.  1.
     -623    1    1    2    0    0  0.79374251282E-02  0.85893995668E-02  0.24009425373E-02  0.17130000042E+03  0.17130000000E+03 0.  1.
      622    1    1    2    0    0  0.43627675137E-01  0.36785453201E-01  0.19107166685E+01  0.19119871157E+01  0.40000000000E-01 0.  1.
</event>
<event>
 5   0  0.6200596E+07  0.9118800E+02  0.7818608E-02  0.1180000E+00
       11   -1    0    0    0    0  0.00000000000E+00  0.00000000000E+00  0.39999999673E+01  0.40000000000E+01  0.51109989000E-03 0.  1.
     -623   -1    0    0    0    0  0.00000000000E+00  0.00000000000E+00  0.12525980253E-10  0.17130000000E+03  0.17130000000E+03 0. -1.
       11    1    1    2    0    0  0.91703336534E-02 -0.96867684414E-02  0.10393757355E+01  0.10394614515E+01  0.51109989000E-03 0.  1.
     -623    1    1    2    0    0 -0.56217213532E-02  0.11734863235E-02  0.37038196297E-03  0.17130000010E+03  0.17130000000E+03 0. -1.
      622    1    1    2    0    0 -0.35486123003E-02  0.85132821180E-02  0.29602538499E+01  0.29605384518E+01  0.40000000000E-01 0.  1.
</event>
<event>
 5   0  0.6200596E+07  0.9118800E+02  0.7818608E-02  0.1180000E+00
       11   -1    0    0    0    0  0.00000000000E+00  0.00000000000E+00  0.39999999673E+01  0.40000000000E+01  0.51109989000E-03 0. -1.
     -623   -1    0    0    0    0  0.00000000000E+00  0.00000000000E+00  0.12525980253E-10  0.17130000000E+03  0.17130000000E+03 0.  1.
       11    1    1    2    0    0 -0.21712687052E-02  0.38041816110E-03  0.16546261064E-01  0.16700272537E-01  0.51109989000E-03 0. -1.
     -623    1    1    2    0    0  0.10568052610E-02  0.45775057525E-03  0.35507075124E-03  0.17130000000E+03  0.17130000000E+03 0.  1.
      622    1    1    2    0    0  0.11144634443E-02 -0.83816873635E-03  0.39830986355E+01  0.39832997232E+01  0.40000000000E-01 0. -1.
</event>
<event>
 5   0  0.6200596E+07  0.9118800E+02  0.7818608E-02  0.1180000E+00
       11   -1    0    0    0    0  0.00000000000E+00  0.00000000000E+00  0.39999999673E+01  0.40000000000E+01  0.51109989000E-03 0.  1.
     -623   -1    0    0    0    0  0.00000000000E+00  0.00000000000E+00  0.12525980253E-10  0.17130000000E+03  0.17130000000E+03 0.  1.
       11    1    1    2    0    0  0.71924875929E-02  0.37921430404E-02  0.13685862416E-01  0.15927218147E-01  0.51109989000E-03 0.  1.
     -623    1    1    2    0    0  0.13129795010E-02  0.16842036958E-02  0.24550020750E-02  0.17130000003E+03  0.17130000000E+03 0.  1.
      622    1    1    2    0    0 -0.85054670938E-02 -0.54763467361E-02  0.39838591029E+01  0.39840727509E+01  0.40000000000E-01 0.  1.
</event>
<event>
 5   0  0.6200596E+07  0.9118800E+02  0.7818608E-02  0.1180000E+00
       11   -1    0    0    0    0  0.00000000000E+00  0.00000000000E+00  0.39999999673E+01  0.40000000000E+01  0.51109989000E-03 0. -1.
     -623   -1    0    0    0    0  0.00000000000E+00  0.00000000000E+00  0.12525980253E-10  0.17130000000E+03  0.17130000000E+03 0.  1.
       11    1    1    2    0    0  0.14028117869E-02 -0.64748885319E-02  0.50973184407E+00  0.50977515254E+00  0.51109989000E-03 0. -1.
     -623    1    1    2    0    0  0.93793802823E-03 -0.73270989109E-03  0.28072692238E-03  0.17130000000E+03  0.17130000000E+03 0.  1.
      622    1    1    2    0    0 -0.23407498152E-02  0.72075984230E-02  0.34899873964E+01  0.34902248431E+01  0.40000000000E-01 0. -1.
</event>
<event>
 5   0  0.6200596E+07  0.9118800E+02  0.7818608E-02  0.1180000E+00
       11   -1    0    0    0    0  0.00000000000E+00  0.00000000000E+00  0.39999999673E+01  0.40000000000E+01  0.51109989000E-03 0. -1.
     -623   -1    0    0    0    0  0.00000000000E+00  0.00000000000E+00  0.12525980253E-10  0.17130000000E+03  0.17130000000E+03 0. -1.
       11    1    1    2    0    0 -0.13424056091E-01 -0.20006233464E-01  0.10574628581E+01  0.10577374022E+01  0.51109989000E-03 0. -1.
     -623    1    1    2    0    0 -0.20368230248E-01  0.19748315021E-01  0.74286508000E-03  0.17130000235E+03  0.17130000000E+03 0. -1.
      622    1    1    2    0    0  0.33792286339E-01  0.25791844294E-03  0.29417942442E+01  0.29422602469E+01  0.40000000000E-01 0. -1.
</event>
<event>
 5   0  0.6200596E+07  0.9118800E+02  0.7818608E-02  0.1180000E+00
       11   -1    0    0    0    0  0.00000000000E+00  0.00000000000E+00  0.39999999673E+01  0.40000000000E+01  0.51109989000E-03 0.  1.
     -623   -1    0    0    0    0  0.00000000000E+00  0.00000000000E+00  0.12525980253E-10  0.17130000000E+03  0.17130000000E+03 0. -1.
       11    1    1    2    0    0  0.25148051024E-02 -0.22534790302E-02  0.55074231721E-01  0.55180020244E-01  0.51109989000E-03 0.  1.
     -623    1    1    2    0    0  0.58636180575E-04  0.23695615025E-02  0.30941652496E-03  0.17130000002E+03  0.17130000000E+03 0. -1.
      622    1    1    2    0    0 -0.25734412830E-02 -0.11608247230E-03  0.39446163191E+01  0.39448199631E+01  0.40000000000E-01 0.  1.
</event>
<event>
 5   0  0.6200596E+07  0.9118800E+02  0.7818608E-02  0.1180000E+00
       11   -1    0    0    0    0  0.00000000000E+00  0.00000000000E+00  0.39999999673E+01  0.40000000000E+01  0.51109989000E-03 0.  1.
     -623   -1    0    0    0    0  0.00000000000E+00  0.00000000000E+00  0.12525980253E-10  0.17130000000E+03  0.17130000000E+03 0. -1.
       11    1    1    2    0    0  0.10420359268E-01 -0.10624267927E-01  0.51317681405E+00  0.51339279568E+00  0.51109989000E-03 0.  1.
     -623    1    1    2    0    0  0.10232701062E-02  0.44206957581E-02  0.46976722318E-03  0.17130000006E+03  0.17130000000E+03 0. -1.
      622    1    1    2    0    0 -0.11443629374E-01  0.62035721686E-02  0.34863533861E+01  0.34866071436E+01  0.40000000000E-01 0.  1.
</event>
<event>
 5   0  0.6200596E+07  0.9118800E+02  0.7818608E-02  0.1180000E+00
       11   -1    0    0    0    0  0.00000000000E+00  0.00000000000E+00  0.39999999673E+01  0.40000000000E+01  0.51109989000E-03 0. -1.
     -623   -1    0    0    0    0  0.00000000000E+00  0.00000000000E+00  0.12525980253E-10  0.17130000000E+03  0.17130000000E+03 0. -1.
       11    1    1    2    0    0  0.87660260362E-02  0.31515326172E-01  0.10536424621E+01  0.10541502541E+01  0.51109989000E-03 0. -1.
     -623    1    1    2    0    0 -0.55091342554E-02  0.77681368631E-02  0.10433710150E-02  0.17130000027E+03  0.17130000000E+03 0. -1.
      622    1    1    2    0    0 -0.32568917808E-02 -0.39283463035E-01  0.29453141343E+01  0.29458494780E+01  0.40000000000E-01 0. -1.
</event>
<event>
 5   0  0.6200596E+07  0.9118800E+02  0.7818608E-02  0.1180000E+00
       11   -1    0    0    0    0  0.00000000000E+00  0.00000000000E+00  0.39999999673E+01  0.40000000000E+01  0.51109989000E-03 0.  1.
     -623   -1    0    0    0    0  0.00000000000E+00  0.00000000000E+00  0.12525980253E-10  0.17130000000E+03  0.17130000000E+03 0. -1.
       11    1    1    2    0    0 -0.39446099824E-02 -0.71310609878E-03  0.14712209744E-01  0.15257090303E-01  0.51109989000E-03 0.  1.
     -623    1    1    2    0    0  0.62151171462E-04  0.73042008532E-03  0.74751348558E-03  0.17130000000E+03  0.17130000000E+03 0. -1.
      622    1    1    2    0    0  0.38824588109E-02 -0.17313986540E-04  0.39845402441E+01  0.39847429065E+01  0.40000000000E-01 0.  1.
</event>
<event>
 5   0  0.6200596E+07  0.9118800E+02  0.7818608E-02  0.1180000E+00
       11   -1    0    0    0    0  0.00000000000E+00  0.00000000000E+00  0.39999999673E+01  0.40000000000E+01  0.51109989000E-03 0.  1.
     -623   -1    0    0    0    0  0.00000000000E+00  0.00000000000E+00  0.12525980253E-10  0.17130000000E+03  0.17130000000E+03 0. -1.
       11    1    1    2    0    0 -0.14246645441E-01 -0.16477428769E-01  0.13239241038E+01  0.13241033821E+01  0.51109989000E-03 0.  1.
     -623    1    1    2    0    0 -0.45037468070E-03 -0.98107984232E-03  0.57555809421E-03  0.17130000000E+03  0.17130000000E+03 0. -1.
      622    1    1    2    0    0  0.14697020122E-01  0.17458508612E-01  0.26755003055E+01  0.26758966136E+01  0.40000000000E-01 0.  1.
</event>
<event>
 5   0  0.6200596E+07  0.9118800E+02  0.7818608E-02  0.1180000E+00
       11   -1    0    0    0    0  0.00000000000E+00  0.00000000000E+00  0.39999999673E+01  0.40000000000E+01  0.51109989000E-03 0.  1.
     -623   -1    0    0    0    0  0.00000000000E+00  0.00000000000E+00  0.12525980253E-10  0.17130000000E+03  0.17130000000E+03 0. -1.
       11    1    1    2    0    0 -0.20850490147E-01 -0.19621785464E-01  0.20676690069E+01  0.20678672928E+01  0.51109989000E-03 0.  1.
     -623    1    1    2    0    0  0.39876338382E-02  0.13684446288E-01  0.69567055107E-03  0.17130000059E+03  0.17130000000E+03 0. -1.
      622    1    1    2    0    0  0.16862856309E-01  0.59373391761E-02  0.19316352900E+01  0.19321321128E+01  0.40000000000E-01 0.  0.
</event>
<event>
 5   0  0.6200596E+07  0.9118800E+02  0.7818608E-02  0.1180000E+00
       11   -1    0    0    0    0  0.00000000000E+00  0.00000000000E+00  0.39999999673E+01  0.40000000000E+01  0.51109989000E-03 0.  1.
     -623   -1    0    0    0    0  0.00000000000E+00  0.00000000000E+00  0.12525980253E-10  0.17130000000E+03  0.17130000000E+03 0.  1.
       11    1    1    2    0    0  0.33851652608E-01 -0.72573209838E-02  0.24405844951E+01  0.24408300928E+01  0.51109989000E-03 0.  1.
     -623    1    1    2    0    0  0.36122488584E-03 -0.20377956151E-02  0.11620179110E-02  0.17130000002E+03  0.17130000000E+03 0.  1.
      622    1    1    2    0    0 -0.34212877494E-01  0.92951165989E-02  0.15582534544E+01  0.15591698908E+01  0.40000000000E-01 0. -1.
</event>
<event>
 5   0  0.6200596E+07  0.9118800E+02  0.7818608E-02  0.1180000E+00
       11   -1    0    0    0    0  0.00000000000E+00  0.00000000000E+00  0.39999999673E+01  0.40000000000E+01  0.51109989000E-03 0.  1.
     -623   -1    0    0    0    0  0.00000000000E+00  0.00000000000E+00  0.12525980253E-10  0.17130000000E+03  0.17130000000E+03 0. -1.
       11    1    1    2    0    0 -0.37697320788E-02 -0.34005920737E-02  0.32225427233E-01  0.32626895147E-01  0.51109989000E-03 0.  1.
     -623    1    1    2    0    0  0.97333580419E-03  0.17263058383E-03  0.60538789501E-03  0.17130000000E+03  0.17130000000E+03 0. -1.
      622    1    1    2    0    0  0.27963962746E-02  0.32279614898E-02  0.39671691522E+01  0.39673731009E+01  0.40000000000E-01 0.  1.
</event>
<event>
 5   0  0.6200596E+07  0.9118800E+02  0.7818608E-02  0.1180000E+00
       11   -1    0    0    0    0  0.00000000000E+00  0.00000000000E+00  0.39999999673E+01  0.40000000000E+01  0.51109989000E-03 0.  1.
     -623   -1    0    0    0    0  0.00000000000E+00  0.00000000000E+00  0.12525980253E-10  0.17130000000E+03  0.17130000000E+03 0.  1.
       11    1    1    2    0    0 -0.33100093256E-03  0.20061282795E-02  0.16719043362E-02  0.26815292534E-02  0.51109989000E-03 0.  1.
     -623    1    1    2    0    0 -0.11351440072E-02 -0.75563904094E-03  0.12102056547E-02  0.17130000001E+03  0.17130000000E+03 0.  1.
      622    1    1    2    0    0  0.14661449398E-02 -0.12504892385E-02  0.39971178574E+01  0.39973184610E+01  0.40000000000E-01 0.  1.
</event>
<event>
 5   0  0.6200596E+07  0.9118800E+02  0.7818608E-02  0.1180000E+00
       11   -1    0    0    0    0  0.00000000000E+00  0.00000000000E+00  0.39999999673E+01  0.40000000000E+01  0.51109989000E-03 0. -1.
     -623   -1    0    0    0    0  0.00000000000E+00  0.00000000000E+00  0.12525980253E-10  0.17130000000E+03  0.17130000000E+03 0. -1.
       11    1    1    2    0    0  0.49270684066E-02  0.10914886985E-01  0.18734356170E+00  0.18772661530E+00  0.51109989000E-03 0. -1.
     -623    1    1    2    0    0 -0.15001791591E-01 -0.12855604052E-01  0.60782274969E-03  0.17130000114E+03  0.17130000000E+03 0. -1.
      622    1    1    2    0    0  0.10074723184E-01  0.19407170664E-02  0.38120485829E+01  0.38122722443E+01  0.40000000000E-01 0. -1.
</event>
<event>
 5   0  0.6200596E+07  0.9118800E+02  0.7818608E-02  0.1180000E+00
       11   -1    0    0    0    0  0.00000000000E+00  0.00000000000E+00  0.39999999673E+01  0.40000000000E+01  0.51109989000E-03 0. -1.
     -623   -1    0    0    0    0  0.00000000000E+00  0.00000000000E+00  0.12525980253E-10  0.17130000000E+03  0.17130000000E+03 0.  1.
       11    1    1    2    0    0 -0.70461026049E-01  0.97368661975E-02  0.15390216452E+01  0.15406646126E+01  0.51109989000E-03 0. -1.
     -623    1    1    2    0    0  0.69780197458E-01  0.22696658101E-01  0.21979784994E-02  0.17130001573E+03  0.17130000000E+03 0.  1.
      622    1    1    2    0    0  0.68082859015E-03 -0.32433524299E-01  0.24587803437E+01  0.24593196570E+01  0.40000000000E-01 0. -1.
</event>
<event>
 5   0  0.6200596E+07  0.9118800E+02  0.7818608E-02  0.1180000E+00
       11   -1    0    0    0    0  0.00000000000E+00  0.00000000000E+00  0.39999999673E+01  0.40000000000E+01  0.51109989000E-03 0. -1.
     -623   -1    0    0    0    0  0.00000000000E+00  0.00000000000E+00  0.12525980253E-10  0.17130000000E+03  0.17130000000E+03 0. -1.
       11    1    1    2    0    0  0.18021840436E-02  0.36154255775E-02  0.46265483808E+00  0.46267275648E+00  0.51109989000E-03 0. -1.
     -623    1    1    2    0    0  0.69845021967E-03 -0.78905482978E-03  0.24606902948E-03  0.17130000000E+03  0.17130000000E+03 0. -1.
      622    1    1    2    0    0 -0.25006342633E-02 -0.28263707478E-02  0.35370990603E+01  0.35373272401E+01  0.40000000000E-01 0. -1.
</event>
<event>
 5   0  0.6200596E+07  0.9118800E+02  0.7818608E-02  0.1180000E+00
       11   -1    0    0    0    0  0.00000000000E+00  0.00000000000E+00  0.39999999673E+01  0.40000000000E+01  0.51109989000E-03 0.  1.
     -623   -1    0    0    0    0  0.00000000000E+00  0.00000000000E+00  0.12525980253E-10  0.17130000000E+03  0.17130000000E+03 0.  1.
       11    1    1    2    0    0 -0.87876604621E-02 -0.11658172120E-01  0.93808981431E+00  0.93820354768E+00  0.51109989000E-03 0.  1.
     -623    1    1    2    0    0  0.11521330658E-02 -0.12370833399E-02  0.41168458490E-03  0.17130000001E+03  0.17130000000E+03 0.  1.
      622    1    1    2    0    0  0.76355273964E-02  0.12895255460E-01  0.30614984685E+01  0.30617964435E+01  0.40000000000E-01 0.  1.
</event>
<event>
 5   0  0.6200596E+07  0.9118800E+02  0.7818608E-02  0.1180000E+00
       11   -1    0    0    0    0  0.00000000000E+00  0.00000000000E+00  0.39999999673E+01  0.40000000000E+01  0.51109989000E-03 0. -1.
     -623   -1    0    0    0    0  0.00000000000E+00  0.00000000000E+00  0.12525980253E-10  0.17130000000E+03  0.17130000000E+03 0. -1.
       11    1    1    2    0    0  0.43564571253E-02  0.12223273789E-01  0.22618099996E+01  0.22618472810E+01  0.51109989000E-03 0. -1.
     -623    1    1    2    0    0 -0.13078291345E-01 -0.43986818608E-03  0.55991081921E-03  0.17130000050E+03  0.17130000000E+03 0. -1.
      622    1    1    2    0    0  0.87218342200E-02 -0.11783405603E-01  0.17376300569E+01  0.17381522183E+01  0.40000000000E-01 0. -1.
</event>
<event>
 5   0  0.6200596E+07  0.9118800E+02  0.7818608E-02  0.1180000E+00
       11   -1    0    0    0    0  0.00000000000E+00  0.00000000000E+00  0.39999999673E+01  0.40000000000E+01  0.51109989000E-03 0. -1.
     -623   -1    0    0    0    0  0.00000000000E+00  0.00000000000E+00  0.12525980253E-10  0.17130000000E+03  0.17130000000E+03 0.  1.
       11    1    1    2    0    0  0.11984465633E-01 -0.98635152853E-02  0.35638985968E+00  0.35672806121E+00  0.51109989000E-03 0. -1.
     -623    1    1    2    0    0 -0.18430452741E-01 -0.52558270843E-02  0.59590853299E-03  0.17130000107E+03  0.17130000000E+03 0.  1.
      622    1    1    2    0    0  0.64459871076E-02  0.15119342370E-01  0.36430141991E+01  0.36432708656E+01  0.40000000000E-01 0. -1.
</event>
<event>
 5   0  0.6200596E+07  0.9118800E+02  0.7818608E-02  0.1180000E+00
       11   -1    0    0    0    0  0.00000000000E+00  0.00000000000E+00  0.39999999673E+01  0.40000000000E+01  0.51109989000E-03 0.  1.
     -623   -1    0    0    0    0  0.00000000000E+00  0.00000000000E+00  0.12525980253E-10  0.17130000000E+03  0.17130000000E+03 0. -1.
       11    1    1    2    0    0  0.17644300070E-03  0.16832283940E-02  0.29322797553E+00  0.29323330515E+00  0.51109989000E-03 0.  1.
     -623    1    1    2    0    0  0.95156883280E-03 -0.48096203172E-05  0.22167921343E-03  0.17130000000E+03  0.17130000000E+03 0. -1.
      622    1    1    2    0    0 -0.11280118335E-02 -0.16784187736E-02  0.37065503126E+01  0.37067666921E+01  0.40000000000E-01 0.  1.
</event>
<event>
 5   0  0.6200596E+07  0.9118800E+02  0.7818608E-02  0.1180000E+00
       11   -1    0    0    0    0  0.00000000000E+00  0.00000000000E+00  0.39999999673E+01  0.40000000000E+01  0.51109989000E-03 0.  1.
     -623   -1    0    0    0    0  0.00000000000E+00  0.00000000000E+00  0.12525980253E-10  0.17130000000E+03  0.17130000000E+03 0. -1.
       11    1    1    2    0    0  0.49605958250E-01  0.13042289709E-01  0.18807037303E+00  0.19493993651E+00  0.51109989000E-03 0.  1.
     -623    1    1    2    0    0 -0.47667391204E-01 -0.51102152800E-01  0.72850487763E-02  0.17130001441E+03  0.17130000000E+03 0. -1.
      622    1    1    2    0    0 -0.19385670465E-02  0.38059863091E-01  0.38046445456E+01  0.38050456540E+01  0.40000000000E-01 0.  1.
</event>
<event>
 5   0  0.6200596E+07  0.9118800E+02  0.7818608E-02  0.1180000E+00
       11   -1    0    0    0    0  0.00000000000E+00  0.00000000000E+00  0.39999999673E+01  0.40000000000E+01  0.51109989000E-03 0.  1.
     -623   -1    0    0    0    0  0.00000000000E+00  0.00000000000E+00  0.12525980253E-10  0.17130000000E+03  0.17130000000E+03 0. -1.
       11    1    1    2    0    0 -0.87305961752E-02 -0.49805334612E-02  0.53333931998E-01  0.54275211165E-01  0.51109989000E-03 0.  1.
     -623    1    1    2    0    0  0.49469493136E-02  0.44345059754E-02  0.11459874859E-02  0.17130000013E+03  0.17130000000E+03 0. -1.
      622    1    1    2    0    0  0.37836468616E-02  0.54602748581E-03  0.39455200479E+01  0.39457246562E+01  0.40000000000E-01 0.  1.
</event>
<event>
 5   0  0.6200596E+07  0.9118800E+02  0.7818608E-02  0.1180000E+00
       11   -1    0    0    0    0  0.00000000000E+00  0.00000000000E+00  0.39999999673E+01  0.40000000000E+01  0.51109989000E-03 0.  1.
     -623   -1    0    0    0    0  0.00000000000E+00  0.00000000000E+00  0.12525980253E-10  0.17130000000E+03  0.17130000000E+03 0.  1.
       11    1    1    2    0    0  0.26810366952E-02  0.35753500155E-03  0.49478309949E-02  0.56619821903E-02  0.51109989000E-03 0.  1.
     -623    1    1    2    0    0 -0.40384316580E-02  0.88185674839E-03  0.91488234286E-03  0.17130000005E+03  0.17130000000E+03 0.  1.
      622    1    1    2    0    0  0.13573949627E-02 -0.12393917499E-02  0.39941372540E+01  0.39943379655E+01  0.40000000000E-01 0.  1.
</event>
<event>
 5   0  0.6200596E+07  0.9118800E+02  0.7818608E-02  0.1180000E+00
       11   -1    0    0    0    0  0.00000000000E+00  0.00000000000E+00  0.39999999673E+01  0.40000000000E+01  0.51109989000E-03 0.  1.
     -623   -1    0    0    0    0  0.00000000000E+00  0.00000000000E+00  0.12525980253E-10  0.17130000000E+03  0.17130000000E+03 0. -1.
       11    1    1    2    0    0 -0.12689810844E-01  0.11244759545E-01  0.66697416652E+00  0.66718983501E+00  0.51109989000E-03 0.  1.
     -623    1    1    2    0    0  0.62233402203E-02 -0.11538340217E-02  0.47735108506E-03  0.17130000012E+03  0.17130000000E+03 0. -1.
      622    1    1    2    0    0  0.64664706239E-02 -0.10090925524E-01  0.33325484498E+01  0.33328100474E+01  0.40000000000E-01 0.  0.
</event>
<event>
 5   0  0.6200596E+07  0.9118800E+02  0.7818608E-02  0.1180000E+00
       11   -1    0    0    0    0  0.00000000000E+00  0.00000000000E+00  0.39999999673E+01  0.40000000000E+01  0.51109989000E-03 0. -1.
     -623   -1    0    0    0    0  0.00000000000E+00  0.00000000000E+00  0.12525980253E-10  0.17130000000E+03  0.17130000000E+03 0. -1.
       11    1    1    2    0    0  0.36874670344E-02  0.16608972538E-02  0.59963894750E-02  0.72507863204E-02  0.51109989000E-03 0. -1.
     -623    1    1    2    0    0 -0.17595048165E-02  0.25914167726E-03  0.14556750242E-02  0.17130000002E+03  0.17130000000E+03 0. -1.
      622    1    1    2    0    0 -0.19279622178E-02 -0.19200389311E-02  0.39925479029E+01  0.39927491983E+01  0.40000000000E-01 0. -1.
</event>
<event>
 5   0  0.6200596E+07  0.9118800E+02  0.7818608E-02  0.1180000E+00
       11   -1    0    0    0    0  0.00000000000E+00  0.00000000000E+00  0.39999999673E+01  0.40000000000E+01  0.51109989000E-03 0. -1.
     -623   -1    0    0    0    0  0.00000000000E+00  0.00000000000E+00  0.12525980253E-10  0.17130000000E+03  0.17130000000E+03 0.  1.
       11    1    1    2    0    0  0.57599861322E-02  0.14996928099E-01  0.19191705233E+00  0.19258894436E+00  0.51109989000E-03 0. -1.
     -623    1    1    2    0    0  0.86782049358E-02 -0.35412817207E-02  0.92685286659E-03  0.17130000026E+03  0.17130000000E+03 0.  1.
      622    1    1    2    0    0 -0.14438191068E-01 -0.11455646378E-01  0.38071560622E+01  0.38074107967E+01  0.40000000000E-01 0. -1.
</event>
<event>
 5   0  0.6200596E+07  0.9118800E+02  0.7818608E-02  0.1180000E+00
       11   -1    0    0    0    0  0.00000000000E+00  0.00000000000E+00  0.39999999673E+01  0.40000000000E+01  0.51109989000E-03 0. -1.
     -623   -1    0    0    0    0  0.00000000000E+00  0.00000000000E+00  0.12525980253E-10  0.17130000000E+03  0.17130000000E+03 0. -1.
       11    1    1    2    0    0  0.64907271705E-03 -0.36030089874E-02  0.85820795431E-01  0.85900367399E-01  0.51109989000E-03 0. -1.
     -623    1    1    2    0    0 -0.22832065075E-02 -0.10049217072E-02  0.28700601096E-03  0.17130000002E+03  0.17130000000E+03 0. -1.
      622    1    1    2    0    0  0.16341337905E-02  0.46079306946E-02  0.39138921659E+01  0.39140996142E+01  0.40000000000E-01 0. -1.
</event>
<event>
 5   0  0.6200596E+07  0.9118800E+02  0.7818608E-02  0.1180000E+00
       11   -1    0    0    0    0  0.00000000000E+00  0.00000000000E+00  0.39999999673E+01  0.40000000000E+01  0.51109989000E-03 0.  1.
     -623   -1    0    0    0    0  0.00000000000E+00  0.00000000000E+00  0.12525980253E-10  0.17130000000E+03  0.17130000000E+03 0. -1.
       11    1    1    2    0    0 -0.45674748352E-02 -0.35525610385E-02  0.55998257684E-01  0.56298744219E-01  0.51109989000E-03 0.  1.
     -623    1    1    2    0    0  0.31360713522E-02 -0.15244353110E-02  0.50687841221E-03  0.17130000004E+03  0.17130000000E+03 0. -1.
      622    1    1    2    0    0  0.14314034830E-02  0.50769963495E-02  0.39434948313E+01  0.39437012195E+01  0.40000000000E-01 0.  1.
</event>
<event>
 5   0  0.6200596E+07  0.9118800E+02  0.7818608E-02  0.1180000E+00
       11   -1    0    0    0    0  0.00000000000E+00  0.00000000000E+00  0.39999999673E+01  0.40000000000E+01  0.51109989000E-03 0.  1.
     -623   -1    0    0    0    0  0.00000000000E+00  0.00000000000E+00  0.12525980253E-10  0.17130000000E+03  0.17130000000E+03 0.  1.
       11    1    1    2    0    0  0.10689442456E-02  0.94377245106E-02  0.84648085570E+00  0.84653429557E+00  0.51109989000E-03 0.  1.
     -623    1    1    2    0    0  0.46647271874E-03 -0.69266178004E-05  0.32158444030E-03  0.17130000000E+03  0.17130000000E+03 0.  1.
      622    1    1    2    0    0 -0.15354169643E-02 -0.94307978928E-02  0.31531975272E+01  0.31534657035E+01  0.40000000000E-01 0.  1.
</event>
<event>
 5   0  0.6200596E+07  0.9118800E+02  0.7818608E-02  0.1180000E+00
       11   -1    0    0    0    0  0.00000000000E+00  0.00000000000E+00  0.39999999673E+01  0.40000000000E+01  0.51109989000E-03 0.  1.
     -623   -1    0    0    0    0  0.00000000000E+00  0.00000000000E+00  0.12525980253E-10  0.17130000000E+03  0.17130000000E+03 0. -1.
       11    1    1    2    0    0 -0.10444315801E-02 -0.20123009840E-02  0.51636655916E+00  0.51637178935E+00  0.51109989000E-03 0.  1.
     -623    1    1    2    0    0  0.44258104814E-04 -0.39878812514E-02  0.24020861636E-03  0.17130000005E+03  0.17130000000E+03 0. -1.
      622    1    1    2    0    0  0.10001734753E-02  0.60001822354E-02  0.34833931996E+01  0.34836281641E+01  0.40000000000E-01 0.  1.
</event>
<event>
 5   0  0.6200596E+07  0.9118800E+02  0.7818608E-02  0.1180000E+00
       11   -1    0    0    0    0  0.00000000000E+00  0.00000000000E+00  0.39999999673E+01  0.40000000000E+01  0.51109989000E-03 0. -1.
     -623   -1    0    0    0    0  0.00000000000E+00  0.00000000000E+00  0.12525980253E-10  0.17130000000E+03  0.17130000000E+03 0. -1.
       11    1    1    2    0    0  0.13172703737E-03 -0.61238613207E-04  0.74663384858E-01  0.74665275483E-01  0.51109989000E-03 0. -1.
     -623    1    1    2    0    0 -0.31449963378E-03 -0.46683666283E-04  0.20567370947E-03  0.17130000000E+03  0.17130000000E+03 0. -1.
      622    1    1    2    0    0  0.18277259641E-03  0.10792227949E-03  0.39251309088E+01  0.39253347241E+01  0.40000000000E-01 0. -1.
</event>
<event>
 5   0  0.6200596E+07  0.9118800E+02  0.7818608E-02  0.1180000E+00
       11   -1    0    0    0    0  0.00000000000E+00  0.00000000000E+00  0.39999999673E+01  0.40000000000E+01  0.51109989000E-03 0.  1.
     -623   -1    0    0    0    0  0.00000000000E+00  0.00000000000E+00  0.12525980253E-10  0.17130000000E+03  0.17130000000E+03 0. -1.
       11    1    1    2    0    0 -0.26693409924E-01 -0.26136491397E-01  0.95434095755E+00  0.95507202807E+00  0.51109989000E-03 0.  1.
     -623    1    1    2    0    0 -0.10877832291E-03 -0.41697225024E-02  0.12626504699E-02  0.17130000006E+03  0.17130000000E+03 0. -1.
      622    1    1    2    0    0  0.26802188247E-01  0.30306213899E-01  0.30443963593E+01  0.30449279165E+01  0.40000000000E-01 0.  1.
</event>
<event>
 5   0  0.6200596E+07  0.9118800E+02  0.7818608E-02  0.1180000E+00
       11   -1    0    0    0    0  0.00000000000E+00  0.00000000000E+00  0.39999999673E+01  0.40000000000E+01  0.51109989000E-03 0.  1.
     -623   -1    0    0    0    0  0.00000000000E+00  0.00000000000E+00  0.12525980253E-10  0.17130000000E+03  0.17130000000E+03 0.  1.
       11    1    1    2    0    0  0.43910283145E-02  0.61069497753E-02  0.67979172633E+00  0.67983352990E+00  0.51109989000E-03 0.  1.
     -623    1    1    2    0    0 -0.24516139383E-01  0.23331602808E-02  0.35622984186E-03  0.17130000177E+03  0.17130000000E+03 0.  1.
      622    1    1    2    0    0  0.20125111069E-01 -0.84401100561E-02  0.33198520112E+01  0.33201646995E+01  0.40000000000E-01 0.  1.
</event>
<event>
 5   0  0.6200596E+07  0.9118800E+02  0.7818608E-02  0.1180000E+00
       11   -1    0    0    0    0  0.00000000000E+00  0.00000000000E+00  0.39999999673E+01  0.40000000000E+01  0.51109989000E-03 0. -1.
     -623   -1    0    0    0    0  0.00000000000E+00  0.00000000000E+00  0.12525980253E-10  0.17130000000E+03  0.17130000000E+03 0.  1.
       11    1    1    2    0    0 -0.34648449250E-02 -0.23892614257E-01  0.60756100212E+00  0.60804070150E+00  0.51109989000E-03 0. -1.
     -623    1    1    2    0    0  0.57518458588E-02  0.31230105316E-02  0.78001782563E-03  0.17130000013E+03  0.17130000000E+03 0.  1.
      622    1    1    2    0    0 -0.22870009338E-02  0.20769603725E-01  0.33916589474E+01  0.33919591717E+01  0.40000000000E-01 0. -1.
</event>
<event>
 5   0  0.6200596E+07  0.9118800E+02  0.7818608E-02  0.1180000E+00
       11   -1    0    0    0    0  0.00000000000E+00  0.00000000000E+00  0.39999999673E+01  0.40000000000E+01  0.51109989000E-03 0. -1.
     -623   -1    0    0    0    0  0.00000000000E+00  0.00000000000E+00  0.12525980253E-10  0.17130000000E+03  0.17130000000E+03 0. -1.
       11    1    1    2    0    0  0.93014169728E-02 -0.22565869605E-01  0.11701717856E+01  0.11704264197E+01  0.51109989000E-03 0. -1.
     -623    1    1    2    0    0  0.14373033954E-01 -0.28949016143E-02  0.75159109856E-03  0.17130000063E+03  0.17130000000E+03 0. -1.
      622    1    1    2    0    0 -0.23674450927E-01  0.25460771219E-01  0.28290765906E+01  0.28295729512E+01  0.40000000000E-01 0.  0.
</event>
<event>
 5   0  0.6200596E+07  0.9118800E+02  0.7818608E-02  0.1180000E+00
       11   -1    0    0    0    0  0.00000000000E+00  0.00000000000E+00  0.39999999673E+01  0.40000000000E+01  0.51109989000E-03 0.  1.
     -623   -1    0    0    0    0  0.00000000000E+00  0.00000000000E+00  0.12525980253E-10  0.17130000000E+03  0.17130000000E+03 0. -1.
       11    1    1    2    0    0  0.24671907934E-01  0.39780624519E-01  0.10130288976E+01  0.10141099594E+01  0.51109989000E-03 0.  1.
     -623    1    1    2    0    0 -0.37846723437E-02 -0.24984144510E-01  0.14605681964E-02  0.17130000187E+03  0.17130000000E+03 0. -1.
      622    1    1    2    0    0 -0.20887235590E-01 -0.14796480009E-01  0.29855105016E+01  0.29858881706E+01  0.40000000000E-01 0.  0.
</event>
<event>
 5   0  0.6200596E+07  0.9118800E+02  0.7818608E-02  0.1180000E+00
       11   -1    0    0    0    0  0.00000000000E+00  0.00000000000E+00  0.39999999673E+01  0.40000000000E+01  0.51109989000E-03 0.  1.
     -623   -1    0    0    0    0  0.00000000000E+00  0.00000000000E+00  0.12525980253E-10  0.17130000000E+03  0.17130000000E+03 0. -1.
       11    1    1    2    0    0  0.32789533816E-02  0.58583904182E-02  0.18357145258E+00  0.18369488751E+00  0.51109989000E-03 0.  1.
     -623    1    1    2    0    0 -0.58329830743E-03 -0.12882203280E-01  0.34093666821E-03  0.17130000049E+03  0.17130000000E+03 0. -1.
      622    1    1    2    0    0 -0.26956550742E-02  0.70238128616E-02  0.38160875781E+01  0.38163046268E+01  0.40000000000E-01 0.  1.
</event>
<event>
 5   0  0.6200596E+07  0.9118800E+02  0.7818608E-02  0.1180000E+00
       11   -1    0    0    0    0  0.00000000000E+00  0.00000000000E+00  0.39999999673E+01  0.40000000000E+01  0.51109989000E-03 0.  1.
     -623   -1    0    0    0    0  0.00000000000E+00  0.00000000000E+00  0.12525980253E-10  0.17130000000E+03  0.17130000000E+03 0. -1.
       11    1    1    2    0    0 -0.16806841610E-01 -0.58289202216E-02  0.11460670296E+00  0.11598018719E+00  0.51109989000E-03 0.  1.
     -623    1    1    2    0    0  0.74062362357E-03  0.21819699243E-02  0.16143954116E-02  0.17130000002E+03  0.17130000000E+03 0. -1.
      622    1    1    2    0    0  0.16066217987E-01  0.36469502973E-02  0.38837788690E+01  0.38840197897E+01  0.40000000000E-01 0.  1.
</event>
<event>
 5   0  0.6200596E+07  0.9118800E+02  0.7818608E-02  0.1180000E+00
       11   -1    0    0    0    0  0.00000000000E+00  0.00000000000E+00  0.39999999673E+01  0.40000000000E+01  0.51109989000E-03 0.  1.
     -623   -1    0    0    0    0  0.00000000000E+00  0.00000000000E+00  0.12525980253E-10  0.17130000000E+03  0.17130000000E+03 0.  1.
       11    1    1    2    0    0  0.25673318121E-01 -0.23901383343E-01  0.16108490722E+00  0.16486055909E+00  0.51109989000E-03 0.  1.
     -623    1    1    2    0    0 -0.15974490944E-01 -0.32570627647E-01  0.44162042964E-02  0.17130000390E+03  0.17130000000E+03 0.  1.
      622    1    1    2    0    0 -0.96988271771E-02  0.56472010990E-01  0.38344988558E+01  0.38351355427E+01  0.40000000000E-01 0.  1.
</event>
<event>
 5   0  0.6200596E+07  0.9118800E+02  0.7818608E-02  0.1180000E+00
       11   -1    0    0    0    0  0.00000000000E+00  0.00000000000E+00  0.39999999673E+01  0.40000000000E+01  0.51109989000E-03 0.  1.
     -623   -1    0    0    0    0  0.00000000000E+00  0.00000000000E+00  0.12525980253E-10  0.17130000000E+03  0.17130000000E+03 0. -1.
       11    1    1    2    0    0  0.40940221212E-03 -0.19268964107E-01  0.74570512811E+00  0.74595432829E+00  0.51109989000E-03 0.  1.
     -623    1    1    2    0    0  0.12270618096E-01 -0.30424848664E-02  0.59669604930E-03  0.17130000047E+03  0.17130000000E+03 0. -1.
      622    1    1    2    0    0 -0.12680020308E-01  0.22311448973E-01  0.32536981432E+01  0.32540452042E+01  0.40000000000E-01 0.  0.
</event>
<event>
 5   0  0.6200596E+07  0.9118800E+02  0.7818608E-02  0.1180000E+00
       11   -1    0    0    0    0  0.00000000000E+00  0.00000000000E+00  0.39999999673E+01  0.40000000000E+01  0.51109989000E-03 0. -1.
     -623   -1    0    0    0    0  0.00000000000E+00  0.00000000000E+00  0.12525980253E-10  0.17130000000E+03  0.17130000000E+03 0.  1.
       11    1    1    2    0    0  0.13624736821E-01  0.19659503262E-01  0.18666123887E+01  0.18667657058E+01  0.51109989000E-03 0. -1.
     -623    1    1    2    0    0  0.62541471005E-02 -0.10677287250E-01  0.64033818607E-03  0.17130000045E+03  0.17130000000E+03 0.  1.
      622    1    1    2    0    0 -0.19878883921E-01 -0.89822160124E-02  0.21327472405E+01  0.21332338461E+01  0.40000000000E-01 0. -1.
</event>
<event>
 5   0  0.6200596E+07  0.9118800E+02  0.7818608E-02  0.1180000E+00
       11   -1    0    0    0    0  0.00000000000E+00  0.00000000000E+00  0.39999999673E+01  0.40000000000E+01  0.51109989000E-03 0.  1.
     -623   -1    0    0    0    0  0.00000000000E+00  0.00000000000E+00  0.12525980253E-10  0.17130000000E+03  0.17130000000E+03 0. -1.
       11    1    1    2    0    0  0.47845607436E-02  0.13473644028E-02  0.42325591341E-01  0.42619529742E-01  0.51109989000E-03 0.  1.
     -623    1    1    2    0    0  0.42066551679E-03 -0.84740305257E-03  0.49952322402E-03  0.17130000000E+03  0.17130000000E+03 0. -1.
      622    1    1    2    0    0 -0.52052262604E-02 -0.49996135025E-03  0.39571748528E+01  0.39573804669E+01  0.40000000000E-01 0.  1.
</event>
<event>
 5   0  0.6200596E+07  0.9118800E+02  0.7818608E-02  0.1180000E+00
       11   -1    0    0    0    0  0.00000000000E+00  0.00000000000E+00  0.39999999673E+01  0.40000000000E+01  0.51109989000E-03 0. -1.
     -623   -1    0    0    0    0  0.00000000000E+00  0.00000000000E+00  0.12525980253E-10  0.17130000000E+03  0.17130000000E+03 0.  1.
       11    1    1    2    0    0  0.14864661690E-02 -0.19729601049E-02  0.16505401459E-01  0.16697055188E-01  0.51109989000E-03 0. -1.
     -623    1    1    2    0    0  0.31091180059E-03  0.61279767425E-03  0.39310410391E-03  0.17130000000E+03  0.17130000000E+03 0.  1.
      622    1    1    2    0    0 -0.17973779696E-02  0.13601624306E-02  0.39831014618E+01  0.39833029430E+01  0.40000000000E-01 0. -1.
</event>
<event>
 5   0  0.6200596E+07  0.9118800E+02  0.7818608E-02  0.1180000E+00
       11   -1    0    0    0    0  0.00000000000E+00  0.00000000000E+00  0.39999999673E+01  0.40000000000E+01  0.51109989000E-03 0. -1.
     -623   -1    0    0    0    0  0.00000000000E+00  0.00000000000E+00  0.12525980253E-10  0.17130000000E+03  0.17130000000E+03 0.  1.
       11    1    1    2    0    0  0.13112647834E-01 -0.15201669362E-01  0.29906248303E+00  0.29973598760E+00  0.51109989000E-03 0. -1.
     -623    1    1    2    0    0 -0.19281844562E-01  0.14343032156E-01  0.89660982656E-03  0.17130000169E+03  0.17130000000E+03 0.  1.
      622    1    1    2    0    0  0.61691967283E-02  0.85863720578E-03  0.37000408745E+01  0.37002623244E+01  0.40000000000E-01 0. -1.
</event>
<event>
 5   0  0.6200596E+07  0.9118800E+02  0.7818608E-02  0.1180000E+00
       11   -1    0    0    0    0  0.00000000000E+00  0.00000000000E+00  0.39999999673E+01  0.40000000000E+01  0.51109989000E-03 0. -1.
     -623   -1    0    0    0    0  0.00000000000E+00  0.00000000000E+00  0.12525980253E-10  0.17130000000E+03  0.17130000000E+03 0. -1.
       11    1    1    2    0    0  0.15332873428E-02 -0.73279031943E-03  0.23627457518E+00  0.23628123931E+00  0.51109989000E-03 0. -1.
     -623    1    1    2    0    0 -0.48228477513E-02  0.75488820334E-03  0.22070064236E-03  0.17130000007E+03  0.17130000000E+03 0. -1.
      622    1    1    2    0    0  0.32895604086E-02 -0.22097883915E-04  0.37635046915E+01  0.37637186910E+01  0.40000000000E-01 0. -1.
</event>
<event>
 5   0  0.6200596E+07  0.9118800E+02  0.7818608E-02  0.1180000E+00
       11   -1    0    0    0    0  0.00000000000E+00  0.00000000000E+00  0.39999999673E+01  0.40000000000E+01  0.51109989000E-03 0. -1.
     -623   -1    0    0    0    0  0.00000000000E+00  0.00000000000E+00  0.12525980253E-10  0.17130000000E+03  0.17130000000E+03 0.  1.
       11    1    1    2    0    0 -0.31387079179E-02  0.12035574272E-01  0.48545842423E-01  0.50116529932E-01  0.51109989000E-03 0. -1.
     -623    1    1    2    0    0 -0.27229167181E-02 -0.11324980999E-01  0.17780164022E-02  0.17130000041E+03  0.17130000000E+03 0.  1.
      622    1    1    2    0    0  0.58616246360E-02 -0.71059327288E-03  0.39496761085E+01  0.39498830648E+01  0.40000000000E-01 0. -1.
</event>
<event>
 5   0  0.6200596E+07  0.9118800E+02  0.7818608E-02  0.1180000E+00
       11   -1    0    0    0    0  0.00000000000E+00  0.00000000000E+00  0.39999999673E+01  0.40000000000E+01  0.51109989000E-03 0. -1.
     -623   -1    0    0    0    0  0.00000000000E+00  0.00000000000E+00  0.12525980253E-10  0.17130000000E+03  0.17130000000E+03 0.  1.
       11    1    1    2    0    0  0.43906237117E-02 -0.20139695288E-01  0.15335911139E+01  0.15337297190E+01  0.51109989000E-03 0. -1.
     -623    1    1    2    0    0  0.13349966657E-02  0.26547883372E-02  0.53163361594E-03  0.17130000003E+03  0.17130000000E+03 0.  1.
      622    1    1    2    0    0 -0.57256203775E-02  0.17484906951E-01  0.24658772198E+01  0.24662702544E+01  0.40000000000E-01 0. -1.
</event>
<event>
 5   0  0.6200596E+07  0.9118800E+02  0.7818608E-02  0.1180000E+00
       11   -1    0    0    0    0  0.00000000000E+00  0.00000000000E+00  0.39999999673E+01  0.40000000000E+01  0.51109989000E-03 0. -1.
     -623   -1    0    0    0    0  0.00000000000E+00  0.00000000000E+00  0.12525980253E-10  0.17130000000E+03  0.17130000000E+03 0.  1.
       11    1    1    2    0    0 -0.54246009414E-01  0.36284424533E-02  0.25242480516E+01  0.25248335158E+01  0.51109989000E-03 0. -1.
     -623    1    1    2    0    0  0.54179691578E-01 -0.14654570076E-01  0.11782701852E-02  0.17130000920E+03  0.17130000000E+03 0.  1.
      622    1    1    2    0    0  0.66317835868E-04  0.11026127622E-01  0.14745736455E+01  0.14751572852E+01  0.40000000000E-01 0.  0.
</event>
<event>
 5   0  0.6200596E+07  0.9118800E+02  0.7818608E-02  0.1180000E+00
       11   -1    0    0    0    0  0.00000000000E+00  0.00000000000E+00  0.39999999673E+01  0.40000000000E+01  0.51109989000E-03 0. -1.
     -623   -1    0    0    0    0  0.00000000000E+00  0.00000000000E+00  0.12525980253E-10  0.17130000000E+03  0.17130000000E+03 0. -1.
       11    1    1    2    0    0 -0.61899273015E-03 -0.22260014142E-02  0.87313248937E-01  0.87345308386E-01  0.51109989000E-03 0. -1.
     -623    1    1    2    0    0 -0.39805528099E-03  0.25606057527E-03  0.23712585879E-03  0.17130000000E+03  0.17130000000E+03 0. -1.
      622    1    1    2    0    0  0.10170480111E-02  0.19699408389E-02  0.39124495926E+01  0.39126546908E+01  0.40000000000E-01 0. -1.
</event>
<event>
 5   0  0.6200596E+07  0.9118800E+02  0.7818608E-02  0.1180000E+00
       11   -1    0    0    0    0  0.00000000000E+00  0.00000000000E+00  0.39999999673E+01  0.40000000000E+01  0.51109989000E-03 0. -1.
     -623   -1    0    0    0    0  0.00000000000E+00  0.00000000000E+00  0.12525980253E-10  0.17130000000E+03  0.17130000000E+03 0. -1.
       11    1    1    2    0    0 -0.11968349700E-02  0.37630797064E-02  0.57320994905E+00  0.57322377837E+00  0.51109989000E-03 0. -1.
     -623    1    1    2    0    0  0.44449446730E-02 -0.12905926066E-01  0.26154146673E-03  0.17130000054E+03  0.17130000000E+03 0. -1.
      622    1    1    2    0    0 -0.32481097030E-02  0.91428463596E-02  0.34265284768E+01  0.34267756776E+01  0.40000000000E-01 0. -1.
</event>
<event>
 5   0  0.6200596E+07  0.9118800E+02  0.7818608E-02  0.1180000E+00
       11   -1    0    0    0    0  0.00000000000E+00  0.00000000000E+00  0.39999999673E+01  0.40000000000E+01  0.51109989000E-03 0.  1.
     -623   -1    0    0    0    0  0.00000000000E+00  0.00000000000E+00  0.12525980253E-10  0.17130000000E+03  0.17130000000E+03 0. -1.
       11    1    1    2    0    0 -0.73821991330E-02  0.22806013921E-02  0.10791662285E+00  0.10819406969E+00  0.51109989000E-03 0.  1.
     -623    1    1    2    0    0  0.86728827390E-02  0.61944134559E-02  0.49275436718E-03  0.17130000033E+03  0.17130000000E+03 0. -1.
      622    1    1    2    0    0 -0.12906836060E-02 -0.84750148480E-02  0.38915905901E+01  0.38918055980E+01  0.40000000000E-01 0.  1.
</event>
<event>
 5   0  0.6200596E+07  0.9118800E+02  0.7818608E-02  0.1180000E+00
       11   -1    0    0    0    0  0.00000000000E+00  0.00000000000E+00  0.39999999673E+01  0.40000000000E+01  0.51109989000E-03 0. -1.
     -623   -1    0    0    0    0  0.00000000000E+00  0.00000000000E+00  0.12525980253E-10  0.17130000000E+03  0.17130000000E+03 0.  1.
       11    1    1    2    0    0  0.34194446216E-03 -0.36397251252E-03  0.10793281369E-01  0.10816910219E-01  0.51109989000E-03 0. -1.
     -623    1    1    2    0    0 -0.20519261005E-02 -0.93331634229E-03  0.22473600818E-03  0.17130000001E+03  0.17130000000E+03 0.  1.
      622    1    1    2    0    0  0.17099816383E-02  0.12972888548E-02  0.39889819500E+01  0.39891830748E+01  0.40000000000E-01 0. -1.
</event>
<event>
 5   0  0.6200596E+07  0.9118800E+02  0.7818608E-02  0.1180000E+00
       11   -1    0    0    0    0  0.00000000000E+00  0.00000000000E+00  0.39999999673E+01  0.40000000000E+01  0.51109989000E-03 0.  1.
     -623   -1    0    0    0    0  0.00000000000E+00  0.00000000000E+00  0.12525980253E-10  0.17130000000E+03  0.17130000000E+03 0. -1.
       11    1    1    2    0    0 -0.47228446031E-03 -0.40467396562E-03  0.72525660332E-02  0.72971054861E-02  0.51109989000E-03 0.  1.
     -623    1    1    2    0    0 -0.40578081815E-03  0.13243767425E-02  0.24508562424E-03  0.17130000001E+03  0.17130000000E+03 0. -1.
      622    1    1    2    0    0  0.87806527846E-03 -0.91970277691E-03  0.39925023157E+01  0.39927028887E+01  0.40000000000E-01 0.  1.
</event>
<event>
 5   0  0.6200596E+07  0.9118800E+02  0.7818608E-02  0.1180000E+00
       11   -1    0    0    0    0  0.00000000000E+00  0.00000000000E+00  0.39999999673E+01  0.40000000000E+01  0.51109989000E-03 0.  1.
     -623   -1    0    0    0    0  0.00000000000E+00  0.00000000000E+00  0.12525980253E-10  0.17130000000E+03  0.17130000000E+03 0. -1.
       11    1    1    2    0    0 -0.11023901328E-01 -0.80116404838E-02  0.16267257563E+01  0.16267829174E+01  0.51109989000E-03 0.  1.
     -623    1    1    2    0    0 -0.17891385658E-02 -0.50896517803E-02  0.46509584348E-03  0.17130000009E+03  0.17130000000E+03 0. -1.
      622    1    1    2    0    0  0.12813039894E-01  0.13101292264E-01  0.23728091152E+01  0.23732169971E+01  0.40000000000E-01 0. -1.
</event>
<event>
 5   0  0.6200596E+07  0.9118800E+02  0.7818608E-02  0.1180000E+00
       11   -1    0    0    0    0  0.00000000000E+00  0.00000000000E+00  0.39999999673E+01  0.40000000000E+01  0.51109989000E-03 0. -1.
     -623   -1    0    0    0    0  0.00000000000E+00  0.00000000000E+00  0.12525980253E-10  0.17130000000E+03  0.17130000000E+03 0. -1.
       11    1    1    2    0    0 -0.62819811942E-02  0.92490423452E-02  0.51854538492E+00  0.51866615998E+00  0.51109989000E-03 0. -1.
     -623    1    1    2    0    0  0.30646381844E-02 -0.54690200239E-03  0.36293936891E-03  0.17130000003E+03  0.17130000000E+03 0. -1.
      622    1    1    2    0    0  0.32173430097E-02 -0.87021403428E-02  0.34810916431E+01  0.34813338113E+01  0.40000000000E-01 0. -1.
</event>
<event>
 5   0  0.6200596E+07  0.9118800E+02  0.7818608E-02  0.1180000E+00
       11   -1    0    0    0    0  0.00000000000E+00  0.00000000000E+00  0.39999999673E+01  0.40000000000E+01  0.51109989000E-03 0.  1.
     -623   -1    0    0    0    0  0.00000000000E+00  0.00000000000E+00  0.12525980253E-10  0.17130000000E+03  0.17130000000E+03 0.  1.
       11    1    1    2    0    0  0.17937056230E-02 -0.13726125984E-01  0.87288338468E+00  0.87299329229E+00  0.51109989000E-03 0.  1.
     -623    1    1    2    0    0 -0.44782460611E-02 -0.20782166140E-02  0.40688747361E-03  0.17130000007E+03  0.17130000000E+03 0.  1.
      622    1    1    2    0    0  0.26845404381E-02  0.15804342598E-01  0.31267096952E+01  0.31270066361E+01  0.40000000000E-01 0.  1.
</event>
<event>
 5   0  0.6200596E+07  0.9118800E+02  0.7818608E-02  0.1180000E+00
       11   -1    0    0    0    0  0.00000000000E+00  0.00000000000E+00  0.39999999673E+01  0.40000000000E+01  0.51109989000E-03 0.  1.
     -623   -1    0    0    0    0  0.00000000000E+00  0.00000000000E+00  0.12525980253E-10  0.17130000000E+03  0.17130000000E+03 0. -1.
       11    1    1    2    0    0 -0.50553044771E-03 -0.91645319382E-02  0.57933300260E-01  0.58658100097E-01  0.51109989000E-03 0.  1.
     -623    1    1    2    0    0  0.34680371168E-02  0.45730122161E-02  0.93163572042E-03  0.17130000010E+03  0.17130000000E+03 0. -1.
      622    1    1    2    0    0 -0.29625066691E-02  0.45915197220E-02  0.39411350314E+01  0.39413418012E+01  0.40000000000E-01 0.  1.
</event>
<event>
 5   0  0.6200596E+07  0.9118800E+02  0.7818608E-02  0.1180000E+00
       11   -1    0    0    0    0  0.00000000000E+00  0.00000000000E+00  0.39999999673E+01  0.40000000000E+01  0.51109989000E-03 0.  1.
     -623   -1    0    0    0    0  0.00000000000E+00  0.00000000000E+00  0.12525980253E-10  0.17130000000E+03  0.17130000000E+03 0. -1.
       11    1    1    2    0    0  0.96865683210E-02  0.21974223622E-02  0.64462558478E-01  0.65225309029E-01  0.51109989000E-03 0.  1.
     -623    1    1    2    0    0 -0.10765951596E-01 -0.86856571472E-03  0.96675420898E-03  0.17130000034E+03  0.17130000000E+03 0. -1.
      622    1    1    2    0    0  0.10793832747E-02 -0.13288566475E-02  0.39345706547E+01  0.39347743477E+01  0.40000000000E-01 0.  1.
</event>
<event>
 5   0  0.6200596E+07  0.9118800E+02  0.7818608E-02  0.1180000E+00
       11   -1    0    0    0    0  0.00000000000E+00  0.00000000000E+00  0.39999999673E+01  0.40000000000E+01  0.51109989000E-03 0. -1.
     -623   -1    0    0    0    0  0.00000000000E+00  0.00000000000E+00  0.12525980253E-10  0.17130000000E+03  0.17130000000E+03 0. -1.
       11    1    1    2    0    0 -0.10478020029E-02  0.12991094700E-01  0.69698798259E+00  0.69711001681E+00  0.51109989000E-03 0. -1.
     -623    1    1    2    0    0 -0.44245574147E-03  0.95116761118E-03  0.39399151833E-03  0.17130000000E+03  0.17130000000E+03 0. -1.
      622    1    1    2    0    0  0.14902577443E-02 -0.13942262311E-01  0.33026179932E+01  0.33028899795E+01  0.40000000000E-01 0. -1.
</event>
<event>
 5   0  0.6200596E+07  0.9118800E+02  0.7818608E-02  0.1180000E+00
       11   -1    0    0    0    0  0.00000000000E+00  0.00000000000E+00  0.39999999673E+01  0.40000000000E+01  0.51109989000E-03 0. -1.
     -623   -1    0    0    0    0  0.00000000000E+00  0.00000000000E+00  0.12525980253E-10  0.17130000000E+03  0.17130000000E+03 0.  1.
       11    1    1    2    0    0  0.54584884675E-02  0.11320387872E-01  0.55395488406E+00  0.55409766384E+00  0.51109989000E-03 0. -1.
     -623    1    1    2    0    0  0.36312780174E-03 -0.63787285640E-03  0.39639415455E-03  0.17130000000E+03  0.17130000000E+03 0.  1.
      622    1    1    2    0    0 -0.58216162693E-02 -0.10682515016E-01  0.34456486891E+01  0.34459023341E+01  0.40000000000E-01 0. -1.
</event>
<event>
 5   0  0.6200596E+07  0.9118800E+02  0.7818608E-02  0.1180000E+00
       11   -1    0    0    0    0  0.00000000000E+00  0.00000000000E+00  0.39999999673E+01  0.40000000000E+01  0.51109989000E-03 0. -1.
     -623   -1    0    0    0    0  0.00000000000E+00  0.00000000000E+00  0.12525980253E-10  0.17130000000E+03  0.17130000000E+03 0.  1.
       11    1    1    2    0    0 -0.19268512323E-02 -0.58465089818E-02  0.14481410755E+01  0.14481542495E+01  0.51109989000E-03 0. -1.
     -623    1    1    2    0    0  0.57822230184E-03 -0.84228780081E-03  0.33578622658E-03  0.17130000000E+03  0.17130000000E+03 0.  1.
      622    1    1    2    0    0  0.13486289305E-02  0.66887967826E-02  0.25515231056E+01  0.25518457471E+01  0.40000000000E-01 0. -1.
</event>
<event>
 5   0  0.6200596E+07  0.9118800E+02  0.7818608E-02  0.1180000E+00
       11   -1    0    0    0    0  0.00000000000E+00  0.00000000000E+00  0.39999999673E+01  0.40000000000E+01  0.51109989000E-03 0. -1.
     -623   -1    0    0    0    0  0.00000000000E+00  0.00000000000E+00  0.12525980253E-10  0.17130000000E+03  0.17130000000E+03 0. -1.
       11    1    1    2    0    0 -0.62984906425E-02  0.43140428847E-02  0.12334330123E+01  0.12334567439E+01  0.51109989000E-03 0. -1.
     -623    1    1    2    0    0  0.72931331846E-02  0.59033528465E-02  0.33218919247E-03  0.17130000026E+03  0.17130000000E+03 0. -1.
      622    1    1    2    0    0 -0.99464254208E-03 -0.10217395731E-01  0.27662347659E+01  0.27665429988E+01  0.40000000000E-01 0. -1.
</event>
<event>
 5   0  0.6200596E+07  0.9118800E+02  0.7818608E-02  0.1180000E+00
       11   -1    0    0    0    0  0.00000000000E+00  0.00000000000E+00  0.39999999673E+01  0.40000000000E+01  0.51109989000E-03 0. -1.
     -623   -1    0    0    0    0  0.00000000000E+00  0.00000000000E+00  0.12525980253E-10  0.17130000000E+03  0.17130000000E+03 0. -1.
       11    1    1    2    0    0  0.11406923993E-01  0.26778481927E-02  0.84919654081E+00  0.84927752527E+00  0.51109989000E-03 0. -1.
     -623    1    1    2    0    0 -0.72213457663E-03 -0.76538004496E-03  0.35357488771E-03  0.17130000000E+03  0.17130000000E+03 0. -1.
      622    1    1    2    0    0 -0.10684789416E-01 -0.19124681477E-02  0.31504498517E+01  0.31507224711E+01  0.40000000000E-01 0.  0.
</event>
<event>
 5   0  0.6200596E+07  0.9118800E+02  0.7818608E-02  0.1180000E+00
       11   -1    0    0    0    0  0.00000000000E+00  0.00000000000E+00  0.39999999673E+01  0.40000000000E+01  0.51109989000E-03 0. -1.
     -623   -1    0    0    0    0  0.00000000000E+00  0.00000000000E+00  0.12525980253E-10  0.17130000000E+03  0.17130000000E+03 0.  1.
       11    1    1    2    0    0  0.89515736892E-02 -0.11125765298E-01  0.35200204456E+00  0.35229194416E+00  0.51109989000E-03 0. -1.
     -623    1    1    2    0    0  0.66277214425E-03  0.39779883801E-03  0.53763969124E-03  0.17130000000E+03  0.17130000000E+03 0.  1.
      622    1    1    2    0    0 -0.96143458335E-02  0.10727966460E-01  0.36474602831E+01  0.36477080533E+01  0.40000000000E-01 0. -1.
</event>
<event>
 5   0  0.6200596E+07  0.9118800E+02  0.7818608E-02  0.1180000E+00
       11   -1    0    0    0    0  0.00000000000E+00  0.00000000000E+00  0.39999999673E+01  0.40000000000E+01  0.51109989000E-03 0.  1.
     -623   -1    0    0    0    0  0.00000000000E+00  0.00000000000E+00  0.12525980253E-10  0.17130000000E+03  0.17130000000E+03 0. -1.
       11    1    1    2    0    0 -0.25105605491E-02 -0.19367350495E-02 -0.26437267612E-02  0.41598520515E-02  0.51109989000E-03 0. -1.
     -623    1    1    2    0    0  0.21311275096E-02  0.81276934926E-03  0.70040938819E-02  0.17130000016E+03  0.17130000000E+03 0. -1.
      622    1    1    2    0    0  0.37943303955E-03  0.11239657002E-02  0.39956396002E+01  0.39958399896E+01  0.40000000000E-01 0.  1.
</event>
<event>
 5   0  0.6200596E+07  0.9118800E+02  0.7818608E-02  0.1180000E+00
       11   -1    0    0    0    0  0.00000000000E+00  0.00000000000E+00  0.39999999673E+01  0.40000000000E+01  0.51109989000E-03 0. -1.
     -623   -1    0    0    0    0  0.00000000000E+00  0.00000000000E+00  0.12525980253E-10  0.17130000000E+03  0.17130000000E+03 0. -1.
       11    1    1    2    0    0 -0.86511401443E-01 -0.10140317770E+00  0.57055668473E+00  0.58591980573E+00  0.51109989000E-03 0. -1.
     -623    1    1    2    0    0  0.18914672146E-01  0.70451877616E-01  0.16423381972E-01  0.17130001632E+03  0.17130000000E+03 0. -1.
      622    1    1    2    0    0  0.67596729297E-01  0.30951300086E-01  0.34130199007E+01  0.34140638751E+01  0.40000000000E-01 0. -1.
</event>
<event>
 5   0  0.6200596E+07  0.9118800E+02  0.7818608E-02  0.1180000E+00
       11   -1    0    0    0    0  0.00000000000E+00  0.00000000000E+00  0.39999999673E+01  0.40000000000E+01  0.51109989000E-03 0.  1.
     -623   -1    0    0    0    0  0.00000000000E+00  0.00000000000E+00  0.12525980253E-10  0.17130000000E+03  0.17130000000E+03 0. -1.
       11    1    1    2    0    0 -0.49692899871E-02 -0.13741832020E-02  0.71313134496E-01  0.71501095059E-01  0.51109989000E-03 0.  1.
     -623    1    1    2    0    0  0.86388986226E-02  0.16642340282E-02  0.39352439474E-03  0.17130000023E+03  0.17130000000E+03 0. -1.
      622    1    1    2    0    0 -0.36696086355E-02 -0.29005082614E-03  0.39282933085E+01  0.39284986786E+01  0.40000000000E-01 0.  1.
</event>
<event>
 5   0  0.6200596E+07  0.9118800E+02  0.7818608E-02  0.1180000E+00
       11   -1    0    0    0    0  0.00000000000E+00  0.00000000000E+00  0.39999999673E+01  0.40000000000E+01  0.51109989000E-03 0.  1.
     -623   -1    0    0    0    0  0.00000000000E+00  0.00000000000E+00  0.12525980253E-10  0.17130000000E+03  0.17130000000E+03 0. -1.
       11    1    1    2    0    0 -0.55341224716E-01 -0.53932292890E-02  0.25869339215E+01  0.25875314710E+01  0.51109989000E-03 0.  1.
     -623    1    1    2    0    0  0.27198081072E-01  0.21263611391E-01  0.15372319095E-02  0.17130000349E+03  0.17130000000E+03 0. -1.
      622    1    1    2    0    0  0.28143143644E-01 -0.15870382102E-01  0.14115288140E+01  0.14124650432E+01  0.40000000000E-01 0.  1.
</event>
<event>
 5   0  0.6200596E+07  0.9118800E+02  0.7818608E-02  0.1180000E+00
       11   -1    0    0    0    0  0.00000000000E+00  0.00000000000E+00  0.39999999673E+01  0.40000000000E+01  0.51109989000E-03 0.  1.
     -623   -1    0    0    0    0  0.00000000000E+00  0.00000000000E+00  0.12525980253E-10  0.17130000000E+03  0.17130000000E+03 0. -1.
       11    1    1    2    0    0 -0.11906678076E-02  0.83978958051E-03  0.45463745203E-02  0.48014246452E-02  0.51109989000E-03 0.  1.
     -623    1    1    2    0    0  0.28040457149E-02 -0.14775771045E-02  0.45566948391E-03  0.17130000003E+03  0.17130000000E+03 0. -1.
      622    1    1    2    0    0 -0.16133779073E-02  0.63778752399E-03  0.39949979234E+01  0.39951985454E+01  0.40000000000E-01 0.  1.
</event>
<event>
 5   0  0.6200596E+07  0.9118800E+02  0.7818608E-02  0.1180000E+00
       11   -1    0    0    0    0  0.00000000000E+00  0.00000000000E+00  0.39999999673E+01  0.40000000000E+01  0.51109989000E-03 0. -1.
     -623   -1    0    0    0    0  0.00000000000E+00  0.00000000000E+00  0.12525980253E-10  0.17130000000E+03  0.17130000000E+03 0. -1.
       11    1    1    2    0    0  0.58907257710E-02  0.48683737929E-02  0.38138575205E-01  0.38900049540E-01  0.51109989000E-03 0. -1.
     -623    1    1    2    0    0 -0.85224997330E-02 -0.74081175418E-02  0.96547445327E-03  0.17130000037E+03  0.17130000000E+03 0. -1.
      622    1    1    2    0    0  0.26317739620E-02  0.25397437489E-02  0.39608959177E+01  0.39610995755E+01  0.40000000000E-01 0. -1.
</event>
<event>
 5   0  0.6200596E+07  0.9118800E+02  0.7818608E-02  0.1180000E+00
       11   -1    0    0    0    0  0.00000000000E+00  0.00000000000E+00  0.39999999673E+01  0.40000000000E+01  0.51109989000E-03 0. -1.
     -623   -1    0    0    0    0  0.00000000000E+00  0.00000000000E+00  0.12525980253E-10  0.17130000000E+03  0.17130000000E+03 0. -1.
       11    1    1    2    0    0 -0.29752470655E-01  0.19108632874E-01  0.14550900545E+01  0.14555197275E+01  0.51109989000E-03 0. -1.
     -623    1    1    2    0    0  0.18772289434E-01  0.12925863237E-01  0.97096837087E-03  0.17130000152E+03  0.17130000000E+03 0. -1.
      622    1    1    2    0    0  0.10980181221E-01 -0.32034496111E-01  0.25439389445E+01  0.25444787534E+01  0.40000000000E-01 0. -1.
</event>
<event>
 5   0  0.6200596E+07  0.9118800E+02  0.7818608E-02  0.1180000E+00
       11   -1    0    0    0    0  0.00000000000E+00  0.00000000000E+00  0.39999999673E+01  0.40000000000E+01  0.51109989000E-03 0.  1.
     -623   -1    0    0    0    0  0.00000000000E+00  0.00000000000E+00  0.12525980253E-10  0.17130000000E+03  0.17130000000E+03 0.  1.
       11    1    1    2    0    0  0.74317021714E-03 -0.12090504895E-03  0.10769451202E-01  0.10807831440E-01  0.51109989000E-03 0.  1.
     -623    1    1    2    0    0 -0.52223301655E-04  0.87481553984E-04  0.23895467212E-03  0.17130000000E+03  0.17130000000E+03 0.  1.
      622    1    1    2    0    0 -0.69094691548E-03  0.33423494967E-04  0.39889915615E+01  0.39891921684E+01  0.40000000000E-01 0.  1.
</event>
<event>
 5   0  0.6200596E+07  0.9118800E+02  0.7818608E-02  0.1180000E+00
       11   -1    0    0    0    0  0.00000000000E+00  0.00000000000E+00  0.39999999673E+01  0.40000000000E+01  0.51109989000E-03 0. -1.
     -623   -1    0    0    0    0  0.00000000000E+00  0.00000000000E+00  0.12525980253E-10  0.17130000000E+03  0.17130000000E+03 0.  1.
       11    1    1    2    0    0  0.24401890190E-01  0.13978975126E-01  0.24820127567E+00  0.24978990863E+00  0.51109989000E-03 0. -1.
     -623    1    1    2    0    0 -0.14183717769E-01 -0.21054764821E-01  0.18244158747E-02  0.17130000189E+03  0.17130000000E+03 0.  1.
      622    1    1    2    0    0 -0.10218172421E-01  0.70757896947E-02  0.37499742758E+01  0.37502082005E+01  0.40000000000E-01 0. -1.
</event>
<event>
 5   0  0.6200596E+07  0.9118800E+02  0.7818608E-02  0.1180000E+00
       11   -1    0    0    0    0  0.00000000000E+00  0.00000000000E+00  0.39999999673E+01  0.40000000000E+01  0.51109989000E-03 0. -1.
     -623   -1    0    0    0    0  0.00000000000E+00  0.00000000000E+00  0.12525980253E-10  0.17130000000E+03  0.17130000000E+03 0. -1.
       11    1    1    2    0    0 -0.13790020842E-02  0.35853422479E-03  0.62694292194E-02  0.64495859650E-02  0.51109989000E-03 0. -1.
     -623    1    1    2    0    0  0.59335002578E-03  0.89488249936E-03  0.38072991176E-03  0.17130000000E+03  0.17130000000E+03 0. -1.
      622    1    1    2    0    0  0.78565205844E-03 -0.12534167242E-02  0.39933498082E+01  0.39935504102E+01  0.40000000000E-01 0. -1.
</event>
<event>
 5   0  0.6200596E+07  0.9118800E+02  0.7818608E-02  0.1180000E+00
       11   -1    0    0    0    0  0.00000000000E+00  0.00000000000E+00  0.39999999673E+01  0.40000000000E+01  0.51109989000E-03 0. -1.
     -623   -1    0    0    0    0  0.00000000000E+00  0.00000000000E+00  0.12525980253E-10  0.17130000000E+03  0.17130000000E+03 0. -1.
       11    1    1    2    0    0 -0.31734646082E-02  0.20089099110E-03  0.21257967168E-01  0.21500549419E-01  0.51109989000E-03 0. -1.
     -623    1    1    2    0    0  0.31245537190E-03 -0.60606338231E-03  0.44468684959E-03  0.17130000000E+03  0.17130000000E+03 0. -1.
      622    1    1    2    0    0  0.28610092363E-02  0.40517239121E-03  0.39782973133E+01  0.39784994486E+01  0.40000000000E-01 0. -1.
</event>
<event>
 5   0  0.6200596E+07  0.9118800E+02  0.7818608E-02  0.1180000E+00
       11   -1    0    0    0    0  0.00000000000E+00  0.00000000000E+00  0.39999999673E+01  0.40000000000E+01  0.51109989000E-03 0.  1.
     -623   -1    0    0    0    0  0.00000000000E+00  0.00000000000E+00  0.12525980253E-10  0.17130000000E+03  0.17130000000E+03 0. -1.
       11    1    1    2    0    0  0.71509638429E-02  0.19980334115E-01  0.40618619340E+00  0.40674050077E+00  0.51109989000E-03 0.  1.
     -623    1    1    2    0    0 -0.10218881890E-01 -0.39724505558E-02  0.81424307103E-03  0.17130000035E+03  0.17130000000E+03 0. -1.
      622    1    1    2    0    0  0.30679180468E-02 -0.16007883559E-01  0.35929995309E+01  0.35932591464E+01  0.40000000000E-01 0.  1.
</event>
<event>
 5   0  0.6200596E+07  0.9118800E+02  0.7818608E-02  0.1180000E+00
       11   -1    0    0    0    0  0.00000000000E+00  0.00000000000E+00  0.39999999673E+01  0.40000000000E+01  0.51109989000E-03 0.  1.
     -623   -1    0    0    0    0  0.00000000000E+00  0.00000000000E+00  0.12525980253E-10  0.17130000000E+03  0.17130000000E+03 0. -1.
       11    1    1    2    0    0 -0.33001172757E-02 -0.41246698240E-01  0.28980321166E+01  0.28983275506E+01  0.51109989000E-03 0.  1.
     -623    1    1    2    0    0  0.10889147422E-01 -0.38420765110E-02  0.19720725356E-02  0.17130000040E+03  0.17130000000E+03 0. -1.
      622    1    1    2    0    0 -0.75890301463E-02  0.45088774751E-01  0.10999957782E+01  0.11016720488E+01  0.40000000000E-01 0.  0.
</event>
<event>
 5   0  0.6200596E+07  0.9118800E+02  0.7818608E-02  0.1180000E+00
       11   -1    0    0    0    0  0.00000000000E+00  0.00000000000E+00  0.39999999673E+01  0.40000000000E+01  0.51109989000E-03 0.  1.
     -623   -1    0    0    0    0  0.00000000000E+00  0.00000000000E+00  0.12525980253E-10  0.17130000000E+03  0.17130000000E+03 0.  1.
       11    1    1    2    0    0  0.15288135087E-01 -0.21435183864E-01  0.93235638849E-01  0.96883124201E-01  0.51109989000E-03 0.  1.
     -623    1    1    2    0    0 -0.12581437516E-01 -0.64069261062E-02  0.39532981497E-02  0.17130000063E+03  0.17130000000E+03 0.  1.
      622    1    1    2    0    0 -0.27066975709E-02  0.27842109970E-01  0.39028110304E+01  0.39031162483E+01  0.40000000000E-01 0.  1.
</event>
<event>
 5   0  0.6200596E+07  0.9118800E+02  0.7818608E-02  0.1180000E+00
       11   -1    0    0    0    0  0.00000000000E+00  0.00000000000E+00  0.39999999673E+01  0.40000000000E+01  0.51109989000E-03 0.  1.
     -623   -1    0    0    0    0  0.00000000000E+00  0.00000000000E+00  0.12525980253E-10  0.17130000000E+03  0.17130000000E+03 0.  1.
       11    1    1    2    0    0 -0.51130875383E-02 -0.12501926397E-01  0.72499177075E+00  0.72511776334E+00  0.51109989000E-03 0.  1.
     -623    1    1    2    0    0 -0.22947143631E-01 -0.84181969696E-03  0.51920650983E-03  0.17130000154E+03  0.17130000000E+03 0.  1.
      622    1    1    2    0    0  0.28060231170E-01  0.13343746094E-01  0.32744889901E+01  0.32748806968E+01  0.40000000000E-01 0.  0.
</event>
<event>
 5   0  0.6200596E+07  0.9118800E+02  0.7818608E-02  0.1180000E+00
       11   -1    0    0    0    0  0.00000000000E+00  0.00000000000E+00  0.39999999673E+01  0.40000000000E+01  0.51109989000E-03 0.  1.
     -623   -1    0    0    0    0  0.00000000000E+00  0.00000000000E+00  0.12525980253E-10  0.17130000000E+03  0.17130000000E+03 0.  1.
       11    1    1    2    0    0  0.60353815387E-02  0.39782006376E-02  0.33805086526E+01  0.33805164196E+01  0.51109989000E-03 0.  1.
     -623    1    1    2    0    0 -0.73323238380E-02  0.46922449661E-02  0.13628759319E-02  0.17130000023E+03  0.17130000000E+03 0.  1.
      622    1    1    2    0    0  0.12969422993E-02 -0.86704456038E-02  0.61812843888E+00  0.61948335380E+00  0.40000000000E-01 0. -1.
</event>
<event>
 5   0  0.6200596E+07  0.9118800E+02  0.7818608E-02  0.1180000E+00
       11   -1    0    0    0    0  0.00000000000E+00  0.00000000000E+00  0.39999999673E+01  0.40000000000E+01  0.51109989000E-03 0. -1.
     -623   -1    0    0    0    0  0.00000000000E+00  0.00000000000E+00  0.12525980253E-10  0.17130000000E+03  0.17130000000E+03 0.  1.
       11    1    1    2    0    0 -0.25330093711E-01  0.50822058099E-02  0.23693310155E+01  0.23694719168E+01  0.51109989000E-03 0. -1.
     -623    1    1    2    0    0 -0.55593721711E-04  0.71677250191E-03  0.83958745717E-03  0.17130000000E+03  0.17130000000E+03 0.  1.
      622    1    1    2    0    0  0.25385687433E-01 -0.57989783118E-02  0.16298293644E+01  0.16305280796E+01  0.40000000000E-01 0.  0.
</event>
<event>
 5   0  0.6200596E+07  0.9118800E+02  0.7818608E-02  0.1180000E+00
       11   -1    0    0    0    0  0.00000000000E+00  0.00000000000E+00  0.39999999673E+01  0.40000000000E+01  0.51109989000E-03 0.  1.
     -623   -1    0    0    0    0  0.00000000000E+00  0.00000000000E+00  0.12525980253E-10  0.17130000000E+03  0.17130000000E+03 0.  1.
       11    1    1    2    0    0 -0.36558827311E-01 -0.53479071679E-02  0.44388653580E+00  0.44542189647E+00  0.51109989000E-03 0.  1.
     -623    1    1    2    0    0  0.56473083063E-02 -0.12684562601E-01  0.19411336189E-02  0.17130000057E+03  0.17130000000E+03 0.  1.
      622    1    1    2    0    0  0.30911519004E-01  0.18032469769E-01  0.35541722979E+01  0.35545775298E+01  0.40000000000E-01 0.  1.
</event>
<event>
 5   0  0.6200596E+07  0.9118800E+02  0.7818608E-02  0.1180000E+00
       11   -1    0    0    0    0  0.00000000000E+00  0.00000000000E+00  0.39999999673E+01  0.40000000000E+01  0.51109989000E-03 0.  1.
     -623   -1    0    0    0    0  0.00000000000E+00  0.00000000000E+00  0.12525980253E-10  0.17130000000E+03  0.17130000000E+03 0. -1.
       11    1    1    2    0    0  0.54884774591E-01 -0.16610789941E-01  0.15743430275E+00  0.16755320865E+00  0.51109989000E-03 0.  1.
     -623    1    1    2    0    0 -0.21210988586E-01 -0.10210904006E-01  0.10571381875E-01  0.17130000194E+03  0.17130000000E+03 0. -1.
      622    1    1    2    0    0 -0.33673786005E-01  0.26821693947E-01  0.38319942827E+01  0.38324448476E+01  0.40000000000E-01 0.  1.
</event>
<event>
 5   0  0.6200596E+07  0.9118800E+02  0.7818608E-02  0.1180000E+00
       11   -1    0    0    0    0  0.00000000000E+00  0.00000000000E+00  0.39999999673E+01  0.40000000000E+01  0.51109989000E-03 0.  1.
     -623   -1    0    0    0    0  0.00000000000E+00  0.00000000000E+00  0.12525980253E-10  0.17130000000E+03  0.17130000000E+03 0.  1.
       11    1    1    2    0    0 -0.24511201306E-02  0.16331106233E-03  0.63135572915E-01  0.63185413265E-01  0.51109989000E-03 0.  1.
     -623    1    1    2    0    0 -0.33832503026E-04  0.39404645602E-03  0.25384733412E-03  0.17130000000E+03  0.17130000000E+03 0.  1.
      622    1    1    2    0    0  0.24849526336E-02 -0.55735751835E-03  0.39366105471E+01  0.39368145861E+01  0.40000000000E-01 0.  1.
</event>
<event>
 5   0  0.6200596E+07  0.9118800E+02  0.7818608E-02  0.1180000E+00
       11   -1    0    0    0    0  0.00000000000E+00  0.00000000000E+00  0.39999999673E+01  0.40000000000E+01  0.51109989000E-03 0.  1.
     -623   -1    0    0    0    0  0.00000000000E+00  0.00000000000E+00  0.12525980253E-10  0.17130000000E+03  0.17130000000E+03 0.  1.
       11    1    1    2    0    0  0.10407944313E-02  0.35256873353E-02  0.30742953650E+00  0.30745193911E+00  0.51109989000E-03 0.  1.
     -623    1    1    2    0    0 -0.54509200393E-02 -0.51775153861E-02  0.24219725373E-03  0.17130000017E+03  0.17130000000E+03 0.  1.
      622    1    1    2    0    0  0.44101256079E-02  0.16518280508E-02  0.36923282336E+01  0.36925478958E+01  0.40000000000E-01 0.  1.
</event>
<event>
 5   0  0.6200596E+07  0.9118800E+02  0.7818608E-02  0.1180000E+00
       11   -1    0    0    0    0  0.00000000000E+00  0.00000000000E+00  0.39999999673E+01  0.40000000000E+01  0.51109989000E-03 0.  1.
     -623   -1    0    0    0    0  0.00000000000E+00  0.00000000000E+00  0.12525980253E-10  0.17130000000E+03  0.17130000000E+03 0.  1.
       11    1    1    2    0    0 -0.30422953517E-02 -0.62845401429E-02  0.35249797260E-01  0.35938286451E-01  0.51109989000E-03 0.  1.
     -623    1    1    2    0    0  0.63311871089E-02  0.30418318135E-02  0.89311204428E-03  0.17130000015E+03  0.17130000000E+03 0.  1.
      622    1    1    2    0    0 -0.32888917572E-02  0.32427083293E-02  0.39638570581E+01  0.39640615672E+01  0.40000000000E-01 0.  1.
</event>
<event>
 5   0  0.6200596E+07  0.9118800E+02  0.7818608E-02  0.1180000E+00
       11   -1    0    0    0    0  0.00000000000E+00  0.00000000000E+00  0.39999999673E+01  0.40000000000E+01  0.51109989000E-03 0. -1.
     -623   -1    0    0    0    0  0.00000000000E+00  0.00000000000E+00  0.12525980253E-10  0.17130000000E+03  0.17130000000E+03 0.  1.
       11    1    1    2    0    0  0.74401954533E-02  0.91376965091E-02  0.19263349184E+00  0.19299424189E+00  0.51109989000E-03 0. -1.
     -623    1    1    2    0    0  0.93171883106E-03 -0.39366845509E-03  0.59011424189E-03  0.17130000000E+03  0.17130000000E+03 0.  1.
      622    1    1    2    0    0 -0.83719142843E-02 -0.87440280540E-02  0.38067763613E+01  0.38070057541E+01  0.40000000000E-01 0. -1.
</event>
<event>
 5   0  0.6200596E+07  0.9118800E+02  0.7818608E-02  0.1180000E+00
       11   -1    0    0    0    0  0.00000000000E+00  0.00000000000E+00  0.39999999673E+01  0.40000000000E+01  0.51109989000E-03 0.  1.
     -623   -1    0    0    0    0  0.00000000000E+00  0.00000000000E+00  0.12525980253E-10  0.17130000000E+03  0.17130000000E+03 0. -1.
       11    1    1    2    0    0 -0.38983443725E-02 -0.11663863084E-01  0.14343727095E+00  0.14396442167E+00  0.51109989000E-03 0.  1.
     -623    1    1    2    0    0  0.81591994546E-02  0.15657435089E-01  0.73992450472E-03  0.17130000091E+03  0.17130000000E+03 0. -1.
      622    1    1    2    0    0 -0.42608550821E-02 -0.39935720042E-02  0.38558227719E+01  0.38560346668E+01  0.40000000000E-01 0.  1.
</event>
<event>
 5   0  0.6200596E+07  0.9118800E+02  0.7818608E-02  0.1180000E+00
       11   -1    0    0    0    0  0.00000000000E+00  0.00000000000E+00  0.39999999673E+01  0.40000000000E+01  0.51109989000E-03 0. -1.
     -623   -1    0    0    0    0  0.00000000000E+00  0.00000000000E+00  0.12525980253E-10  0.17130000000E+03  0.17130000000E+03 0.  1.
       11    1    1    2    0    0  0.79995858766E-03 -0.13528038226E-02  0.21637440842E-01  0.21700462651E-01  0.51109989000E-03 0. -1.
     -623    1    1    2    0    0  0.90406685553E-04 -0.15612619830E-03  0.26447130766E-03  0.17130000000E+03  0.17130000000E+03 0.  1.
      622    1    1    2    0    0 -0.89036527321E-03  0.15089300209E-02  0.39780980552E+01  0.39782995370E+01  0.40000000000E-01 0. -1.
</event>
<event>
 5   0  0.6200596E+07  0.9118800E+02  0.7818608E-02  0.1180000E+00
       11   -1    0    0    0    0  0.00000000000E+00  0.00000000000E+00  0.39999999673E+01  0.40000000000E+01  0.51109989000E-03 0. -1.
     -623   -1    0    0    0    0  0.00000000000E+00  0.00000000000E+00  0.12525980253E-10  0.17130000000E+03  0.17130000000E+03 0.  1.
       11    1    1    2    0    0 -0.36871743084E-02 -0.39016030331E-02  0.41086420473E-02  0.67793747358E-02  0.51109989000E-03 0. -1.
     -623    1    1    2    0    0  0.32131984203E-02  0.53201116030E-02  0.28714615335E-02  0.17130000014E+03  0.17130000000E+03 0.  1.
      622    1    1    2    0    0  0.47397588812E-03 -0.14185085699E-02  0.39930198638E+01  0.39932204884E+01  0.40000000000E-01 0. -1.
</event>
<event>
 5   0  0.6200596E+07  0.9118800E+02  0.7818608E-02  0.1180000E+00
       11   -1    0    0    0    0  0.00000000000E+00  0.00000000000E+00  0.39999999673E+01  0.40000000000E+01  0.51109989000E-03 0. -1.
     -623   -1    0    0    0    0  0.00000000000E+00  0.00000000000E+00  0.12525980253E-10  0.17130000000E+03  0.17130000000E+03 0. -1.
       11    1    1    2    0    0  0.12470889272E-01  0.32640639769E-03  0.22640845722E+00  0.22675246491E+00  0.51109989000E-03 0. -1.
     -623    1    1    2    0    0 -0.96722935567E-02 -0.23689876326E-02  0.55788113473E-03  0.17130000029E+03  0.17130000000E+03 0. -1.
      622    1    1    2    0    0 -0.27985957155E-02  0.20425812349E-02  0.37730336290E+01  0.37732472447E+01  0.40000000000E-01 0. -1.
</event>
<event>
 5   0  0.6200596E+07  0.9118800E+02  0.7818608E-02  0.1180000E+00
       11   -1    0    0    0    0  0.00000000000E+00  0.00000000000E+00  0.39999999673E+01  0.40000000000E+01  0.51109989000E-03 0.  1.
     -623   -1    0    0    0    0  0.00000000000E+00  0.00000000000E+00  0.12525980253E-10  0.17130000000E+03  0.17130000000E+03 0.  1.
       11    1    1    2    0    0 -0.88107214501E-02  0.72043098191E-02  0.13950740025E+01  0.13951205198E+01  0.51109989000E-03 0.  1.
     -623    1    1    2    0    0  0.56479678388E-03  0.71248212019E-03  0.37870648237E-03  0.17130000000E+03  0.17130000000E+03 0.  1.
      622    1    1    2    0    0  0.82459246663E-02 -0.79167919393E-02  0.26045472583E+01  0.26048794774E+01  0.40000000000E-01 0. -1.
</event>
<event>
 5   0  0.6200596E+07  0.9118800E+02  0.7818608E-02  0.1180000E+00
       11   -1    0    0    0    0  0.00000000000E+00  0.00000000000E+00  0.39999999673E+01  0.40000000000E+01  0.51109989000E-03 0. -1.
     -623   -1    0    0    0    0  0.00000000000E+00  0.00000000000E+00  0.12525980253E-10  0.17130000000E+03  0.17130000000E+03 0.  1.
       11    1    1    2    0    0  0.92418223517E-04 -0.17613271595E-02  0.89396979399E-02  0.91263484015E-02  0.51109989000E-03 0. -1.
     -623    1    1    2    0    0 -0.42139432616E-03  0.23517260202E-02  0.38715454973E-03  0.17130000002E+03  0.17130000000E+03 0.  1.
      622    1    1    2    0    0  0.32897610264E-03 -0.59039886062E-03  0.39906731149E+01  0.39908736345E+01  0.40000000000E-01 0. -1.
</event>
<event>
 5   0  0.6200596E+07  0.9118800E+02  0.7818608E-02  0.1180000E+00
       11   -1    0    0    0    0  0.00000000000E+00  0.00000000000E+00  0.39999999673E+01  0.40000000000E+01  0.51109989000E-03 0. -1.
     -623   -1    0    0    0    0  0.00000000000E+00  0.00000000000E+00  0.12525980253E-10  0.17130000000E+03  0.17130000000E+03 0. -1.
       11    1    1    2    0    0 -0.59125256073E-02 -0.28606334973E-02  0.26207166929E-01  0.27022546182E-01  0.51109989000E-03 0. -1.
     -623    1    1    2    0    0 -0.29629588599E-02  0.76906358248E-03  0.10272073138E-02  0.17130000003E+03  0.17130000000E+03 0. -1.
      622    1    1    2    0    0  0.88754844672E-02  0.20915699148E-02  0.39727655931E+01  0.39729774234E+01  0.40000000000E-01 0. -1.
</event>
<event>
 5   0  0.6200596E+07  0.9118800E+02  0.7818608E-02  0.1180000E+00
       11   -1    0    0    0    0  0.00000000000E+00  0.00000000000E+00  0.39999999673E+01  0.40000000000E+01  0.51109989000E-03 0.  1.
     -623   -1    0    0    0    0  0.00000000000E+00  0.00000000000E+00  0.12525980253E-10  0.17130000000E+03  0.17130000000E+03 0. -1.
       11    1    1    2    0    0  0.31805513669E-01 -0.33689502606E-01  0.33649521580E+00  0.33967022943E+00  0.51109989000E-03 0.  1.
     -623    1    1    2    0    0  0.99404100662E-02  0.12202554666E-01  0.36954623664E-02  0.17130000076E+03  0.17130000000E+03 0. -1.
      622    1    1    2    0    0 -0.41745923735E-01  0.21486947940E-01  0.36598092892E+01  0.36603290077E+01  0.40000000000E-01 0.  1.
</event>
<event>
 5   0  0.6200596E+07  0.9118800E+02  0.7818608E-02  0.1180000E+00
       11   -1    0    0    0    0  0.00000000000E+00  0.00000000000E+00  0.39999999673E+01  0.40000000000E+01  0.51109989000E-03 0.  1.
     -623   -1    0    0    0    0  0.00000000000E+00  0.00000000000E+00  0.12525980253E-10  0.17130000000E+03  0.17130000000E+03 0.  1.
       11    1    1    2    0    0 -0.10271923868E-01  0.16737552995E-02  0.15714201906E+00  0.15748710821E+00  0.51109989000E-03 0.  1.
     -623    1    1    2    0    0 -0.55394709247E-02  0.36181516595E-02  0.58956500026E-03  0.17130000013E+03  0.17130000000E+03 0.  1.
      622    1    1    2    0    0  0.15811394793E-01 -0.52919069591E-02  0.38422683833E+01  0.38425127630E+01  0.40000000000E-01 0.  1.
</event>
<event>
 5   0  0.6200596E+07  0.9118800E+02  0.7818608E-02  0.1180000E+00
       11   -1    0    0    0    0  0.00000000000E+00  0.00000000000E+00  0.39999999673E+01  0.40000000000E+01  0.51109989000E-03 0. -1.
     -623   -1    0    0    0    0  0.00000000000E+00  0.00000000000E+00  0.12525980253E-10  0.17130000000E+03  0.17130000000E+03 0. -1.
       11    1    1    2    0    0  0.46817779683E-02 -0.16943234200E-01  0.99552954109E-01  0.10109423388E+00  0.51109989000E-03 0. -1.
     -623    1    1    2    0    0  0.50794672392E-02 -0.23985977290E-02  0.18067384635E-02  0.17130000010E+03  0.17130000000E+03 0. -1.
      622    1    1    2    0    0 -0.97612452075E-02  0.19341831929E-01  0.38986402748E+01  0.38989056645E+01  0.40000000000E-01 0. -1.
</event>
<event>
 5   0  0.6200596E+07  0.9118800E+02  0.7818608E-02  0.1180000E+00
       11   -1    0    0    0    0  0.00000000000E+00  0.00000000000E+00  0.39999999673E+01  0.40000000000E+01  0.51109989000E-03 0.  1.
     -623   -1    0    0    0    0  0.00000000000E+00  0.00000000000E+00  0.12525980253E-10  0.17130000000E+03  0.17130000000E+03 0. -1.
       11    1    1    2    0    0 -0.18671810685E-02  0.23306398698E-02  0.57757609340E+00  0.57758403989E+00  0.51109989000E-03 0.  1.
     -623    1    1    2    0    0 -0.23555127452E-03 -0.21702160820E-03  0.24297401941E-03  0.17130000000E+03  0.17130000000E+03 0. -1.
      622    1    1    2    0    0  0.21027323430E-02 -0.21136182616E-02  0.34221808999E+01  0.34224159596E+01  0.40000000000E-01 0.  1.
</event>
<event>
 5   0  0.6200596E+07  0.9118800E+02  0.7818608E-02  0.1180000E+00
       11   -1    0    0    0    0  0.00000000000E+00  0.00000000000E+00  0.39999999673E+01  0.40000000000E+01  0.51109989000E-03 0. -1.
     -623   -1    0    0    0    0  0.00000000000E+00  0.00000000000E+00  0.12525980253E-10  0.17130000000E+03  0.17130000000E+03 0. -1.
       11    1    1    2    0    0  0.19931913137E-02  0.12431524698E-01  0.21695380747E+00  0.21731942254E+00  0.51109989000E-03 0. -1.
     -623    1    1    2    0    0  0.44001898552E-02 -0.56515998602E-02  0.58870899260E-03  0.17130000015E+03  0.17130000000E+03 0. -1.
      622    1    1    2    0    0 -0.63933811689E-02 -0.67799248374E-02  0.37824574509E+01  0.37826804267E+01  0.40000000000E-01 0. -1.
</event>
<event>
 5   0  0.6200596E+07  0.9118800E+02  0.7818608E-02  0.1180000E+00
       11   -1    0    0    0    0  0.00000000000E+00  0.00000000000E+00  0.39999999673E+01  0.40000000000E+01  0.51109989000E-03 0. -1.
     -623   -1    0    0    0    0  0.00000000000E+00  0.00000000000E+00  0.12525980253E-10  0.17130000000E+03  0.17130000000E+03 0.  1.
       11    1    1    2    0    0  0.15847157273E-01 -0.50020627416E-01  0.13552144606E+01  0.13562299550E+01  0.51109989000E-03 0. -1.
     -623    1    1    2    0    0  0.55144252802E-02 -0.72534788698E-03  0.18916294651E-02  0.17130000010E+03  0.17130000000E+03 0.  1.
      622    1    1    2    0    0 -0.21361582553E-01  0.50745975303E-01  0.26428938773E+01  0.26437699442E+01  0.40000000000E-01 0. -1.
</event>
<event>
 5   0  0.6200596E+07  0.9118800E+02  0.7818608E-02  0.1180000E+00
       11   -1    0    0    0    0  0.00000000000E+00  0.00000000000E+00  0.39999999673E+01  0.40000000000E+01  0.51109989000E-03 0.  1.
     -623   -1    0    0    0    0  0.00000000000E+00  0.00000000000E+00  0.12525980253E-10  0.17130000000E+03  0.17130000000E+03 0. -1.
       11    1    1    2    0    0  0.11761879630E-02 -0.86281373881E-03  0.22554006566E-02  0.27342128391E-02  0.51109989000E-03 0.  1.
     -623    1    1    2    0    0 -0.68738261156E-03 -0.16896343939E-04  0.67905077867E-03  0.17130000000E+03  0.17130000000E+03 0. -1.
      622    1    1    2    0    0 -0.48880535139E-03  0.87971008275E-03  0.39970655159E+01  0.39972657844E+01  0.40000000000E-01 0.  1.
</event>
<event>
 5   0  0.6200596E+07  0.9118800E+02  0.7818608E-02  0.1180000E+00
       11   -1    0    0    0    0  0.00000000000E+00  0.00000000000E+00  0.39999999673E+01  0.40000000000E+01  0.51109989000E-03 0.  1.
     -623   -1    0    0    0    0  0.00000000000E+00  0.00000000000E+00  0.12525980253E-10  0.17130000000E+03  0.17130000000E+03 0.  1.
       11    1    1    2    0    0  0.57251232388E-05 -0.70056673601E-02  0.52649932161E-01  0.53116438004E-01  0.51109989000E-03 0.  1.
     -623    1    1    2    0    0 -0.90039124772E-02  0.80017799371E-02  0.67997824012E-03  0.17130000042E+03  0.17130000000E+03 0.  1.
      622    1    1    2    0    0  0.89981873539E-02 -0.99611257700E-03  0.39466700570E+01  0.39468831371E+01  0.40000000000E-01 0.  1.
</event>
<event>
 5   0  0.6200596E+07  0.9118800E+02  0.7818608E-02  0.1180000E+00
       11   -1    0    0    0    0  0.00000000000E+00  0.00000000000E+00  0.39999999673E+01  0.40000000000E+01  0.51109989000E-03 0. -1.
     -623   -1    0    0    0    0  0.00000000000E+00  0.00000000000E+00  0.12525980253E-10  0.17130000000E+03  0.17130000000E+03 0. -1.
       11    1    1    2    0    0  0.26716711999E-01 -0.36255993766E-01  0.11583891773E+01  0.11592644336E+01  0.51109989000E-03 0. -1.
     -623    1    1    2    0    0 -0.44844963425E-01 -0.15418653874E-03  0.14539568052E-02  0.17130000588E+03  0.17130000000E+03 0. -1.
      622    1    1    2    0    0  0.18128251426E-01  0.36410180304E-01  0.28401568333E+01  0.28407296901E+01  0.40000000000E-01 0.  1.
</event>
<event>
 5   0  0.6200596E+07  0.9118800E+02  0.7818608E-02  0.1180000E+00
       11   -1    0    0    0    0  0.00000000000E+00  0.00000000000E+00  0.39999999673E+01  0.40000000000E+01  0.51109989000E-03 0.  1.
     -623   -1    0    0    0    0  0.00000000000E+00  0.00000000000E+00  0.12525980253E-10  0.17130000000E+03  0.17130000000E+03 0. -1.
       11    1    1    2    0    0  0.12900856793E+00 -0.12964481989E-01  0.37312888331E+00  0.39501482653E+00  0.51109989000E-03 0.  1.
     -623    1    1    2    0    0 -0.30248456855E-01  0.79375664957E-01  0.24095760847E-01  0.17130002276E+03  0.17130000000E+03 0. -1.
      622    1    1    2    0    0 -0.98760111079E-01 -0.66411182967E-01  0.36027753232E+01  0.36049624179E+01  0.40000000000E-01 0.  1.
</event>
<event>
 5   0  0.6200596E+07  0.9118800E+02  0.7818608E-02  0.1180000E+00
       11   -1    0    0    0    0  0.00000000000E+00  0.00000000000E+00  0.39999999673E+01  0.40000000000E+01  0.51109989000E-03 0.  1.
     -623   -1    0    0    0    0  0.00000000000E+00  0.00000000000E+00  0.12525980253E-10  0.17130000000E+03  0.17130000000E+03 0. -1.
       11    1    1    2    0    0  0.34449510494E-02  0.84728963372E-02  0.10972275968E+00  0.11010450887E+00  0.51109989000E-03 0.  1.
     -623    1    1    2    0    0 -0.54766589992E-02 -0.93304073361E-03  0.59531250049E-03  0.17130000009E+03  0.17130000000E+03 0. -1.
      622    1    1    2    0    0  0.20317079498E-02 -0.75398556036E-02  0.38896818952E+01  0.38898954000E+01  0.40000000000E-01 0.  1.
</event>
<event>
 5   0  0.6200596E+07  0.9118800E+02  0.7818608E-02  0.1180000E+00
       11   -1    0    0    0    0  0.00000000000E+00  0.00000000000E+00  0.39999999673E+01  0.40000000000E+01  0.51109989000E-03 0.  1.
     -623   -1    0    0    0    0  0.00000000000E+00  0.00000000000E+00  0.12525980253E-10  0.17130000000E+03  0.17130000000E+03 0. -1.
       11    1    1    2    0    0  0.16012568831E-02 -0.20891084296E-02  0.28638604770E+01  0.28638617322E+01  0.51109989000E-03 0.  1.
     -623    1    1    2    0    0  0.38987537874E-02  0.70726906541E-03  0.71978984365E-03  0.17130000005E+03  0.17130000000E+03 0. -1.
      622    1    1    2    0    0 -0.55000106705E-02  0.13818393641E-02  0.11354197005E+01  0.11361382204E+01  0.40000000000E-01 0.  1.
</event>
<event>
 5   0  0.6200596E+07  0.9118800E+02  0.7818608E-02  0.1180000E+00
       11   -1    0    0    0    0  0.00000000000E+00  0.00000000000E+00  0.39999999673E+01  0.40000000000E+01  0.51109989000E-03 0.  1.
     -623   -1    0    0    0    0  0.00000000000E+00  0.00000000000E+00  0.12525980253E-10  0.17130000000E+03  0.17130000000E+03 0. -1.
       11    1    1    2    0    0 -0.14334489100E-03  0.18362551313E-02  0.40769565193E-01  0.40814348537E-01  0.51109989000E-03 0.  1.
     -623    1    1    2    0    0  0.68068750624E-03 -0.16063361233E-02  0.24686981917E-03  0.17130000001E+03  0.17130000000E+03 0. -1.
      622    1    1    2    0    0 -0.53734261525E-03 -0.22991900803E-03  0.39589835323E+01  0.39591856424E+01  0.40000000000E-01 0.  1.
</event>
<event>
 5   0  0.6200596E+07  0.9118800E+02  0.7818608E-02  0.1180000E+00
       11   -1    0    0    0    0  0.00000000000E+00  0.00000000000E+00  0.39999999673E+01  0.40000000000E+01  0.51109989000E-03 0.  1.
     -623   -1    0    0    0    0  0.00000000000E+00  0.00000000000E+00  0.12525980253E-10  0.17130000000E+03  0.17130000000E+03 0. -1.
       11    1    1    2    0    0  0.13860130839E-01  0.11963930583E-02  0.24775420272E+00  0.24814499949E+00  0.51109989000E-03 0.  1.
     -623    1    1    2    0    0  0.15878629044E-03 -0.35068891357E-02  0.63093928584E-03  0.17130000004E+03  0.17130000000E+03 0. -1.
      622    1    1    2    0    0 -0.14018917130E-01  0.23104960774E-02  0.37516148254E+01  0.37518549634E+01  0.40000000000E-01 0.  1.
</event>
<event>
 5   0  0.6200596E+07  0.9118800E+02  0.7818608E-02  0.1180000E+00
       11   -1    0    0    0    0  0.00000000000E+00  0.00000000000E+00  0.39999999673E+01  0.40000000000E+01  0.51109989000E-03 0. -1.
     -623   -1    0    0    0    0  0.00000000000E+00  0.00000000000E+00  0.12525980253E-10  0.17130000000E+03  0.17130000000E+03 0.  1.
       11    1    1    2    0    0 -0.32723271274E-02 -0.83225368822E-03  0.67032030408E-01  0.67118962255E-01  0.51109989000E-03 0. -1.
     -623    1    1    2    0    0  0.48454091418E-03 -0.15831224898E-02  0.29205577684E-03  0.17130000001E+03  0.17130000000E+03 0.  1.
      622    1    1    2    0    0  0.27877862133E-02  0.24153761780E-02  0.39326758812E+01  0.39328810295E+01  0.40000000000E-01 0. -1.
</event>
<event>
 5   0  0.6200596E+07  0.9118800E+02  0.7818608E-02  0.1180000E+00
       11   -1    0    0    0    0  0.00000000000E+00  0.00000000000E+00  0.39999999673E+01  0.40000000000E+01  0.51109989000E-03 0.  1.
     -623   -1    0    0    0    0  0.00000000000E+00  0.00000000000E+00  0.12525980253E-10  0.17130000000E+03  0.17130000000E+03 0. -1.
       11    1    1    2    0    0 -0.10840916274E-01  0.54350832694E-01  0.12160461853E+01  0.12173085577E+01  0.51109989000E-03 0.  1.
     -623    1    1    2    0    0  0.37713970719E-01 -0.34984947209E-01  0.17547548333E-02  0.17130000773E+03  0.17130000000E+03 0. -1.
      622    1    1    2    0    0 -0.26873054446E-01 -0.19365885485E-01  0.27821990272E+01  0.27826837092E+01  0.40000000000E-01 0.  1.
</event>
<event>
 5   0  0.6200596E+07  0.9118800E+02  0.7818608E-02  0.1180000E+00
       11   -1    0    0    0    0  0.00000000000E+00  0.00000000000E+00  0.39999999673E+01  0.40000000000E+01  0.51109989000E-03 0. -1.
     -623   -1    0    0    0    0  0.00000000000E+00  0.00000000000E+00  0.12525980253E-10  0.17130000000E+03  0.17130000000E+03 0.  1.
       11    1    1    2    0    0  0.17722412841E-01 -0.25516787423E-02  0.11438392550E+01  0.11439795005E+01  0.51109989000E-03 0. -1.
     -623    1    1    2    0    0 -0.15387465943E-02  0.86187109912E-04  0.46726578198E-03  0.17130000001E+03  0.17130000000E+03 0.  1.
      622    1    1    2    0    0 -0.16183666247E-01  0.24654916324E-02  0.28556934466E+01  0.28560204919E+01  0.40000000000E-01 0.  0.
</event>
<event>
 5   0  0.6200596E+07  0.9118800E+02  0.7818608E-02  0.1180000E+00
       11   -1    0    0    0    0  0.00000000000E+00  0.00000000000E+00  0.39999999673E+01  0.40000000000E+01  0.51109989000E-03 0. -1.
     -623   -1    0    0    0    0  0.00000000000E+00  0.00000000000E+00  0.12525980253E-10  0.17130000000E+03  0.17130000000E+03 0.  1.
       11    1    1    2    0    0 -0.41719768068E-03  0.68724966254E-03  0.87938831172E-02  0.88453359141E-02  0.51109989000E-03 0. -1.
     -623    1    1    2    0    0 -0.45941593201E-03 -0.81550643214E-03  0.25196951510E-03  0.17130000000E+03  0.17130000000E+03 0.  1.
      622    1    1    2    0    0  0.87661361269E-03  0.12825676960E-03  0.39909541147E+01  0.39911546613E+01  0.40000000000E-01 0. -1.
</event>
<event>
 5   0  0.6200596E+07  0.9118800E+02  0.7818608E-02  0.1180000E+00
       11   -1    0    0    0    0  0.00000000000E+00  0.00000000000E+00  0.39999999673E+01  0.40000000000E+01  0.51109989000E-03 0. -1.
     -623   -1    0    0    0    0  0.00000000000E+00  0.00000000000E+00  0.12525980253E-10  0.17130000000E+03  0.17130000000E+03 0. -1.
       11    1    1    2    0    0  0.47160863517E-03  0.10378764124E-03  0.12104124068E-01  0.12124529970E-01  0.51109989000E-03 0. -1.
     -623    1    1    2    0    0 -0.17146925675E-02  0.48859032941E-03  0.22123355292E-03  0.17130000001E+03  0.17130000000E+03 0. -1.
      622    1    1    2    0    0  0.12430839323E-02 -0.59237797064E-03  0.39876746097E+01  0.39878754606E+01  0.40000000000E-01 0. -1.
</event>
<event>
 5   0  0.6200596E+07  0.9118800E+02  0.7818608E-02  0.1180000E+00
       11   -1    0    0    0    0  0.00000000000E+00  0.00000000000E+00  0.39999999673E+01  0.40000000000E+01  0.51109989000E-03 0.  1.
     -623   -1    0    0    0    0  0.00000000000E+00  0.00000000000E+00  0.12525980253E-10  0.17130000000E+03  0.17130000000E+03 0.  1.
       11    1    1    2    0    0 -0.52394897529E-02 -0.79541390467E-02  0.31490722390E-01  0.32903607705E-01  0.51109989000E-03 0.  1.
     -623    1    1    2    0    0 -0.30256984152E-03  0.93449900931E-02  0.16188946293E-02  0.17130000026E+03  0.17130000000E+03 0.  1.
      622    1    1    2    0    0  0.55420595944E-02 -0.13908510464E-02  0.39668903503E+01  0.39670961295E+01  0.40000000000E-01 0.  1.
</event>
<event>
 5   0  0.6200596E+07  0.9118800E+02  0.7818608E-02  0.1180000E+00
       11   -1    0    0    0    0  0.00000000000E+00  0.00000000000E+00  0.39999999673E+01  0.40000000000E+01  0.51109989000E-03 0.  1.
     -623   -1    0    0    0    0  0.00000000000E+00  0.00000000000E+00  0.12525980253E-10  0.17130000000E+03  0.17130000000E+03 0. -1.
       11    1    1    2    0    0 -0.40479299654E-02 -0.85767401035E-02  0.48112478431E+00  0.48121852158E+00  0.51109989000E-03 0.  1.
     -623    1    1    2    0    0  0.14131498614E-02  0.92930426272E-03  0.33036927223E-03  0.17130000001E+03  0.17130000000E+03 0. -1.
      622    1    1    2    0    0  0.26347801040E-02  0.76474358408E-02  0.35185448138E+01  0.35187814698E+01  0.40000000000E-01 0.  1.
</event>
<event>
 5   0  0.6200596E+07  0.9118800E+02  0.7818608E-02  0.1180000E+00
       11   -1    0    0    0    0  0.00000000000E+00  0.00000000000E+00  0.39999999673E+01  0.40000000000E+01  0.51109989000E-03 0. -1.
     -623   -1    0    0    0    0  0.00000000000E+00  0.00000000000E+00  0.12525980253E-10  0.17130000000E+03  0.17130000000E+03 0.  1.
       11    1    1    2    0    0  0.51479265729E-03  0.12864016718E-02  0.16035694350E+00  0.16036374400E+00  0.51109989000E-03 0. -1.
     -623    1    1    2    0    0 -0.51702864181E-03  0.70222727719E-04  0.21536719215E-03  0.17130000000E+03  0.17130000000E+03 0.  1.
      622    1    1    2    0    0  0.22359845202E-05 -0.13566243995E-02  0.38394276567E+01  0.38396362551E+01  0.40000000000E-01 0. -1.
</event>
<event>
 5   0  0.6200596E+07  0.9118800E+02  0.7818608E-02  0.1180000E+00
       11   -1    0    0    0    0  0.00000000000E+00  0.00000000000E+00  0.39999999673E+01  0.40000000000E+01  0.51109989000E-03 0.  1.
     -623   -1    0    0    0    0  0.00000000000E+00  0.00000000000E+00  0.12525980253E-10  0.17130000000E+03  0.17130000000E+03 0.  1.
       11    1    1    2    0    0 -0.20040516847E-03 -0.26538452565E-02  0.20421405333E-02  0.33933195195E-02  0.51109989000E-03 0.  1.
     -623    1    1    2    0    0  0.17506464169E-02  0.10768545568E-02  0.15519523488E-02  0.17130000002E+03  0.17130000000E+03 0.  1.
      622    1    1    2    0    0 -0.15502412484E-02  0.15769906997E-02  0.39964058745E+01  0.39966066611E+01  0.40000000000E-01 0.  1.
</event>
<event>
 5   0  0.6200596E+07  0.9118800E+02  0.7818608E-02  0.1180000E+00
       11   -1    0    0    0    0  0.00000000000E+00  0.00000000000E+00  0.39999999673E+01  0.40000000000E+01  0.51109989000E-03 0.  1.
     -623   -1    0    0    0    0  0.00000000000E+00  0.00000000000E+00  0.12525980253E-10  0.17130000000E+03  0.17130000000E+03 0.  1.
       11    1    1    2    0    0 -0.84920545631E-05 -0.22498589946E-02  0.66317637019E-01  0.66357758689E-01  0.51109989000E-03 0.  1.
     -623    1    1    2    0    0 -0.10416416979E-02 -0.13604344266E-02  0.24527391950E-03  0.17130000001E+03  0.17130000000E+03 0.  1.
      622    1    1    2    0    0  0.10501337524E-02  0.36102934213E-02  0.39334370564E+01  0.39336422326E+01  0.40000000000E-01 0.  1.
</event>
<event>
 5   0  0.6200596E+07  0.9118800E+02  0.7818608E-02  0.1180000E+00
       11   -1    0    0    0    0  0.00000000000E+00  0.00000000000E+00  0.39999999673E+01  0.40000000000E+01  0.51109989000E-03 0. -1.
     -623   -1    0    0    0    0  0.00000000000E+00  0.00000000000E+00  0.12525980253E-10  0.17130000000E+03  0.17130000000E+03 0. -1.
       11    1    1    2    0    0 -0.24687864152E-04  0.32848862134E-03  0.33709773732E-01  0.33715257373E-01  0.51109989000E-03 0. -1.
     -623    1    1    2    0    0  0.89406630575E-03  0.10732727706E-02  0.20750504635E-03  0.17130000001E+03  0.17130000000E+03 0. -1.
      622    1    1    2    0    0 -0.86937844160E-03 -0.14017613919E-02  0.39660826886E+01  0.39662847368E+01  0.40000000000E-01 0. -1.
</event>
<event>
 5   0  0.6200596E+07  0.9118800E+02  0.7818608E-02  0.1180000E+00
       11   -1    0    0    0    0  0.00000000000E+00  0.00000000000E+00  0.39999999673E+01  0.40000000000E+01  0.51109989000E-03 0.  1.
     -623   -1    0    0    0    0  0.00000000000E+00  0.00000000000E+00  0.12525980253E-10  0.17130000000E+03  0.17130000000E+03 0. -1.
       11    1    1    2    0    0 -0.10237795168E-02  0.53343592114E-02  0.24672219788E-01  0.25268224407E-01  0.51109989000E-03 0.  1.
     -623    1    1    2    0    0  0.98609841380E-03  0.16966364929E-03  0.80106454357E-03  0.17130000000E+03  0.17130000000E+03 0. -1.
      622    1    1    2    0    0  0.37681103049E-04 -0.55040228606E-02  0.39745266830E+01  0.39747317708E+01  0.40000000000E-01 0.  1.
</event>
<event>
 5   0  0.6200596E+07  0.9118800E+02  0.7818608E-02  0.1180000E+00
       11   -1    0    0    0    0  0.00000000000E+00  0.00000000000E+00  0.39999999673E+01  0.40000000000E+01  0.51109989000E-03 0.  1.
     -623   -1    0    0    0    0  0.00000000000E+00  0.00000000000E+00  0.12525980253E-10  0.17130000000E+03  0.17130000000E+03 0.  1.
       11    1    1    2    0    0  0.74704945991E-03 -0.11450444410E-02  0.30128574264E-01  0.30163909180E-01  0.51109989000E-03 0.  1.
     -623    1    1    2    0    0  0.12266327632E-02 -0.55673130111E-03  0.23768793426E-03  0.17130000001E+03  0.17130000000E+03 0.  1.
      622    1    1    2    0    0 -0.19736822231E-02  0.17017757421E-02  0.39696337052E+01  0.39698360854E+01  0.40000000000E-01 0.  1.
</event>
<event>
 5   0  0.6200596E+07  0.9118800E+02  0.7818608E-02  0.1180000E+00
       11   -1    0    0    0    0  0.00000000000E+00  0.00000000000E+00  0.39999999673E+01  0.40000000000E+01  0.51109989000E-03 0.  1.
     -623   -1    0    0    0    0  0.00000000000E+00  0.00000000000E+00  0.12525980253E-10  0.17130000000E+03  0.17130000000E+03 0. -1.
       11    1    1    2    0    0  0.60750004737E-01  0.12957678549E-03  0.25218422015E+01  0.25225738702E+01  0.51109989000E-03 0.  1.
     -623    1    1    2    0    0  0.38106580743E-02 -0.84971702033E-02  0.27089995161E-02  0.17130000027E+03  0.17130000000E+03 0. -1.
      622    1    1    2    0    0 -0.64560662812E-01  0.83675934178E-02  0.14754487663E+01  0.14774258553E+01  0.40000000000E-01 0. -1.
</event>
<event>
 5   0  0.6200596E+07  0.9118800E+02  0.7818608E-02  0.1180000E+00
       11   -1    0    0    0    0  0.00000000000E+00  0.00000000000E+00  0.39999999673E+01  0.40000000000E+01  0.51109989000E-03 0.  1.
     -623   -1    0    0    0    0  0.00000000000E+00  0.00000000000E+00  0.12525980253E-10  0.17130000000E+03  0.17130000000E+03 0. -1.
       11    1    1    2    0    0 -0.96874220061E-02  0.13536658152E-01  0.48235196288E+00  0.48263937321E+00  0.51109989000E-03 0.  1.
     -623    1    1    2    0    0  0.63261475280E-03  0.11039212379E-02  0.55696170449E-03  0.17130000001E+03  0.17130000000E+03 0. -1.
      622    1    1    2    0    0  0.90548072533E-02 -0.14640579389E-01  0.35170910428E+01  0.35173606212E+01  0.40000000000E-01 0.  0.
</event>
<event>
 5   0  0.6200596E+07  0.9118800E+02  0.7818608E-02  0.1180000E+00
       11   -1    0    0    0    0  0.00000000000E+00  0.00000000000E+00  0.39999999673E+01  0.40000000000E+01  0.51109989000E-03 0.  1.
     -623   -1    0    0    0    0  0.00000000000E+00  0.00000000000E+00  0.12525980253E-10  0.17130000000E+03  0.17130000000E+03 0.  1.
       11    1    1    2    0    0 -0.15365817676E-02 -0.53064750056E-03  0.19723808712E-01  0.19797285720E-01  0.51109989000E-03 0.  1.
     -623    1    1    2    0    0  0.22920829330E-03 -0.47549814035E-03  0.27478716809E-03  0.17130000000E+03  0.17130000000E+03 0.  1.
      622    1    1    2    0    0  0.13073734743E-02  0.10061456409E-02  0.39800013715E+01  0.39802027132E+01  0.40000000000E-01 0.  1.
</event>
<event>
 5   0  0.6200596E+07  0.9118800E+02  0.7818608E-02  0.1180000E+00
       11   -1    0    0    0    0  0.00000000000E+00  0.00000000000E+00  0.39999999673E+01  0.40000000000E+01  0.51109989000E-03 0.  1.
     -623   -1    0    0    0    0  0.00000000000E+00  0.00000000000E+00  0.12525980253E-10  0.17130000000E+03  0.17130000000E+03 0. -1.
       11    1    1    2    0    0 -0.10422717555E-02 -0.17373124777E-03  0.11571992657E-01  0.11631369194E-01  0.51109989000E-03 0.  1.
     -623    1    1    2    0    0 -0.27700081227E-03  0.82818345399E-03  0.26020653155E-03  0.17130000000E+03  0.17130000000E+03 0. -1.
      622    1    1    2    0    0  0.13192725677E-02 -0.65445220622E-03  0.39881677682E+01  0.39883686284E+01  0.40000000000E-01 0.  1.
</event>
<event>
 5   0  0.6200596E+07  0.9118800E+02  0.7818608E-02  0.1180000E+00
       11   -1    0    0    0    0  0.00000000000E+00  0.00000000000E+00  0.39999999673E+01  0.40000000000E+01  0.51109989000E-03 0.  1.
     -623   -1    0    0    0    0  0.00000000000E+00  0.00000000000E+00  0.12525980253E-10  0.17130000000E+03  0.17130000000E+03 0.  1.
       11    1    1    2    0    0  0.18350131172E-03 -0.75813739449E-03  0.48973576625E-03  0.10533319537E-02  0.51109989000E-03 0.  1.
     -623    1    1    2    0    0 -0.63561432514E-03 -0.14187387884E-02  0.76424808471E-03  0.17130000001E+03  0.17130000000E+03 0.  1.
      622    1    1    2    0    0  0.45211301343E-03  0.21768761829E-02  0.39987459835E+01  0.39989466593E+01  0.40000000000E-01 0.  1.
</event>
<event>
 5   0  0.6200596E+07  0.9118800E+02  0.7818608E-02  0.1180000E+00
       11   -1    0    0    0    0  0.00000000000E+00  0.00000000000E+00  0.39999999673E+01  0.40000000000E+01  0.51109989000E-03 0. -1.
     -623   -1    0    0    0    0  0.00000000000E+00  0.00000000000E+00  0.12525980253E-10  0.17130000000E+03  0.17130000000E+03 0.  1.
       11    1    1    2    0    0  0.11631597183E-01 -0.39281084767E-01  0.12814587852E+01  0.12821135586E+01  0.51109989000E-03 0. -1.
     -623    1    1    2    0    0 -0.26223972150E-02  0.30029414802E-02  0.12062444148E-02  0.17130000005E+03  0.17130000000E+03 0.  1.
      622    1    1    2    0    0 -0.90091999677E-02  0.36278143287E-01  0.27173349377E+01  0.27178863908E+01  0.40000000000E-01 0. -1.
</event>
<event>
 5   0  0.6200596E+07  0.9118800E+02  0.7818608E-02  0.1180000E+00
       11   -1    0    0    0    0  0.00000000000E+00  0.00000000000E+00  0.39999999673E+01  0.40000000000E+01  0.51109989000E-03 0. -1.
     -623   -1    0    0    0    0  0.00000000000E+00  0.00000000000E+00  0.12525980253E-10  0.17130000000E+03  0.17130000000E+03 0. -1.
       11    1    1    2    0    0  0.15847347490E-02  0.15598099896E-02  0.15838428678E+01  0.15838445112E+01  0.51109989000E-03 0. -1.
     -623    1    1    2    0    0  0.37528852037E-02  0.24797554417E-02  0.34207125310E-03  0.17130000006E+03  0.17130000000E+03 0. -1.
      622    1    1    2    0    0 -0.53376199527E-02 -0.40395654313E-02  0.24158150283E+01  0.24161554294E+01  0.40000000000E-01 0. -1.
</event>
<event>
 5   0  0.6200596E+07  0.9118800E+02  0.7818608E-02  0.1180000E+00
       11   -1    0    0    0    0  0.00000000000E+00  0.00000000000E+00  0.39999999673E+01  0.40000000000E+01  0.51109989000E-03 0.  1.
     -623   -1    0    0    0    0  0.00000000000E+00  0.00000000000E+00  0.12525980253E-10  0.17130000000E+03  0.17130000000E+03 0.  1.
       11    1    1    2    0    0  0.28751278874E-01 -0.41940969259E-01  0.34038954729E+01  0.34042753021E+01  0.51109989000E-03 0.  1.
     -623    1    1    2    0    0 -0.75150282175E-02  0.17567046089E-02  0.34647106788E-02  0.17130000021E+03  0.17130000000E+03 0.  1.
      622    1    1    2    0    0 -0.21236250656E-01  0.40184264650E-01  0.59263978383E+00  0.59572448904E+00  0.40000000000E-01 0. -1.
</event>
<event>
 5   0  0.6200596E+07  0.9118800E+02  0.7818608E-02  0.1180000E+00
       11   -1    0    0    0    0  0.00000000000E+00  0.00000000000E+00  0.39999999673E+01  0.40000000000E+01  0.51109989000E-03 0. -1.
     -623   -1    0    0    0    0  0.00000000000E+00  0.00000000000E+00  0.12525980253E-10  0.17130000000E+03  0.17130000000E+03 0.  1.
       11    1    1    2    0    0  0.59891769921E-02 -0.19311854318E-02  0.17270934595E+00  0.17282470633E+00  0.51109989000E-03 0. -1.
     -623    1    1    2    0    0 -0.30071450524E-02 -0.21535074006E-02  0.32774685716E-03  0.17130000004E+03  0.17130000000E+03 0.  1.
      622    1    1    2    0    0 -0.29820319397E-02  0.40846928324E-02  0.38269628746E+01  0.38271752534E+01  0.40000000000E-01 0. -1.
</event>
<event>
 5   0  0.6200596E+07  0.9118800E+02  0.7818608E-02  0.1180000E+00
       11   -1    0    0    0    0  0.00000000000E+00  0.00000000000E+00  0.39999999673E+01  0.40000000000E+01  0.51109989000E-03 0. -1.
     -623   -1    0    0    0    0  0.00000000000E+00  0.00000000000E+00  0.12525980253E-10  0.17130000000E+03  0.17130000000E+03 0. -1.
       11    1    1    2    0    0 -0.15653168000E-03  0.90311700897E-03  0.40180239078E-02  0.41528135872E-02  0.51109989000E-03 0. -1.
     -623    1    1    2    0    0  0.18066231469E-02 -0.71677594967E-03  0.33532633293E-03  0.17130000001E+03  0.17130000000E+03 0. -1.
      622    1    1    2    0    0 -0.16500914669E-02 -0.18634105931E-03  0.39956466171E+01  0.39958471751E+01  0.40000000000E-01 0. -1.
</event>
<event>
 5   0  0.6200596E+07  0.9118800E+02  0.7818608E-02  0.1180000E+00
       11   -1    0    0    0    0  0.00000000000E+00  0.00000000000E+00  0.39999999673E+01  0.40000000000E+01  0.51109989000E-03 0. -1.
     -623   -1    0    0    0    0  0.00000000000E+00  0.00000000000E+00  0.12525980253E-10  0.17130000000E+03  0.17130000000E+03 0.  1.
       11    1    1    2    0    0  0.20197261974E-02 -0.93878547682E-02  0.46962896842E-01  0.47937313366E-01  0.51109989000E-03 0. -1.
     -623    1    1    2    0    0  0.24544645873E-02 -0.15498579722E-02  0.11945129487E-02  0.17130000003E+03  0.17130000000E+03 0.  1.
      622    1    1    2    0    0 -0.44741907847E-02  0.10937712740E-01  0.39518425576E+01  0.39520626579E+01  0.40000000000E-01 0. -1.
</event>
<event>
 5   0  0.6200596E+07  0.9118800E+02  0.7818608E-02  0.1180000E+00
       11   -1    0    0    0    0  0.00000000000E+00  0.00000000000E+00  0.39999999673E+01  0.40000000000E+01  0.51109989000E-03 0. -1.
     -623   -1    0    0    0    0  0.00000000000E+00  0.00000000000E+00  0.12525980253E-10  0.17130000000E+03  0.17130000000E+03 0. -1.
       11    1    1    2    0    0  0.20132435393E-02 -0.49002010918E-02  0.19446746239E+00  0.19454027930E+00  0.51109989000E-03 0. -1.
     -623    1    1    2    0    0  0.32490311538E-02 -0.44685917524E-02  0.29827565397E-03  0.17130000009E+03  0.17130000000E+03 0. -1.
      622    1    1    2    0    0 -0.52622746931E-02  0.93687928442E-02  0.38052342293E+01  0.38054596313E+01  0.40000000000E-01 0.  0.
</event>
<event>
 5   0  0.6200596E+07  0.9118800E+02  0.7818608E-02  0.1180000E+00
       11   -1    0    0    0    0  0.00000000000E+00  0.00000000000E+00  0.39999999673E+01  0.40000000000E+01  0.51109989000E-03 0. -1.
     -623   -1    0    0    0    0  0.00000000000E+00  0.00000000000E+00  0.12525980253E-10  0.17130000000E+03  0.17130000000E+03 0.  1.
       11    1    1    2    0    0 -0.28795362501E-02  0.44619402305E-02  0.37130976081E+00  0.37134808513E+00  0.51109989000E-03 0. -1.
     -623    1    1    2    0    0  0.67671647056E-03 -0.56267572345E-02  0.25971551896E-03  0.17130000009E+03  0.17130000000E+03 0.  1.
      622    1    1    2    0    0  0.22028197795E-02  0.11648170040E-02  0.36284304910E+01  0.36286518209E+01  0.40000000000E-01 0. -1.
</event>
<event>
 5   0  0.6200596E+07  0.9118800E+02  0.7818608E-02  0.1180000E+00
       11   -1    0    0    0    0  0.00000000000E+00  0.00000000000E+00  0.39999999673E+01  0.40000000000E+01  0.51109989000E-03 0. -1.
     -623   -1    0    0    0    0  0.00000000000E+00  0.00000000000E+00  0.12525980253E-10  0.17130000000E+03  0.17130000000E+03 0.  1.
       11    1    1    2    0    0  0.13323549986E-03 -0.99726935125E-02  0.30005399316E+00  0.30022013990E+00  0.51109989000E-03 0. -1.
     -623    1    1    2    0    0 -0.64554557564E-02  0.11415337390E-01  0.38853529973E-03  0.17130000050E+03  0.17130000000E+03 0.  1.
      622    1    1    2    0    0  0.63222202566E-02 -0.14426438779E-02  0.36995574389E+01  0.36997793577E+01  0.40000000000E-01 0. -1.
</event>
<event>
 5   0  0.6200596E+07  0.9118800E+02  0.7818608E-02  0.1180000E+00
       11   -1    0    0    0    0  0.00000000000E+00  0.00000000000E+00  0.39999999673E+01  0.40000000000E+01  0.51109989000E-03 0.  1.
     -623   -1    0    0    0    0  0.00000000000E+00  0.00000000000E+00  0.12525980253E-10  0.17130000000E+03  0.17130000000E+03 0. -1.
       11    1    1    2    0    0 -0.75417730672E-03 -0.82802633581E-03  0.80104106967E-02  0.81044625489E-02  0.51109989000E-03 0.  1.
     -623    1    1    2    0    0  0.86043851715E-03 -0.46485591163E-03  0.29464412601E-03  0.17130000000E+03  0.17130000000E+03 0. -1.
      622    1    1    2    0    0 -0.10626121043E-03  0.12928822474E-02  0.39916949125E+01  0.39918955344E+01  0.40000000000E-01 0.  1.
</event>
<event>
 5   0  0.6200596E+07  0.9118800E+02  0.7818608E-02  0.1180000E+00
       11   -1    0    0    0    0  0.00000000000E+00  0.00000000000E+00  0.39999999673E+01  0.40000000000E+01  0.51109989000E-03 0. -1.
     -623   -1    0    0    0    0  0.00000000000E+00  0.00000000000E+00  0.12525980253E-10  0.17130000000E+03  0.17130000000E+03 0.  1.
       11    1    1    2    0    0  0.61833800958E-03  0.13282165845E-02  0.20564116503E-02  0.25761505859E-02  0.51109989000E-03 0. -1.
     -623    1    1    2    0    0 -0.18697872439E-02 -0.84299364491E-03  0.72007934107E-03  0.17130000001E+03  0.17130000000E+03 0.  1.
      622    1    1    2    0    0  0.12514492343E-02 -0.48522293956E-03  0.39972234764E+01  0.39974238356E+01  0.40000000000E-01 0. -1.
</event>
<event>
 5   0  0.6200596E+07  0.9118800E+02  0.7818608E-02  0.1180000E+00
       11   -1    0    0    0    0  0.00000000000E+00  0.00000000000E+00  0.39999999673E+01  0.40000000000E+01  0.51109989000E-03 0. -1.
     -623   -1    0    0    0    0  0.00000000000E+00  0.00000000000E+00  0.12525980253E-10  0.17130000000E+03  0.17130000000E+03 0.  1.
       11    1    1    2    0    0 -0.36678444590E-02  0.32320924874E-02  0.15419229588E+00  0.15427062208E+00  0.51109989000E-03 0. -1.
     -623    1    1    2    0    0 -0.59867660607E-03 -0.15522599183E-02  0.28906416988E-03  0.17130000001E+03  0.17130000000E+03 0.  1.
      622    1    1    2    0    0  0.42665210651E-02 -0.16798325690E-02  0.38455186073E+01  0.38457293696E+01  0.40000000000E-01 0. -1.
</event>
<event>
 5   0  0.6200596E+07  0.9118800E+02  0.7818608E-02  0.1180000E+00
       11   -1    0    0    0    0  0.00000000000E+00  0.00000000000E+00  0.39999999673E+01  0.40000000000E+01  0.51109989000E-03 0. -1.
     -623   -1    0    0    0    0  0.00000000000E+00  0.00000000000E+00  0.12525980253E-10  0.17130000000E+03  0.17130000000E+03 0. -1.
       11    1    1    2    0    0  0.16922813078E-02  0.64366596591E-02  0.12174571837E+00  0.12192856748E+00  0.51109989000E-03 0. -1.
     -623    1    1    2    0    0 -0.52223071394E-03 -0.12687858348E-03  0.39442128568E-03  0.17130000000E+03  0.17130000000E+03 0. -1.
      622    1    1    2    0    0 -0.11700505939E-02 -0.63097810756E-02  0.38778598277E+01  0.38780714312E+01  0.40000000000E-01 0. -1.
</event>
<event>
 5   0  0.6200596E+07  0.9118800E+02  0.7818608E-02  0.1180000E+00
       11   -1    0    0    0    0  0.00000000000E+00  0.00000000000E+00  0.39999999673E+01  0.40000000000E+01  0.51109989000E-03 0.  1.
     -623   -1    0    0    0    0  0.00000000000E+00  0.00000000000E+00  0.12525980253E-10  0.17130000000E+03  0.17130000000E+03 0. -1.
       11    1    1    2    0    0  0.15186897811E-01  0.56958657778E-01  0.24044464090E+01  0.24051689599E+01  0.51109989000E-03 0.  1.
     -623    1    1    2    0    0  0.45742887493E-03 -0.54178966174E-01  0.13119743061E-02  0.17130000857E+03  0.17130000000E+03 0. -1.
      622    1    1    2    0    0 -0.15644326686E-01 -0.27796916042E-02  0.15942415841E+01  0.15948224666E+01  0.40000000000E-01 0.  1.
</event>
<event>
 5   0  0.6200596E+07  0.9118800E+02  0.7818608E-02  0.1180000E+00
       11   -1    0    0    0    0  0.00000000000E+00  0.00000000000E+00  0.39999999673E+01  0.40000000000E+01  0.51109989000E-03 0. -1.
     -623   -1    0    0    0    0  0.00000000000E+00  0.00000000000E+00  0.12525980253E-10  0.17130000000E+03  0.17130000000E+03 0. -1.
       11    1    1    2    0    0  0.13734628238E-01  0.14550116055E-02  0.22604046623E+00  0.22646260324E+00  0.51109989000E-03 0. -1.
     -623    1    1    2    0    0  0.19449444090E-02 -0.72333284724E-02  0.67127983355E-03  0.17130000017E+03  0.17130000000E+03 0. -1.
      622    1    1    2    0    0 -0.15679572647E-01  0.57783168670E-02  0.37732882213E+01  0.37735372317E+01  0.40000000000E-01 0. -1.
</event>
<event>
 5   0  0.6200596E+07  0.9118800E+02  0.7818608E-02  0.1180000E+00
       11   -1    0    0    0    0  0.00000000000E+00  0.00000000000E+00  0.39999999673E+01  0.40000000000E+01  0.51109989000E-03 0.  1.
     -623   -1    0    0    0    0  0.00000000000E+00  0.00000000000E+00  0.12525980253E-10  0.17130000000E+03  0.17130000000E+03 0.  1.
       11    1    1    2    0    0  0.64028373930E-02  0.62388402840E-02  0.44615641821E-01  0.45505342222E-01  0.51109989000E-03 0.  1.
     -623    1    1    2    0    0 -0.23379145871E-02  0.14032668242E-02  0.11014735738E-02  0.17130000003E+03  0.17130000000E+03 0.  1.
      622    1    1    2    0    0 -0.40649228059E-02 -0.76421071083E-02  0.39542828520E+01  0.39544946325E+01  0.40000000000E-01 0.  1.
</event>
<event>
 5   0  0.6200596E+07  0.9118800E+02  0.7818608E-02  0.1180000E+00
       11   -1    0    0    0    0  0.00000000000E+00  0.00000000000E+00  0.39999999673E+01  0.40000000000E+01  0.51109989000E-03 0. -1.
     -623   -1    0    0    0    0  0.00000000000E+00  0.00000000000E+00  0.12525980253E-10  0.17130000000E+03  0.17130000000E+03 0. -1.
       11    1    1    2    0    0 -0.85670022288E-03 -0.22314194762E-02  0.12854467201E+01  0.12854490440E+01  0.51109989000E-03 0. -1.
     -623    1    1    2    0    0 -0.63183534097E-02  0.56591612626E-02  0.30887349678E-03  0.17130000021E+03  0.17130000000E+03 0. -1.
      622    1    1    2    0    0  0.71750536326E-02 -0.34277417864E-02  0.27142443738E+01  0.27145507458E+01  0.40000000000E-01 0. -1.
</event>
<event>
 5   0  0.6200596E+07  0.9118800E+02  0.7818608E-02  0.1180000E+00
       11   -1    0    0    0    0  0.00000000000E+00  0.00000000000E+00  0.39999999673E+01  0.40000000000E+01  0.51109989000E-03 0. -1.
     -623   -1    0    0    0    0  0.00000000000E+00  0.00000000000E+00  0.12525980253E-10  0.17130000000E+03  0.17130000000E+03 0. -1.
       11    1    1    2    0    0 -0.16409550246E-01 -0.24227722606E-01  0.39965882115E+00  0.40072894882E+00  0.51109989000E-03 0. -1.
     -623    1    1    2    0    0 -0.47009631580E-03  0.13099287994E-02  0.14049325616E-02  0.17130000001E+03  0.17130000000E+03 0. -1.
      622    1    1    2    0    0  0.16879646562E-01  0.22917793807E-01  0.35989362137E+01  0.35992710398E+01  0.40000000000E-01 0. -1.
</event>
<event>
 5   0  0.6200596E+07  0.9118800E+02  0.7818608E-02  0.1180000E+00
       11   -1    0    0    0    0  0.00000000000E+00  0.00000000000E+00  0.39999999673E+01  0.40000000000E+01  0.51109989000E-03 0. -1.
     -623   -1    0    0    0    0  0.00000000000E+00  0.00000000000E+00  0.12525980253E-10  0.17130000000E+03  0.17130000000E+03 0.  1.
       11    1    1    2    0    0  0.22159749632E-02  0.98006459047E-03  0.71447011007E-01  0.71489913097E-01  0.51109989000E-03 0. -1.
     -623    1    1    2    0    0  0.99276391467E-03 -0.46247407088E-03  0.24786254079E-03  0.17130000000E+03  0.17130000000E+03 0.  1.
      622    1    1    2    0    0 -0.32087388778E-02 -0.51759051959E-03  0.39283050938E+01  0.39285100832E+01  0.40000000000E-01 0. -1.
</event>
<event>
 5   0  0.6200596E+07  0.9118800E+02  0.7818608E-02  0.1180000E+00
       11   -1    0    0    0    0  0.00000000000E+00  0.00000000000E+00  0.39999999673E+01  0.40000000000E+01  0.51109989000E-03 0. -1.
     -623   -1    0    0    0    0  0.00000000000E+00  0.00000000000E+00  0.12525980253E-10  0.17130000000E+03  0.17130000000E+03 0.  1.
       11    1    1    2    0    0 -0.60971740199E-03 -0.13820379090E-02  0.35391544823E-02  0.38818319005E-02  0.51109989000E-03 0. -1.
     -623    1    1    2    0    0  0.50682508769E-03  0.33884573047E-03  0.54298351387E-03  0.17130000000E+03  0.17130000000E+03 0.  1.
      622    1    1    2    0    0  0.10289231430E-03  0.10431921785E-02  0.39959178294E+01  0.39961181662E+01  0.40000000000E-01 0. -1.
</event>
<event>
 5   0  0.6200596E+07  0.9118800E+02  0.7818608E-02  0.1180000E+00
       11   -1    0    0    0    0  0.00000000000E+00  0.00000000000E+00  0.39999999673E+01  0.40000000000E+01  0.51109989000E-03 0.  1.
     -623   -1    0    0    0    0  0.00000000000E+00  0.00000000000E+00  0.12525980253E-10  0.17130000000E+03  0.17130000000E+03 0. -1.
       11    1    1    2    0    0 -0.23057393239E-04  0.77488917206E-03  0.41796169536E-02  0.42815189499E-02  0.51109989000E-03 0.  1.
     -623    1    1    2    0    0 -0.18795710509E-02  0.35210546661E-03  0.30271156908E-03  0.17130000001E+03  0.17130000000E+03 0. -1.
      622    1    1    2    0    0  0.19026284441E-02 -0.11269946387E-02  0.39955176388E+01  0.39957184701E+01  0.40000000000E-01 0.  1.
</event>
<event>
 5   0  0.6200596E+07  0.9118800E+02  0.7818608E-02  0.1180000E+00
       11   -1    0    0    0    0  0.00000000000E+00  0.00000000000E+00  0.39999999673E+01  0.40000000000E+01  0.51109989000E-03 0. -1.
     -623   -1    0    0    0    0  0.00000000000E+00  0.00000000000E+00  0.12525980253E-10  0.17130000000E+03  0.17130000000E+03 0.  1.
       11    1    1    2    0    0 -0.92597968794E-02  0.16710291745E-01  0.13794716541E+01  0.13796040313E+01  0.51109989000E-03 0. -1.
     -623    1    1    2    0    0  0.23196561415E-02 -0.46815716315E-04  0.49985745001E-03  0.17130000002E+03  0.17130000000E+03 0.  1.
      622    1    1    2    0    0  0.69401407379E-02 -0.16663476029E-01  0.26200284558E+01  0.26203959522E+01  0.40000000000E-01 0. -1.
</event>
<event>
 5   0  0.6200596E+07  0.9118800E+02  0.7818608E-02  0.1180000E+00
       11   -1    0    0    0    0  0.00000000000E+00  0.00000000000E+00  0.39999999673E+01  0.40000000000E+01  0.51109989000E-03 0. -1.
     -623   -1    0    0    0    0  0.00000000000E+00  0.00000000000E+00  0.12525980253E-10  0.17130000000E+03  0.17130000000E+03 0.  1.
       11    1    1    2    0    0 -0.10522439438E-01 -0.43486182822E-02  0.25519546643E-01  0.27948894327E-01  0.51109989000E-03 0. -1.
     -623    1    1    2    0    0  0.23051770342E-01 -0.64942389514E-02  0.26669847720E-02  0.17130000169E+03  0.17130000000E+03 0.  1.
      622    1    1    2    0    0 -0.12529330905E-01  0.10842857234E-01  0.39718134359E+01  0.39720494108E+01  0.40000000000E-01 0. -1.
</event>
<event>
 5   0  0.6200596E+07  0.9118800E+02  0.7818608E-02  0.1180000E+00
       11   -1    0    0    0    0  0.00000000000E+00  0.00000000000E+00  0.39999999673E+01  0.40000000000E+01  0.51109989000E-03 0. -1.
     -623   -1    0    0    0    0  0.00000000000E+00  0.00000000000E+00  0.12525980253E-10  0.17130000000E+03  0.17130000000E+03 0.  1.
       11    1    1    2    0    0  0.17431464110E-01  0.98458364034E-02  0.86127426127E-01  0.88425059735E-01  0.51109989000E-03 0. -1.
     -623    1    1    2    0    0 -0.80302910318E-02 -0.93017296938E-02  0.25139227120E-02  0.17130000046E+03  0.17130000000E+03 0.  1.
      622    1    1    2    0    0 -0.94011730784E-02 -0.54410670963E-03  0.39113586185E+01  0.39115744810E+01  0.40000000000E-01 0. -1.
</event>
<event>
 5   0  0.6200596E+07  0.9118800E+02  0.7818608E-02  0.1180000E+00
       11   -1    0    0    0    0  0.00000000000E+00  0.00000000000E+00  0.39999999673E+01  0.40000000000E+01  0.51109989000E-03 0.  1.
     -623   -1    0    0    0    0  0.00000000000E+00  0.00000000000E+00  0.12525980253E-10  0.17130000000E+03  0.17130000000E+03 0.  1.
       11    1    1    2    0    0  0.12048371530E-02  0.78039710927E-03  0.38080562494E-01  0.38111036642E-01  0.51109989000E-03 0.  1.
     -623    1    1    2    0    0  0.11072295671E-02 -0.58244887392E-02  0.23635908920E-03  0.17130000010E+03  0.17130000000E+03 0.  1.
      622    1    1    2    0    0 -0.23120667201E-02  0.50440916299E-02  0.39616830458E+01  0.39618888606E+01  0.40000000000E-01 0.  1.
</event>
<event>
 5   0  0.6200596E+07  0.9118800E+02  0.7818608E-02  0.1180000E+00
       11   -1    0    0    0    0  0.00000000000E+00  0.00000000000E+00  0.39999999673E+01  0.40000000000E+01  0.51109989000E-03 0. -1.
     -623   -1    0    0    0    0  0.00000000000E+00  0.00000000000E+00  0.12525980253E-10  0.17130000000E+03  0.17130000000E+03 0.  1.
       11    1    1    2    0    0 -0.10429424259E-01 -0.29670718741E-02  0.59496157784E+00  0.59506059921E+00  0.51109989000E-03 0. -1.
     -623    1    1    2    0    0 -0.14243830355E-02 -0.66332829039E-02  0.36825485727E-03  0.17130000013E+03  0.17130000000E+03 0.  1.
      622    1    1    2    0    0  0.11853807295E-01  0.96003547780E-02  0.34046701347E+01  0.34049392660E+01  0.40000000000E-01 0. -1.
</event>
<event>
 5   0  0.6200596E+07  0.9118800E+02  0.7818608E-02  0.1180000E+00
       11   -1    0    0    0    0  0.00000000000E+00  0.00000000000E+00  0.39999999673E+01  0.40000000000E+01  0.51109989000E-03 0. -1.
     -623   -1    0    0    0    0  0.00000000000E+00  0.00000000000E+00  0.12525980253E-10  0.17130000000E+03  0.17130000000E+03 0.  1.
       11    1    1    2    0    0 -0.19225654729E-03 -0.38958694996E-03  0.32904645628E+00  0.32904714002E+00  0.51109989000E-03 0. -1.
     -623    1    1    2    0    0 -0.54985936452E-02  0.49492122469E-02  0.22598777761E-03  0.17130000016E+03  0.17130000000E+03 0.  1.
      622    1    1    2    0    0  0.56908501925E-02 -0.45596252970E-02  0.36707275233E+01  0.36709527001E+01  0.40000000000E-01 0. -1.
</event>
<event>
 5   0  0.6200596E+07  0.9118800E+02  0.7818608E-02  0.1180000E+00
       11   -1    0    0    0    0  0.00000000000E+00  0.00000000000E+00  0.39999999673E+01  0.40000000000E+01  0.51109989000E-03 0.  1.
     -623   -1    0    0    0    0  0.00000000000E+00  0.00000000000E+00  0.12525980253E-10  0.17130000000E+03  0.17130000000E+03 0. -1.
       11    1    1    2    0    0  0.27009600367E-02  0.18728524917E-02  0.15045481631E+00  0.15049158027E+00  0.51109989000E-03 0.  1.
     -623    1    1    2    0    0  0.32966674262E-03  0.22085233360E-02  0.24792717264E-03  0.17130000001E+03  0.17130000000E+03 0. -1.
      622    1    1    2    0    0 -0.30306267793E-02 -0.40813758276E-02  0.38492972239E+01  0.38495084050E+01  0.40000000000E-01 0.  1.
</event>
<event>
 5   0  0.6200596E+07  0.9118800E+02  0.7818608E-02  0.1180000E+00
       11   -1    0    0    0    0  0.00000000000E+00  0.00000000000E+00  0.39999999673E+01  0.40000000000E+01  0.51109989000E-03 0. -1.
     -623   -1    0    0    0    0  0.00000000000E+00  0.00000000000E+00  0.12525980253E-10  0.17130000000E+03  0.17130000000E+03 0.  1.
       11    1    1    2    0    0  0.21550133647E-02  0.19416513079E-02  0.74860179379E-01  0.74918100421E-01  0.51109989000E-03 0. -1.
     -623    1    1    2    0    0 -0.89083696872E-04 -0.21932259026E-03  0.26263308109E-03  0.17130000000E+03  0.17130000000E+03 0.  1.
      622    1    1    2    0    0 -0.20659296678E-02 -0.17223287177E-02  0.39248771549E+01  0.39250818992E+01  0.40000000000E-01 0. -1.
</event>
<event>
 5   0  0.6200596E+07  0.9118800E+02  0.7818608E-02  0.1180000E+00
       11   -1    0    0    0    0  0.00000000000E+00  0.00000000000E+00  0.39999999673E+01  0.40000000000E+01  0.51109989000E-03 0. -1.
     -623   -1    0    0    0    0  0.00000000000E+00  0.00000000000E+00  0.12525980253E-10  0.17130000000E+03  0.17130000000E+03 0. -1.
       11    1    1    2    0    0 -0.20868281795E-03 -0.26918951092E-02  0.11307762116E-01  0.11636861881E-01  0.51109989000E-03 0. -1.
     -623    1    1    2    0    0  0.50639631802E-03 -0.35994216909E-03  0.53083644123E-03  0.17130000000E+03  0.17130000000E+03 0. -1.
      622    1    1    2    0    0 -0.29771350007E-03  0.30518372783E-02  0.39881613688E+01  0.39883631362E+01  0.40000000000E-01 0. -1.
</event>
<event>
 5   0  0.6200596E+07  0.9118800E+02  0.7818608E-02  0.1180000E+00
       11   -1    0    0    0    0  0.00000000000E+00  0.00000000000E+00  0.39999999673E+01  0.40000000000E+01  0.51109989000E-03 0.  1.
     -623   -1    0    0    0    0  0.00000000000E+00  0.00000000000E+00  0.12525980253E-10  0.17130000000E+03  0.17130000000E+03 0.  1.
       11    1    1    2    0    0 -0.10967519282E-01 -0.38578704169E-02  0.14629072432E+00  0.14675287693E+00  0.51109989000E-03 0.  1.
     -623    1    1    2    0    0 -0.12926376264E-02  0.91568413987E-03  0.69038033262E-03  0.17130000001E+03  0.17130000000E+03 0.  1.
      622    1    1    2    0    0  0.12260156908E-01  0.29421862770E-02  0.38530188627E+01  0.38532471144E+01  0.40000000000E-01 0.  1.
</event>
<event>
 5   0  0.6200596E+07  0.9118800E+02  0.7818608E-02  0.1180000E+00
       11   -1    0    0    0    0  0.00000000000E+00  0.00000000000E+00  0.39999999673E+01  0.40000000000E+01  0.51109989000E-03 0.  1.
     -623   -1    0    0    0    0  0.00000000000E+00  0.00000000000E+00  0.12525980253E-10  0.17130000000E+03  0.17130000000E+03 0.  1.
       11    1    1    2    0    0 -0.22213552344E-01  0.10196194743E-01  0.11187832601E+00  0.11451823150E+00  0.51109989000E-03 0.  1.
     -623    1    1    2    0    0  0.29580034965E-01 -0.10911284408E-01  0.28557476326E-02  0.17130000293E+03  0.17130000000E+03 0.  1.
      622    1    1    2    0    0 -0.73664826206E-02  0.71508966489E-03  0.38852658937E+01  0.38854788432E+01  0.40000000000E-01 0.  1.
</event>
<event>
 5   0  0.6200596E+07  0.9118800E+02  0.7818608E-02  0.1180000E+00
       11   -1    0    0    0    0  0.00000000000E+00  0.00000000000E+00  0.39999999673E+01  0.40000000000E+01  0.51109989000E-03 0. -1.
     -623   -1    0    0    0    0  0.00000000000E+00  0.00000000000E+00  0.12525980253E-10  0.17130000000E+03  0.17130000000E+03 0.  1.
       11    1    1    2    0    0  0.60575663271E-02 -0.26967466155E-03  0.55350139862E-01  0.55683624499E-01  0.51109989000E-03 0. -1.
     -623    1    1    2    0    0  0.84184229650E-03  0.15809800301E-02  0.54254345496E-03  0.17130000001E+03  0.17130000000E+03 0.  1.
      622    1    1    2    0    0 -0.68994086236E-02 -0.13113053685E-02  0.39441072840E+01  0.39443163653E+01  0.40000000000E-01 0. -1.
</event>
<event>
 5   0  0.6200596E+07  0.9118800E+02  0.7818608E-02  0.1180000E+00
       11   -1    0    0    0    0  0.00000000000E+00  0.00000000000E+00  0.39999999673E+01  0.40000000000E+01  0.51109989000E-03 0.  1.
     -623   -1    0    0    0    0  0.00000000000E+00  0.00000000000E+00  0.12525980253E-10  0.17130000000E+03  0.17130000000E+03 0.  1.
       11    1    1    2    0    0  0.14723304469E-01 -0.55674926733E-02  0.40857327741E+00  0.40887670135E+00  0.51109989000E-03 0.  1.
     -623    1    1    2    0    0 -0.44529686291E-03  0.14920021666E-01  0.56738649606E-03  0.17130000065E+03  0.17130000000E+03 0.  1.
      622    1    1    2    0    0 -0.14278007606E-01 -0.93525289926E-02  0.35908593035E+01  0.35911226474E+01  0.40000000000E-01 0.  1.
</event>
<event>
 5   0  0.6200596E+07  0.9118800E+02  0.7818608E-02  0.1180000E+00
       11   -1    0    0    0    0  0.00000000000E+00  0.00000000000E+00  0.39999999673E+01  0.40000000000E+01  0.51109989000E-03 0.  1.
     -623   -1    0    0    0    0  0.00000000000E+00  0.00000000000E+00  0.12525980253E-10  0.17130000000E+03  0.17130000000E+03 0. -1.
       11    1    1    2    0    0  0.12334748824E-02 -0.15923464670E-02  0.15716164976E-01  0.15852952161E-01  0.51109989000E-03 0.  1.
     -623    1    1    2    0    0 -0.74788903565E-03  0.37839424472E-04  0.33789024880E-03  0.17130000000E+03  0.17130000000E+03 0. -1.
      622    1    1    2    0    0 -0.48558584679E-03  0.15545070425E-02  0.39839459121E+01  0.39841470459E+01  0.40000000000E-01 0.  1.
</event>
<event>
 5   0  0.6200596E+07  0.9118800E+02  0.7818608E-02  0.1180000E+00
       11   -1    0    0    0    0  0.00000000000E+00  0.00000000000E+00  0.39999999673E+01  0.40000000000E+01  0.51109989000E-03 0. -1.
     -623   -1    0    0    0    0  0.00000000000E+00  0.00000000000E+00  0.12525980253E-10  0.17130000000E+03  0.17130000000E+03 0.  1.
       11    1    1    2    0    0  0.12905149577E-02  0.25688334083E-03  0.31945883930E+00  0.31946195805E+00  0.51109989000E-03 0. -1.
     -623    1    1    2    0    0  0.19478971633E-02 -0.16201904100E-03  0.22188936303E-03  0.17130000001E+03  0.17130000000E+03 0.  1.
      622    1    1    2    0    0 -0.32384121210E-02 -0.94864299830E-04  0.36803192387E+01  0.36805380306E+01  0.40000000000E-01 0. -1.
</event>
<event>
 5   0  0.6200596E+07  0.9118800E+02  0.7818608E-02  0.1180000E+00
       11   -1    0    0    0    0  0.00000000000E+00  0.00000000000E+00  0.39999999673E+01  0.40000000000E+01  0.51109989000E-03 0. -1.
     -623   -1    0    0    0    0  0.00000000000E+00  0.00000000000E+00  0.12525980253E-10  0.17130000000E+03  0.17130000000E+03 0. -1.
       11    1    1    2    0    0 -0.26395926227E-01 -0.22998024908E-01  0.14638143505E+01  0.14642330306E+01  0.51109989000E-03 0. -1.
     -623    1    1    2    0    0  0.21972351838E-03  0.36918143426E-02  0.94283087280E-03  0.17130000004E+03  0.17130000000E+03 0. -1.
      622    1    1    2    0    0  0.26176202709E-01  0.19306210566E-01  0.25352427860E+01  0.25357669269E+01  0.40000000000E-01 0. -1.
</event>
<event>
 5   0  0.6200596E+07  0.9118800E+02  0.7818608E-02  0.1180000E+00
       11   -1    0    0    0    0  0.00000000000E+00  0.00000000000E+00  0.39999999673E+01  0.40000000000E+01  0.51109989000E-03 0.  1.
     -623   -1    0    0    0    0  0.00000000000E+00  0.00000000000E+00  0.12525980253E-10  0.17130000000E+03  0.17130000000E+03 0.  1.
       11    1    1    2    0    0 -0.36610424381E-03  0.48897769959E-03  0.20993514471E-01  0.21008617353E-01  0.51109989000E-03 0.  1.
     -623    1    1    2    0    0  0.11049942499E-04  0.28395065988E-02  0.21756304794E-03  0.17130000002E+03  0.17130000000E+03 0.  1.
      622    1    1    2    0    0  0.35505430132E-03 -0.33284842984E-02  0.39787888898E+01  0.39789913590E+01  0.40000000000E-01 0.  1.
</event>
<event>
 5   0  0.6200596E+07  0.9118800E+02  0.7818608E-02  0.1180000E+00
       11   -1    0    0    0    0  0.00000000000E+00  0.00000000000E+00  0.39999999673E+01  0.40000000000E+01  0.51109989000E-03 0.  1.
     -623   -1    0    0    0    0  0.00000000000E+00  0.00000000000E+00  0.12525980253E-10  0.17130000000E+03  0.17130000000E+03 0.  1.
       11    1    1    2    0    0 -0.98544985871E-03 -0.67716215485E-03  0.33895648024E-02  0.36304312626E-02  0.51109989000E-03 0. -1.
     -623    1    1    2    0    0 -0.37539661777E-03 -0.19392697275E-02  0.44212072474E-03  0.17130000001E+03  0.17130000000E+03 0.  1.
      622    1    1    2    0    0  0.13608464765E-02  0.26164318823E-02  0.39961682818E+01  0.39963695568E+01  0.40000000000E-01 0.  1.
</event>
<event>
 5   0  0.6200596E+07  0.9118800E+02  0.7818608E-02  0.1180000E+00
       11   -1    0    0    0    0  0.00000000000E+00  0.00000000000E+00  0.39999999673E+01  0.40000000000E+01  0.51109989000E-03 0. -1.
     -623   -1    0    0    0    0  0.00000000000E+00  0.00000000000E+00  0.12525980253E-10  0.17130000000E+03  0.17130000000E+03 0. -1.
       11    1    1    2    0    0 -0.56971556706E-02  0.15978340736E-03  0.26407570834E-01  0.27020439150E-01  0.51109989000E-03 0. -1.
     -623    1    1    2    0    0  0.84186172255E-02 -0.34799618333E-02  0.81676469419E-03  0.17130000024E+03  0.17130000000E+03 0. -1.
      622    1    1    2    0    0 -0.27214615549E-02  0.33201784260E-02  0.39727756318E+01  0.39729793167E+01  0.40000000000E-01 0. -1.
</event>
<event>
 5   0  0.6200596E+07  0.9118800E+02  0.7818608E-02  0.1180000E+00
       11   -1    0    0    0    0  0.00000000000E+00  0.00000000000E+00  0.39999999673E+01  0.40000000000E+01  0.51109989000E-03 0. -1.
     -623   -1    0    0    0    0  0.00000000000E+00  0.00000000000E+00  0.12525980253E-10  0.17130000000E+03  0.17130000000E+03 0. -1.
       11    1    1    2    0    0  0.12066716662E-01  0.60165314862E-02  0.29258123046E+01  0.29258434181E+01  0.51109989000E-03 0. -1.
     -623    1    1    2    0    0  0.59709584480E-03  0.25984789589E-02  0.88541158208E-03  0.17130000002E+03  0.17130000000E+03 0. -1.
      622    1    1    2    0    0 -0.12663812507E-01 -0.86150104451E-02  0.10733022512E+01  0.10741565588E+01  0.40000000000E-01 0.  0.
</event>
<event>
 5   0  0.6200596E+07  0.9118800E+02  0.7818608E-02  0.1180000E+00
       11   -1    0    0    0    0  0.00000000000E+00  0.00000000000E+00  0.39999999673E+01  0.40000000000E+01  0.51109989000E-03 0. -1.
     -623   -1    0    0    0    0  0.00000000000E+00  0.00000000000E+00  0.12525980253E-10  0.17130000000E+03  0.17130000000E+03 0. -1.
       11    1    1    2    0    0 -0.15127299838E-04 -0.23401383610E-02  0.82358472449E-01  0.82393298764E-01  0.51109989000E-03 0. -1.
     -623    1    1    2    0    0  0.14215670131E-02  0.37498873358E-03  0.23975715979E-03  0.17130000001E+03  0.17130000000E+03 0. -1.
      622    1    1    2    0    0 -0.14064397132E-02  0.19651496274E-02  0.39174017378E+01  0.39176066948E+01  0.40000000000E-01 0. -1.
</event>
<event>
 5   0  0.6200596E+07  0.9118800E+02  0.7818608E-02  0.1180000E+00
       11   -1    0    0    0    0  0.00000000000E+00  0.00000000000E+00  0.39999999673E+01  0.40000000000E+01  0.51109989000E-03 0. -1.
     -623   -1    0    0    0    0  0.00000000000E+00  0.00000000000E+00  0.12525980253E-10  0.17130000000E+03  0.17130000000E+03 0. -1.
       11    1    1    2    0    0 -0.15042283394E-02 -0.50207141170E-02  0.82615572878E-01  0.82783237287E-01  0.51109989000E-03 0. -1.
     -623    1    1    2    0    0 -0.31477741410E-02  0.24070805602E-02  0.37554440676E-03  0.17130000005E+03  0.17130000000E+03 0. -1.
      622    1    1    2    0    0  0.46520024804E-02  0.26136335567E-02  0.39170088501E+01  0.39172167165E+01  0.40000000000E-01 0. -1.
</event>
<event>
 5   0  0.6200596E+07  0.9118800E+02  0.7818608E-02  0.1180000E+00
       11   -1    0    0    0    0  0.00000000000E+00  0.00000000000E+00  0.39999999673E+01  0.40000000000E+01  0.51109989000E-03 0. -1.
     -623   -1    0    0    0    0  0.00000000000E+00  0.00000000000E+00  0.12525980253E-10  0.17130000000E+03  0.17130000000E+03 0. -1.
       11    1    1    2    0    0  0.47684578903E-03  0.20787962685E-02  0.60508408760E-01  0.60548142237E-01  0.51109989000E-03 0. -1.
     -623    1    1    2    0    0 -0.36324751658E-03  0.18014883563E-03  0.24342999051E-03  0.17130000000E+03  0.17130000000E+03 0. -1.
      622    1    1    2    0    0 -0.11359827245E-03 -0.22589451041E-02  0.39392481286E+01  0.39394518571E+01  0.40000000000E-01 0. -1.
</event>
<event>
 5   0  0.6200596E+07  0.9118800E+02  0.7818608E-02  0.1180000E+00
       11   -1    0    0    0    0  0.00000000000E+00  0.00000000000E+00  0.39999999673E+01  0.40000000000E+01  0.51109989000E-03 0. -1.
     -623   -1    0    0    0    0  0.00000000000E+00  0.00000000000E+00  0.12525980253E-10  0.17130000000E+03  0.17130000000E+03 0.  1.
       11    1    1    2    0    0 -0.16759722523E-03  0.35911100163E-02  0.37285062733E-01  0.37461463990E-01  0.51109989000E-03 0. -1.
     -623    1    1    2    0    0  0.38962438030E-02 -0.77930916179E-03  0.38106309316E-03  0.17130000005E+03  0.17130000000E+03 0.  1.
      622    1    1    2    0    0 -0.37286465777E-02 -0.28118008545E-02  0.39623338415E+01  0.39625384895E+01  0.40000000000E-01 0. -1.
</event>
<event>
 5   0  0.6200596E+07  0.9118800E+02  0.7818608E-02  0.1180000E+00
       11   -1    0    0    0    0  0.00000000000E+00  0.00000000000E+00  0.39999999673E+01  0.40000000000E+01  0.51109989000E-03 0. -1.
     -623   -1    0    0    0    0  0.00000000000E+00  0.00000000000E+00  0.12525980253E-10  0.17130000000E+03  0.17130000000E+03 0. -1.
       11    1    1    2    0    0 -0.18292798067E-01  0.24755597792E-01  0.13183809961E+01  0.13187403756E+01  0.51109989000E-03 0. -1.
     -623    1    1    2    0    0  0.83551735217E-02  0.92652716134E-02  0.89247480778E-03  0.17130000046E+03  0.17130000000E+03 0. -1.
      622    1    1    2    0    0  0.99376245455E-02 -0.34020869405E-01  0.26807264965E+01  0.26812591678E+01  0.40000000000E-01 0. -1.
</event>
<event>
 5   0  0.6200596E+07  0.9118800E+02  0.7818608E-02  0.1180000E+00
       11   -1    0    0    0    0  0.00000000000E+00  0.00000000000E+00  0.39999999673E+01  0.40000000000E+01  0.51109989000E-03 0.  1.
     -623   -1    0    0    0    0  0.00000000000E+00  0.00000000000E+00  0.12525980253E-10  0.17130000000E+03  0.17130000000E+03 0. -1.
       11    1    1    2    0    0  0.18669945656E-02 -0.12794163670E-02  0.53973591967E-01  0.54023443313E-01  0.51109989000E-03 0.  1.
     -623    1    1    2    0    0 -0.70690798585E-02  0.47949856467E-02  0.25777058115E-03  0.17130000021E+03  0.17130000000E+03 0. -1.
      622    1    1    2    0    0  0.52020852929E-02 -0.35155692797E-02  0.39457686048E+01  0.39459763435E+01  0.40000000000E-01 0.  1.
</event>
<event>
 5   0  0.6200596E+07  0.9118800E+02  0.7818608E-02  0.1180000E+00
       11   -1    0    0    0    0  0.00000000000E+00  0.00000000000E+00  0.39999999673E+01  0.40000000000E+01  0.51109989000E-03 0.  1.
     -623   -1    0    0    0    0  0.00000000000E+00  0.00000000000E+00  0.12525980253E-10  0.17130000000E+03  0.17130000000E+03 0.  1.
       11    1    1    2    0    0  0.52694117930E-02 -0.36748968932E-02  0.62752964846E-01  0.63083019800E-01  0.51109989000E-03 0.  1.
     -623    1    1    2    0    0  0.39332666180E-03  0.52161248016E-03  0.53856999062E-03  0.17130000000E+03  0.17130000000E+03 0.  1.
      622    1    1    2    0    0 -0.56627384548E-02  0.31532844130E-02  0.39367084325E+01  0.39369169781E+01  0.40000000000E-01 0.  1.
</event>
<event>
 5   0  0.6200596E+07  0.9118800E+02  0.7818608E-02  0.1180000E+00
       11   -1    0    0    0    0  0.00000000000E+00  0.00000000000E+00  0.39999999673E+01  0.40000000000E+01  0.51109989000E-03 0.  1.
     -623   -1    0    0    0    0  0.00000000000E+00  0.00000000000E+00  0.12525980253E-10  0.17130000000E+03  0.17130000000E+03 0.  1.
       11    1    1    2    0    0  0.76871785715E-03  0.14971606886E-03  0.76061980836E-02  0.76634725940E-02  0.51109989000E-03 0.  1.
     -623    1    1    2    0    0 -0.30477021617E-04 -0.43479770820E-03  0.25770999504E-03  0.17130000000E+03  0.17130000000E+03 0.  1.
      622    1    1    2    0    0 -0.73824083553E-03  0.28508163934E-03  0.39921360593E+01  0.39923365267E+01  0.40000000000E-01 0.  1.
</event>
<event>
 5   0  0.6200596E+07  0.9118800E+02  0.7818608E-02  0.1180000E+00
       11   -1    0    0    0    0  0.00000000000E+00  0.00000000000E+00  0.39999999673E+01  0.40000000000E+01  0.51109989000E-03 0.  1.
     -623   -1    0    0    0    0  0.00000000000E+00  0.00000000000E+00  0.12525980253E-10  0.17130000000E+03  0.17130000000E+03 0. -1.
       11    1    1    2    0    0 -0.49558674707E-02 -0.31018613437E-02  0.49511032602E+00  0.49514510834E+00  0.51109989000E-03 0.  1.
     -623    1    1    2    0    0  0.47105398743E-02  0.56794749886E-02  0.26412755586E-03  0.17130000016E+03  0.17130000000E+03 0. -1.
      622    1    1    2    0    0  0.24532759637E-03 -0.25776136449E-02  0.35046255138E+01  0.35048547325E+01  0.40000000000E-01 0.  1.
</event>
<event>
 5   0  0.6200596E+07  0.9118800E+02  0.7818608E-02  0.1180000E+00
       11   -1    0    0    0    0  0.00000000000E+00  0.00000000000E+00  0.39999999673E+01  0.40000000000E+01  0.51109989000E-03 0. -1.
     -623   -1    0    0    0    0  0.00000000000E+00  0.00000000000E+00  0.12525980253E-10  0.17130000000E+03  0.17130000000E+03 0.  1.
       11    1    1    2    0    0  0.56018405791E-02 -0.20872703592E-01  0.65851644718E+00  0.65887117315E+00  0.51109989000E-03 0. -1.
     -623    1    1    2    0    0 -0.52706368333E-01  0.81836774747E-01  0.15102374159E-02  0.17130002766E+03  0.17130000000E+03 0.  1.
      622    1    1    2    0    0  0.47104527754E-01 -0.60964071154E-01  0.33399732828E+01  0.33411011634E+01  0.40000000000E-01 0.  0.
</event>
<event>
 5   0  0.6200596E+07  0.9118800E+02  0.7818608E-02  0.1180000E+00
       11   -1    0    0    0    0  0.00000000000E+00  0.00000000000E+00  0.39999999673E+01  0.40000000000E+01  0.51109989000E-03 0. -1.
     -623   -1    0    0    0    0  0.00000000000E+00  0.00000000000E+00  0.12525980253E-10  0.17130000000E+03  0.17130000000E+03 0.  1.
       11    1    1    2    0    0 -0.67802183509E-02  0.82490540812E-03  0.24029986006E-01  0.24987062223E-01  0.51109989000E-03 0. -1.
     -623    1    1    2    0    0 -0.14738310924E-03 -0.26636224260E-02  0.11647928786E-02  0.17130000002E+03  0.17130000000E+03 0.  1.
      622    1    1    2    0    0  0.69276014602E-02  0.18387170179E-02  0.39748051885E+01  0.39750129130E+01  0.40000000000E-01 0. -1.
</event>
<event>
 5   0  0.6200596E+07  0.9118800E+02  0.7818608E-02  0.1180000E+00
       11   -1    0    0    0    0  0.00000000000E+00  0.00000000000E+00  0.39999999673E+01  0.40000000000E+01  0.51109989000E-03 0.  1.
     -623   -1    0    0    0    0  0.00000000000E+00  0.00000000000E+00  0.12525980253E-10  0.17130000000E+03  0.17130000000E+03 0.  1.
       11    1    1    2    0    0 -0.24654187090E-03  0.35076019690E-02  0.18083947949E+01  0.18083982857E+01  0.51109989000E-03 0.  1.
     -623    1    1    2    0    0 -0.61616281041E-02  0.34639425656E-02  0.38912511592E-03  0.17130000015E+03  0.17130000000E+03 0.  1.
      622    1    1    2    0    0  0.64081699750E-02 -0.69715445346E-02  0.21912160473E+01  0.21916015681E+01  0.40000000000E-01 0.  1.
</event>
<event>
 5   0  0.6200596E+07  0.9118800E+02  0.7818608E-02  0.1180000E+00
       11   -1    0    0    0    0  0.00000000000E+00  0.00000000000E+00  0.39999999673E+01  0.40000000000E+01  0.51109989000E-03 0.  1.
     -623   -1    0    0    0    0  0.00000000000E+00  0.00000000000E+00  0.12525980253E-10  0.17130000000E+03  0.17130000000E+03 0.  1.
       11    1    1    2    0    0  0.71299390040E-03 -0.78695387095E-02  0.13599904600E+00  0.13622936443E+00  0.51109989000E-03 0.  1.
     -623    1    1    2    0    0  0.10039819020E-01  0.49157024191E-02  0.45380078206E-03  0.17130000037E+03  0.17130000000E+03 0.  1.
      622    1    1    2    0    0 -0.10752812920E-01  0.29538362904E-02  0.38635471206E+01  0.38637702702E+01  0.40000000000E-01 0.  1.
</event>
<event>
 5   0  0.6200596E+07  0.9118800E+02  0.7818608E-02  0.1180000E+00
       11   -1    0    0    0    0  0.00000000000E+00  0.00000000000E+00  0.39999999673E+01  0.40000000000E+01  0.51109989000E-03 0.  1.
     -623   -1    0    0    0    0  0.00000000000E+00  0.00000000000E+00  0.12525980253E-10  0.17130000000E+03  0.17130000000E+03 0. -1.
       11    1    1    2    0    0  0.47824454246E-03  0.27606331342E-03  0.32635676905E-01  0.32644349554E-01  0.51109989000E-03 0.  1.
     -623    1    1    2    0    0  0.22058780126E-03  0.45375577626E-03  0.21042033516E-03  0.17130000000E+03  0.17130000000E+03 0. -1.
      622    1    1    2    0    0 -0.69883234372E-03 -0.72981908968E-03  0.39671538701E+01  0.39673556496E+01  0.40000000000E-01 0.  1.
</event>
<event>
 5   0  0.6200596E+07  0.9118800E+02  0.7818608E-02  0.1180000E+00
       11   -1    0    0    0    0  0.00000000000E+00  0.00000000000E+00  0.39999999673E+01  0.40000000000E+01  0.51109989000E-03 0. -1.
     -623   -1    0    0    0    0  0.00000000000E+00  0.00000000000E+00  0.12525980253E-10  0.17130000000E+03  0.17130000000E+03 0.  1.
       11    1    1    2    0    0  0.42989563680E-03  0.18100481703E-02  0.97203043302E-02  0.99099255045E-02  0.51109989000E-03 0. -1.
     -623    1    1    2    0    0 -0.71003427372E-03 -0.46004164688E-04  0.39049202319E-03  0.17130000000E+03  0.17130000000E+03 0.  1.
      622    1    1    2    0    0  0.28013863692E-03 -0.17640440056E-02  0.39898891710E+01  0.39900900726E+01  0.40000000000E-01 0. -1.
</event>
<event>
 5   0  0.6200596E+07  0.9118800E+02  0.7818608E-02  0.1180000E+00
       11   -1    0    0    0    0  0.00000000000E+00  0.00000000000E+00  0.39999999673E+01  0.40000000000E+01  0.51109989000E-03 0.  1.
     -623   -1    0    0    0    0  0.00000000000E+00  0.00000000000E+00  0.12525980253E-10  0.17130000000E+03  0.17130000000E+03 0. -1.
       11    1    1    2    0    0 -0.56550379350E-02  0.12049772337E-01  0.17769735150E+00  0.17819592144E+00  0.51109989000E-03 0.  1.
     -623    1    1    2    0    0  0.10090426312E-01 -0.76992795779E-02  0.71339016424E-03  0.17130000047E+03  0.17130000000E+03 0. -1.
      622    1    1    2    0    0 -0.44353883767E-02 -0.43504927588E-02  0.38215892257E+01  0.38218036069E+01  0.40000000000E-01 0.  1.
</event>
<event>
 5   0  0.6200596E+07  0.9118800E+02  0.7818608E-02  0.1180000E+00
       11   -1    0    0    0    0  0.00000000000E+00  0.00000000000E+00  0.39999999673E+01  0.40000000000E+01  0.51109989000E-03 0.  1.
     -623   -1    0    0    0    0  0.00000000000E+00  0.00000000000E+00  0.12525980253E-10  0.17130000000E+03  0.17130000000E+03 0.  1.
       11    1    1    2    0    0  0.12734253557E-02 -0.26253530734E-02  0.13705221570E-01  0.14021712102E-01  0.51109989000E-03 0.  1.
     -623    1    1    2    0    0  0.14209047980E-02  0.14963670891E-02  0.51825026938E-03  0.17130000001E+03  0.17130000000E+03 0.  1.
      622    1    1    2    0    0 -0.26943301537E-02  0.11289859844E-02  0.39857764955E+01  0.39859782747E+01  0.40000000000E-01 0.  1.
</event>
<event>
 5   0  0.6200596E+07  0.9118800E+02  0.7818608E-02  0.1180000E+00
       11   -1    0    0    0    0  0.00000000000E+00  0.00000000000E+00  0.39999999673E+01  0.40000000000E+01  0.51109989000E-03 0. -1.
     -623   -1    0    0    0    0  0.00000000000E+00  0.00000000000E+00  0.12525980253E-10  0.17130000000E+03  0.17130000000E+03 0. -1.
       11    1    1    2    0    0  0.48799629167E-03 -0.47773393544E-02  0.56843278245E+00  0.56845329667E+00  0.51109989000E-03 0. -1.
     -623    1    1    2    0    0 -0.29631353424E-02  0.34724642457E-02  0.25482236256E-03  0.17130000006E+03  0.17130000000E+03 0. -1.
      622    1    1    2    0    0  0.24751390508E-02  0.13048751087E-02  0.34313123626E+01  0.34315466423E+01  0.40000000000E-01 0. -1.
</event>
<event>
 5   0  0.6200596E+07  0.9118800E+02  0.7818608E-02  0.1180000E+00
       11   -1    0    0    0    0  0.00000000000E+00  0.00000000000E+00  0.39999999673E+01  0.40000000000E+01  0.51109989000E-03 0.  1.
     -623   -1    0    0    0    0  0.00000000000E+00  0.00000000000E+00  0.12525980253E-10  0.17130000000E+03  0.17130000000E+03 0. -1.
       11    1    1    2    0    0 -0.37247074741E-02  0.10907518395E-01  0.50592030093E-01  0.51890867531E-01  0.51109989000E-03 0.  1.
     -623    1    1    2    0    0 -0.14235648558E-02 -0.16569159938E-01  0.15096690424E-02  0.17130000081E+03  0.17130000000E+03 0. -1.
      622    1    1    2    0    0  0.51482723299E-02  0.56616415425E-02  0.39478982682E+01  0.39481083186E+01  0.40000000000E-01 0.  1.
</event>
<event>
 5   0  0.6200596E+07  0.9118800E+02  0.7818608E-02  0.1180000E+00
       11   -1    0    0    0    0  0.00000000000E+00  0.00000000000E+00  0.39999999673E+01  0.40000000000E+01  0.51109989000E-03 0.  1.
     -623   -1    0    0    0    0  0.00000000000E+00  0.00000000000E+00  0.12525980253E-10  0.17130000000E+03  0.17130000000E+03 0. -1.
       11    1    1    2    0    0  0.63173135112E-01  0.55867471954E-01  0.17548552496E+01  0.17568805388E+01  0.51109989000E-03 0.  1.
     -623    1    1    2    0    0  0.52140171732E-02 -0.40196727767E-03  0.41112256251E-02  0.17130000013E+03  0.17130000000E+03 0. -1.
      622    1    1    2    0    0 -0.68387152285E-01 -0.55465504677E-01  0.22410334921E+01  0.22431193320E+01  0.40000000000E-01 0.  1.
</event>
<event>
 5   0  0.6200596E+07  0.9118800E+02  0.7818608E-02  0.1180000E+00
       11   -1    0    0    0    0  0.00000000000E+00  0.00000000000E+00  0.39999999673E+01  0.40000000000E+01  0.51109989000E-03 0. -1.
     -623   -1    0    0    0    0  0.00000000000E+00  0.00000000000E+00  0.12525980253E-10  0.17130000000E+03  0.17130000000E+03 0. -1.
       11    1    1    2    0    0 -0.79285233264E-02 -0.42235814691E-02  0.13023753175E+01  0.13024063994E+01  0.51109989000E-03 0. -1.
     -623    1    1    2    0    0  0.38113739783E-03 -0.41872559755E-03  0.34218161319E-03  0.17130000000E+03  0.17130000000E+03 0. -1.
      622    1    1    2    0    0  0.75473859286E-02  0.46423070667E-02  0.26972824682E+01  0.26975935994E+01  0.40000000000E-01 0. -1.
</event>
<event>
 5   0  0.6200596E+07  0.9118800E+02  0.7818608E-02  0.1180000E+00
       11   -1    0    0    0    0  0.00000000000E+00  0.00000000000E+00  0.39999999673E+01  0.40000000000E+01  0.51109989000E-03 0. -1.
     -623   -1    0    0    0    0  0.00000000000E+00  0.00000000000E+00  0.12525980253E-10  0.17130000000E+03  0.17130000000E+03 0.  1.
       11    1    1    2    0    0 -0.30907218468E-02 -0.46069793335E-01  0.16728538564E+01  0.16734910411E+01  0.51109989000E-03 0. -1.
     -623    1    1    2    0    0 -0.40476288837E-02  0.63950797211E-03  0.14357220506E-02  0.17130000006E+03  0.17130000000E+03 0.  1.
      622    1    1    2    0    0  0.71383507305E-02  0.45430285363E-01  0.23257103889E+01  0.23265089039E+01  0.40000000000E-01 0. -1.
</event>
<event>
 5   0  0.6200596E+07  0.9118800E+02  0.7818608E-02  0.1180000E+00
       11   -1    0    0    0    0  0.00000000000E+00  0.00000000000E+00  0.39999999673E+01  0.40000000000E+01  0.51109989000E-03 0. -1.
     -623   -1    0    0    0    0  0.00000000000E+00  0.00000000000E+00  0.12525980253E-10  0.17130000000E+03  0.17130000000E+03 0.  1.
       11    1    1    2    0    0 -0.41593179128E-02  0.36004346439E-02  0.10854123585E+01  0.10854264195E+01  0.51109989000E-03 0. -1.
     -623    1    1    2    0    0  0.15805495817E-02 -0.77100035376E-03  0.29104775953E-03  0.17130000001E+03  0.17130000000E+03 0.  1.
      622    1    1    2    0    0  0.25787683311E-02 -0.28294342901E-02  0.29142965611E+01  0.29145735712E+01  0.40000000000E-01 0. -1.
</event>
<event>
 5   0  0.6200596E+07  0.9118800E+02  0.7818608E-02  0.1180000E+00
       11   -1    0    0    0    0  0.00000000000E+00  0.00000000000E+00  0.39999999673E+01  0.40000000000E+01  0.51109989000E-03 0. -1.
     -623   -1    0    0    0    0  0.00000000000E+00  0.00000000000E+00  0.12525980253E-10  0.17130000000E+03  0.17130000000E+03 0.  1.
       11    1    1    2    0    0  0.95832538549E-03 -0.17749634936E-02  0.13609314471E-02  0.24864108587E-02  0.51109989000E-03 0.  1.
     -623    1    1    2    0    0 -0.43818359653E-03 -0.17686185181E-02  0.13271955299E-02  0.17130000001E+03  0.17130000000E+03 0.  1.
      622    1    1    2    0    0 -0.52014178896E-03  0.35435820118E-02  0.39973118404E+01  0.39975135743E+01  0.40000000000E-01 0. -1.
</event>
<event>
 5   0  0.6200596E+07  0.9118800E+02  0.7818608E-02  0.1180000E+00
       11   -1    0    0    0    0  0.00000000000E+00  0.00000000000E+00  0.39999999673E+01  0.40000000000E+01  0.51109989000E-03 0. -1.
     -623   -1    0    0    0    0  0.00000000000E+00  0.00000000000E+00  0.12525980253E-10  0.17130000000E+03  0.17130000000E+03 0. -1.
       11    1    1    2    0    0  0.27913124848E-01 -0.71957833376E-01  0.89743667073E+00  0.90074963864E+00  0.51109989000E-03 0. -1.
     -623    1    1    2    0    0 -0.78267503928E-02 -0.18925864562E-02  0.45165065954E-02  0.17130000025E+03  0.17130000000E+03 0. -1.
      622    1    1    2    0    0 -0.20086374455E-01  0.73850419832E-01  0.30980467900E+01  0.30992501126E+01  0.40000000000E-01 0. -1.
</event>
<event>
 5   0  0.6200596E+07  0.9118800E+02  0.7818608E-02  0.1180000E+00
       11   -1    0    0    0    0  0.00000000000E+00  0.00000000000E+00  0.39999999673E+01  0.40000000000E+01  0.51109989000E-03 0.  1.
     -623   -1    0    0    0    0  0.00000000000E+00  0.00000000000E+00  0.12525980253E-10  0.17130000000E+03  0.17130000000E+03 0. -1.
       11    1    1    2    0    0 -0.14661189449E-02 -0.61801714242E-02  0.41462065855E+00  0.41466962241E+00  0.51109989000E-03 0.  1.
     -623    1    1    2    0    0 -0.14287317831E-01 -0.23913793239E-01  0.43525717091E-03  0.17130000227E+03  0.17130000000E+03 0. -1.
      622    1    1    2    0    0  0.15753436776E-01  0.30093964663E-01  0.35849440516E+01  0.35853281120E+01  0.40000000000E-01 0.  1.
</event>
<event>
 5   0  0.6200596E+07  0.9118800E+02  0.7818608E-02  0.1180000E+00
       11   -1    0    0    0    0  0.00000000000E+00  0.00000000000E+00  0.39999999673E+01  0.40000000000E+01  0.51109989000E-03 0. -1.
     -623   -1    0    0    0    0  0.00000000000E+00  0.00000000000E+00  0.12525980253E-10  0.17130000000E+03  0.17130000000E+03 0. -1.
       11    1    1    2    0    0 -0.31717336780E-03 -0.55918246474E-02  0.76743595831E-01  0.76949397820E-01  0.51109989000E-03 0. -1.
     -623    1    1    2    0    0 -0.30193100575E-02  0.23490191568E-02  0.41250000969E-03  0.17130000004E+03  0.17130000000E+03 0. -1.
      622    1    1    2    0    0  0.33364834253E-02  0.32428054906E-02  0.39228438715E+01  0.39230505590E+01  0.40000000000E-01 0. -1.
</event>
<event>
 5   0  0.6200596E+07  0.9118800E+02  0.7818608E-02  0.1180000E+00
       11   -1    0    0    0    0  0.00000000000E+00  0.00000000000E+00  0.39999999673E+01  0.40000000000E+01  0.51109989000E-03 0. -1.
     -623   -1    0    0    0    0  0.00000000000E+00  0.00000000000E+00  0.12525980253E-10  0.17130000000E+03  0.17130000000E+03 0. -1.
       11    1    1    2    0    0 -0.66616021240E-02 -0.77409124255E-02  0.48303705442E-01  0.49374161750E-01  0.51109989000E-03 0. -1.
     -623    1    1    2    0    0 -0.39024445968E-02 -0.13726905890E-02  0.12976208314E-02  0.17130000005E+03  0.17130000000E+03 0. -1.
      622    1    1    2    0    0  0.10564046721E-01  0.91136030145E-02  0.39503986411E+01  0.39506257834E+01  0.40000000000E-01 0. -1.
</event>
<event>
 5   0  0.6200596E+07  0.9118800E+02  0.7818608E-02  0.1180000E+00
       11   -1    0    0    0    0  0.00000000000E+00  0.00000000000E+00  0.39999999673E+01  0.40000000000E+01  0.51109989000E-03 0.  1.
     -623   -1    0    0    0    0  0.00000000000E+00  0.00000000000E+00  0.12525980253E-10  0.17130000000E+03  0.17130000000E+03 0. -1.
       11    1    1    2    0    0  0.66393707277E-02 -0.36944316615E-02  0.48604621410E+00  0.48610586659E+00  0.51109989000E-03 0.  1.
     -623    1    1    2    0    0 -0.35950458500E-02 -0.62583263940E-02  0.30286208178E-03  0.17130000015E+03  0.17130000000E+03 0. -1.
      622    1    1    2    0    0 -0.30443248777E-02  0.99527580555E-02  0.35136508912E+01  0.35138939811E+01  0.40000000000E-01 0.  1.
</event>
<event>
 5   0  0.6200596E+07  0.9118800E+02  0.7818608E-02  0.1180000E+00
       11   -1    0    0    0    0  0.00000000000E+00  0.00000000000E+00  0.39999999673E+01  0.40000000000E+01  0.51109989000E-03 0. -1.
     -623   -1    0    0    0    0  0.00000000000E+00  0.00000000000E+00  0.12525980253E-10  0.17130000000E+03  0.17130000000E+03 0.  1.
       11    1    1    2    0    0 -0.25339265991E-02 -0.28869291619E-02  0.92165227519E-02  0.99980327110E-02  0.51109989000E-03 0. -1.
     -623    1    1    2    0    0  0.30642299421E-03 -0.38674580782E-04  0.98368105077E-03  0.17130000000E+03  0.17130000000E+03 0.  1.
      622    1    1    2    0    0  0.22275036049E-02  0.29256037427E-02  0.39897997636E+01  0.39900019642E+01  0.40000000000E-01 0. -1.
</event>
<event>
 5   0  0.6200596E+07  0.9118800E+02  0.7818608E-02  0.1180000E+00
       11   -1    0    0    0    0  0.00000000000E+00  0.00000000000E+00  0.39999999673E+01  0.40000000000E+01  0.51109989000E-03 0.  1.
     -623   -1    0    0    0    0  0.00000000000E+00  0.00000000000E+00  0.12525980253E-10  0.17130000000E+03  0.17130000000E+03 0. -1.
       11    1    1    2    0    0  0.13702772120E-02  0.25454022753E-02  0.31397658985E-01  0.31534599172E-01  0.51109989000E-03 0.  1.
     -623    1    1    2    0    0 -0.60445815779E-02  0.82701092120E-03  0.34279691784E-03  0.17130000011E+03  0.17130000000E+03 0. -1.
      622    1    1    2    0    0  0.46743043659E-02 -0.33724131965E-02  0.39682595115E+01  0.39684652918E+01  0.40000000000E-01 0.  1.
</event>
<event>
 5   0  0.6200596E+07  0.9118800E+02  0.7818608E-02  0.1180000E+00
       11   -1    0    0    0    0  0.00000000000E+00  0.00000000000E+00  0.39999999673E+01  0.40000000000E+01  0.51109989000E-03 0.  1.
     -623   -1    0    0    0    0  0.00000000000E+00  0.00000000000E+00  0.12525980253E-10  0.17130000000E+03  0.17130000000E+03 0. -1.
       11    1    1    2    0    0 -0.41316659889E-01 -0.11877298549E-01  0.32140185901E+00  0.32426463391E+00  0.51109989000E-03 0.  1.
     -623    1    1    2    0    0 -0.48564116280E-03  0.11893563181E-01  0.33185581408E-02  0.17130000045E+03  0.17130000000E+03 0. -1.
      622    1    1    2    0    0  0.41802301052E-01 -0.16264632741E-04  0.36752795502E+01  0.36757349204E+01  0.40000000000E-01 0.  1.
</event>
<event>
 5   0  0.6200596E+07  0.9118800E+02  0.7818608E-02  0.1180000E+00
       11   -1    0    0    0    0  0.00000000000E+00  0.00000000000E+00  0.39999999673E+01  0.40000000000E+01  0.51109989000E-03 0. -1.
     -623   -1    0    0    0    0  0.00000000000E+00  0.00000000000E+00  0.12525980253E-10  0.17130000000E+03  0.17130000000E+03 0. -1.
       11    1    1    2    0    0 -0.85105227835E-03  0.19444643230E-03  0.21121678184E-01  0.21145888746E-01  0.51109989000E-03 0. -1.
     -623    1    1    2    0    0  0.28341476809E-03  0.25123338504E-03  0.22531193667E-03  0.17130000000E+03  0.17130000000E+03 0. -1.
      622    1    1    2    0    0  0.56763751026E-03 -0.44567981734E-03  0.39786529772E+01  0.39788541107E+01  0.40000000000E-01 0. -1.
</event>
<event>
 5   0  0.6200596E+07  0.9118800E+02  0.7818608E-02  0.1180000E+00
       11   -1    0    0    0    0  0.00000000000E+00  0.00000000000E+00  0.39999999673E+01  0.40000000000E+01  0.51109989000E-03 0.  1.
     -623   -1    0    0    0    0  0.00000000000E+00  0.00000000000E+00  0.12525980253E-10  0.17130000000E+03  0.17130000000E+03 0.  1.
       11    1    1    2    0    0  0.18595777523E-02 -0.34453016018E-03  0.64525712049E-02  0.67434135983E-02  0.51109989000E-03 0.  1.
     -623    1    1    2    0    0 -0.29440405214E-02 -0.37025052961E-02  0.49341668112E-03  0.17130000007E+03  0.17130000000E+03 0.  1.
      622    1    1    2    0    0  0.10844627692E-02  0.40470354563E-02  0.39930539795E+01  0.39932565204E+01  0.40000000000E-01 0.  1.
</event>
<event>
 5   0  0.6200596E+07  0.9118800E+02  0.7818608E-02  0.1180000E+00
       11   -1    0    0    0    0  0.00000000000E+00  0.00000000000E+00  0.39999999673E+01  0.40000000000E+01  0.51109989000E-03 0. -1.
     -623   -1    0    0    0    0  0.00000000000E+00  0.00000000000E+00  0.12525980253E-10  0.17130000000E+03  0.17130000000E+03 0. -1.
       11    1    1    2    0    0  0.12753950894E-02 -0.33493816747E-02  0.39371317453E+00  0.39372981855E+00  0.51109989000E-03 0. -1.
     -623    1    1    2    0    0 -0.29762608042E-02 -0.98064888826E-02  0.26316016968E-03  0.17130000031E+03  0.17130000000E+03 0. -1.
      622    1    1    2    0    0  0.17008657148E-02  0.13155870557E-01  0.36060236327E+01  0.36062698747E+01  0.40000000000E-01 0. -1.
</event>
<event>
 5   0  0.6200596E+07  0.9118800E+02  0.7818608E-02  0.1180000E+00
       11   -1    0    0    0    0  0.00000000000E+00  0.00000000000E+00  0.39999999673E+01  0.40000000000E+01  0.51109989000E-03 0. -1.
     -623   -1    0    0    0    0  0.00000000000E+00  0.00000000000E+00  0.12525980253E-10  0.17130000000E+03  0.17130000000E+03 0. -1.
       11    1    1    2    0    0 -0.20834840112E-04  0.27691282785E-02  0.56271171370E-02  0.62923901657E-02  0.51109989000E-03 0. -1.
     -623    1    1    2    0    0 -0.24316847176E-02  0.35142844530E-03  0.86755263833E-03  0.17130000002E+03  0.17130000000E+03 0. -1.
      622    1    1    2    0    0  0.24525195577E-02 -0.31205567238E-02  0.39935052976E+01  0.39937075900E+01  0.40000000000E-01 0. -1.
</event>
<event>
 5   0  0.6200596E+07  0.9118800E+02  0.7818608E-02  0.1180000E+00
       11   -1    0    0    0    0  0.00000000000E+00  0.00000000000E+00  0.39999999673E+01  0.40000000000E+01  0.51109989000E-03 0. -1.
     -623   -1    0    0    0    0  0.00000000000E+00  0.00000000000E+00  0.12525980253E-10  0.17130000000E+03  0.17130000000E+03 0.  1.
       11    1    1    2    0    0  0.56533730768E-02  0.17379324183E-02  0.57982207940E+00  0.57985246918E+00  0.51109989000E-03 0. -1.
     -623    1    1    2    0    0 -0.35209460950E-03  0.43523263027E-02  0.27386071535E-03  0.17130000006E+03  0.17130000000E+03 0.  1.
      622    1    1    2    0    0 -0.53012784673E-02 -0.60902587210E-02  0.34199040272E+01  0.34201474749E+01  0.40000000000E-01 0. -1.
</event>
<event>
 5   0  0.6200596E+07  0.9118800E+02  0.7818608E-02  0.1180000E+00
       11   -1    0    0    0    0  0.00000000000E+00  0.00000000000E+00  0.39999999673E+01  0.40000000000E+01  0.51109989000E-03 0.  1.
     -623   -1    0    0    0    0  0.00000000000E+00  0.00000000000E+00  0.12525980253E-10  0.17130000000E+03  0.17130000000E+03 0.  1.
       11    1    1    2    0    0 -0.78700081822E-02  0.13208026932E-01  0.23349430000E-01  0.27961511175E-01  0.51109989000E-03 0.  1.
     -623    1    1    2    0    0  0.20760950454E-01 -0.18246300616E-01  0.48398748395E-02  0.17130000230E+03  0.17130000000E+03 0.  1.
      622    1    1    2    0    0 -0.12890942272E-01  0.50382736837E-02  0.39718106625E+01  0.39720361906E+01  0.40000000000E-01 0.  1.
</event>
<event>
 5   0  0.6200596E+07  0.9118800E+02  0.7818608E-02  0.1180000E+00
       11   -1    0    0    0    0  0.00000000000E+00  0.00000000000E+00  0.39999999673E+01  0.40000000000E+01  0.51109989000E-03 0. -1.
     -623   -1    0    0    0    0  0.00000000000E+00  0.00000000000E+00  0.12525980253E-10  0.17130000000E+03  0.17130000000E+03 0.  1.
       11    1    1    2    0    0  0.15261177134E-01  0.25225510399E-01  0.10585164982E+01  0.10589271307E+01  0.51109989000E-03 0. -1.
     -623    1    1    2    0    0 -0.11579362052E-02  0.41227046599E-02  0.86294350455E-03  0.17130000006E+03  0.17130000000E+03 0.  1.
      622    1    1    2    0    0 -0.14103240929E-01 -0.29348215059E-01  0.29406205257E+01  0.29410728136E+01  0.40000000000E-01 0. -1.
</event>
<event>
 5   0  0.6200596E+07  0.9118800E+02  0.7818608E-02  0.1180000E+00
       11   -1    0    0    0    0  0.00000000000E+00  0.00000000000E+00  0.39999999673E+01  0.40000000000E+01  0.51109989000E-03 0. -1.
     -623   -1    0    0    0    0  0.00000000000E+00  0.00000000000E+00  0.12525980253E-10  0.17130000000E+03  0.17130000000E+03 0.  1.
       11    1    1    2    0    0 -0.34296529091E-02  0.72225941275E-03  0.87824469086E-02  0.94697820900E-02  0.51109989000E-03 0. -1.
     -623    1    1    2    0    0  0.26444710090E-03  0.33244333248E-02  0.89112425057E-03  0.17130000003E+03  0.17130000000E+03 0.  1.
      622    1    1    2    0    0  0.31652058082E-02 -0.40466927375E-02  0.39903263962E+01  0.39905301831E+01  0.40000000000E-01 0. -1.
</event>
<event>
 5   0  0.6200596E+07  0.9118800E+02  0.7818608E-02  0.1180000E+00
       11   -1    0    0    0    0  0.00000000000E+00  0.00000000000E+00  0.39999999673E+01  0.40000000000E+01  0.51109989000E-03 0. -1.
     -623   -1    0    0    0    0  0.00000000000E+00  0.00000000000E+00  0.12525980253E-10  0.17130000000E+03  0.17130000000E+03 0. -1.
       11    1    1    2    0    0 -0.62101434911E-02 -0.15414144310E-02  0.98883876495E-01  0.99091998122E-01  0.51109989000E-03 0. -1.
     -623    1    1    2    0    0  0.58515709006E-02  0.15906391803E-01  0.44048116702E-03  0.17130000084E+03  0.17130000000E+03 0. -1.
      622    1    1    2    0    0  0.35857259057E-03 -0.14364977372E-01  0.39006756097E+01  0.39009071629E+01  0.40000000000E-01 0. -1.
</event>
<event>
 5   0  0.6200596E+07  0.9118800E+02  0.7818608E-02  0.1180000E+00
       11   -1    0    0    0    0  0.00000000000E+00  0.00000000000E+00  0.39999999673E+01  0.40000000000E+01  0.51109989000E-03 0. -1.
     -623   -1    0    0    0    0  0.00000000000E+00  0.00000000000E+00  0.12525980253E-10  0.17130000000E+03  0.17130000000E+03 0.  1.
       11    1    1    2    0    0  0.12883244998E-02  0.21107950991E-02  0.25654200028E+00  0.25655442769E+00  0.51109989000E-03 0. -1.
     -623    1    1    2    0    0  0.64576988220E-03 -0.43060321606E-02  0.22730658432E-03  0.17130000006E+03  0.17130000000E+03 0.  1.
      622    1    1    2    0    0 -0.19340943820E-02  0.21952370615E-02  0.37432306605E+01  0.37434455168E+01  0.40000000000E-01 0. -1.
</event>
<event>
 5   0  0.6200596E+07  0.9118800E+02  0.7818608E-02  0.1180000E+00
       11   -1    0    0    0    0  0.00000000000E+00  0.00000000000E+00  0.39999999673E+01  0.40000000000E+01  0.51109989000E-03 0.  1.
     -623   -1    0    0    0    0  0.00000000000E+00  0.00000000000E+00  0.12525980253E-10  0.17130000000E+03  0.17130000000E+03 0. -1.
       11    1    1    2    0    0 -0.19094159143E-02 -0.30032405819E-03  0.43797578564E+00  0.43798034897E+00  0.51109989000E-03 0.  1.
     -623    1    1    2    0    0 -0.17935495977E-03  0.11466557563E-02  0.22984656935E-03  0.17130000000E+03  0.17130000000E+03 0. -1.
      622    1    1    2    0    0  0.20887708741E-02 -0.84633169814E-03  0.35617943352E+01  0.35620196469E+01  0.40000000000E-01 0.  1.
</event>
<event>
 5   0  0.6200596E+07  0.9118800E+02  0.7818608E-02  0.1180000E+00
       11   -1    0    0    0    0  0.00000000000E+00  0.00000000000E+00  0.39999999673E+01  0.40000000000E+01  0.51109989000E-03 0.  1.
     -623   -1    0    0    0    0  0.00000000000E+00  0.00000000000E+00  0.12525980253E-10  0.17130000000E+03  0.17130000000E+03 0. -1.
       11    1    1    2    0    0  0.11035134417E-02  0.17782003769E-01  0.38626667004E+00  0.38667766809E+00  0.51109989000E-03 0.  1.
     -623    1    1    2    0    0  0.13003889713E-01 -0.50165468171E-02  0.68303598898E-03  0.17130000057E+03  0.17130000000E+03 0. -1.
      622    1    1    2    0    0 -0.14107403155E-01 -0.12765456951E-01  0.36130502613E+01  0.36133217635E+01  0.40000000000E-01 0.  1.
</event>
<event>
 5   0  0.6200596E+07  0.9118800E+02  0.7818608E-02  0.1180000E+00
       11   -1    0    0    0    0  0.00000000000E+00  0.00000000000E+00  0.39999999673E+01  0.40000000000E+01  0.51109989000E-03 0. -1.
     -623   -1    0    0    0    0  0.00000000000E+00  0.00000000000E+00  0.12525980253E-10  0.17130000000E+03  0.17130000000E+03 0. -1.
       11    1    1    2    0    0 -0.33059237547E-01 -0.15553704342E-01  0.13373358256E+01  0.13378348936E+01  0.51109989000E-03 0. -1.
     -623    1    1    2    0    0  0.11323091841E-03 -0.19612162516E-01  0.12368978673E-02  0.17130000113E+03  0.17130000000E+03 0. -1.
      622    1    1    2    0    0  0.32946006628E-01  0.35165866858E-01  0.26614272439E+01  0.26621639792E+01  0.40000000000E-01 0.  0.
</event>
<event>
 5   0  0.6200596E+07  0.9118800E+02  0.7818608E-02  0.1180000E+00
       11   -1    0    0    0    0  0.00000000000E+00  0.00000000000E+00  0.39999999673E+01  0.40000000000E+01  0.51109989000E-03 0.  1.
     -623   -1    0    0    0    0  0.00000000000E+00  0.00000000000E+00  0.12525980253E-10  0.17130000000E+03  0.17130000000E+03 0. -1.
       11    1    1    2    0    0 -0.44101336795E-02 -0.14071890251E-01  0.34352849019E+00  0.34384524450E+00  0.51109989000E-03 0.  1.
     -623    1    1    2    0    0  0.41487141797E-02  0.98675547761E-02  0.53829949670E-03  0.17130000034E+03  0.17130000000E+03 0. -1.
      622    1    1    2    0    0  0.26141949973E-03  0.42043354753E-02  0.36559331777E+01  0.36561544202E+01  0.40000000000E-01 0.  1.
</event>
<event>
 5   0  0.6200596E+07  0.9118800E+02  0.7818608E-02  0.1180000E+00
       11   -1    0    0    0    0  0.00000000000E+00  0.00000000000E+00  0.39999999673E+01  0.40000000000E+01  0.51109989000E-03 0. -1.
     -623   -1    0    0    0    0  0.00000000000E+00  0.00000000000E+00  0.12525980253E-10  0.17130000000E+03  0.17130000000E+03 0.  1.
       11    1    1    2    0    0  0.11936366435E-01 -0.12429623404E-01  0.89287960770E+00  0.89304603881E+00  0.51109989000E-03 0. -1.
     -623    1    1    2    0    0  0.10654737766E-04 -0.22324061119E-02  0.48148204952E-03  0.17130000002E+03  0.17130000000E+03 0.  1.
      622    1    1    2    0    0 -0.11947021173E-01  0.14662029515E-01  0.31066388776E+01  0.31069539460E+01  0.40000000000E-01 0. -1.
</event>
<event>
 5   0  0.6200596E+07  0.9118800E+02  0.7818608E-02  0.1180000E+00
       11   -1    0    0    0    0  0.00000000000E+00  0.00000000000E+00  0.39999999673E+01  0.40000000000E+01  0.51109989000E-03 0.  1.
     -623   -1    0    0    0    0  0.00000000000E+00  0.00000000000E+00  0.12525980253E-10  0.17130000000E+03  0.17130000000E+03 0. -1.
       11    1    1    2    0    0  0.11871866263E-02 -0.15776469752E-02  0.40503203059E-02  0.45348316692E-02  0.51109989000E-03 0.  1.
     -623    1    1    2    0    0 -0.44300962223E-03  0.21243581572E-02  0.68483256729E-03  0.17130000002E+03  0.17130000000E+03 0. -1.
      622    1    1    2    0    0 -0.74417700406E-03 -0.54671118202E-03  0.39952648145E+01  0.39954651532E+01  0.40000000000E-01 0.  1.
</event>
<event>
 5   0  0.6200596E+07  0.9118800E+02  0.7818608E-02  0.1180000E+00
       11   -1    0    0    0    0  0.00000000000E+00  0.00000000000E+00  0.39999999673E+01  0.40000000000E+01  0.51109989000E-03 0.  1.
     -623   -1    0    0    0    0  0.00000000000E+00  0.00000000000E+00  0.12525980253E-10  0.17130000000E+03  0.17130000000E+03 0.  1.
       11    1    1    2    0    0  0.64804521963E-02  0.26410399522E-01  0.29991056866E+00  0.30114135531E+00  0.51109989000E-03 0.  1.
     -623    1    1    2    0    0  0.12084938800E-02 -0.87682663068E-03  0.15431855790E-02  0.17130000001E+03  0.17130000000E+03 0.  1.
      622    1    1    2    0    0 -0.76889460763E-02 -0.25533572891E-01  0.36985462131E+01  0.36988586312E+01  0.40000000000E-01 0.  1.
</event>
<event>
 5   0  0.6200596E+07  0.9118800E+02  0.7818608E-02  0.1180000E+00
       11   -1    0    0    0    0  0.00000000000E+00  0.00000000000E+00  0.39999999673E+01  0.40000000000E+01  0.51109989000E-03 0. -1.
     -623   -1    0    0    0    0  0.00000000000E+00  0.00000000000E+00  0.12525980253E-10  0.17130000000E+03  0.17130000000E+03 0. -1.
       11    1    1    2    0    0 -0.79543425657E-02 -0.22354878510E-02  0.66720328191E-01  0.67231929816E-01  0.51109989000E-03 0. -1.
     -623    1    1    2    0    0  0.28346151852E-02  0.45132717928E-02  0.71907002899E-03  0.17130000008E+03  0.17130000000E+03 0. -1.
      622    1    1    2    0    0  0.51197273806E-02 -0.22777839418E-02  0.39325605691E+01  0.39327679858E+01  0.40000000000E-01 0. -1.
</event>
<event>
 5   0  0.6200596E+07  0.9118800E+02  0.7818608E-02  0.1180000E+00
       11   -1    0    0    0    0  0.00000000000E+00  0.00000000000E+00  0.39999999673E+01  0.40000000000E+01  0.51109989000E-03 0.  1.
     -623   -1    0    0    0    0  0.00000000000E+00  0.00000000000E+00  0.12525980253E-10  0.17130000000E+03  0.17130000000E+03 0. -1.
       11    1    1    2    0    0  0.28792708560E-02  0.49379476674E-02  0.63921764120E-01  0.64178864716E-01  0.51109989000E-03 0.  1.
     -623    1    1    2    0    0 -0.35431515219E-02  0.33784236243E-02  0.46924776316E-03  0.17130000007E+03  0.17130000000E+03 0. -1.
      622    1    1    2    0    0  0.66388066597E-03 -0.83163712916E-02  0.39356089555E+01  0.39358210647E+01  0.40000000000E-01 0.  1.
</event>
<event>
 5   0  0.6200596E+07  0.9118800E+02  0.7818608E-02  0.1180000E+00
       11   -1    0    0    0    0  0.00000000000E+00  0.00000000000E+00  0.39999999673E+01  0.40000000000E+01  0.51109989000E-03 0. -1.
     -623   -1    0    0    0    0  0.00000000000E+00  0.00000000000E+00  0.12525980253E-10  0.17130000000E+03  0.17130000000E+03 0.  1.
       11    1    1    2    0    0 -0.12544454291E-01  0.78957654514E-02  0.46656386800E-01  0.48956982115E-01  0.51109989000E-03 0. -1.
     -623    1    1    2    0    0 -0.63172087658E-02 -0.18272493245E-01  0.25628074267E-02  0.17130000111E+03  0.17130000000E+03 0.  1.
      622    1    1    2    0    0  0.18861663057E-01  0.10376727793E-01  0.39507807731E+01  0.39510419077E+01  0.40000000000E-01 0. -1.
</event>
<event>
 5   0  0.6200596E+07  0.9118800E+02  0.7818608E-02  0.1180000E+00
       11   -1    0    0    0    0  0.00000000000E+00  0.00000000000E+00  0.39999999673E+01  0.40000000000E+01  0.51109989000E-03 0.  1.
     -623   -1    0    0    0    0  0.00000000000E+00  0.00000000000E+00  0.12525980253E-10  0.17130000000E+03  0.17130000000E+03 0.  1.
       11    1    1    2    0    0  0.15662536804E-01 -0.72543124862E-02  0.15607253267E+01  0.15608208567E+01  0.51109989000E-03 0.  1.
     -623    1    1    2    0    0  0.38452533515E-01  0.16536767505E-01  0.10467340262E-02  0.17130000512E+03  0.17130000000E+03 0.  1.
      622    1    1    2    0    0 -0.54115070319E-01 -0.92824550188E-02  0.24382279066E+01  0.24391740261E+01  0.40000000000E-01 0.  0.
</event>
<event>
 5   0  0.6200596E+07  0.9118800E+02  0.7818608E-02  0.1180000E+00
       11   -1    0    0    0    0  0.00000000000E+00  0.00000000000E+00  0.39999999673E+01  0.40000000000E+01  0.51109989000E-03 0. -1.
     -623   -1    0    0    0    0  0.00000000000E+00  0.00000000000E+00  0.12525980253E-10  0.17130000000E+03  0.17130000000E+03 0. -1.
       11    1    1    2    0    0 -0.14903541538E-01  0.13202629317E-01  0.15854196884E+01  0.15855447879E+01  0.51109989000E-03 0. -1.
     -623    1    1    2    0    0  0.48118182672E-02 -0.60581854760E-02  0.48826785481E-03  0.17130000018E+03  0.17130000000E+03 0. -1.
      622    1    1    2    0    0  0.10091723271E-01 -0.71444438408E-02  0.24140920111E+01  0.24144550367E+01  0.40000000000E-01 0.  0.
</event>
<event>
 5   0  0.6200596E+07  0.9118800E+02  0.7818608E-02  0.1180000E+00
       11   -1    0    0    0    0  0.00000000000E+00  0.00000000000E+00  0.39999999673E+01  0.40000000000E+01  0.51109989000E-03 0. -1.
     -623   -1    0    0    0    0  0.00000000000E+00  0.00000000000E+00  0.12525980253E-10  0.17130000000E+03  0.17130000000E+03 0. -1.
       11    1    1    2    0    0 -0.11451481280E-02 -0.13075669802E-02  0.33694285906E-01  0.33742958072E-01  0.51109989000E-03 0. -1.
     -623    1    1    2    0    0  0.28289900835E-02  0.19556961563E-03  0.25088315148E-03  0.17130000002E+03  0.17130000000E+03 0. -1.
      622    1    1    2    0    0 -0.16838419555E-02  0.11119973645E-02  0.39660547983E+01  0.39662570183E+01  0.40000000000E-01 0. -1.
</event>
<event>
 5   0  0.6200596E+07  0.9118800E+02  0.7818608E-02  0.1180000E+00
       11   -1    0    0    0    0  0.00000000000E+00  0.00000000000E+00  0.39999999673E+01  0.40000000000E+01  0.51109989000E-03 0. -1.
     -623   -1    0    0    0    0  0.00000000000E+00  0.00000000000E+00  0.12525980253E-10  0.17130000000E+03  0.17130000000E+03 0. -1.
       11    1    1    2    0    0 -0.20348093448E-03  0.72350421826E-02  0.13829189536E-01  0.15617136264E-01  0.51109989000E-03 0. -1.
     -623    1    1    2    0    0 -0.24664987323E-02 -0.10238516458E-01  0.19910651072E-02  0.17130000034E+03  0.17130000000E+03 0. -1.
      622    1    1    2    0    0  0.26699796668E-02  0.30034742759E-02  0.39841797127E+01  0.39843825284E+01  0.40000000000E-01 0. -1.
</event>
<event>
 5   0  0.6200596E+07  0.9118800E+02  0.7818608E-02  0.1180000E+00
       11   -1    0    0    0    0  0.00000000000E+00  0.00000000000E+00  0.39999999673E+01  0.40000000000E+01  0.51109989000E-03 0. -1.
     -623   -1    0    0    0    0  0.00000000000E+00  0.00000000000E+00  0.12525980253E-10  0.17130000000E+03  0.17130000000E+03 0.  1.
       11    1    1    2    0    0  0.78957726124E-02  0.10366093604E-01  0.47528488924E+00  0.47546375917E+00  0.51109989000E-03 0. -1.
     -623    1    1    2    0    0  0.93449851215E-03 -0.12186475798E-01  0.41779380013E-03  0.17130000044E+03  0.17130000000E+03 0.  1.
      622    1    1    2    0    0 -0.88302711246E-02  0.18203821941E-02  0.35242972843E+01  0.35245358043E+01  0.40000000000E-01 0. -1.
</event>
<event>
 5   0  0.6200596E+07  0.9118800E+02  0.7818608E-02  0.1180000E+00
       11   -1    0    0    0    0  0.00000000000E+00  0.00000000000E+00  0.39999999673E+01  0.40000000000E+01  0.51109989000E-03 0.  1.
     -623   -1    0    0    0    0  0.00000000000E+00  0.00000000000E+00  0.12525980253E-10  0.17130000000E+03  0.17130000000E+03 0.  1.
       11    1    1    2    0    0  0.40539013327E-02  0.10456687394E-01  0.63893937772E+00  0.63903800047E+00  0.51109989000E-03 0.  1.
     -623    1    1    2    0    0  0.35859931456E-02 -0.31242707787E-02  0.35337483112E-03  0.17130000007E+03  0.17130000000E+03 0.  1.
      622    1    1    2    0    0 -0.76398944784E-02 -0.73324166154E-02  0.33607072148E+01  0.33609619331E+01  0.40000000000E-01 0.  1.
</event>
<event>
 5   0  0.6200596E+07  0.9118800E+02  0.7818608E-02  0.1180000E+00
       11   -1    0    0    0    0  0.00000000000E+00  0.00000000000E+00  0.39999999673E+01  0.40000000000E+01  0.51109989000E-03 0.  1.
     -623   -1    0    0    0    0  0.00000000000E+00  0.00000000000E+00  0.12525980253E-10  0.17130000000E+03  0.17130000000E+03 0.  1.
       11    1    1    2    0    0 -0.10018514744E-01  0.63751535124E-02  0.28871658747E+00  0.28896114327E+00  0.51109989000E-03 0.  1.
     -623    1    1    2    0    0 -0.36027611797E-02 -0.54946363337E-02  0.48533346765E-03  0.17130000013E+03  0.17130000000E+03 0.  1.
      622    1    1    2    0    0  0.13621275924E-01 -0.88051717866E-03  0.37107980464E+01  0.37110387300E+01  0.40000000000E-01 0.  1.
</event>
<event>
 5   0  0.6200596E+07  0.9118800E+02  0.7818608E-02  0.1180000E+00
       11   -1    0    0    0    0  0.00000000000E+00  0.00000000000E+00  0.39999999673E+01  0.40000000000E+01  0.51109989000E-03 0. -1.
     -623   -1    0    0    0    0  0.00000000000E+00  0.00000000000E+00  0.12525980253E-10  0.17130000000E+03  0.17130000000E+03 0.  1.
       11    1    1    2    0    0 -0.19709919730E-02 -0.21352573057E-02  0.69190710199E-02  0.75218945167E-02  0.51109989000E-03 0. -1.
     -623    1    1    2    0    0 -0.94810949907E-03  0.49905469883E-03  0.80458042600E-03  0.17130000001E+03  0.17130000000E+03 0.  1.
      622    1    1    2    0    0  0.29191014721E-02  0.16362026068E-02  0.39922763159E+01  0.39924781002E+01  0.40000000000E-01 0. -1.
</event>
<event>
 5   0  0.6200596E+07  0.9118800E+02  0.7818608E-02  0.1180000E+00
       11   -1    0    0    0    0  0.00000000000E+00  0.00000000000E+00  0.39999999673E+01  0.40000000000E+01  0.51109989000E-03 0.  1.
     -623   -1    0    0    0    0  0.00000000000E+00  0.00000000000E+00  0.12525980253E-10  0.17130000000E+03  0.17130000000E+03 0.  1.
       11    1    1    2    0    0 -0.11306216223E-02 -0.46623648352E-02  0.69094438821E-01  0.69262678610E-01  0.51109989000E-03 0.  1.
     -623    1    1    2    0    0 -0.18773564628E-02  0.15594096609E-03  0.37548167337E-03  0.17130000001E+03  0.17130000000E+03 0.  1.
      622    1    1    2    0    0  0.30079780851E-02  0.45064238691E-02  0.39305300469E+01  0.39307373106E+01  0.40000000000E-01 0.  1.
</event>
<event>
 5   0  0.6200596E+07  0.9118800E+02  0.7818608E-02  0.1180000E+00
       11   -1    0    0    0    0  0.00000000000E+00  0.00000000000E+00  0.39999999673E+01  0.40000000000E+01  0.51109989000E-03 0. -1.
     -623   -1    0    0    0    0  0.00000000000E+00  0.00000000000E+00  0.12525980253E-10  0.17130000000E+03  0.17130000000E+03 0.  1.
       11    1    1    2    0    0  0.18055161003E-01  0.11870020706E-01  0.65341187484E+00  0.65376924495E+00  0.51109989000E-03 0. -1.
     -623    1    1    2    0    0 -0.83953569869E-03  0.53111414844E-03  0.66369524163E-03  0.17130000000E+03  0.17130000000E+03 0.  1.
      622    1    1    2    0    0 -0.17215625304E-01 -0.12401134854E-01  0.33459243973E+01  0.33462307509E+01  0.40000000000E-01 0. -1.
</event>
<event>
 5   0  0.6200596E+07  0.9118800E+02  0.7818608E-02  0.1180000E+00
       11   -1    0    0    0    0  0.00000000000E+00  0.00000000000E+00  0.39999999673E+01  0.40000000000E+01  0.51109989000E-03 0.  1.
     -623   -1    0    0    0    0  0.00000000000E+00  0.00000000000E+00  0.12525980253E-10  0.17130000000E+03  0.17130000000E+03 0. -1.
       11    1    1    2    0    0  0.61750304687E-03  0.12806403855E-02  0.15907975614E-01  0.15979557521E-01  0.51109989000E-03 0.  1.
     -623    1    1    2    0    0  0.14739479485E-02  0.17009613181E-03  0.27317629318E-03  0.17130000001E+03  0.17130000000E+03 0. -1.
      622    1    1    2    0    0 -0.20914509953E-02 -0.14507365174E-02  0.39838188155E+01  0.39840204358E+01  0.40000000000E-01 0.  1.
</event>
<event>
 5   0  0.6200596E+07  0.9118800E+02  0.7818608E-02  0.1180000E+00
       11   -1    0    0    0    0  0.00000000000E+00  0.00000000000E+00  0.39999999673E+01  0.40000000000E+01  0.51109989000E-03 0. -1.
     -623   -1    0    0    0    0  0.00000000000E+00  0.00000000000E+00  0.12525980253E-10  0.17130000000E+03  0.17130000000E+03 0. -1.
       11    1    1    2    0    0 -0.15134683108E-02 -0.71702292882E-03  0.50808873376E-02  0.53741368279E-02  0.51109989000E-03 0. -1.
     -623    1    1    2    0    0  0.10171367975E-03  0.26872736182E-03  0.49376652700E-03  0.17130000000E+03  0.17130000000E+03 0. -1.
      622    1    1    2    0    0  0.14117546310E-02  0.44829556700E-03  0.39944253135E+01  0.39946258622E+01  0.40000000000E-01 0. -1.
</event>
<event>
 5   0  0.6200596E+07  0.9118800E+02  0.7818608E-02  0.1180000E+00
       11   -1    0    0    0    0  0.00000000000E+00  0.00000000000E+00  0.39999999673E+01  0.40000000000E+01  0.51109989000E-03 0. -1.
     -623   -1    0    0    0    0  0.00000000000E+00  0.00000000000E+00  0.12525980253E-10  0.17130000000E+03  0.17130000000E+03 0.  1.
       11    1    1    2    0    0  0.64047407573E-02  0.82869855684E-03  0.32211347703E-01  0.32856347762E-01  0.51109989000E-03 0. -1.
     -623    1    1    2    0    0 -0.13613396067E-02 -0.12350143877E-02  0.84986773053E-03  0.17130000001E+03  0.17130000000E+03 0.  1.
      622    1    1    2    0    0 -0.50434011507E-02  0.40631583085E-03  0.39669387519E+01  0.39671436403E+01  0.40000000000E-01 0. -1.
</event>
<event>
 5   0  0.6200596E+07  0.9118800E+02  0.7818608E-02  0.1180000E+00
       11   -1    0    0    0    0  0.00000000000E+00  0.00000000000E+00  0.39999999673E+01  0.40000000000E+01  0.51109989000E-03 0.  1.
     -623   -1    0    0    0    0  0.00000000000E+00  0.00000000000E+00  0.12525980253E-10  0.17130000000E+03  0.17130000000E+03 0.  1.
       11    1    1    2    0    0 -0.20402853533E-02  0.20340801973E-02  0.28661869570E+00  0.28663363060E+00  0.51109989000E-03 0.  1.
     -623    1    1    2    0    0  0.57914974837E-03  0.13702723077E-02  0.23220117015E-03  0.17130000001E+03  0.17130000000E+03 0.  1.
      622    1    1    2    0    0  0.14611356049E-02 -0.34043525050E-02  0.37131490705E+01  0.37133663628E+01  0.40000000000E-01 0.  1.
</event>
<event>
 5   0  0.6200596E+07  0.9118800E+02  0.7818608E-02  0.1180000E+00
       11   -1    0    0    0    0  0.00000000000E+00  0.00000000000E+00  0.39999999673E+01  0.40000000000E+01  0.51109989000E-03 0. -1.
     -623   -1    0    0    0    0  0.00000000000E+00  0.00000000000E+00  0.12525980253E-10  0.17130000000E+03  0.17130000000E+03 0. -1.
       11    1    1    2    0    0  0.23959781398E-02 -0.17363873805E-02  0.54324710457E+00  0.54325540366E+00  0.51109989000E-03 0. -1.
     -623    1    1    2    0    0 -0.35678396340E-02 -0.19277335083E-02  0.24189473366E-03  0.17130000005E+03  0.17130000000E+03 0. -1.
      622    1    1    2    0    0  0.11718614942E-02  0.36641208888E-02  0.34565109681E+01  0.34567445482E+01  0.40000000000E-01 0. -1.
</event>
<event>
 5   0  0.6200596E+07  0.9118800E+02  0.7818608E-02  0.1180000E+00
       11   -1    0    0    0    0  0.00000000000E+00  0.00000000000E+00  0.39999999673E+01  0.40000000000E+01  0.51109989000E-03 0.  1.
     -623   -1    0    0    0    0  0.00000000000E+00  0.00000000000E+00  0.12525980253E-10  0.17130000000E+03  0.17130000000E+03 0.  1.
       11    1    1    2    0    0 -0.27264325875E-02  0.36019577644E-04  0.28335298239E-01  0.28470775892E-01  0.51109989000E-03 0.  1.
     -623    1    1    2    0    0 -0.10251763400E-02  0.10130513579E-02  0.33880084880E-03  0.17130000001E+03  0.17130000000E+03 0.  1.
      622    1    1    2    0    0  0.37516089275E-02 -0.10490709355E-02  0.39713258683E+01  0.39715292177E+01  0.40000000000E-01 0.  1.
</event>
<event>
 5   0  0.6200596E+07  0.9118800E+02  0.7818608E-02  0.1180000E+00
       11   -1    0    0    0    0  0.00000000000E+00  0.00000000000E+00  0.39999999673E+01  0.40000000000E+01  0.51109989000E-03 0. -1.
     -623   -1    0    0    0    0  0.00000000000E+00  0.00000000000E+00  0.12525980253E-10  0.17130000000E+03  0.17130000000E+03 0.  1.
       11    1    1    2    0    0 -0.33838148134E-03  0.20582963772E-03  0.12497014611E-01  0.12513731022E-01  0.51109989000E-03 0. -1.
     -623    1    1    2    0    0  0.18424161712E-03  0.41761633705E-03  0.21736893392E-03  0.17130000000E+03  0.17130000000E+03 0.  1.
      622    1    1    2    0    0  0.15413986422E-03 -0.62344597476E-03  0.39872855838E+01  0.39874862682E+01  0.40000000000E-01 0. -1.
</event>
<event>
 5   0  0.6200596E+07  0.9118800E+02  0.7818608E-02  0.1180000E+00
       11   -1    0    0    0    0  0.00000000000E+00  0.00000000000E+00  0.39999999673E+01  0.40000000000E+01  0.51109989000E-03 0. -1.
     -623   -1    0    0    0    0  0.00000000000E+00  0.00000000000E+00  0.12525980253E-10  0.17130000000E+03  0.17130000000E+03 0.  1.
       11    1    1    2    0    0  0.46689589699E-02 -0.78308639101E-02  0.24447884801E+00  0.24464932036E+00  0.51109989000E-03 0. -1.
     -623    1    1    2    0    0 -0.34511619245E-03 -0.39450939820E-03  0.39497430171E-03  0.17130000000E+03  0.17130000000E+03 0.  1.
      622    1    1    2    0    0 -0.43238427774E-02  0.82253733083E-02  0.37551261450E+01  0.37553506784E+01  0.40000000000E-01 0. -1.
</event>
<event>
 5   0  0.6200596E+07  0.9118800E+02  0.7818608E-02  0.1180000E+00
       11   -1    0    0    0    0  0.00000000000E+00  0.00000000000E+00  0.39999999673E+01  0.40000000000E+01  0.51109989000E-03 0. -1.
     -623   -1    0    0    0    0  0.00000000000E+00  0.00000000000E+00  0.12525980253E-10  0.17130000000E+03  0.17130000000E+03 0. -1.
       11    1    1    2    0    0 -0.49025117148E-04  0.51130548793E-02  0.65938153907E-01  0.66138091108E-01  0.51109989000E-03 0. -1.
     -623    1    1    2    0    0  0.46624414266E-02 -0.11920147425E-02  0.40799996144E-03  0.17130000007E+03  0.17130000000E+03 0. -1.
      622    1    1    2    0    0 -0.46134163095E-02 -0.39210401368E-02  0.39336538135E+01  0.39338618408E+01  0.40000000000E-01 0. -1.
</event>
<event>
 5   0  0.6200596E+07  0.9118800E+02  0.7818608E-02  0.1180000E+00
       11   -1    0    0    0    0  0.00000000000E+00  0.00000000000E+00  0.39999999673E+01  0.40000000000E+01  0.51109989000E-03 0. -1.
     -623   -1    0    0    0    0  0.00000000000E+00  0.00000000000E+00  0.12525980253E-10  0.17130000000E+03  0.17130000000E+03 0.  1.
       11    1    1    2    0    0 -0.14924165498E-01 -0.14809342828E-01  0.66100906223E+00  0.66134354833E+00  0.51109989000E-03 0. -1.
     -623    1    1    2    0    0  0.26967886847E-03  0.13783136100E-02  0.63326858663E-03  0.17130000001E+03  0.17130000000E+03 0.  1.
      622    1    1    2    0    0  0.14654486629E-01  0.13431029218E-01  0.33383576365E+01  0.33386564447E+01  0.40000000000E-01 0. -1.
</event>
<event>
 5   0  0.6200596E+07  0.9118800E+02  0.7818608E-02  0.1180000E+00
       11   -1    0    0    0    0  0.00000000000E+00  0.00000000000E+00  0.39999999673E+01  0.40000000000E+01  0.51109989000E-03 0. -1.
     -623   -1    0    0    0    0  0.00000000000E+00  0.00000000000E+00  0.12525980253E-10  0.17130000000E+03  0.17130000000E+03 0.  1.
       11    1    1    2    0    0  0.13355124248E-02 -0.30590010762E-02  0.94528551503E-01  0.94588843695E-01  0.51109989000E-03 0. -1.
     -623    1    1    2    0    0 -0.76311243324E-02  0.62636697856E-02  0.27178314296E-03  0.17130000028E+03  0.17130000000E+03 0.  1.
      622    1    1    2    0    0  0.62956119076E-02 -0.32046687094E-02  0.39051996327E+01  0.39054108716E+01  0.40000000000E-01 0. -1.
</event>
<event>
 5   0  0.6200596E+07  0.9118800E+02  0.7818608E-02  0.1180000E+00
       11   -1    0    0    0    0  0.00000000000E+00  0.00000000000E+00  0.39999999673E+01  0.40000000000E+01  0.51109989000E-03 0.  1.
     -623   -1    0    0    0    0  0.00000000000E+00  0.00000000000E+00  0.12525980253E-10  0.17130000000E+03  0.17130000000E+03 0. -1.
       11    1    1    2    0    0  0.10591779737E-01 -0.65936670068E-02  0.10776649272E+01  0.10777372679E+01  0.51109989000E-03 0.  1.
     -623    1    1    2    0    0 -0.25903726068E-02 -0.93241084154E-02  0.40066776746E-03  0.17130000027E+03  0.17130000000E+03 0. -1.
      622    1    1    2    0    0 -0.80014071297E-02  0.15917775422E-01  0.29219343724E+01  0.29222624582E+01  0.40000000000E-01 0.  0.
</event>
<event>
 5   0  0.6200596E+07  0.9118800E+02  0.7818608E-02  0.1180000E+00
       11   -1    0    0    0    0  0.00000000000E+00  0.00000000000E+00  0.39999999673E+01  0.40000000000E+01  0.51109989000E-03 0.  1.
     -623   -1    0    0    0    0  0.00000000000E+00  0.00000000000E+00  0.12525980253E-10  0.17130000000E+03  0.17130000000E+03 0.  1.
       11    1    1    2    0    0  0.95011052830E-03  0.14673732809E-04  0.11700834999E-01  0.11750475964E-01  0.51109989000E-03 0.  1.
     -623    1    1    2    0    0 -0.25756370464E-02  0.96931550812E-03  0.25067758934E-03  0.17130000002E+03  0.17130000000E+03 0.  1.
      622    1    1    2    0    0  0.16255265181E-02 -0.98398924092E-03  0.39880484548E+01  0.39882495017E+01  0.40000000000E-01 0.  1.
</event>
<event>
 5   0  0.6200596E+07  0.9118800E+02  0.7818608E-02  0.1180000E+00
       11   -1    0    0    0    0  0.00000000000E+00  0.00000000000E+00  0.39999999673E+01  0.40000000000E+01  0.51109989000E-03 0. -1.
     -623   -1    0    0    0    0  0.00000000000E+00  0.00000000000E+00  0.12525980253E-10  0.17130000000E+03  0.17130000000E+03 0. -1.
       11    1    1    2    0    0 -0.23099351018E-01  0.21175148574E-01  0.19241789836E+01  0.19244341997E+01  0.51109989000E-03 0. -1.
     -623    1    1    2    0    0 -0.67084910797E-02  0.49921604359E-02  0.10199581469E-02  0.17130000021E+03  0.17130000000E+03 0. -1.
      622    1    1    2    0    0  0.29807842098E-01 -0.26167309010E-01  0.20748010256E+01  0.20755655931E+01  0.40000000000E-01 0.  0.
</event>
<event>
 5   0  0.6200596E+07  0.9118800E+02  0.7818608E-02  0.1180000E+00
       11   -1    0    0    0    0  0.00000000000E+00  0.00000000000E+00  0.39999999673E+01  0.40000000000E+01  0.51109989000E-03 0. -1.
     -623   -1    0    0    0    0  0.00000000000E+00  0.00000000000E+00  0.12525980253E-10  0.17130000000E+03  0.17130000000E+03 0. -1.
       11    1    1    2    0    0  0.34813285988E-02 -0.43095470592E-02  0.14784503493E-01  0.15796664518E-01  0.51109989000E-03 0. -1.
     -623    1    1    2    0    0 -0.30160054207E-02 -0.84026085371E-03  0.12163148933E-02  0.17130000003E+03  0.17130000000E+03 0. -1.
      622    1    1    2    0    0 -0.46532317804E-03  0.51498079129E-02  0.39839991490E+01  0.39842033026E+01  0.40000000000E-01 0. -1.
</event>
<event>
 5   0  0.6200596E+07  0.9118800E+02  0.7818608E-02  0.1180000E+00
       11   -1    0    0    0    0  0.00000000000E+00  0.00000000000E+00  0.39999999673E+01  0.40000000000E+01  0.51109989000E-03 0. -1.
     -623   -1    0    0    0    0  0.00000000000E+00  0.00000000000E+00  0.12525980253E-10  0.17130000000E+03  0.17130000000E+03 0.  1.
       11    1    1    2    0    0 -0.49580317966E-03  0.36015858799E-02  0.13880953805E-01  0.14358250000E-01  0.51109989000E-03 0. -1.
     -623    1    1    2    0    0 -0.16654556208E-02 -0.21338716387E-02  0.67886811084E-03  0.17130000002E+03  0.17130000000E+03 0.  1.
      622    1    1    2    0    0  0.21612588005E-02 -0.14677142412E-02  0.39854401454E+01  0.39856417273E+01  0.40000000000E-01 0. -1.
</event>
<event>
 5   0  0.6200596E+07  0.9118800E+02  0.7818608E-02  0.1180000E+00
       11   -1    0    0    0    0  0.00000000000E+00  0.00000000000E+00  0.39999999673E+01  0.40000000000E+01  0.51109989000E-03 0.  1.
     -623   -1    0    0    0    0  0.00000000000E+00  0.00000000000E+00  0.12525980253E-10  0.17130000000E+03  0.17130000000E+03 0.  1.
       11    1    1    2    0    0 -0.88677958226E-03 -0.27917635939E-02  0.25608837391E-01  0.25780886242E-01  0.51109989000E-03 0.  1.
     -623    1    1    2    0    0  0.44202417544E-02  0.10655774272E-02  0.37532524747E-03  0.17130000006E+03  0.17130000000E+03 0.  1.
      622    1    1    2    0    0 -0.35334621721E-02  0.17261861667E-02  0.39740158047E+01  0.39742190530E+01  0.40000000000E-01 0.  1.
</event>
<event>
 5   0  0.6200596E+07  0.9118800E+02  0.7818608E-02  0.1180000E+00
       11   -1    0    0    0    0  0.00000000000E+00  0.00000000000E+00  0.39999999673E+01  0.40000000000E+01  0.51109989000E-03 0.  1.
     -623   -1    0    0    0    0  0.00000000000E+00  0.00000000000E+00  0.12525980253E-10  0.17130000000E+03  0.17130000000E+03 0. -1.
       11    1    1    2    0    0  0.64423839120E-02  0.30442078339E-02  0.13267588547E+00  0.13286806734E+00  0.51109989000E-03 0.  1.
     -623    1    1    2    0    0 -0.51603668492E-03  0.10097339425E-02  0.40569694615E-03  0.17130000000E+03  0.17130000000E+03 0. -1.
      622    1    1    2    0    0 -0.59263472271E-02 -0.40539417763E-02  0.38669183849E+01  0.38671319284E+01  0.40000000000E-01 0.  1.
</event>
<event>
 5   0  0.6200596E+07  0.9118800E+02  0.7818608E-02  0.1180000E+00
       11   -1    0    0    0    0  0.00000000000E+00  0.00000000000E+00  0.39999999673E+01  0.40000000000E+01  0.51109989000E-03 0.  1.
     -623   -1    0    0    0    0  0.00000000000E+00  0.00000000000E+00  0.12525980253E-10  0.17130000000E+03  0.17130000000E+03 0.  1.
       11    1    1    2    0    0  0.66815780412E-02 -0.30179204799E-02  0.85160029080E-01  0.85476564650E-01  0.51109989000E-03 0.  1.
     -623    1    1    2    0    0 -0.18453639357E-02  0.15177028137E-02  0.52416798864E-03  0.17130000002E+03  0.17130000000E+03 0.  1.
      622    1    1    2    0    0 -0.48362141055E-02  0.15002176662E-02  0.39143157703E+01  0.39145234179E+01  0.40000000000E-01 0.  1.
</event>
<event>
 5   0  0.6200596E+07  0.9118800E+02  0.7818608E-02  0.1180000E+00
       11   -1    0    0    0    0  0.00000000000E+00  0.00000000000E+00  0.39999999673E+01  0.40000000000E+01  0.51109989000E-03 0.  1.
     -623   -1    0    0    0    0  0.00000000000E+00  0.00000000000E+00  0.12525980253E-10  0.17130000000E+03  0.17130000000E+03 0.  1.
       11    1    1    2    0    0  0.24716931780E-02  0.38397937493E-02  0.10345977973E-01  0.11320501966E-01  0.51109989000E-03 0.  1.
     -623    1    1    2    0    0 -0.10003882354E-01 -0.10452155647E-01  0.11882726150E-02  0.17130000062E+03  0.17130000000E+03 0.  1.
      622    1    1    2    0    0  0.75321891756E-02  0.66123618974E-02  0.39884657168E+01  0.39886788829E+01  0.40000000000E-01 0.  1.
</event>
<event>
 5   0  0.6200596E+07  0.9118800E+02  0.7818608E-02  0.1180000E+00
       11   -1    0    0    0    0  0.00000000000E+00  0.00000000000E+00  0.39999999673E+01  0.40000000000E+01  0.51109989000E-03 0. -1.
     -623   -1    0    0    0    0  0.00000000000E+00  0.00000000000E+00  0.12525980253E-10  0.17130000000E+03  0.17130000000E+03 0.  1.
       11    1    1    2    0    0  0.71213103721E-03  0.34862568156E-02  0.53899358901E-01  0.54019100580E-01  0.51109989000E-03 0. -1.
     -623    1    1    2    0    0  0.57991715955E-03 -0.11351864031E-02  0.32336920309E-03  0.17130000001E+03  0.17130000000E+03 0.  1.
      622    1    1    2    0    0 -0.12920481968E-02 -0.23510704125E-02  0.39457772393E+01  0.39459808944E+01  0.40000000000E-01 0. -1.
</event>
<event>
 5   0  0.6200596E+07  0.9118800E+02  0.7818608E-02  0.1180000E+00
       11   -1    0    0    0    0  0.00000000000E+00  0.00000000000E+00  0.39999999673E+01  0.40000000000E+01  0.51109989000E-03 0. -1.
     -623   -1    0    0    0    0  0.00000000000E+00  0.00000000000E+00  0.12525980253E-10  0.17130000000E+03  0.17130000000E+03 0.  1.
       11    1    1    2    0    0  0.22422099701E-02  0.38214413532E-02  0.19963116269E-01  0.20455271968E-01  0.51109989000E-03 0. -1.
     -623    1    1    2    0    0 -0.39172603565E-02 -0.73517523859E-02  0.69527864655E-03  0.17130000020E+03  0.17130000000E+03 0.  1.
      622    1    1    2    0    0  0.16750503864E-02  0.35303110327E-02  0.39793415724E+01  0.39795445241E+01  0.40000000000E-01 0. -1.
</event>
<event>
 5   0  0.6200596E+07  0.9118800E+02  0.7818608E-02  0.1180000E+00
       11   -1    0    0    0    0  0.00000000000E+00  0.00000000000E+00  0.39999999673E+01  0.40000000000E+01  0.51109989000E-03 0.  1.
     -623   -1    0    0    0    0  0.00000000000E+00  0.00000000000E+00  0.12525980253E-10  0.17130000000E+03  0.17130000000E+03 0. -1.
       11    1    1    2    0    0  0.40619522366E-02 -0.12232925215E-02  0.77096900308E+00  0.77098084337E+00  0.51109989000E-03 0.  1.
     -623    1    1    2    0    0  0.20965977665E-02  0.17773877926E-02  0.26551361174E-03  0.17130000002E+03  0.17130000000E+03 0. -1.
      622    1    1    2    0    0 -0.61585500031E-02 -0.55409527106E-03  0.32287654507E+01  0.32290191344E+01  0.40000000000E-01 0.  1.
</event>
<event>
 5   0  0.6200596E+07  0.9118800E+02  0.7818608E-02  0.1180000E+00
       11   -1    0    0    0    0  0.00000000000E+00  0.00000000000E+00  0.39999999673E+01  0.40000000000E+01  0.51109989000E-03 0. -1.
     -623   -1    0    0    0    0  0.00000000000E+00  0.00000000000E+00  0.12525980253E-10  0.17130000000E+03  0.17130000000E+03 0.  1.
       11    1    1    2    0    0 -0.26556672906E-02  0.12322157150E-01  0.30526996852E-01  0.33030998816E-01  0.51109989000E-03 0. -1.
     -623    1    1    2    0    0 -0.20515878488E-02 -0.29504897642E-01  0.27482234146E-02  0.17130000258E+03  0.17130000000E+03 0.  1.
      622    1    1    2    0    0  0.47072551393E-02  0.17182740492E-01  0.39667247471E+01  0.39669664259E+01  0.40000000000E-01 0. -1.
</event>
<event>
 5   0  0.6200596E+07  0.9118800E+02  0.7818608E-02  0.1180000E+00
       11   -1    0    0    0    0  0.00000000000E+00  0.00000000000E+00  0.39999999673E+01  0.40000000000E+01  0.51109989000E-03 0. -1.
     -623   -1    0    0    0    0  0.00000000000E+00  0.00000000000E+00  0.12525980253E-10  0.17130000000E+03  0.17130000000E+03 0. -1.
       11    1    1    2    0    0 -0.13533780984E-01  0.37222335513E-01  0.13355141435E+01  0.13361014012E+01  0.51109989000E-03 0. -1.
     -623    1    1    2    0    0 -0.38089461399E-01 -0.16391376534E-01  0.14743550035E-02  0.17130000503E+03  0.17130000000E+03 0. -1.
      622    1    1    2    0    0  0.51623242384E-01 -0.20830958979E-01  0.26630114688E+01  0.26638935736E+01  0.40000000000E-01 0. -1.
</event>
<event>
 5   0  0.6200596E+07  0.9118800E+02  0.7818608E-02  0.1180000E+00
       11   -1    0    0    0    0  0.00000000000E+00  0.00000000000E+00  0.39999999673E+01  0.40000000000E+01  0.51109989000E-03 0.  1.
     -623   -1    0    0    0    0  0.00000000000E+00  0.00000000000E+00  0.12525980253E-10  0.17130000000E+03  0.17130000000E+03 0. -1.
       11    1    1    2    0    0 -0.62582599233E-02  0.13781663974E-01  0.11256992644E+00  0.11358410822E+00  0.51109989000E-03 0.  1.
     -623    1    1    2    0    0 -0.27659088523E-02 -0.28281541869E-02  0.12459641357E-02  0.17130000005E+03  0.17130000000E+03 0. -1.
      622    1    1    2    0    0  0.90241687756E-02 -0.10953509787E-01  0.38861840768E+01  0.38864158416E+01  0.40000000000E-01 0.  1.
</event>
<event>
 5   0  0.6200596E+07  0.9118800E+02  0.7818608E-02  0.1180000E+00
       11   -1    0    0    0    0  0.00000000000E+00  0.00000000000E+00  0.39999999673E+01  0.40000000000E+01  0.51109989000E-03 0. -1.
     -623   -1    0    0    0    0  0.00000000000E+00  0.00000000000E+00  0.12525980253E-10  0.17130000000E+03  0.17130000000E+03 0. -1.
       11    1    1    2    0    0  0.40003519948E-01 -0.19704741059E-01  0.14923269120E+00  0.15575370227E+00  0.51109989000E-03 0. -1.
     -623    1    1    2    0    0 -0.53117489809E-01  0.28628653311E-01  0.67725773389E-02  0.17130001076E+03  0.17130000000E+03 0. -1.
      622    1    1    2    0    0  0.13113969861E-01 -0.89239122522E-02  0.38439946988E+01  0.38442355361E+01  0.40000000000E-01 0. -1.
</event>
<event>
 5   0  0.6200596E+07  0.9118800E+02  0.7818608E-02  0.1180000E+00
       11   -1    0    0    0    0  0.00000000000E+00  0.00000000000E+00  0.39999999673E+01  0.40000000000E+01  0.51109989000E-03 0. -1.
     -623   -1    0    0    0    0  0.00000000000E+00  0.00000000000E+00  0.12525980253E-10  0.17130000000E+03  0.17130000000E+03 0. -1.
       11    1    1    2    0    0  0.31145852826E-02  0.19190952559E-03  0.14607948175E-01  0.14946265196E-01  0.51109989000E-03 0. -1.
     -623    1    1    2    0    0  0.31152819568E-03 -0.91516073170E-03  0.54058162885E-03  0.17130000000E+03  0.17130000000E+03 0. -1.
      622    1    1    2    0    0 -0.34261134782E-02  0.72325120610E-03  0.39848514376E+01  0.39850537312E+01  0.40000000000E-01 0. -1.
</event>
<event>
 5   0  0.6200596E+07  0.9118800E+02  0.7818608E-02  0.1180000E+00
       11   -1    0    0    0    0  0.00000000000E+00  0.00000000000E+00  0.39999999673E+01  0.40000000000E+01  0.51109989000E-03 0.  1.
     -623   -1    0    0    0    0  0.00000000000E+00  0.00000000000E+00  0.12525980253E-10  0.17130000000E+03  0.17130000000E+03 0.  1.
       11    1    1    2    0    0 -0.36366121042E-02 -0.57352879763E-02  0.12750296853E-01  0.14455094835E-01  0.51109989000E-03 0.  1.
     -623    1    1    2    0    0  0.47664200951E-02  0.64728308033E-02  0.19059233825E-02  0.17130000020E+03  0.17130000000E+03 0.  1.
      622    1    1    2    0    0 -0.11298079909E-02 -0.73754282700E-03  0.39853437471E+01  0.39855447060E+01  0.40000000000E-01 0.  1.
</event>
<event>
 5   0  0.6200596E+07  0.9118800E+02  0.7818608E-02  0.1180000E+00
       11   -1    0    0    0    0  0.00000000000E+00  0.00000000000E+00  0.39999999673E+01  0.40000000000E+01  0.51109989000E-03 0.  1.
     -623   -1    0    0    0    0  0.00000000000E+00  0.00000000000E+00  0.12525980253E-10  0.17130000000E+03  0.17130000000E+03 0.  1.
       11    1    1    2    0    0 -0.36591123754E-01  0.30114625386E-01  0.46036885883E+00  0.46280184572E+00  0.51109989000E-03 0.  1.
     -623    1    1    2    0    0 -0.18724339835E-02 -0.70818224609E-02  0.29434575693E-02  0.17130000018E+03  0.17130000000E+03 0.  1.
      622    1    1    2    0    0  0.38463557737E-01 -0.23032802926E-01  0.35366876510E+01  0.35371979724E+01  0.40000000000E-01 0.  1.
</event>
<event>
 5   0  0.6200596E+07  0.9118800E+02  0.7818608E-02  0.1180000E+00
       11   -1    0    0    0    0  0.00000000000E+00  0.00000000000E+00  0.39999999673E+01  0.40000000000E+01  0.51109989000E-03 0.  1.
     -623   -1    0    0    0    0  0.00000000000E+00  0.00000000000E+00  0.12525980253E-10  0.17130000000E+03  0.17130000000E+03 0.  1.
       11    1    1    2    0    0 -0.30055755718E-02  0.25259784349E-02  0.18215520993E-01  0.18640828237E-01  0.51109989000E-03 0.  1.
     -623    1    1    2    0    0 -0.13823805499E-02 -0.31806138618E-02  0.62872432461E-03  0.17130000004E+03  0.17130000000E+03 0.  1.
      622    1    1    2    0    0  0.43879561216E-02  0.65463542688E-03  0.39811557220E+01  0.39813591355E+01  0.40000000000E-01 0.  1.
</event>
<event>
 5   0  0.6200596E+07  0.9118800E+02  0.7818608E-02  0.1180000E+00
       11   -1    0    0    0    0  0.00000000000E+00  0.00000000000E+00  0.39999999673E+01  0.40000000000E+01  0.51109989000E-03 0.  1.
     -623   -1    0    0    0    0  0.00000000000E+00  0.00000000000E+00  0.12525980253E-10  0.17130000000E+03  0.17130000000E+03 0. -1.
       11    1    1    2    0    0  0.97287658348E-02 -0.30386603234E-01  0.10993212297E+01  0.10997842615E+01  0.51109989000E-03 0.  1.
     -623    1    1    2    0    0 -0.20781224990E-02  0.44626224357E-02  0.86489504882E-03  0.17130000007E+03  0.17130000000E+03 0. -1.
      622    1    1    2    0    0 -0.76506433357E-02  0.25923980798E-01  0.28998138426E+01  0.29002156656E+01  0.40000000000E-01 0.  0.
</event>
<event>
 5   0  0.6200596E+07  0.9118800E+02  0.7818608E-02  0.1180000E+00
       11   -1    0    0    0    0  0.00000000000E+00  0.00000000000E+00  0.39999999673E+01  0.40000000000E+01  0.51109989000E-03 0.  1.
     -623   -1    0    0    0    0  0.00000000000E+00  0.00000000000E+00  0.12525980253E-10  0.17130000000E+03  0.17130000000E+03 0. -1.
       11    1    1    2    0    0  0.44332785086E-02  0.38301344526E-02  0.11329930397E-01  0.12765282292E-01  0.51109989000E-03 0.  1.
     -623    1    1    2    0    0 -0.38275993383E-02  0.59909226442E-04  0.16379589298E-02  0.17130000005E+03  0.17130000000E+03 0. -1.
      622    1    1    2    0    0 -0.60567917029E-03 -0.38900436790E-02  0.39870320780E+01  0.39872346671E+01  0.40000000000E-01 0.  1.
</event>
<event>
 5   0  0.6200596E+07  0.9118800E+02  0.7818608E-02  0.1180000E+00
       11   -1    0    0    0    0  0.00000000000E+00  0.00000000000E+00  0.39999999673E+01  0.40000000000E+01  0.51109989000E-03 0.  1.
     -623   -1    0    0    0    0  0.00000000000E+00  0.00000000000E+00  0.12525980253E-10  0.17130000000E+03  0.17130000000E+03 0. -1.
       11    1    1    2    0    0 -0.14071661412E-01  0.11046133512E-01  0.45559025126E+00  0.45594162673E+00  0.51109989000E-03 0.  1.
     -623    1    1    2    0    0 -0.43042869380E-02 -0.26293641243E-02  0.63479364983E-03  0.17130000008E+03  0.17130000000E+03 0. -1.
      622    1    1    2    0    0  0.18375948350E-01 -0.84167693882E-02  0.35437749225E+01  0.35440582978E+01  0.40000000000E-01 0.  1.
</event>
<event>
 5   0  0.6200596E+07  0.9118800E+02  0.7818608E-02  0.1180000E+00
       11   -1    0    0    0    0  0.00000000000E+00  0.00000000000E+00  0.39999999673E+01  0.40000000000E+01  0.51109989000E-03 0.  1.
     -623   -1    0    0    0    0  0.00000000000E+00  0.00000000000E+00  0.12525980253E-10  0.17130000000E+03  0.17130000000E+03 0. -1.
       11    1    1    2    0    0  0.25116680486E-02 -0.39807711318E-02  0.97965538177E-01  0.98079880236E-01  0.51109989000E-03 0.  1.
     -623    1    1    2    0    0  0.18130148617E-03  0.58617337965E-03  0.32174951167E-03  0.17130000000E+03  0.17130000000E+03 0. -1.
      622    1    1    2    0    0 -0.26929695348E-02  0.33945977522E-02  0.39017126797E+01  0.39019201184E+01  0.40000000000E-01 0.  0.
</event>
<event>
 5   0  0.6200596E+07  0.9118800E+02  0.7818608E-02  0.1180000E+00
       11   -1    0    0    0    0  0.00000000000E+00  0.00000000000E+00  0.39999999673E+01  0.40000000000E+01  0.51109989000E-03 0. -1.
     -623   -1    0    0    0    0  0.00000000000E+00  0.00000000000E+00  0.12525980253E-10  0.17130000000E+03  0.17130000000E+03 0. -1.
       11    1    1    2    0    0 -0.30880175610E-02 -0.18310441148E-02  0.34775347507E+00  0.34777238133E+00  0.51109989000E-03 0. -1.
     -623    1    1    2    0    0 -0.30210266042E-02 -0.14908559740E-03  0.24359786656E-03  0.17130000003E+03  0.17130000000E+03 0. -1.
      622    1    1    2    0    0  0.61090441652E-02  0.19801297122E-02  0.36520028944E+01  0.36522275918E+01  0.40000000000E-01 0. -1.
</event>
<event>
 5   0  0.6200596E+07  0.9118800E+02  0.7818608E-02  0.1180000E+00
       11   -1    0    0    0    0  0.00000000000E+00  0.00000000000E+00  0.39999999673E+01  0.40000000000E+01  0.51109989000E-03 0.  1.
     -623   -1    0    0    0    0  0.00000000000E+00  0.00000000000E+00  0.12525980253E-10  0.17130000000E+03  0.17130000000E+03 0.  1.
       11    1    1    2    0    0  0.15272549708E-01 -0.14126311085E-03  0.18070251237E+01  0.18070897403E+01  0.51109989000E-03 0.  1.
     -623    1    1    2    0    0  0.16290272679E-01 -0.28134335005E-01  0.84205879145E-03  0.17130000309E+03  0.17130000000E+03 0.  1.
      622    1    1    2    0    0 -0.31562822387E-01  0.28275598116E-01  0.21921327849E+01  0.21929071726E+01  0.40000000000E-01 0.  0.
</event>
<event>
 5   0  0.6200596E+07  0.9118800E+02  0.7818608E-02  0.1180000E+00
       11   -1    0    0    0    0  0.00000000000E+00  0.00000000000E+00  0.39999999673E+01  0.40000000000E+01  0.51109989000E-03 0. -1.
     -623   -1    0    0    0    0  0.00000000000E+00  0.00000000000E+00  0.12525980253E-10  0.17130000000E+03  0.17130000000E+03 0.  1.
       11    1    1    2    0    0 -0.41563014846E-02  0.21180729154E-02  0.25122337568E-01  0.25556880510E-01  0.51109989000E-03 0. -1.
     -623    1    1    2    0    0 -0.11147193745E-02 -0.59326406652E-02  0.64123515028E-03  0.17130000011E+03  0.17130000000E+03 0.  1.
      622    1    1    2    0    0  0.52710208591E-02  0.38145677498E-02  0.39742363946E+01  0.39744430119E+01  0.40000000000E-01 0. -1.
</event>
<event>
 5   0  0.6200596E+07  0.9118800E+02  0.7818608E-02  0.1180000E+00
       11   -1    0    0    0    0  0.00000000000E+00  0.00000000000E+00  0.39999999673E+01  0.40000000000E+01  0.51109989000E-03 0. -1.
     -623   -1    0    0    0    0  0.00000000000E+00  0.00000000000E+00  0.12525980253E-10  0.17130000000E+03  0.17130000000E+03 0.  1.
       11    1    1    2    0    0  0.30387274691E-02  0.29162734923E-02  0.63205219861E-01  0.63347451062E-01  0.51109989000E-03 0. -1.
     -623    1    1    2    0    0 -0.29470784823E-02 -0.56996701988E-03  0.34614911838E-03  0.17130000003E+03  0.17130000000E+03 0.  1.
      622    1    1    2    0    0 -0.91648986814E-04 -0.23463064725E-02  0.39364485984E+01  0.39366525223E+01  0.40000000000E-01 0. -1.
</event>
<event>
 5   0  0.6200596E+07  0.9118800E+02  0.7818608E-02  0.1180000E+00
       11   -1    0    0    0    0  0.00000000000E+00  0.00000000000E+00  0.39999999673E+01  0.40000000000E+01  0.51109989000E-03 0. -1.
     -623   -1    0    0    0    0  0.00000000000E+00  0.00000000000E+00  0.12525980253E-10  0.17130000000E+03  0.17130000000E+03 0. -1.
       11    1    1    2    0    0 -0.18868837404E-02 -0.23664247278E-03  0.17016315622E-01  0.17129872976E-01  0.51109989000E-03 0. -1.
     -623    1    1    2    0    0  0.22701791995E-03 -0.25661326415E-04  0.31474492847E-03  0.17130000000E+03  0.17130000000E+03 0. -1.
      622    1    1    2    0    0  0.16598658204E-02  0.26230379919E-03  0.39826689068E+01  0.39828701266E+01  0.40000000000E-01 0. -1.
</event>
<event>
 5   0  0.6200596E+07  0.9118800E+02  0.7818608E-02  0.1180000E+00
       11   -1    0    0    0    0  0.00000000000E+00  0.00000000000E+00  0.39999999673E+01  0.40000000000E+01  0.51109989000E-03 0. -1.
     -623   -1    0    0    0    0  0.00000000000E+00  0.00000000000E+00  0.12525980253E-10  0.17130000000E+03  0.17130000000E+03 0.  1.
       11    1    1    2    0    0  0.81113963367E-03 -0.20631859934E-02  0.38957168732E-01  0.39023542901E-01  0.51109989000E-03 0. -1.
     -623    1    1    2    0    0 -0.15220044534E-02  0.37269052813E-02  0.26877780941E-03  0.17130000005E+03  0.17130000000E+03 0.  1.
      622    1    1    2    0    0  0.71086481977E-03 -0.16637192878E-02  0.39607740208E+01  0.39609764096E+01  0.40000000000E-01 0. -1.
</event>
<event>
 5   0  0.6200596E+07  0.9118800E+02  0.7818608E-02  0.1180000E+00
       11   -1    0    0    0    0  0.00000000000E+00  0.00000000000E+00  0.39999999673E+01  0.40000000000E+01  0.51109989000E-03 0. -1.
     -623   -1    0    0    0    0  0.00000000000E+00  0.00000000000E+00  0.12525980253E-10  0.17130000000E+03  0.17130000000E+03 0.  1.
       11    1    1    2    0    0 -0.36620267283E-02  0.13649874609E-02  0.33223554189E+00  0.33225892034E+00  0.51109989000E-03 0. -1.
     -623    1    1    2    0    0 -0.10098862518E-02  0.17646487358E-03  0.24477306375E-03  0.17130000000E+03  0.17130000000E+03 0.  1.
      622    1    1    2    0    0  0.46719129801E-02 -0.15414523345E-02  0.36675196524E+01  0.36677410764E+01  0.40000000000E-01 0.  0.
</event>
<event>
 5   0  0.6200596E+07  0.9118800E+02  0.7818608E-02  0.1180000E+00
       11   -1    0    0    0    0  0.00000000000E+00  0.00000000000E+00  0.39999999673E+01  0.40000000000E+01  0.51109989000E-03 0.  1.
     -623   -1    0    0    0    0  0.00000000000E+00  0.00000000000E+00  0.12525980253E-10  0.17130000000E+03  0.17130000000E+03 0.  1.
       11    1    1    2    0    0  0.92469739217E-03 -0.86107863955E-03  0.70204717134E-02  0.71515568556E-02  0.51109989000E-03 0.  1.
     -623    1    1    2    0    0  0.14722425481E-02  0.88166278321E-04  0.33221671880E-03  0.17130000001E+03  0.17130000000E+03 0.  1.
      622    1    1    2    0    0 -0.23969399403E-02  0.77291236122E-03  0.39926472789E+01  0.39928484365E+01  0.40000000000E-01 0.  1.
</event>
<event>
 5   0  0.6200596E+07  0.9118800E+02  0.7818608E-02  0.1180000E+00
       11   -1    0    0    0    0  0.00000000000E+00  0.00000000000E+00  0.39999999673E+01  0.40000000000E+01  0.51109989000E-03 0.  1.
     -623   -1    0    0    0    0  0.00000000000E+00  0.00000000000E+00  0.12525980253E-10  0.17130000000E+03  0.17130000000E+03 0.  1.
       11    1    1    2    0    0 -0.15799089733E-02  0.45886252585E-02  0.72142790523E+00  0.72144440898E+00  0.51109989000E-03 0.  1.
     -623    1    1    2    0    0 -0.53100371972E-02 -0.86112769027E-02  0.27049730140E-03  0.17130000030E+03  0.17130000000E+03 0.  1.
      622    1    1    2    0    0  0.68899461705E-02  0.40226516442E-02  0.32783015648E+01  0.32785552921E+01  0.40000000000E-01 0.  1.
</event>
<event>
 5   0  0.6200596E+07  0.9118800E+02  0.7818608E-02  0.1180000E+00
       11   -1    0    0    0    0  0.00000000000E+00  0.00000000000E+00  0.39999999673E+01  0.40000000000E+01  0.51109989000E-03 0.  1.
     -623   -1    0    0    0    0  0.00000000000E+00  0.00000000000E+00  0.12525980253E-10  0.17130000000E+03  0.17130000000E+03 0. -1.
       11    1    1    2    0    0  0.26649316137E-02  0.19964772743E-02  0.17151862273E-01  0.17479570492E-01  0.51109989000E-03 0.  1.
     -623    1    1    2    0    0 -0.61609657352E-02 -0.90924620350E-02  0.53676806348E-03  0.17130000035E+03  0.17130000000E+03 0. -1.
      622    1    1    2    0    0  0.34960341215E-02  0.70959847607E-02  0.39823113370E+01  0.39825200766E+01  0.40000000000E-01 0.  1.
</event>
<event>
 5   0  0.6200596E+07  0.9118800E+02  0.7818608E-02  0.1180000E+00
       11   -1    0    0    0    0  0.00000000000E+00  0.00000000000E+00  0.39999999673E+01  0.40000000000E+01  0.51109989000E-03 0.  1.
     -623   -1    0    0    0    0  0.00000000000E+00  0.00000000000E+00  0.12525980253E-10  0.17130000000E+03  0.17130000000E+03 0.  1.
       11    1    1    2    0    0 -0.16704009335E-02 -0.30936279257E-02  0.94323742366E-01  0.94390626490E-01  0.51109989000E-03 0.  1.
     -623    1    1    2    0    0  0.10259434905E-02  0.60694020719E-03  0.27253966091E-03  0.17130000000E+03  0.17130000000E+03 0.  1.
      622    1    1    2    0    0  0.64445744301E-03  0.24866877185E-02  0.39054036853E+01  0.39056093691E+01  0.40000000000E-01 0.  1.
</event>
<event>
 5   0  0.6200596E+07  0.9118800E+02  0.7818608E-02  0.1180000E+00
       11   -1    0    0    0    0  0.00000000000E+00  0.00000000000E+00  0.39999999673E+01  0.40000000000E+01  0.51109989000E-03 0. -1.
     -623   -1    0    0    0    0  0.00000000000E+00  0.00000000000E+00  0.12525980253E-10  0.17130000000E+03  0.17130000000E+03 0. -1.
       11    1    1    2    0    0 -0.13463795076E-02  0.15557797339E-02  0.35233049903E-01  0.35296773458E-01  0.51109989000E-03 0. -1.
     -623    1    1    2    0    0 -0.22864407387E-02 -0.43697491314E-02  0.26821091852E-03  0.17130000007E+03  0.17130000000E+03 0. -1.
      622    1    1    2    0    0  0.36328202463E-02  0.28139693975E-02  0.39644987065E+01  0.39647031553E+01  0.40000000000E-01 0. -1.
</event>
<event>
 5   0  0.6200596E+07  0.9118800E+02  0.7818608E-02  0.1180000E+00
       11   -1    0    0    0    0  0.00000000000E+00  0.00000000000E+00  0.39999999673E+01  0.40000000000E+01  0.51109989000E-03 0. -1.
     -623   -1    0    0    0    0  0.00000000000E+00  0.00000000000E+00  0.12525980253E-10  0.17130000000E+03  0.17130000000E+03 0.  1.
       11    1    1    2    0    0  0.39372110273E-01 -0.36271584049E-01  0.98048720159E+00  0.98194765878E+00  0.51109989000E-03 0. -1.
     -623    1    1    2    0    0 -0.43900414430E-02  0.41343072969E-02  0.20995248800E-02  0.17130000012E+03  0.17130000000E+03 0.  1.
      622    1    1    2    0    0 -0.34982068830E-01  0.32137276752E-01  0.30174132409E+01  0.30180522222E+01  0.40000000000E-01 0. -1.
</event>
<event>
 5   0  0.6200596E+07  0.9118800E+02  0.7818608E-02  0.1180000E+00
       11   -1    0    0    0    0  0.00000000000E+00  0.00000000000E+00  0.39999999673E+01  0.40000000000E+01  0.51109989000E-03 0. -1.
     -623   -1    0    0    0    0  0.00000000000E+00  0.00000000000E+00  0.12525980253E-10  0.17130000000E+03  0.17130000000E+03 0.  1.
       11    1    1    2    0    0 -0.75101325364E-03  0.24130539605E-02  0.10267775333E+00  0.10271012171E+00  0.51109989000E-03 0. -1.
     -623    1    1    2    0    0 -0.17468145484E-03 -0.15958254519E-03  0.23837379599E-03  0.17130000000E+03  0.17130000000E+03 0.  1.
      622    1    1    2    0    0  0.92569470848E-03 -0.22534714153E-02  0.38970838402E+01  0.38972898780E+01  0.40000000000E-01 0. -1.
</event>
<event>
 5   0  0.6200596E+07  0.9118800E+02  0.7818608E-02  0.1180000E+00
       11   -1    0    0    0    0  0.00000000000E+00  0.00000000000E+00  0.39999999673E+01  0.40000000000E+01  0.51109989000E-03 0.  1.
     -623   -1    0    0    0    0  0.00000000000E+00  0.00000000000E+00  0.12525980253E-10  0.17130000000E+03  0.17130000000E+03 0. -1.
       11    1    1    2    0    0 -0.40651148112E-03  0.10264341474E-02  0.31279721453E-01  0.31303370640E-01  0.51109989000E-03 0.  1.
     -623    1    1    2    0    0 -0.50430509593E-03 -0.18126817813E-03  0.22539468533E-03  0.17130000000E+03  0.17130000000E+03 0. -1.
      622    1    1    2    0    0  0.91081657705E-03 -0.84516596926E-03  0.39684948512E+01  0.39686966284E+01  0.40000000000E-01 0.  1.
</event>
<event>
 5   0  0.6200596E+07  0.9118800E+02  0.7818608E-02  0.1180000E+00
       11   -1    0    0    0    0  0.00000000000E+00  0.00000000000E+00  0.39999999673E+01  0.40000000000E+01  0.51109989000E-03 0. -1.
     -623   -1    0    0    0    0  0.00000000000E+00  0.00000000000E+00  0.12525980253E-10  0.17130000000E+03  0.17130000000E+03 0.  1.
       11    1    1    2    0    0 -0.12031209530E-02 -0.62929126386E-02  0.11645660705E+00  0.11663383212E+00  0.51109989000E-03 0. -1.
     -623    1    1    2    0    0 -0.12346350923E-02  0.74712676805E-02  0.38431653550E-03  0.17130000017E+03  0.17130000000E+03 0.  1.
      622    1    1    2    0    0  0.24377560452E-02 -0.11783550418E-02  0.38831590438E+01  0.38833660001E+01  0.40000000000E-01 0. -1.
</event>
<event>
 5   0  0.6200596E+07  0.9118800E+02  0.7818608E-02  0.1180000E+00
       11   -1    0    0    0    0  0.00000000000E+00  0.00000000000E+00  0.39999999673E+01  0.40000000000E+01  0.51109989000E-03 0.  1.
     -623   -1    0    0    0    0  0.00000000000E+00  0.00000000000E+00  0.12525980253E-10  0.17130000000E+03  0.17130000000E+03 0.  1.
       11    1    1    2    0    0  0.10252708856E-01 -0.14815991543E-02  0.15706898594E+01  0.15707241033E+01  0.51109989000E-03 0.  1.
     -623    1    1    2    0    0 -0.25997717614E-01  0.21211983185E-02  0.41665280782E-03  0.17130000199E+03  0.17130000000E+03 0.  1.
      622    1    1    2    0    0  0.15745008758E-01 -0.63959916421E-03  0.24288934552E+01  0.24292739103E+01  0.40000000000E-01 0.  1.
</event>
<event>
 5   0  0.6200596E+07  0.9118800E+02  0.7818608E-02  0.1180000E+00
       11   -1    0    0    0    0  0.00000000000E+00  0.00000000000E+00  0.39999999673E+01  0.40000000000E+01  0.51109989000E-03 0.  1.
     -623   -1    0    0    0    0  0.00000000000E+00  0.00000000000E+00  0.12525980253E-10  0.17130000000E+03  0.17130000000E+03 0.  1.
       11    1    1    2    0    0  0.13627070984E-01  0.14368358478E-01  0.59413276075E+00  0.59446290499E+00  0.51109989000E-03 0.  1.
     -623    1    1    2    0    0  0.55497698490E-03 -0.29613952425E-02  0.61369648090E-03  0.17130000003E+03  0.17130000000E+03 0.  1.
      622    1    1    2    0    0 -0.14182047969E-01 -0.11406963235E-01  0.34052535101E+01  0.34055370674E+01  0.40000000000E-01 0.  0.
</event>
<event>
 5   0  0.6200596E+07  0.9118800E+02  0.7818608E-02  0.1180000E+00
       11   -1    0    0    0    0  0.00000000000E+00  0.00000000000E+00  0.39999999673E+01  0.40000000000E+01  0.51109989000E-03 0.  1.
     -623   -1    0    0    0    0  0.00000000000E+00  0.00000000000E+00  0.12525980253E-10  0.17130000000E+03  0.17130000000E+03 0. -1.
       11    1    1    2    0    0  0.20920300419E-01 -0.77722476738E-02  0.28961037207E+01  0.28961897536E+01  0.51109989000E-03 0.  1.
     -623    1    1    2    0    0  0.32196232417E-02 -0.17090361564E-03  0.11038112607E-02  0.17130000003E+03  0.17130000000E+03 0. -1.
      622    1    1    2    0    0 -0.24139923661E-01  0.79431512895E-02  0.11027924354E+01  0.11038102125E+01  0.40000000000E-01 0.  0.
</event>
<event>
 5   0  0.6200596E+07  0.9118800E+02  0.7818608E-02  0.1180000E+00
       11   -1    0    0    0    0  0.00000000000E+00  0.00000000000E+00  0.39999999673E+01  0.40000000000E+01  0.51109989000E-03 0.  1.
     -623   -1    0    0    0    0  0.00000000000E+00  0.00000000000E+00  0.12525980253E-10  0.17130000000E+03  0.17130000000E+03 0.  1.
       11    1    1    2    0    0 -0.62190335425E-02 -0.40769581305E-02  0.26209598734E+00  0.26220195607E+00  0.51109989000E-03 0.  1.
     -623    1    1    2    0    0  0.25362191913E-02 -0.27095201437E-02  0.32798816624E-03  0.17130000004E+03  0.17130000000E+03 0.  1.
      622    1    1    2    0    0  0.36828143512E-02  0.67864782742E-02  0.37375759919E+01  0.37377980034E+01  0.40000000000E-01 0.  1.
</event>
<event>
 5   0  0.6200596E+07  0.9118800E+02  0.7818608E-02  0.1180000E+00
       11   -1    0    0    0    0  0.00000000000E+00  0.00000000000E+00  0.39999999673E+01  0.40000000000E+01  0.51109989000E-03 0.  1.
     -623   -1    0    0    0    0  0.00000000000E+00  0.00000000000E+00  0.12525980253E-10  0.17130000000E+03  0.17130000000E+03 0. -1.
       11    1    1    2    0    0 -0.80435280706E-03 -0.82711993704E-02  0.54799597793E-01  0.55428484210E-01  0.51109989000E-03 0.  1.
     -623    1    1    2    0    0  0.87707263255E-03  0.17967998506E-02  0.83699737891E-03  0.17130000001E+03  0.17130000000E+03 0. -1.
      622    1    1    2    0    0 -0.72719825499E-04  0.64743995198E-02  0.39443633722E+01  0.39445715021E+01  0.40000000000E-01 0.  0.
</event>
<event>
 5   0  0.6200596E+07  0.9118800E+02  0.7818608E-02  0.1180000E+00
       11   -1    0    0    0    0  0.00000000000E+00  0.00000000000E+00  0.39999999673E+01  0.40000000000E+01  0.51109989000E-03 0. -1.
     -623   -1    0    0    0    0  0.00000000000E+00  0.00000000000E+00  0.12525980253E-10  0.17130000000E+03  0.17130000000E+03 0. -1.
       11    1    1    2    0    0  0.63173045935E-02 -0.14060330811E-02  0.18078240606E+01  0.18078357172E+01  0.51109989000E-03 0. -1.
     -623    1    1    2    0    0  0.22984070650E-02 -0.13839560150E-02  0.39532150192E-03  0.17130000002E+03  0.17130000000E+03 0. -1.
      622    1    1    2    0    0 -0.86157116584E-02  0.27899890960E-02  0.21917805853E+01  0.21921642613E+01  0.40000000000E-01 0. -1.
</event>
<event>
 5   0  0.6200596E+07  0.9118800E+02  0.7818608E-02  0.1180000E+00
       11   -1    0    0    0    0  0.00000000000E+00  0.00000000000E+00  0.39999999673E+01  0.40000000000E+01  0.51109989000E-03 0.  1.
     -623   -1    0    0    0    0  0.00000000000E+00  0.00000000000E+00  0.12525980253E-10  0.17130000000E+03  0.17130000000E+03 0. -1.
       11    1    1    2    0    0 -0.24610994926E-02 -0.58350865583E-02  0.13383430002E+00  0.13398502278E+00  0.51109989000E-03 0.  1.
     -623    1    1    2    0    0 -0.10213140505E-02  0.23151106712E-02  0.36081721856E-03  0.17130000002E+03  0.17130000000E+03 0. -1.
      622    1    1    2    0    0  0.34824135432E-02  0.35199758871E-02  0.38658048501E+01  0.38660149582E+01  0.40000000000E-01 0.  1.
</event>
<event>
 5   0  0.6200596E+07  0.9118800E+02  0.7818608E-02  0.1180000E+00
       11   -1    0    0    0    0  0.00000000000E+00  0.00000000000E+00  0.39999999673E+01  0.40000000000E+01  0.51109989000E-03 0.  1.
     -623   -1    0    0    0    0  0.00000000000E+00  0.00000000000E+00  0.12525980253E-10  0.17130000000E+03  0.17130000000E+03 0. -1.
       11    1    1    2    0    0 -0.14099488110E-02  0.23001361730E-02  0.90791695889E-01  0.90833208938E-01  0.51109989000E-03 0.  1.
     -623    1    1    2    0    0  0.21309613276E-05 -0.16937076819E-03  0.24696746896E-03  0.17130000000E+03  0.17130000000E+03 0. -1.
      622    1    1    2    0    0  0.14078178497E-02 -0.21307654048E-02  0.39089613040E+01  0.39091667908E+01  0.40000000000E-01 0.  1.
</event>
<event>
 5   0  0.6200596E+07  0.9118800E+02  0.7818608E-02  0.1180000E+00
       11   -1    0    0    0    0  0.00000000000E+00  0.00000000000E+00  0.39999999673E+01  0.40000000000E+01  0.51109989000E-03 0.  1.
     -623   -1    0    0    0    0  0.00000000000E+00  0.00000000000E+00  0.12525980253E-10  0.17130000000E+03  0.17130000000E+03 0. -1.
       11    1    1    2    0    0  0.61515674252E-02  0.46145625492E-02  0.54044179675E-01  0.54590938318E-01  0.51109989000E-03 0.  1.
     -623    1    1    2    0    0 -0.11675893101E-01  0.34326555112E-02  0.76200746993E-03  0.17130000043E+03  0.17130000000E+03 0. -1.
      622    1    1    2    0    0  0.55243256759E-02 -0.80472180604E-02  0.39451937802E+01  0.39454086277E+01  0.40000000000E-01 0.  0.
</event>
<event>
 5   0  0.6200596E+07  0.9118800E+02  0.7818608E-02  0.1180000E+00
       11   -1    0    0    0    0  0.00000000000E+00  0.00000000000E+00  0.39999999673E+01  0.40000000000E+01  0.51109989000E-03 0.  1.
     -623   -1    0    0    0    0  0.00000000000E+00  0.00000000000E+00  0.12525980253E-10  0.17130000000E+03  0.17130000000E+03 0.  1.
       11    1    1    2    0    0 -0.16326199006E-01 -0.33217385608E-01  0.26872177681E+01  0.26874727038E+01  0.51109989000E-03 0.  1.
     -623    1    1    2    0    0 -0.21161537446E-02  0.12093736286E-02  0.13847729457E-02  0.17130000002E+03  0.17130000000E+03 0.  1.
      622    1    1    2    0    0  0.18442352750E-01  0.32008011979E-01  0.13113974264E+01  0.13125272733E+01  0.40000000000E-01 0.  1.
</event>
<event>
 5   0  0.6200596E+07  0.9118800E+02  0.7818608E-02  0.1180000E+00
       11   -1    0    0    0    0  0.00000000000E+00  0.00000000000E+00  0.39999999673E+01  0.40000000000E+01  0.51109989000E-03 0.  1.
     -623   -1    0    0    0    0  0.00000000000E+00  0.00000000000E+00  0.12525980253E-10  0.17130000000E+03  0.17130000000E+03 0.  1.
       11    1    1    2    0    0  0.16040560311E-02 -0.56056276068E-03  0.36606185515E-02  0.40679941331E-02  0.51109989000E-03 0.  1.
     -623    1    1    2    0    0  0.53386630016E-03  0.11541424230E-02  0.60817340200E-03  0.17130000001E+03  0.17130000000E+03 0.  1.
      622    1    1    2    0    0 -0.21379223313E-02 -0.59357966236E-03  0.39957311754E+01  0.39959320001E+01  0.40000000000E-01 0.  1.
</event>
<event>
 5   0  0.6200596E+07  0.9118800E+02  0.7818608E-02  0.1180000E+00
       11   -1    0    0    0    0  0.00000000000E+00  0.00000000000E+00  0.39999999673E+01  0.40000000000E+01  0.51109989000E-03 0.  1.
     -623   -1    0    0    0    0  0.00000000000E+00  0.00000000000E+00  0.12525980253E-10  0.17130000000E+03  0.17130000000E+03 0.  1.
       11    1    1    2    0    0 -0.17039897521E-01  0.20280327232E-02  0.57767122502E+00  0.57792627251E+00  0.51109989000E-03 0.  1.
     -623    1    1    2    0    0  0.16481480515E-03  0.13514345233E-02  0.53208496098E-03  0.17130000001E+03  0.17130000000E+03 0.  1.
      622    1    1    2    0    0  0.16875082716E-01 -0.33794672465E-02  0.34217966574E+01  0.34220737213E+01  0.40000000000E-01 0.  1.
</event>
<event>
 5   0  0.6200596E+07  0.9118800E+02  0.7818608E-02  0.1180000E+00
       11   -1    0    0    0    0  0.00000000000E+00  0.00000000000E+00  0.39999999673E+01  0.40000000000E+01  0.51109989000E-03 0. -1.
     -623   -1    0    0    0    0  0.00000000000E+00  0.00000000000E+00  0.12525980253E-10  0.17130000000E+03  0.17130000000E+03 0. -1.
       11    1    1    2    0    0 -0.21100363324E-02  0.35905326883E-02  0.37707232936E+00  0.37709567349E+00  0.51109989000E-03 0. -1.
     -623    1    1    2    0    0 -0.26253207541E-02  0.30989331891E-03  0.24935074363E-03  0.17130000002E+03  0.17130000000E+03 0. -1.
      622    1    1    2    0    0  0.47353570864E-02 -0.39004260072E-02  0.36226782873E+01  0.36229043059E+01  0.40000000000E-01 0. -1.
</event>
<event>
 5   0  0.6200596E+07  0.9118800E+02  0.7818608E-02  0.1180000E+00
       11   -1    0    0    0    0  0.00000000000E+00  0.00000000000E+00  0.39999999673E+01  0.40000000000E+01  0.51109989000E-03 0.  1.
     -623   -1    0    0    0    0  0.00000000000E+00  0.00000000000E+00  0.12525980253E-10  0.17130000000E+03  0.17130000000E+03 0.  1.
       11    1    1    2    0    0  0.18737417779E-03  0.37360280081E-02  0.18838959896E+00  0.18842742696E+00  0.51109989000E-03 0.  1.
     -623    1    1    2    0    0 -0.10024105600E-02 -0.88931871064E-02  0.25149846873E-03  0.17130000023E+03  0.17130000000E+03 0.  1.
      622    1    1    2    0    0  0.81503638219E-03  0.51571590983E-02  0.38113588699E+01  0.38115723391E+01  0.40000000000E-01 0.  1.
</event>
<event>
 5   0  0.6200596E+07  0.9118800E+02  0.7818608E-02  0.1180000E+00
       11   -1    0    0    0    0  0.00000000000E+00  0.00000000000E+00  0.39999999673E+01  0.40000000000E+01  0.51109989000E-03 0.  1.
     -623   -1    0    0    0    0  0.00000000000E+00  0.00000000000E+00  0.12525980253E-10  0.17130000000E+03  0.17130000000E+03 0.  1.
       11    1    1    2    0    0  0.13933646249E-02  0.23392913366E-03  0.63518780511E-03  0.16312180615E-02  0.51109989000E-03 0.  1.
     -623    1    1    2    0    0 -0.26975938320E-02  0.43393307625E-03  0.11963786907E-02  0.17130000003E+03  0.17130000000E+03 0.  1.
      622    1    1    2    0    0  0.13042292071E-02 -0.66786220991E-03  0.39981684009E+01  0.39983687560E+01  0.40000000000E-01 0.  1.
</event>
<event>
 5   0  0.6200596E+07  0.9118800E+02  0.7818608E-02  0.1180000E+00
       11   -1    0    0    0    0  0.00000000000E+00  0.00000000000E+00  0.39999999673E+01  0.40000000000E+01  0.51109989000E-03 0. -1.
     -623   -1    0    0    0    0  0.00000000000E+00  0.00000000000E+00  0.12525980253E-10  0.17130000000E+03  0.17130000000E+03 0. -1.
       11    1    1    2    0    0  0.12636022627E-02 -0.22350744525E-02  0.29802104357E-01  0.29916866371E-01  0.51109989000E-03 0. -1.
     -623    1    1    2    0    0 -0.47701384077E-03 -0.41311072061E-03  0.31720424859E-03  0.17130000000E+03  0.17130000000E+03 0. -1.
      622    1    1    2    0    0 -0.78658842197E-03  0.26481851731E-02  0.39698806588E+01  0.39700831322E+01  0.40000000000E-01 0. -1.
</event>
<event>
 5   0  0.6200596E+07  0.9118800E+02  0.7818608E-02  0.1180000E+00
       11   -1    0    0    0    0  0.00000000000E+00  0.00000000000E+00  0.39999999673E+01  0.40000000000E+01  0.51109989000E-03 0.  1.
     -623   -1    0    0    0    0  0.00000000000E+00  0.00000000000E+00  0.12525980253E-10  0.17130000000E+03  0.17130000000E+03 0.  1.
       11    1    1    2    0    0 -0.59218205686E-02 -0.37185794011E-02  0.95657845698E-01  0.95914443416E-01  0.51109989000E-03 0.  1.
     -623    1    1    2    0    0  0.21889248865E-02 -0.39663254723E-04  0.46509234050E-03  0.17130000001E+03  0.17130000000E+03 0.  1.
      622    1    1    2    0    0  0.37328956821E-02  0.37582426558E-02  0.39038770293E+01  0.39040855420E+01  0.40000000000E-01 0.  1.
</event>
<event>
 5   0  0.6200596E+07  0.9118800E+02  0.7818608E-02  0.1180000E+00
       11   -1    0    0    0    0  0.00000000000E+00  0.00000000000E+00  0.39999999673E+01  0.40000000000E+01  0.51109989000E-03 0.  1.
     -623   -1    0    0    0    0  0.00000000000E+00  0.00000000000E+00  0.12525980253E-10  0.17130000000E+03  0.17130000000E+03 0.  1.
       11    1    1    2    0    0  0.16945228694E-01 -0.17054948522E-02  0.13324875828E+01  0.13325965140E+01  0.51109989000E-03 0.  1.
     -623    1    1    2    0    0  0.29119032626E-02  0.89313223340E-02  0.49280061980E-03  0.17130000026E+03  0.17130000000E+03 0.  1.
      622    1    1    2    0    0 -0.19857131956E-01 -0.72258274818E-02  0.26670195839E+01  0.26674032278E+01  0.40000000000E-01 0.  1.
</event>
<event>
 5   0  0.6200596E+07  0.9118800E+02  0.7818608E-02  0.1180000E+00
       11   -1    0    0    0    0  0.00000000000E+00  0.00000000000E+00  0.39999999673E+01  0.40000000000E+01  0.51109989000E-03 0.  1.
     -623   -1    0    0    0    0  0.00000000000E+00  0.00000000000E+00  0.12525980253E-10  0.17130000000E+03  0.17130000000E+03 0. -1.
       11    1    1    2    0    0  0.12280264293E-02  0.52353728261E-02  0.67688721456E+00  0.67690876758E+00  0.51109989000E-03 0.  1.
     -623    1    1    2    0    0 -0.38416041009E-02 -0.14038111613E-02  0.26555477716E-03  0.17130000005E+03  0.17130000000E+03 0. -1.
      622    1    1    2    0    0  0.26135776716E-02 -0.38315616648E-02  0.33228471980E+01  0.33230911834E+01  0.40000000000E-01 0.  1.
</event>
<event>
 5   0  0.6200596E+07  0.9118800E+02  0.7818608E-02  0.1180000E+00
       11   -1    0    0    0    0  0.00000000000E+00  0.00000000000E+00  0.39999999673E+01  0.40000000000E+01  0.51109989000E-03 0.  1.
     -623   -1    0    0    0    0  0.00000000000E+00  0.00000000000E+00  0.12525980253E-10  0.17130000000E+03  0.17130000000E+03 0.  1.
       11    1    1    2    0    0 -0.84028563518E-02 -0.81517416584E-02  0.29976386147E+00  0.29999282116E+00  0.51109989000E-03 0.  1.
     -623    1    1    2    0    0  0.25678332209E-02 -0.19413361109E-02  0.46354838930E-03  0.17130000003E+03  0.17130000000E+03 0.  1.
      622    1    1    2    0    0  0.58350231308E-02  0.10093077769E-01  0.36997725575E+01  0.37000071480E+01  0.40000000000E-01 0.  1.
</event>
<event>
 5   0  0.6200596E+07  0.9118800E+02  0.7818608E-02  0.1180000E+00
       11   -1    0    0    0    0  0.00000000000E+00  0.00000000000E+00  0.39999999673E+01  0.40000000000E+01  0.51109989000E-03 0. -1.
     -623   -1    0    0    0    0  0.00000000000E+00  0.00000000000E+00  0.12525980253E-10  0.17130000000E+03  0.17130000000E+03 0. -1.
       11    1    1    2    0    0 -0.33741068874E-02  0.72933699690E-05  0.35681928250E-01  0.35844746851E-01  0.51109989000E-03 0. -1.
     -623    1    1    2    0    0  0.91126441657E-03 -0.14631730696E-02  0.36564105572E-03  0.17130000001E+03  0.17130000000E+03 0. -1.
      622    1    1    2    0    0  0.24628424708E-02  0.14558796996E-02  0.39639523981E+01  0.39641552441E+01  0.40000000000E-01 0. -1.
</event>
<event>
 5   0  0.6200596E+07  0.9118800E+02  0.7818608E-02  0.1180000E+00
       11   -1    0    0    0    0  0.00000000000E+00  0.00000000000E+00  0.39999999673E+01  0.40000000000E+01  0.51109989000E-03 0.  1.
     -623   -1    0    0    0    0  0.00000000000E+00  0.00000000000E+00  0.12525980253E-10  0.17130000000E+03  0.17130000000E+03 0.  1.
       11    1    1    2    0    0  0.13893713809E-02  0.33948843138E-02  0.10143020156E+00  0.10149779605E+00  0.51109989000E-03 0.  1.
     -623    1    1    2    0    0 -0.90741290988E-02 -0.68522778323E-02  0.28225962401E-03  0.17130000038E+03  0.17130000000E+03 0.  1.
      622    1    1    2    0    0  0.76847577180E-02  0.34573935186E-02  0.38982875062E+01  0.38985018263E+01  0.40000000000E-01 0.  1.
</event>
<event>
 5   0  0.6200596E+07  0.9118800E+02  0.7818608E-02  0.1180000E+00
       11   -1    0    0    0    0  0.00000000000E+00  0.00000000000E+00  0.39999999673E+01  0.40000000000E+01  0.51109989000E-03 0.  1.
     -623   -1    0    0    0    0  0.00000000000E+00  0.00000000000E+00  0.12525980253E-10  0.17130000000E+03  0.17130000000E+03 0.  1.
       11    1    1    2    0    0 -0.14039323774E-01  0.87726958912E-03  0.66945681717E-01  0.68409485709E-01  0.51109989000E-03 0.  1.
     -623    1    1    2    0    0 -0.21769966535E-02 -0.15905554333E-02  0.17007959395E-02  0.17130000003E+03  0.17130000000E+03 0.  1.
      622    1    1    2    0    0  0.16216320427E-01  0.71328584420E-03  0.39313534897E+01  0.39315904846E+01  0.40000000000E-01 0.  1.
</event>
<event>
 5   0  0.6200596E+07  0.9118800E+02  0.7818608E-02  0.1180000E+00
       11   -1    0    0    0    0  0.00000000000E+00  0.00000000000E+00  0.39999999673E+01  0.40000000000E+01  0.51109989000E-03 0.  1.
     -623   -1    0    0    0    0  0.00000000000E+00  0.00000000000E+00  0.12525980253E-10  0.17130000000E+03  0.17130000000E+03 0. -1.
       11    1    1    2    0    0 -0.81009832536E-02  0.33199348451E-02  0.63383754574E-01  0.63987572714E-01  0.51109989000E-03 0.  1.
     -623    1    1    2    0    0 -0.23667671653E-03 -0.94456175989E-03  0.81659496131E-03  0.17130000000E+03  0.17130000000E+03 0. -1.
      622    1    1    2    0    0  0.83376599702E-02 -0.23753730852E-02  0.39357996178E+01  0.39360124226E+01  0.40000000000E-01 0.  1.
</event>
<event>
 5   0  0.6200596E+07  0.9118800E+02  0.7818608E-02  0.1180000E+00
       11   -1    0    0    0    0  0.00000000000E+00  0.00000000000E+00  0.39999999673E+01  0.40000000000E+01  0.51109989000E-03 0. -1.
     -623   -1    0    0    0    0  0.00000000000E+00  0.00000000000E+00  0.12525980253E-10  0.17130000000E+03  0.17130000000E+03 0.  1.
       11    1    1    2    0    0  0.22738738730E-01 -0.22629517597E-01  0.24014061527E+01  0.24016204772E+01  0.51109989000E-03 0. -1.
     -623    1    1    2    0    0 -0.61303571568E-02  0.51057564517E-02  0.89748031715E-03  0.17130000019E+03  0.17130000000E+03 0.  1.
      622    1    1    2    0    0 -0.16608381573E-01  0.17523761146E-01  0.15976963344E+01  0.15983793346E+01  0.40000000000E-01 0.  0.
</event>
<event>
 5   0  0.6200596E+07  0.9118800E+02  0.7818608E-02  0.1180000E+00
       11   -1    0    0    0    0  0.00000000000E+00  0.00000000000E+00  0.39999999673E+01  0.40000000000E+01  0.51109989000E-03 0. -1.
     -623   -1    0    0    0    0  0.00000000000E+00  0.00000000000E+00  0.12525980253E-10  0.17130000000E+03  0.17130000000E+03 0. -1.
       11    1    1    2    0    0 -0.26339589147E-01  0.22883291163E-01  0.33690697895E+00  0.33870930406E+00  0.51109989000E-03 0. -1.
     -623    1    1    2    0    0 -0.46490632008E-01 -0.20106720474E-02  0.28111411729E-02  0.17130000634E+03  0.17130000000E+03 0. -1.
      622    1    1    2    0    0  0.72830221156E-01 -0.20872619115E-01  0.36602818472E+01  0.36612843523E+01  0.40000000000E-01 0. -1.
</event>
<event>
 5   0  0.6200596E+07  0.9118800E+02  0.7818608E-02  0.1180000E+00
       11   -1    0    0    0    0  0.00000000000E+00  0.00000000000E+00  0.39999999673E+01  0.40000000000E+01  0.51109989000E-03 0.  1.
     -623   -1    0    0    0    0  0.00000000000E+00  0.00000000000E+00  0.12525980253E-10  0.17130000000E+03  0.17130000000E+03 0.  1.
       11    1    1    2    0    0 -0.37596233382E-02 -0.44933526498E-03  0.11106094221E+00  0.11112664297E+00  0.51109989000E-03 0.  1.
     -623    1    1    2    0    0  0.96009447782E-03 -0.11764590678E-02  0.27274318709E-03  0.17130000001E+03  0.17130000000E+03 0.  1.
      622    1    1    2    0    0  0.27995288604E-02  0.16257943327E-02  0.38886662820E+01  0.38888733501E+01  0.40000000000E-01 0.  1.
</event>
<event>
 5   0  0.6200596E+07  0.9118800E+02  0.7818608E-02  0.1180000E+00
       11   -1    0    0    0    0  0.00000000000E+00  0.00000000000E+00  0.39999999673E+01  0.40000000000E+01  0.51109989000E-03 0.  1.
     -623   -1    0    0    0    0  0.00000000000E+00  0.00000000000E+00  0.12525980253E-10  0.17130000000E+03  0.17130000000E+03 0. -1.
       11    1    1    2    0    0  0.95843131465E-04 -0.33040805347E-03  0.10057451677E-01  0.10076304414E-01  0.51109989000E-03 0.  1.
     -623    1    1    2    0    0 -0.58197855199E-03  0.80513563898E-03  0.21939110500E-03  0.17130000000E+03  0.17130000000E+03 0. -1.
      622    1    1    2    0    0  0.48613542053E-03 -0.47472758551E-03  0.39897231246E+01  0.39899236926E+01  0.40000000000E-01 0.  1.
</event>
<event>
 5   0  0.6200596E+07  0.9118800E+02  0.7818608E-02  0.1180000E+00
       11   -1    0    0    0    0  0.00000000000E+00  0.00000000000E+00  0.39999999673E+01  0.40000000000E+01  0.51109989000E-03 0.  1.
     -623   -1    0    0    0    0  0.00000000000E+00  0.00000000000E+00  0.12525980253E-10  0.17130000000E+03  0.17130000000E+03 0.  1.
       11    1    1    2    0    0  0.16732506030E-01 -0.54115501701E-02  0.13716611665E+01  0.13717739896E+01  0.51109989000E-03 0.  1.
     -623    1    1    2    0    0  0.28813108105E-02 -0.57744530480E-02  0.51432227588E-03  0.17130000012E+03  0.17130000000E+03 0.  1.
      622    1    1    2    0    0 -0.19613816840E-01  0.11186003218E-01  0.26278244786E+01  0.26282258881E+01  0.40000000000E-01 0. -1.
</event>
<event>
 5   0  0.6200596E+07  0.9118800E+02  0.7818608E-02  0.1180000E+00
       11   -1    0    0    0    0  0.00000000000E+00  0.00000000000E+00  0.39999999673E+01  0.40000000000E+01  0.51109989000E-03 0. -1.
     -623   -1    0    0    0    0  0.00000000000E+00  0.00000000000E+00  0.12525980253E-10  0.17130000000E+03  0.17130000000E+03 0. -1.
       11    1    1    2    0    0 -0.12970467192E-02  0.36134755827E-02  0.19451765271E-01  0.19833606057E-01  0.51109989000E-03 0. -1.
     -623    1    1    2    0    0  0.54084920348E-02 -0.43270578920E-02  0.58513848904E-03  0.17130000014E+03  0.17130000000E+03 0. -1.
      622    1    1    2    0    0 -0.41114453156E-02  0.71358230922E-03  0.39799630636E+01  0.39801662529E+01  0.40000000000E-01 0. -1.
</event>
<event>
 5   0  0.6200596E+07  0.9118800E+02  0.7818608E-02  0.1180000E+00
       11   -1    0    0    0    0  0.00000000000E+00  0.00000000000E+00  0.39999999673E+01  0.40000000000E+01  0.51109989000E-03 0. -1.
     -623   -1    0    0    0    0  0.00000000000E+00  0.00000000000E+00  0.12525980253E-10  0.17130000000E+03  0.17130000000E+03 0. -1.
       11    1    1    2    0    0 -0.91260473114E-03  0.20595658550E-01  0.21952040181E+01  0.21953008806E+01  0.51109989000E-03 0. -1.
     -623    1    1    2    0    0 -0.68076753212E-02 -0.38947464246E-01  0.65458941489E-03  0.17130000456E+03  0.17130000000E+03 0. -1.
      622    1    1    2    0    0  0.77202800523E-02  0.18351805696E-01  0.18041413599E+01  0.18046945553E+01  0.40000000000E-01 0.  1.
</event>
<event>
 5   0  0.6200596E+07  0.9118800E+02  0.7818608E-02  0.1180000E+00
       11   -1    0    0    0    0  0.00000000000E+00  0.00000000000E+00  0.39999999673E+01  0.40000000000E+01  0.51109989000E-03 0.  1.
     -623   -1    0    0    0    0  0.00000000000E+00  0.00000000000E+00  0.12525980253E-10  0.17130000000E+03  0.17130000000E+03 0. -1.
       11    1    1    2    0    0 -0.11431909129E-01  0.15366687986E-01  0.14953633827E+01  0.14954861187E+01  0.51109989000E-03 0.  1.
     -623    1    1    2    0    0  0.47828796789E-02  0.16120138751E-02  0.50860878799E-03  0.17130000008E+03  0.17130000000E+03 0. -1.
      622    1    1    2    0    0  0.66490294503E-02 -0.16978701861E-01  0.25041279758E+01  0.25045138062E+01  0.40000000000E-01 0.  1.
</event>
<event>
 5   0  0.6200596E+07  0.9118800E+02  0.7818608E-02  0.1180000E+00
       11   -1    0    0    0    0  0.00000000000E+00  0.00000000000E+00  0.39999999673E+01  0.40000000000E+01  0.51109989000E-03 0. -1.
     -623   -1    0    0    0    0  0.00000000000E+00  0.00000000000E+00  0.12525980253E-10  0.17130000000E+03  0.17130000000E+03 0. -1.
       11    1    1    2    0    0  0.85414715833E-03 -0.25116625969E-03  0.60733498075E-02  0.61595007545E-02  0.51109989000E-03 0. -1.
     -623    1    1    2    0    0  0.34742048809E-03  0.52476150683E-03  0.28662330591E-03  0.17130000000E+03  0.17130000000E+03 0. -1.
      622    1    1    2    0    0 -0.12015676464E-02 -0.27359524715E-03  0.39936399942E+01  0.39938404978E+01  0.40000000000E-01 0. -1.
</event>
<event>
 5   0  0.6200596E+07  0.9118800E+02  0.7818608E-02  0.1180000E+00
       11   -1    0    0    0    0  0.00000000000E+00  0.00000000000E+00  0.39999999673E+01  0.40000000000E+01  0.51109989000E-03 0.  1.
     -623   -1    0    0    0    0  0.00000000000E+00  0.00000000000E+00  0.12525980253E-10  0.17130000000E+03  0.17130000000E+03 0. -1.
       11    1    1    2    0    0 -0.38141994839E-01  0.33002568613E-01  0.95503471598E+00  0.95636580410E+00  0.51109989000E-03 0.  1.
     -623    1    1    2    0    0 -0.42873912981E-02  0.13946193520E-02  0.20841724103E-02  0.17130000007E+03  0.17130000000E+03 0. -1.
      622    1    1    2    0    0  0.42429386137E-01 -0.34397187965E-01  0.30428810790E+01  0.30436341239E+01  0.40000000000E-01 0.  1.
</event>
<event>
 5   0  0.6200596E+07  0.9118800E+02  0.7818608E-02  0.1180000E+00
       11   -1    0    0    0    0  0.00000000000E+00  0.00000000000E+00  0.39999999673E+01  0.40000000000E+01  0.51109989000E-03 0. -1.
     -623   -1    0    0    0    0  0.00000000000E+00  0.00000000000E+00  0.12525980253E-10  0.17130000000E+03  0.17130000000E+03 0. -1.
       11    1    1    2    0    0 -0.17121834254E-01  0.14922703819E-01  0.63631514768E+00  0.63672056091E+00  0.51109989000E-03 0. -1.
     -623    1    1    2    0    0 -0.12077836121E-02  0.42365080663E-03  0.72822505446E-03  0.17130000001E+03  0.17130000000E+03 0. -1.
      622    1    1    2    0    0  0.18329617866E-01 -0.15346354625E-01  0.33629565946E+01  0.33632794328E+01  0.40000000000E-01 0. -1.
</event>
<event>
 5   0  0.6200596E+07  0.9118800E+02  0.7818608E-02  0.1180000E+00
       11   -1    0    0    0    0  0.00000000000E+00  0.00000000000E+00  0.39999999673E+01  0.40000000000E+01  0.51109989000E-03 0.  1.
     -623   -1    0    0    0    0  0.00000000000E+00  0.00000000000E+00  0.12525980253E-10  0.17130000000E+03  0.17130000000E+03 0.  1.
       11    1    1    2    0    0 -0.60124032913E-03 -0.21484895199E-02  0.14983237840E-01  0.15157049013E-01  0.51109989000E-03 0.  1.
     -623    1    1    2    0    0  0.24504730505E-02  0.32596017524E-03  0.37540848227E-03  0.17130000002E+03  0.17130000000E+03 0.  1.
      622    1    1    2    0    0 -0.18492327214E-02  0.18225293447E-02  0.39846413210E+01  0.39848429327E+01  0.40000000000E-01 0.  1.
</event>
<event>
 5   0  0.6200596E+07  0.9118800E+02  0.7818608E-02  0.1180000E+00
       11   -1    0    0    0    0  0.00000000000E+00  0.00000000000E+00  0.39999999673E+01  0.40000000000E+01  0.51109989000E-03 0. -1.
     -623   -1    0    0    0    0  0.00000000000E+00  0.00000000000E+00  0.12525980253E-10  0.17130000000E+03  0.17130000000E+03 0. -1.
       11    1    1    2    0    0  0.23612421961E-02  0.31969621314E-02  0.11692715468E+00  0.11699579802E+00  0.51109989000E-03 0. -1.
     -623    1    1    2    0    0 -0.46300098099E-03 -0.26123072871E-03  0.27621710695E-03  0.17130000000E+03  0.17130000000E+03 0. -1.
      622    1    1    2    0    0 -0.18982412152E-02 -0.29357314027E-02  0.38827965956E+01  0.38830042009E+01  0.40000000000E-01 0. -1.
</event>
<event>
 5   0  0.6200596E+07  0.9118800E+02  0.7818608E-02  0.1180000E+00
       11   -1    0    0    0    0  0.00000000000E+00  0.00000000000E+00  0.39999999673E+01  0.40000000000E+01  0.51109989000E-03 0.  1.
     -623   -1    0    0    0    0  0.00000000000E+00  0.00000000000E+00  0.12525980253E-10  0.17130000000E+03  0.17130000000E+03 0. -1.
       11    1    1    2    0    0  0.85636467025E-03 -0.19304698078E-02  0.48969402662E-01  0.49017585543E-01  0.51109989000E-03 0.  1.
     -623    1    1    2    0    0  0.10847577569E-03  0.37034520014E-03  0.25106318772E-03  0.17130000000E+03  0.17130000000E+03 0. -1.
      622    1    1    2    0    0 -0.96484044594E-03  0.15601246076E-02  0.39507795015E+01  0.39509824138E+01  0.40000000000E-01 0.  1.
</event>
<event>
 5   0  0.6200596E+07  0.9118800E+02  0.7818608E-02  0.1180000E+00
       11   -1    0    0    0    0  0.00000000000E+00  0.00000000000E+00  0.39999999673E+01  0.40000000000E+01  0.51109989000E-03 0. -1.
     -623   -1    0    0    0    0  0.00000000000E+00  0.00000000000E+00  0.12525980253E-10  0.17130000000E+03  0.17130000000E+03 0.  1.
       11    1    1    2    0    0  0.38906117228E-01  0.28326195196E-02  0.20232628184E+01  0.20236389014E+01  0.51109989000E-03 0. -1.
     -623    1    1    2    0    0  0.66738545019E-03 -0.32457278042E-02  0.11772747374E-02  0.17130000004E+03  0.17130000000E+03 0.  1.
      622    1    1    2    0    0 -0.39573502678E-01  0.41310828455E-03  0.19755598742E+01  0.19763610625E+01  0.40000000000E-01 0. -1.
</event>
<event>
 5   0  0.6200596E+07  0.9118800E+02  0.7818608E-02  0.1180000E+00
       11   -1    0    0    0    0  0.00000000000E+00  0.00000000000E+00  0.39999999673E+01  0.40000000000E+01  0.51109989000E-03 0.  1.
     -623   -1    0    0    0    0  0.00000000000E+00  0.00000000000E+00  0.12525980253E-10  0.17130000000E+03  0.17130000000E+03 0. -1.
       11    1    1    2    0    0 -0.19252853572E-01  0.82887692546E-01  0.32484681090E+01  0.32495824899E+01  0.51109989000E-03 0.  1.
     -623    1    1    2    0    0 -0.18021920777E-01  0.60436740988E-02  0.84125207628E-02  0.17130000126E+03  0.17130000000E+03 0. -1.
      622    1    1    2    0    0  0.37274774349E-01 -0.88931366645E-01  0.74311933757E+00  0.75041624893E+00  0.40000000000E-01 0.  1.
</event>
<event>
 5   0  0.6200596E+07  0.9118800E+02  0.7818608E-02  0.1180000E+00
       11   -1    0    0    0    0  0.00000000000E+00  0.00000000000E+00  0.39999999673E+01  0.40000000000E+01  0.51109989000E-03 0.  1.
     -623   -1    0    0    0    0  0.00000000000E+00  0.00000000000E+00  0.12525980253E-10  0.17130000000E+03  0.17130000000E+03 0. -1.
       11    1    1    2    0    0 -0.87727254455E-03 -0.53243515117E-04  0.39924446340E+00  0.39924575793E+00  0.51109989000E-03 0.  1.
     -623    1    1    2    0    0 -0.19058218399E-03  0.38416186743E-03  0.22361865514E-03  0.17130000000E+03  0.17130000000E+03 0. -1.
      622    1    1    2    0    0  0.10678547285E-02 -0.33091835231E-03  0.36005318853E+01  0.36007542414E+01  0.40000000000E-01 0.  1.
</event>
<event>
 5   0  0.6200596E+07  0.9118800E+02  0.7818608E-02  0.1180000E+00
       11   -1    0    0    0    0  0.00000000000E+00  0.00000000000E+00  0.39999999673E+01  0.40000000000E+01  0.51109989000E-03 0. -1.
     -623   -1    0    0    0    0  0.00000000000E+00  0.00000000000E+00  0.12525980253E-10  0.17130000000E+03  0.17130000000E+03 0.  1.
       11    1    1    2    0    0  0.35346039170E-01  0.44191146954E-01  0.99506534161E+00  0.99667321387E+00  0.51109989000E-03 0. -1.
     -623    1    1    2    0    0 -0.29290108114E-01 -0.14704205719E-01  0.20282459205E-02  0.17130000315E+03  0.17130000000E+03 0.  1.
      622    1    1    2    0    0 -0.60559310563E-02 -0.29486941235E-01  0.30029063798E+01  0.30033236389E+01  0.40000000000E-01 0. -1.
</event>
<event>
 5   0  0.6200596E+07  0.9118800E+02  0.7818608E-02  0.1180000E+00
       11   -1    0    0    0    0  0.00000000000E+00  0.00000000000E+00  0.39999999673E+01  0.40000000000E+01  0.51109989000E-03 0.  1.
     -623   -1    0    0    0    0  0.00000000000E+00  0.00000000000E+00  0.12525980253E-10  0.17130000000E+03  0.17130000000E+03 0. -1.
       11    1    1    2    0    0 -0.73550284313E-03 -0.26590102084E-01  0.36767709048E+00  0.36863841170E+00  0.51109989000E-03 0.  1.
     -623    1    1    2    0    0 -0.25467363755E-03  0.32876648758E-02  0.12565408036E-02  0.17130000004E+03  0.17130000000E+03 0. -1.
      622    1    1    2    0    0  0.99017648068E-03  0.23302437209E-01  0.36310663361E+01  0.36313615520E+01  0.40000000000E-01 0.  1.
</event>
<event>
 5   0  0.6200596E+07  0.9118800E+02  0.7818608E-02  0.1180000E+00
       11   -1    0    0    0    0  0.00000000000E+00  0.00000000000E+00  0.39999999673E+01  0.40000000000E+01  0.51109989000E-03 0.  1.
     -623   -1    0    0    0    0  0.00000000000E+00  0.00000000000E+00  0.12525980253E-10  0.17130000000E+03  0.17130000000E+03 0.  1.
       11    1    1    2    0    0  0.38817267149E-01 -0.45654686027E-01  0.12023517967E+01  0.12038443566E+01  0.51109989000E-03 0.  1.
     -623    1    1    2    0    0 -0.12857597714E-01  0.27737829317E-01  0.19593209963E-02  0.17130000274E+03  0.17130000000E+03 0.  1.
      622    1    1    2    0    0 -0.25959669435E-01  0.17916856710E-01  0.27956888497E+01  0.27961529040E+01  0.40000000000E-01 0. -1.
</event>
<event>
 5   0  0.6200596E+07  0.9118800E+02  0.7818608E-02  0.1180000E+00
       11   -1    0    0    0    0  0.00000000000E+00  0.00000000000E+00  0.39999999673E+01  0.40000000000E+01  0.51109989000E-03 0.  1.
     -623   -1    0    0    0    0  0.00000000000E+00  0.00000000000E+00  0.12525980253E-10  0.17130000000E+03  0.17130000000E+03 0. -1.
       11    1    1    2    0    0 -0.10175990758E-01 -0.14919129906E-01  0.12048755129E+01  0.12050109518E+01  0.51109989000E-03 0.  1.
     -623    1    1    2    0    0  0.89826567568E-03 -0.37358885749E-03  0.47889253788E-03  0.17130000000E+03  0.17130000000E+03 0. -1.
      622    1    1    2    0    0  0.92777250825E-02  0.15292718764E-01  0.27946455619E+01  0.27949890448E+01  0.40000000000E-01 0.  1.
</event>
<event>
 5   0  0.6200596E+07  0.9118800E+02  0.7818608E-02  0.1180000E+00
       11   -1    0    0    0    0  0.00000000000E+00  0.00000000000E+00  0.39999999673E+01  0.40000000000E+01  0.51109989000E-03 0.  1.
     -623   -1    0    0    0    0  0.00000000000E+00  0.00000000000E+00  0.12525980253E-10  0.17130000000E+03  0.17130000000E+03 0.  1.
       11    1    1    2    0    0 -0.12153738659E-02 -0.67920166028E-02  0.30157950470E+00  0.30165885948E+00  0.51109989000E-03 0.  1.
     -623    1    1    2    0    0  0.20322660828E-02 -0.69779454315E-03  0.30333019288E-03  0.17130000001E+03  0.17130000000E+03 0.  1.
      622    1    1    2    0    0 -0.81689221690E-03  0.74898111459E-02  0.36981171325E+01  0.36983411268E+01  0.40000000000E-01 0.  1.
</event>
<event>
 5   0  0.6200596E+07  0.9118800E+02  0.7818608E-02  0.1180000E+00
       11   -1    0    0    0    0  0.00000000000E+00  0.00000000000E+00  0.39999999673E+01  0.40000000000E+01  0.51109989000E-03 0.  1.
     -623   -1    0    0    0    0  0.00000000000E+00  0.00000000000E+00  0.12525980253E-10  0.17130000000E+03  0.17130000000E+03 0.  1.
       11    1    1    2    0    0  0.92839449910E-03 -0.36923003537E-03  0.18227717470E-01  0.18262232941E-01  0.51109989000E-03 0.  1.
     -623    1    1    2    0    0  0.40624040732E-03 -0.11352258151E-02  0.23591752989E-03  0.17130000000E+03  0.17130000000E+03 0.  1.
      622    1    1    2    0    0 -0.13346349064E-02  0.15044558504E-02  0.39815363324E+01  0.39817377627E+01  0.40000000000E-01 0.  1.
</event>
<event>
 5   0  0.6200596E+07  0.9118800E+02  0.7818608E-02  0.1180000E+00
       11   -1    0    0    0    0  0.00000000000E+00  0.00000000000E+00  0.39999999673E+01  0.40000000000E+01  0.51109989000E-03 0. -1.
     -623   -1    0    0    0    0  0.00000000000E+00  0.00000000000E+00  0.12525980253E-10  0.17130000000E+03  0.17130000000E+03 0. -1.
       11    1    1    2    0    0 -0.45037246265E-03  0.24155215036E-02  0.22159772626E-01  0.22301442156E-01  0.51109989000E-03 0. -1.
     -623    1    1    2    0    0  0.10031867239E-02 -0.44284671440E-03  0.34329475166E-03  0.17130000000E+03  0.17130000000E+03 0. -1.
      622    1    1    2    0    0 -0.55281426124E-03 -0.19726747892E-02  0.39774969000E+01  0.39776985540E+01  0.40000000000E-01 0. -1.
</event>
<event>
 5   0  0.6200596E+07  0.9118800E+02  0.7818608E-02  0.1180000E+00
       11   -1    0    0    0    0  0.00000000000E+00  0.00000000000E+00  0.39999999673E+01  0.40000000000E+01  0.51109989000E-03 0. -1.
     -623   -1    0    0    0    0  0.00000000000E+00  0.00000000000E+00  0.12525980253E-10  0.17130000000E+03  0.17130000000E+03 0. -1.
       11    1    1    2    0    0  0.22264524251E-02 -0.66596093247E-02  0.24753987616E+00  0.24763997859E+00  0.51109989000E-03 0. -1.
     -623    1    1    2    0    0 -0.60477988719E-03 -0.13677666740E-02  0.32221921421E-03  0.17130000001E+03  0.17130000000E+03 0. -1.
      622    1    1    2    0    0 -0.16216725379E-02  0.80273759988E-02  0.37521378720E+01  0.37523600146E+01  0.40000000000E-01 0. -1.
</event>
<event>
 5   0  0.6200596E+07  0.9118800E+02  0.7818608E-02  0.1180000E+00
       11   -1    0    0    0    0  0.00000000000E+00  0.00000000000E+00  0.39999999673E+01  0.40000000000E+01  0.51109989000E-03 0. -1.
     -623   -1    0    0    0    0  0.00000000000E+00  0.00000000000E+00  0.12525980253E-10  0.17130000000E+03  0.17130000000E+03 0.  1.
       11    1    1    2    0    0 -0.40431226965E-03 -0.39726192150E-03  0.49044830323E-01  0.49050768475E-01  0.51109989000E-03 0. -1.
     -623    1    1    2    0    0 -0.34062934826E-02  0.25706166229E-02  0.21088248905E-03  0.17130000005E+03  0.17130000000E+03 0.  1.
      622    1    1    2    0    0  0.38106057523E-02 -0.21733547014E-02  0.39507442545E+01  0.39509491782E+01  0.40000000000E-01 0. -1.
</event>
<event>
 5   0  0.6200596E+07  0.9118800E+02  0.7818608E-02  0.1180000E+00
       11   -1    0    0    0    0  0.00000000000E+00  0.00000000000E+00  0.39999999673E+01  0.40000000000E+01  0.51109989000E-03 0.  1.
     -623   -1    0    0    0    0  0.00000000000E+00  0.00000000000E+00  0.12525980253E-10  0.17130000000E+03  0.17130000000E+03 0. -1.
       11    1    1    2    0    0  0.24447257412E-01  0.49869462749E-01  0.23171723108E+00  0.23828085973E+00  0.51109989000E-03 0.  1.
     -623    1    1    2    0    0 -0.21978064551E-01 -0.78349068072E-01  0.69043653126E-02  0.17130001947E+03  0.17130000000E+03 0. -1.
      622    1    1    2    0    0 -0.24691928614E-02  0.28479605323E-01  0.37613783710E+01  0.37616996736E+01  0.40000000000E-01 0.  1.
</event>
<event>
 5   0  0.6200596E+07  0.9118800E+02  0.7818608E-02  0.1180000E+00
       11   -1    0    0    0    0  0.00000000000E+00  0.00000000000E+00  0.39999999673E+01  0.40000000000E+01  0.51109989000E-03 0.  1.
     -623   -1    0    0    0    0  0.00000000000E+00  0.00000000000E+00  0.12525980253E-10  0.17130000000E+03  0.17130000000E+03 0.  1.
       11    1    1    2    0    0  0.34310017635E-02  0.34116875134E-02  0.91664659076E+00  0.91665950328E+00  0.51109989000E-03 0.  1.
     -623    1    1    2    0    0 -0.86153476848E-02  0.68438213024E-02  0.29411911558E-03  0.17130000035E+03  0.17130000000E+03 0.  1.
      622    1    1    2    0    0  0.51843459213E-02 -0.10255508816E-01  0.30830592575E+01  0.30833401431E+01  0.40000000000E-01 0.  1.
</event>
<event>
 5   0  0.6200596E+07  0.9118800E+02  0.7818608E-02  0.1180000E+00
       11   -1    0    0    0    0  0.00000000000E+00  0.00000000000E+00  0.39999999673E+01  0.40000000000E+01  0.51109989000E-03 0.  1.
     -623   -1    0    0    0    0  0.00000000000E+00  0.00000000000E+00  0.12525980253E-10  0.17130000000E+03  0.17130000000E+03 0. -1.
       11    1    1    2    0    0  0.82801859924E-02 -0.57171435672E-02  0.14861384198E+01  0.14861725711E+01  0.51109989000E-03 0.  1.
     -623    1    1    2    0    0 -0.25578226827E-02  0.18450184387E-02  0.36190456039E-03  0.17130000003E+03  0.17130000000E+03 0. -1.
      622    1    1    2    0    0 -0.57223633097E-02  0.38721251286E-02  0.25134996430E+01  0.25138273995E+01  0.40000000000E-01 0.  1.
</event>
<event>
 5   0  0.6200596E+07  0.9118800E+02  0.7818608E-02  0.1180000E+00
       11   -1    0    0    0    0  0.00000000000E+00  0.00000000000E+00  0.39999999673E+01  0.40000000000E+01  0.51109989000E-03 0. -1.
     -623   -1    0    0    0    0  0.00000000000E+00  0.00000000000E+00  0.12525980253E-10  0.17130000000E+03  0.17130000000E+03 0.  1.
       11    1    1    2    0    0  0.29122080355E-01  0.13194966060E-02  0.11770397235E+01  0.11774007850E+01  0.51109989000E-03 0. -1.
     -623    1    1    2    0    0  0.18986046395E-02 -0.39667987482E-02  0.81625255232E-03  0.17130000006E+03  0.17130000000E+03 0.  1.
      622    1    1    2    0    0 -0.31020684994E-01  0.26473021423E-02  0.28221439913E+01  0.28225991566E+01  0.40000000000E-01 0. -1.
</event>
<event>
 5   0  0.6200596E+07  0.9118800E+02  0.7818608E-02  0.1180000E+00
       11   -1    0    0    0    0  0.00000000000E+00  0.00000000000E+00  0.39999999673E+01  0.40000000000E+01  0.51109989000E-03 0.  1.
     -623   -1    0    0    0    0  0.00000000000E+00  0.00000000000E+00  0.12525980253E-10  0.17130000000E+03  0.17130000000E+03 0. -1.
       11    1    1    2    0    0  0.14871488902E-02 -0.37946751605E-02  0.47328860799E+00  0.47330643229E+00  0.51109989000E-03 0.  1.
     -623    1    1    2    0    0  0.19037462604E-03  0.26705848088E-03  0.24680419423E-03  0.17130000000E+03  0.17130000000E+03 0. -1.
      622    1    1    2    0    0 -0.16775235163E-02  0.35276166796E-02  0.35264645552E+01  0.35266935672E+01  0.40000000000E-01 0.  1.
</event>
<event>
 5   0  0.6200596E+07  0.9118800E+02  0.7818608E-02  0.1180000E+00
       11   -1    0    0    0    0  0.00000000000E+00  0.00000000000E+00  0.39999999673E+01  0.40000000000E+01  0.51109989000E-03 0.  1.
     -623   -1    0    0    0    0  0.00000000000E+00  0.00000000000E+00  0.12525980253E-10  0.17130000000E+03  0.17130000000E+03 0.  1.
       11    1    1    2    0    0  0.68403771714E-02 -0.20773409793E-01  0.10996632825E+01  0.10998808670E+01  0.51109989000E-03 0.  1.
     -623    1    1    2    0    0 -0.17902928666E-02  0.66516131074E-02  0.53233810497E-03  0.17130000014E+03  0.17130000000E+03 0.  1.
      622    1    1    2    0    0 -0.50500843048E-02  0.14121796686E-01  0.28998043467E+01  0.29001189937E+01  0.40000000000E-01 0.  0.
</event>
<event>
 5   0  0.6200596E+07  0.9118800E+02  0.7818608E-02  0.1180000E+00
       11   -1    0    0    0    0  0.00000000000E+00  0.00000000000E+00  0.39999999673E+01  0.40000000000E+01  0.51109989000E-03 0. -1.
     -623   -1    0    0    0    0  0.00000000000E+00  0.00000000000E+00  0.12525980253E-10  0.17130000000E+03  0.17130000000E+03 0.  1.
       11    1    1    2    0    0 -0.93002728397E-03  0.18824954880E-02  0.82523039463E-01  0.82551329511E-01  0.51109989000E-03 0. -1.
     -623    1    1    2    0    0 -0.31708504988E-02 -0.11949147703E-02  0.23471785901E-03  0.17130000003E+03  0.17130000000E+03 0.  1.
      622    1    1    2    0    0  0.41008777827E-02 -0.68758071774E-03  0.39172422100E+01  0.39174486368E+01  0.40000000000E-01 0. -1.
</event>
<event>
 5   0  0.6200596E+07  0.9118800E+02  0.7818608E-02  0.1180000E+00
       11   -1    0    0    0    0  0.00000000000E+00  0.00000000000E+00  0.39999999673E+01  0.40000000000E+01  0.51109989000E-03 0.  1.
     -623   -1    0    0    0    0  0.00000000000E+00  0.00000000000E+00  0.12525980253E-10  0.17130000000E+03  0.17130000000E+03 0.  1.
       11    1    1    2    0    0 -0.87673834538E-03 -0.31532448766E-05  0.39191941879E+00  0.39192073270E+00  0.51109989000E-03 0.  1.
     -623    1    1    2    0    0 -0.11751254680E-03 -0.24199758242E-03  0.22315839139E-03  0.17130000000E+03  0.17130000000E+03 0.  1.
      622    1    1    2    0    0  0.99425089217E-03  0.24515082730E-03  0.36078573902E+01  0.36080792669E+01  0.40000000000E-01 0.  1.
</event>
<event>
 5   0  0.6200596E+07  0.9118800E+02  0.7818608E-02  0.1180000E+00
       11   -1    0    0    0    0  0.00000000000E+00  0.00000000000E+00  0.39999999673E+01  0.40000000000E+01  0.51109989000E-03 0.  1.
     -623   -1    0    0    0    0  0.00000000000E+00  0.00000000000E+00  0.12525980253E-10  0.17130000000E+03  0.17130000000E+03 0. -1.
       11    1    1    2    0    0  0.28082149242E-01 -0.12384902716E-02  0.17258526620E+01  0.17260816357E+01  0.51109989000E-03 0.  1.
     -623    1    1    2    0    0  0.46537356833E-03 -0.15468220259E-03  0.76044549113E-03  0.17130000000E+03  0.17130000000E+03 0. -1.
      622    1    1    2    0    0 -0.28547522811E-01  0.13931724742E-02  0.22733868599E+01  0.22739183619E+01  0.40000000000E-01 0.  0.
</event>
<event>
 5   0  0.6200596E+07  0.9118800E+02  0.7818608E-02  0.1180000E+00
       11   -1    0    0    0    0  0.00000000000E+00  0.00000000000E+00  0.39999999673E+01  0.40000000000E+01  0.51109989000E-03 0.  1.
     -623   -1    0    0    0    0  0.00000000000E+00  0.00000000000E+00  0.12525980253E-10  0.17130000000E+03  0.17130000000E+03 0.  1.
       11    1    1    2    0    0 -0.26382156471E-01  0.47382515659E-02  0.16536833613E+01  0.16539006590E+01  0.51109989000E-03 0.  1.
     -623    1    1    2    0    0  0.23088750126E-02 -0.20928309552E-02  0.68333180845E-03  0.17130000003E+03  0.17130000000E+03 0.  1.
      622    1    1    2    0    0  0.24073281459E-01 -0.26454206107E-02  0.23456332743E+01  0.23460993113E+01  0.40000000000E-01 0.  0.
</event>
<event>
 5   0  0.6200596E+07  0.9118800E+02  0.7818608E-02  0.1180000E+00
       11   -1    0    0    0    0  0.00000000000E+00  0.00000000000E+00  0.39999999673E+01  0.40000000000E+01  0.51109989000E-03 0.  1.
     -623   -1    0    0    0    0  0.00000000000E+00  0.00000000000E+00  0.12525980253E-10  0.17130000000E+03  0.17130000000E+03 0.  1.
       11    1    1    2    0    0  0.13578966651E-02  0.47668545346E-02  0.13736005110E+00  0.13745039704E+00  0.51109989000E-03 0.  1.
     -623    1    1    2    0    0  0.28774431632E-02  0.73532964241E-04  0.30281561804E-03  0.17130000002E+03  0.17130000000E+03 0.  1.
      622    1    1    2    0    0 -0.42353398283E-02 -0.48403874988E-02  0.38623371006E+01  0.38625495785E+01  0.40000000000E-01 0.  1.
</event>
<event>
 5   0  0.6200596E+07  0.9118800E+02  0.7818608E-02  0.1180000E+00
       11   -1    0    0    0    0  0.00000000000E+00  0.00000000000E+00  0.39999999673E+01  0.40000000000E+01  0.51109989000E-03 0.  1.
     -623   -1    0    0    0    0  0.00000000000E+00  0.00000000000E+00  0.12525980253E-10  0.17130000000E+03  0.17130000000E+03 0.  1.
       11    1    1    2    0    0  0.54295911231E-03  0.30206682918E-04  0.80564603585E-02  0.80909512634E-02  0.51109989000E-03 0.  1.
     -623    1    1    2    0    0  0.54035987855E-03  0.27980141344E-03  0.23502894549E-03  0.17130000000E+03  0.17130000000E+03 0.  1.
      622    1    1    2    0    0 -0.10833189909E-02 -0.31000809636E-03  0.39917084781E+01  0.39919090475E+01  0.40000000000E-01 0.  1.
</event>
<event>
 5   0  0.6200596E+07  0.9118800E+02  0.7818608E-02  0.1180000E+00
       11   -1    0    0    0    0  0.00000000000E+00  0.00000000000E+00  0.39999999673E+01  0.40000000000E+01  0.51109989000E-03 0. -1.
     -623   -1    0    0    0    0  0.00000000000E+00  0.00000000000E+00  0.12525980253E-10  0.17130000000E+03  0.17130000000E+03 0.  1.
       11    1    1    2    0    0 -0.16122506239E-02  0.18908716919E-02  0.50481685790E+00  0.50482323242E+00  0.51109989000E-03 0. -1.
     -623    1    1    2    0    0  0.89579635729E-02 -0.64986411710E-02  0.24635104010E-03  0.17130000036E+03  0.17130000000E+03 0.  1.
      622    1    1    2    0    0 -0.73457129489E-02  0.46077694791E-02  0.34949367584E+01  0.34951764099E+01  0.40000000000E-01 0. -1.
</event>
<event>
 5   0  0.6200596E+07  0.9118800E+02  0.7818608E-02  0.1180000E+00
       11   -1    0    0    0    0  0.00000000000E+00  0.00000000000E+00  0.39999999673E+01  0.40000000000E+01  0.51109989000E-03 0.  1.
     -623   -1    0    0    0    0  0.00000000000E+00  0.00000000000E+00  0.12525980253E-10  0.17130000000E+03  0.17130000000E+03 0.  1.
       11    1    1    2    0    0  0.18219544721E-02 -0.27086499097E-02  0.52266857154E-01  0.52371193226E-01  0.51109989000E-03 0.  1.
     -623    1    1    2    0    0 -0.55426072149E-02 -0.12564588873E-02  0.31080138694E-03  0.17130000009E+03  0.17130000000E+03 0.  1.
      622    1    1    2    0    0  0.37206527428E-02  0.39651087970E-02  0.39474223088E+01  0.39476287122E+01  0.40000000000E-01 0.  1.
</event>
<event>
 5   0  0.6200596E+07  0.9118800E+02  0.7818608E-02  0.1180000E+00
       11   -1    0    0    0    0  0.00000000000E+00  0.00000000000E+00  0.39999999673E+01  0.40000000000E+01  0.51109989000E-03 0.  1.
     -623   -1    0    0    0    0  0.00000000000E+00  0.00000000000E+00  0.12525980253E-10  0.17130000000E+03  0.17130000000E+03 0.  1.
       11    1    1    2    0    0  0.19047838778E-01 -0.52759227678E-02  0.79998635570E-01  0.82405694203E-01  0.51109989000E-03 0.  1.
     -623    1    1    2    0    0 -0.23975443294E-02 -0.21575961774E-02  0.26537270548E-02  0.17130000005E+03  0.17130000000E+03 0.  1.
      622    1    1    2    0    0 -0.16650294449E-01  0.74335189452E-02  0.39173476047E+01  0.39175942549E+01  0.40000000000E-01 0.  1.
</event>
<event>
 5   0  0.6200596E+07  0.9118800E+02  0.7818608E-02  0.1180000E+00
       11   -1    0    0    0    0  0.00000000000E+00  0.00000000000E+00  0.39999999673E+01  0.40000000000E+01  0.51109989000E-03 0. -1.
     -623   -1    0    0    0    0  0.00000000000E+00  0.00000000000E+00  0.12525980253E-10  0.17130000000E+03  0.17130000000E+03 0.  1.
       11    1    1    2    0    0 -0.69074574638E-03 -0.19490003531E-02  0.39826084563E-01  0.39883003457E-01  0.51109989000E-03 0. -1.
     -623    1    1    2    0    0 -0.17906913416E-02 -0.35551660404E-03  0.26036361949E-03  0.17130000001E+03  0.17130000000E+03 0.  1.
      622    1    1    2    0    0  0.24814370879E-02  0.23045169572E-02  0.39599135192E+01  0.39601169866E+01  0.40000000000E-01 0. -1.
</event>
<event>
 5   0  0.6200596E+07  0.9118800E+02  0.7818608E-02  0.1180000E+00
       11   -1    0    0    0    0  0.00000000000E+00  0.00000000000E+00  0.39999999673E+01  0.40000000000E+01  0.51109989000E-03 0.  1.
     -623   -1    0    0    0    0  0.00000000000E+00  0.00000000000E+00  0.12525980253E-10  0.17130000000E+03  0.17130000000E+03 0. -1.
       11    1    1    2    0    0  0.54583299780E-02 -0.13431213359E-03  0.51846195556E+00  0.51849095651E+00  0.51109989000E-03 0.  1.
     -623    1    1    2    0    0 -0.13122199525E-02  0.31501183346E-03  0.26124047468E-03  0.17130000001E+03  0.17130000000E+03 0. -1.
      622    1    1    2    0    0 -0.41461100255E-02 -0.18069969986E-03  0.34812767713E+01  0.34815090380E+01  0.40000000000E-01 0.  1.
</event>
<event>
 5   0  0.6200596E+07  0.9118800E+02  0.7818608E-02  0.1180000E+00
       11   -1    0    0    0    0  0.00000000000E+00  0.00000000000E+00  0.39999999673E+01  0.40000000000E+01  0.51109989000E-03 0.  1.
     -623   -1    0    0    0    0  0.00000000000E+00  0.00000000000E+00  0.12525980253E-10  0.17130000000E+03  0.17130000000E+03 0. -1.
       11    1    1    2    0    0  0.44132277544E-02  0.30285772192E-01  0.43162226350E+00  0.43270630241E+00  0.51109989000E-03 0.  1.
     -623    1    1    2    0    0 -0.32999000182E-02 -0.24737667236E-01  0.13145845212E-02  0.17130000182E+03  0.17130000000E+03 0. -1.
      622    1    1    2    0    0 -0.11133277362E-02 -0.55481049558E-02  0.35670631193E+01  0.35672918746E+01  0.40000000000E-01 0.  0.
</event>
<event>
 5   0  0.6200596E+07  0.9118800E+02  0.7818608E-02  0.1180000E+00
       11   -1    0    0    0    0  0.00000000000E+00  0.00000000000E+00  0.39999999673E+01  0.40000000000E+01  0.51109989000E-03 0.  1.
     -623   -1    0    0    0    0  0.00000000000E+00  0.00000000000E+00  0.12525980253E-10  0.17130000000E+03  0.17130000000E+03 0.  1.
       11    1    1    2    0    0 -0.83881034292E-03 -0.61470223194E-04  0.18857473713E-01  0.18883138444E-01  0.51109989000E-03 0.  1.
     -623    1    1    2    0    0  0.14765916767E-02 -0.77110199707E-03  0.22673219911E-03  0.17130000001E+03  0.17130000000E+03 0.  1.
      622    1    1    2    0    0 -0.63778133376E-03  0.83257222026E-03  0.39809157614E+01  0.39811168533E+01  0.40000000000E-01 0.  1.
</event>
<event>
 5   0  0.6200596E+07  0.9118800E+02  0.7818608E-02  0.1180000E+00
       11   -1    0    0    0    0  0.00000000000E+00  0.00000000000E+00  0.39999999673E+01  0.40000000000E+01  0.51109989000E-03 0. -1.
     -623   -1    0    0    0    0  0.00000000000E+00  0.00000000000E+00  0.12525980253E-10  0.17130000000E+03  0.17130000000E+03 0. -1.
       11    1    1    2    0    0 -0.10964155419E-02 -0.28425676008E-02  0.63058466644E-01  0.63134093442E-01  0.51109989000E-03 0. -1.
     -623    1    1    2    0    0  0.14985812369E-02 -0.21104382828E-02  0.28196293444E-03  0.17130000002E+03  0.17130000000E+03 0. -1.
      622    1    1    2    0    0 -0.40216569503E-03  0.49530058835E-02  0.39366595378E+01  0.39368658868E+01  0.40000000000E-01 0. -1.
</event>
<event>
 5   0  0.6200596E+07  0.9118800E+02  0.7818608E-02  0.1180000E+00
       11   -1    0    0    0    0  0.00000000000E+00  0.00000000000E+00  0.39999999673E+01  0.40000000000E+01  0.51109989000E-03 0.  1.
     -623   -1    0    0    0    0  0.00000000000E+00  0.00000000000E+00  0.12525980253E-10  0.17130000000E+03  0.17130000000E+03 0. -1.
       11    1    1    2    0    0 -0.62044220642E-02 -0.62871406963E-02  0.60704811870E-01  0.61346217473E-01  0.51109989000E-03 0.  1.
     -623    1    1    2    0    0 -0.59340519115E-04  0.55270285976E-03  0.85365201986E-03  0.17130000000E+03  0.17130000000E+03 0. -1.
      622    1    1    2    0    0  0.62637625834E-02  0.57344378366E-02  0.39384415035E+01  0.39386537795E+01  0.40000000000E-01 0.  1.
</event>
<event>
 5   0  0.6200596E+07  0.9118800E+02  0.7818608E-02  0.1180000E+00
       11   -1    0    0    0    0  0.00000000000E+00  0.00000000000E+00  0.39999999673E+01  0.40000000000E+01  0.51109989000E-03 0. -1.
     -623   -1    0    0    0    0  0.00000000000E+00  0.00000000000E+00  0.12525980253E-10  0.17130000000E+03  0.17130000000E+03 0.  1.
       11    1    1    2    0    0  0.63146510030E-02 -0.21840428076E-01  0.27521093468E+00  0.27614887091E+00  0.51109989000E-03 0. -1.
     -623    1    1    2    0    0 -0.31032401224E-02  0.55063133750E-02  0.11900725449E-02  0.17130000012E+03  0.17130000000E+03 0.  1.
      622    1    1    2    0    0 -0.32114108807E-02  0.16334114701E-01  0.37235989601E+01  0.37238510084E+01  0.40000000000E-01 0. -1.
</event>
<event>
 5   0  0.6200596E+07  0.9118800E+02  0.7818608E-02  0.1180000E+00
       11   -1    0    0    0    0  0.00000000000E+00  0.00000000000E+00  0.39999999673E+01  0.40000000000E+01  0.51109989000E-03 0. -1.
     -623   -1    0    0    0    0  0.00000000000E+00  0.00000000000E+00  0.12525980253E-10  0.17130000000E+03  0.17130000000E+03 0. -1.
       11    1    1    2    0    0  0.25883759499E-02 -0.79754015255E-02  0.60057158204E+00  0.60063032981E+00  0.51109989000E-03 0. -1.
     -623    1    1    2    0    0 -0.10522688924E-02  0.13904630306E-02  0.30079557119E-03  0.17130000001E+03  0.17130000000E+03 0. -1.
      622    1    1    2    0    0 -0.15361070575E-02  0.65849384949E-02  0.33991275898E+01  0.33993696610E+01  0.40000000000E-01 0. -1.
</event>
<event>
 5   0  0.6200596E+07  0.9118800E+02  0.7818608E-02  0.1180000E+00
       11   -1    0    0    0    0  0.00000000000E+00  0.00000000000E+00  0.39999999673E+01  0.40000000000E+01  0.51109989000E-03 0. -1.
     -623   -1    0    0    0    0  0.00000000000E+00  0.00000000000E+00  0.12525980253E-10  0.17130000000E+03  0.17130000000E+03 0.  1.
       11    1    1    2    0    0  0.26177711433E-02  0.12381825984E-02  0.11644596274E+01  0.11644633403E+01  0.51109989000E-03 0. -1.
     -623    1    1    2    0    0 -0.18699562338E-03 -0.17597892460E-03  0.28706923879E-03  0.17130000000E+03  0.17130000000E+03 0.  1.
      622    1    1    2    0    0 -0.24307755199E-02 -0.10622036738E-02  0.28352532707E+01  0.28355366593E+01  0.40000000000E-01 0. -1.
</event>
<event>
 5   0  0.6200596E+07  0.9118800E+02  0.7818608E-02  0.1180000E+00
       11   -1    0    0    0    0  0.00000000000E+00  0.00000000000E+00  0.39999999673E+01  0.40000000000E+01  0.51109989000E-03 0.  1.
     -623   -1    0    0    0    0  0.00000000000E+00  0.00000000000E+00  0.12525980253E-10  0.17130000000E+03  0.17130000000E+03 0. -1.
       11    1    1    2    0    0 -0.33826945670E-01  0.83820480716E-02  0.31154660794E+00  0.31349014518E+00  0.51109989000E-03 0.  1.
     -623    1    1    2    0    0  0.47902952403E-01 -0.20076015164E-02  0.21996286273E-02  0.17130000672E+03  0.17130000000E+03 0. -1.
      622    1    1    2    0    0 -0.14076006733E-01 -0.63744465552E-02  0.36862537308E+01  0.36865031311E+01  0.40000000000E-01 0.  1.
</event>
<event>
 5   0  0.6200596E+07  0.9118800E+02  0.7818608E-02  0.1180000E+00
       11   -1    0    0    0    0  0.00000000000E+00  0.00000000000E+00  0.39999999673E+01  0.40000000000E+01  0.51109989000E-03 0.  1.
     -623   -1    0    0    0    0  0.00000000000E+00  0.00000000000E+00  0.12525980253E-10  0.17130000000E+03  0.17130000000E+03 0.  1.
       11    1    1    2    0    0 -0.46039464235E-02  0.48134799292E-02  0.11194913427E+00  0.11214827594E+00  0.51109989000E-03 0.  1.
     -623    1    1    2    0    0 -0.56757357436E-02  0.50482837909E-02  0.43115156191E-03  0.17130000017E+03  0.17130000000E+03 0.  1.
      622    1    1    2    0    0  0.10279682167E-01 -0.98617637201E-02  0.38876196815E+01  0.38878515551E+01  0.40000000000E-01 0.  0.
</event>
<event>
 5   0  0.6200596E+07  0.9118800E+02  0.7818608E-02  0.1180000E+00
       11   -1    0    0    0    0  0.00000000000E+00  0.00000000000E+00  0.39999999673E+01  0.40000000000E+01  0.51109989000E-03 0. -1.
     -623   -1    0    0    0    0  0.00000000000E+00  0.00000000000E+00  0.12525980253E-10  0.17130000000E+03  0.17130000000E+03 0.  1.
       11    1    1    2    0    0  0.47629804197E-01  0.17015595266E-01  0.15009858948E+00  0.15839184485E+00  0.51109989000E-03 0. -1.
     -623    1    1    2    0    0  0.12584139289E-01 -0.18796051296E-01  0.89755718253E-02  0.17130000173E+03  0.17130000000E+03 0.  1.
      622    1    1    2    0    0 -0.60213943486E-01  0.17804560302E-02  0.38409258061E+01  0.38416064266E+01  0.40000000000E-01 0. -1.
</event>
<event>
 5   0  0.6200596E+07  0.9118800E+02  0.7818608E-02  0.1180000E+00
       11   -1    0    0    0    0  0.00000000000E+00  0.00000000000E+00  0.39999999673E+01  0.40000000000E+01  0.51109989000E-03 0.  1.
     -623   -1    0    0    0    0  0.00000000000E+00  0.00000000000E+00  0.12525980253E-10  0.17130000000E+03  0.17130000000E+03 0. -1.
       11    1    1    2    0    0 -0.28401805789E-02 -0.17970374627E-02  0.20798635824E+01  0.20798663608E+01  0.51109989000E-03 0.  1.
     -623    1    1    2    0    0 -0.46239189459E-03  0.26140365475E-04  0.42308732839E-03  0.17130000000E+03  0.17130000000E+03 0. -1.
      622    1    1    2    0    0  0.33025724734E-02  0.17708970973E-02  0.19197132976E+01  0.19201336381E+01  0.40000000000E-01 0.  1.
</event>
<event>
 5   0  0.6200596E+07  0.9118800E+02  0.7818608E-02  0.1180000E+00
       11   -1    0    0    0    0  0.00000000000E+00  0.00000000000E+00  0.39999999673E+01  0.40000000000E+01  0.51109989000E-03 0. -1.
     -623   -1    0    0    0    0  0.00000000000E+00  0.00000000000E+00  0.12525980253E-10  0.17130000000E+03  0.17130000000E+03 0.  1.
       11    1    1    2    0    0  0.71030163645E-03  0.38563984160E-02  0.21025178416E-01  0.21393823581E-01  0.51109989000E-03 0. -1.
     -623    1    1    2    0    0 -0.18929725313E-03 -0.24481408931E-02  0.56999495620E-03  0.17130000002E+03  0.17130000000E+03 0.  1.
      622    1    1    2    0    0 -0.52100438331E-03 -0.14082575230E-02  0.39784047940E+01  0.39786061579E+01  0.40000000000E-01 0.  0.
</event>
<event>
 5   0  0.6200596E+07  0.9118800E+02  0.7818608E-02  0.1180000E+00
       11   -1    0    0    0    0  0.00000000000E+00  0.00000000000E+00  0.39999999673E+01  0.40000000000E+01  0.51109989000E-03 0.  1.
     -623   -1    0    0    0    0  0.00000000000E+00  0.00000000000E+00  0.12525980253E-10  0.17130000000E+03  0.17130000000E+03 0.  1.
       11    1    1    2    0    0 -0.72133127104E-03  0.12324368467E-01  0.96098307227E+00  0.96106250410E+00  0.51109989000E-03 0.  1.
     -623    1    1    2    0    0  0.21553985567E-02 -0.75271374804E-03  0.36504773939E-03  0.17130000002E+03  0.17130000000E+03 0.  1.
      622    1    1    2    0    0 -0.14340672856E-02 -0.11571654719E-01  0.30386518474E+01  0.30389374803E+01  0.40000000000E-01 0.  1.
</event>
<event>
 5   0  0.6200596E+07  0.9118800E+02  0.7818608E-02  0.1180000E+00
       11   -1    0    0    0    0  0.00000000000E+00  0.00000000000E+00  0.39999999673E+01  0.40000000000E+01  0.51109989000E-03 0.  1.
     -623   -1    0    0    0    0  0.00000000000E+00  0.00000000000E+00  0.12525980253E-10  0.17130000000E+03  0.17130000000E+03 0. -1.
       11    1    1    2    0    0  0.24948339151E-02 -0.43986970772E-02  0.25942848008E-01  0.26436060917E-01  0.51109989000E-03 0.  1.
     -623    1    1    2    0    0 -0.28917660851E-02  0.19813575128E-02  0.69530841181E-03  0.17130000004E+03  0.17130000000E+03 0. -1.
      622    1    1    2    0    0  0.39693216995E-03  0.24173395644E-02  0.39733618109E+01  0.39735639018E+01  0.40000000000E-01 0.  1.
</event>
<event>
 5   0  0.6200596E+07  0.9118800E+02  0.7818608E-02  0.1180000E+00
       11   -1    0    0    0    0  0.00000000000E+00  0.00000000000E+00  0.39999999673E+01  0.40000000000E+01  0.51109989000E-03 0. -1.
     -623   -1    0    0    0    0  0.00000000000E+00  0.00000000000E+00  0.12525980253E-10  0.17130000000E+03  0.17130000000E+03 0.  1.
       11    1    1    2    0    0  0.25818664978E-02 -0.37850889399E-03  0.22657479603E-01  0.22812976737E-01  0.51109989000E-03 0. -1.
     -623    1    1    2    0    0 -0.58894435864E-03 -0.10144945582E-02  0.35736446320E-03  0.17130000000E+03  0.17130000000E+03 0.  1.
      622    1    1    2    0    0 -0.19929221391E-02  0.13930034522E-02  0.39769851233E+01  0.39771870189E+01  0.40000000000E-01 0. -1.
</event>
<event>
 5   0  0.6200596E+07  0.9118800E+02  0.7818608E-02  0.1180000E+00
       11   -1    0    0    0    0  0.00000000000E+00  0.00000000000E+00  0.39999999673E+01  0.40000000000E+01  0.51109989000E-03 0. -1.
     -623   -1    0    0    0    0  0.00000000000E+00  0.00000000000E+00  0.12525980253E-10  0.17130000000E+03  0.17130000000E+03 0. -1.
       11    1    1    2    0    0  0.12623046051E-01 -0.36767676525E-03  0.95502682325E-01  0.96335351929E-01  0.51109989000E-03 0. -1.
     -623    1    1    2    0    0 -0.13795726078E-01  0.41629295145E-02  0.10402084490E-02  0.17130000061E+03  0.17130000000E+03 0. -1.
      622    1    1    2    0    0  0.11726800267E-02 -0.37952527493E-02  0.39034570766E+01  0.39036640388E+01  0.40000000000E-01 0. -1.
</event>
<event>
 5   0  0.6200596E+07  0.9118800E+02  0.7818608E-02  0.1180000E+00
       11   -1    0    0    0    0  0.00000000000E+00  0.00000000000E+00  0.39999999673E+01  0.40000000000E+01  0.51109989000E-03 0.  1.
     -623   -1    0    0    0    0  0.00000000000E+00  0.00000000000E+00  0.12525980253E-10  0.17130000000E+03  0.17130000000E+03 0.  1.
       11    1    1    2    0    0  0.11021727743E-01  0.10099543996E-01  0.27581278427E+00  0.27621808858E+00  0.51109989000E-03 0.  1.
     -623    1    1    2    0    0  0.84063123304E-02  0.13521747582E-01  0.74646424143E-03  0.17130000074E+03  0.17130000000E+03 0.  1.
      622    1    1    2    0    0 -0.19428040074E-01 -0.23621291578E-01  0.37234407188E+01  0.37237811698E+01  0.40000000000E-01 0.  1.
</event>
<event>
 5   0  0.6200596E+07  0.9118800E+02  0.7818608E-02  0.1180000E+00
       11   -1    0    0    0    0  0.00000000000E+00  0.00000000000E+00  0.39999999673E+01  0.40000000000E+01  0.51109989000E-03 0. -1.
     -623   -1    0    0    0    0  0.00000000000E+00  0.00000000000E+00  0.12525980253E-10  0.17130000000E+03  0.17130000000E+03 0. -1.
       11    1    1    2    0    0 -0.27573549980E-02  0.19144356422E-02  0.11245690088E+00  0.11250815013E+00  0.51109989000E-03 0. -1.
     -623    1    1    2    0    0 -0.10099268582E-01 -0.42992479011E-02  0.27935446814E-03  0.17130000035E+03  0.17130000000E+03 0. -1.
      622    1    1    2    0    0  0.12856623580E-01  0.23848122589E-02  0.38872637120E+01  0.38874914980E+01  0.40000000000E-01 0. -1.
</event>
<event>
 5   0  0.6200596E+07  0.9118800E+02  0.7818608E-02  0.1180000E+00
       11   -1    0    0    0    0  0.00000000000E+00  0.00000000000E+00  0.39999999673E+01  0.40000000000E+01  0.51109989000E-03 0.  1.
     -623   -1    0    0    0    0  0.00000000000E+00  0.00000000000E+00  0.12525980253E-10  0.17130000000E+03  0.17130000000E+03 0. -1.
       11    1    1    2    0    0  0.67101650357E-03 -0.12699050605E-02  0.23042494849E-01  0.23092871480E-01  0.51109989000E-03 0.  1.
     -623    1    1    2    0    0  0.20865269679E-02  0.10269483209E-02  0.25248989581E-03  0.17130000002E+03  0.17130000000E+03 0. -1.
      622    1    1    2    0    0 -0.27575434715E-02  0.24295673963E-03  0.39767049826E+01  0.39769071125E+01  0.40000000000E-01 0.  1.
</event>
<event>
 5   0  0.6200596E+07  0.9118800E+02  0.7818608E-02  0.1180000E+00
       11   -1    0    0    0    0  0.00000000000E+00  0.00000000000E+00  0.39999999673E+01  0.40000000000E+01  0.51109989000E-03 0. -1.
     -623   -1    0    0    0    0  0.00000000000E+00  0.00000000000E+00  0.12525980253E-10  0.17130000000E+03  0.17130000000E+03 0. -1.
       11    1    1    2    0    0 -0.43644635102E-01  0.32940029589E-03  0.21281339090E+01  0.21285814898E+01  0.51109989000E-03 0. -1.
     -623    1    1    2    0    0  0.44249634655E-02 -0.62277310733E-02  0.12956609769E-02  0.17130000018E+03  0.17130000000E+03 0. -1.
      622    1    1    2    0    0  0.39219671636E-01  0.58983307774E-02  0.18705703973E+01  0.18714183349E+01  0.40000000000E-01 0.  1.
</event>
<event>
 5   0  0.6200596E+07  0.9118800E+02  0.7818608E-02  0.1180000E+00
       11   -1    0    0    0    0  0.00000000000E+00  0.00000000000E+00  0.39999999673E+01  0.40000000000E+01  0.51109989000E-03 0. -1.
     -623   -1    0    0    0    0  0.00000000000E+00  0.00000000000E+00  0.12525980253E-10  0.17130000000E+03  0.17130000000E+03 0. -1.
       11    1    1    2    0    0 -0.19072070153E-01 -0.30677512778E-01  0.73042411507E+00  0.73131696462E+00  0.51109989000E-03 0. -1.
     -623    1    1    2    0    0  0.82866197168E-01 -0.37621186790E-01  0.24982243255E-02  0.17130002419E+03  0.17130000000E+03 0. -1.
      622    1    1    2    0    0 -0.63794127015E-01  0.68298699568E-01  0.32670776280E+01  0.32686588427E+01  0.40000000000E-01 0. -1.
</event>
<event>
 5   0  0.6200596E+07  0.9118800E+02  0.7818608E-02  0.1180000E+00
       11   -1    0    0    0    0  0.00000000000E+00  0.00000000000E+00  0.39999999673E+01  0.40000000000E+01  0.51109989000E-03 0. -1.
     -623   -1    0    0    0    0  0.00000000000E+00  0.00000000000E+00  0.12525980253E-10  0.17130000000E+03  0.17130000000E+03 0. -1.
       11    1    1    2    0    0  0.13044287545E-02 -0.72077387356E-03  0.68211399877E-02  0.70007301164E-02  0.51109989000E-03 0. -1.
     -623    1    1    2    0    0 -0.42044185080E-03  0.13890607797E-02  0.38007351709E-03  0.17130000001E+03  0.17130000000E+03 0. -1.
      622    1    1    2    0    0 -0.88398690370E-03 -0.66828690614E-03  0.39927987539E+01  0.39929992633E+01  0.40000000000E-01 0. -1.
</event>
<event>
 5   0  0.6200596E+07  0.9118800E+02  0.7818608E-02  0.1180000E+00
       11   -1    0    0    0    0  0.00000000000E+00  0.00000000000E+00  0.39999999673E+01  0.40000000000E+01  0.51109989000E-03 0. -1.
     -623   -1    0    0    0    0  0.00000000000E+00  0.00000000000E+00  0.12525980253E-10  0.17130000000E+03  0.17130000000E+03 0.  1.
       11    1    1    2    0    0 -0.13359630231E-01 -0.13949116462E-01  0.80566217080E+00  0.80589382195E+00  0.51109989000E-03 0. -1.
     -623    1    1    2    0    0  0.14318607197E-01  0.62625421985E-02  0.49219683098E-03  0.17130000071E+03  0.17130000000E+03 0.  1.
      622    1    1    2    0    0 -0.95897696617E-03  0.76865742640E-02  0.31938455997E+01  0.31941054644E+01  0.40000000000E-01 0. -1.
</event>
<event>
 5   0  0.6200596E+07  0.9118800E+02  0.7818608E-02  0.1180000E+00
       11   -1    0    0    0    0  0.00000000000E+00  0.00000000000E+00  0.39999999673E+01  0.40000000000E+01  0.51109989000E-03 0. -1.
     -623   -1    0    0    0    0  0.00000000000E+00  0.00000000000E+00  0.12525980253E-10  0.17130000000E+03  0.17130000000E+03 0. -1.
       11    1    1    2    0    0  0.25218906393E-02  0.12970303098E-01  0.56917884416E+00  0.56933242183E+00  0.51109989000E-03 0. -1.
     -623    1    1    2    0    0 -0.68734205958E-03 -0.41176477647E-03  0.41022460858E-03  0.17130000000E+03  0.17130000000E+03 0. -1.
      622    1    1    2    0    0 -0.18345485798E-02 -0.12558538321E-01  0.34304108986E+01  0.34306675758E+01  0.40000000000E-01 0. -1.
</event>
<event>
 5   0  0.6200596E+07  0.9118800E+02  0.7818608E-02  0.1180000E+00
       11   -1    0    0    0    0  0.00000000000E+00  0.00000000000E+00  0.39999999673E+01  0.40000000000E+01  0.51109989000E-03 0. -1.
     -623   -1    0    0    0    0  0.00000000000E+00  0.00000000000E+00  0.12525980253E-10  0.17130000000E+03  0.17130000000E+03 0. -1.
       11    1    1    2    0    0  0.55086751856E-03 -0.70024285986E-03  0.23755989054E-01  0.23778183984E-01  0.51109989000E-03 0. -1.
     -623    1    1    2    0    0 -0.89867406749E-03  0.21923021821E-03  0.22341035115E-03  0.17130000000E+03  0.17130000000E+03 0. -1.
      622    1    1    2    0    0  0.34780654894E-03  0.48101264165E-03  0.39760205680E+01  0.39762218134E+01  0.40000000000E-01 0. -1.
</event>
<event>
 5   0  0.6200596E+07  0.9118800E+02  0.7818608E-02  0.1180000E+00
       11   -1    0    0    0    0  0.00000000000E+00  0.00000000000E+00  0.39999999673E+01  0.40000000000E+01  0.51109989000E-03 0.  1.
     -623   -1    0    0    0    0  0.00000000000E+00  0.00000000000E+00  0.12525980253E-10  0.17130000000E+03  0.17130000000E+03 0. -1.
       11    1    1    2    0    0  0.10876074222E-01  0.16763321436E-04  0.57649377783E+00  0.57659658894E+00  0.51109989000E-03 0.  1.
     -623    1    1    2    0    0 -0.22718197379E-03  0.46018228773E-03  0.35306985222E-03  0.17130000000E+03  0.17130000000E+03 0. -1.
      622    1    1    2    0    0 -0.10648892248E-01 -0.47694560916E-03  0.34231531197E+01  0.34234034099E+01  0.40000000000E-01 0.  1.
</event>
<event>
 5   0  0.6200596E+07  0.9118800E+02  0.7818608E-02  0.1180000E+00
       11   -1    0    0    0    0  0.00000000000E+00  0.00000000000E+00  0.39999999673E+01  0.40000000000E+01  0.51109989000E-03 0. -1.
     -623   -1    0    0    0    0  0.00000000000E+00  0.00000000000E+00  0.12525980253E-10  0.17130000000E+03  0.17130000000E+03 0.  1.
       11    1    1    2    0    0 -0.84261877500E-02  0.32860486357E-01  0.11557652852E+01  0.11562631482E+01  0.51109989000E-03 0. -1.
     -623    1    1    2    0    0  0.32010144189E-01 -0.15224149473E-01  0.93533693195E-03  0.17130000367E+03  0.17130000000E+03 0.  1.
      622    1    1    2    0    0 -0.23583956439E-01 -0.17636336884E-01  0.28432993452E+01  0.28437331819E+01  0.40000000000E-01 0. -1.
</event>
<event>
 5   0  0.6200596E+07  0.9118800E+02  0.7818608E-02  0.1180000E+00
       11   -1    0    0    0    0  0.00000000000E+00  0.00000000000E+00  0.39999999673E+01  0.40000000000E+01  0.51109989000E-03 0.  1.
     -623   -1    0    0    0    0  0.00000000000E+00  0.00000000000E+00  0.12525980253E-10  0.17130000000E+03  0.17130000000E+03 0.  1.
       11    1    1    2    0    0  0.75486674756E-02 -0.34101610658E-02  0.10619408429E+00  0.10651786864E+00  0.51109989000E-03 0.  1.
     -623    1    1    2    0    0 -0.37867080115E-02 -0.21001952419E-02  0.53500138364E-03  0.17130000006E+03  0.17130000000E+03 0.  1.
      622    1    1    2    0    0 -0.37619594641E-02  0.55103563078E-02  0.38932708817E+01  0.38934820758E+01  0.40000000000E-01 0.  1.
</event>
<event>
 5   0  0.6200596E+07  0.9118800E+02  0.7818608E-02  0.1180000E+00
       11   -1    0    0    0    0  0.00000000000E+00  0.00000000000E+00  0.39999999673E+01  0.40000000000E+01  0.51109989000E-03 0.  1.
     -623   -1    0    0    0    0  0.00000000000E+00  0.00000000000E+00  0.12525980253E-10  0.17130000000E+03  0.17130000000E+03 0.  1.
       11    1    1    2    0    0 -0.33812808998E-02  0.32397135944E-02  0.68951823345E-01  0.69112545681E-01  0.51109989000E-03 0.  1.
     -623    1    1    2    0    0 -0.72529942633E-03 -0.95896936378E-04  0.36761571446E-03  0.17130000000E+03  0.17130000000E+03 0.  1.
      622    1    1    2    0    0  0.41065803262E-02 -0.31438166581E-02  0.39306805283E+01  0.39308874524E+01  0.40000000000E-01 0.  1.
</event>
<event>
 5   0  0.6200596E+07  0.9118800E+02  0.7818608E-02  0.1180000E+00
       11   -1    0    0    0    0  0.00000000000E+00  0.00000000000E+00  0.39999999673E+01  0.40000000000E+01  0.51109989000E-03 0. -1.
     -623   -1    0    0    0    0  0.00000000000E+00  0.00000000000E+00  0.12525980253E-10  0.17130000000E+03  0.17130000000E+03 0.  1.
       11    1    1    2    0    0  0.18741814895E-03 -0.10955463441E-02  0.31268127876E-02  0.33576073984E-02  0.51109989000E-03 0. -1.
     -623    1    1    2    0    0 -0.33727314810E-02  0.10086352142E-02  0.43224207659E-03  0.17130000004E+03  0.17130000000E+03 0.  1.
      622    1    1    2    0    0  0.31853133320E-02  0.86911129902E-04  0.39964409125E+01  0.39966423559E+01  0.40000000000E-01 0. -1.
</event>
<event>
 5   0  0.6200596E+07  0.9118800E+02  0.7818608E-02  0.1180000E+00
       11   -1    0    0    0    0  0.00000000000E+00  0.00000000000E+00  0.39999999673E+01  0.40000000000E+01  0.51109989000E-03 0. -1.
     -623   -1    0    0    0    0  0.00000000000E+00  0.00000000000E+00  0.12525980253E-10  0.17130000000E+03  0.17130000000E+03 0.  1.
       11    1    1    2    0    0 -0.10486036050E-02  0.56219771901E-03  0.18206676948E-01  0.18252669485E-01  0.51109989000E-03 0. -1.
     -623    1    1    2    0    0 -0.25111856980E-03 -0.29556785917E-03  0.24710346739E-03  0.17130000000E+03  0.17130000000E+03 0.  1.
      622    1    1    2    0    0  0.12997221749E-02 -0.26662985984E-03  0.39815461869E+01  0.39817473299E+01  0.40000000000E-01 0. -1.
</event>
<event>
 5   0  0.6200596E+07  0.9118800E+02  0.7818608E-02  0.1180000E+00
       11   -1    0    0    0    0  0.00000000000E+00  0.00000000000E+00  0.39999999673E+01  0.40000000000E+01  0.51109989000E-03 0. -1.
     -623   -1    0    0    0    0  0.00000000000E+00  0.00000000000E+00  0.12525980253E-10  0.17130000000E+03  0.17130000000E+03 0. -1.
       11    1    1    2    0    0 -0.19210733339E-01  0.35678790309E-01  0.68446402588E+00  0.68566266655E+00  0.51109989000E-03 0. -1.
     -623    1    1    2    0    0 -0.12032784478E-01 -0.24429295058E-01  0.16085353447E-02  0.17130000217E+03  0.17130000000E+03 0. -1.
      622    1    1    2    0    0  0.31243517817E-01 -0.11249495250E-01  0.33139274061E+01  0.33143351613E+01  0.40000000000E-01 0. -1.
</event>
<event>
 5   0  0.6200596E+07  0.9118800E+02  0.7818608E-02  0.1180000E+00
       11   -1    0    0    0    0  0.00000000000E+00  0.00000000000E+00  0.39999999673E+01  0.40000000000E+01  0.51109989000E-03 0.  1.
     -623   -1    0    0    0    0  0.00000000000E+00  0.00000000000E+00  0.12525980253E-10  0.17130000000E+03  0.17130000000E+03 0. -1.
       11    1    1    2    0    0  0.76217517158E-02 -0.36862948797E-01  0.20967281465E+01  0.20970660814E+01  0.51109989000E-03 0.  1.
     -623    1    1    2    0    0 -0.60721063483E-03  0.49556016673E-03  0.11189123922E-02  0.17130000001E+03  0.17130000000E+03 0. -1.
      622    1    1    2    0    0 -0.70145410810E-02  0.36367388630E-01  0.19021529085E+01  0.19029339132E+01  0.40000000000E-01 0.  0.
</event>
<event>
 5   0  0.6200596E+07  0.9118800E+02  0.7818608E-02  0.1180000E+00
       11   -1    0    0    0    0  0.00000000000E+00  0.00000000000E+00  0.39999999673E+01  0.40000000000E+01  0.51109989000E-03 0. -1.
     -623   -1    0    0    0    0  0.00000000000E+00  0.00000000000E+00  0.12525980253E-10  0.17130000000E+03  0.17130000000E+03 0.  1.
       11    1    1    2    0    0 -0.12451374605E-01  0.48529251198E-03  0.11086280408E+00  0.11156206697E+00  0.51109989000E-03 0. -1.
     -623    1    1    2    0    0  0.12250858470E-02  0.42828612812E-03  0.92129513442E-03  0.17130000001E+03  0.17130000000E+03 0.  1.
      622    1    1    2    0    0  0.11226288758E-01 -0.91357864010E-03  0.38882158681E+01  0.38884379256E+01  0.40000000000E-01 0. -1.
</event>
<event>
 5   0  0.6200596E+07  0.9118800E+02  0.7818608E-02  0.1180000E+00
       11   -1    0    0    0    0  0.00000000000E+00  0.00000000000E+00  0.39999999673E+01  0.40000000000E+01  0.51109989000E-03 0. -1.
     -623   -1    0    0    0    0  0.00000000000E+00  0.00000000000E+00  0.12525980253E-10  0.17130000000E+03  0.17130000000E+03 0. -1.
       11    1    1    2    0    0 -0.21836835109E-02 -0.26866474661E-02  0.27867088396E+00  0.27869285842E+00  0.51109989000E-03 0. -1.
     -623    1    1    2    0    0  0.60447577265E-03 -0.10972186455E-02  0.23918995684E-03  0.17130000000E+03  0.17130000000E+03 0. -1.
      622    1    1    2    0    0  0.15792077382E-02  0.37838661117E-02  0.37210898934E+01  0.37213071368E+01  0.40000000000E-01 0. -1.
</event>
<event>
 5   0  0.6200596E+07  0.9118800E+02  0.7818608E-02  0.1180000E+00
       11   -1    0    0    0    0  0.00000000000E+00  0.00000000000E+00  0.39999999673E+01  0.40000000000E+01  0.51109989000E-03 0. -1.
     -623   -1    0    0    0    0  0.00000000000E+00  0.00000000000E+00  0.12525980253E-10  0.17130000000E+03  0.17130000000E+03 0.  1.
       11    1    1    2    0    0 -0.52992498441E-04  0.33371685661E-02  0.92171315884E+00  0.92171934335E+00  0.51109989000E-03 0. -1.
     -623    1    1    2    0    0 -0.70989195673E-04 -0.26474518226E-03  0.26758451798E-03  0.17130000000E+03  0.17130000000E+03 0.  1.
      622    1    1    2    0    0  0.12398169411E-03 -0.30724233838E-02  0.30780192240E+01  0.30782806562E+01  0.40000000000E-01 0. -1.
</event>
<event>
 5   0  0.6200596E+07  0.9118800E+02  0.7818608E-02  0.1180000E+00
       11   -1    0    0    0    0  0.00000000000E+00  0.00000000000E+00  0.39999999673E+01  0.40000000000E+01  0.51109989000E-03 0. -1.
     -623   -1    0    0    0    0  0.00000000000E+00  0.00000000000E+00  0.12525980253E-10  0.17130000000E+03  0.17130000000E+03 0.  1.
       11    1    1    2    0    0  0.52167929141E-03  0.33022025965E-02  0.87789951465E-01  0.87855070949E-01  0.51109989000E-03 0. -1.
     -623    1    1    2    0    0 -0.75626424231E-03 -0.25775835656E-03  0.27077736180E-03  0.17130000000E+03  0.17130000000E+03 0.  1.
      622    1    1    2    0    0  0.23458495090E-03 -0.30444442399E-02  0.39119392385E+01  0.39121449270E+01  0.40000000000E-01 0. -1.
</event>
<event>
 5   0  0.6200596E+07  0.9118800E+02  0.7818608E-02  0.1180000E+00
       11   -1    0    0    0    0  0.00000000000E+00  0.00000000000E+00  0.39999999673E+01  0.40000000000E+01  0.51109989000E-03 0. -1.
     -623   -1    0    0    0    0  0.00000000000E+00  0.00000000000E+00  0.12525980253E-10  0.17130000000E+03  0.17130000000E+03 0. -1.
       11    1    1    2    0    0  0.25244197375E-02 -0.84291544359E-03  0.21046598579E-01  0.21220361303E-01  0.51109989000E-03 0. -1.
     -623    1    1    2    0    0 -0.46915659556E-05  0.31733112395E-02  0.37631204873E-03  0.17130000003E+03  0.17130000000E+03 0. -1.
      622    1    1    2    0    0 -0.25197281716E-02 -0.23303957959E-02  0.39785770567E+01  0.39787796089E+01  0.40000000000E-01 0. -1.
</event>
<event>
 5   0  0.6200596E+07  0.9118800E+02  0.7818608E-02  0.1180000E+00
       11   -1    0    0    0    0  0.00000000000E+00  0.00000000000E+00  0.39999999673E+01  0.40000000000E+01  0.51109989000E-03 0.  1.
     -623   -1    0    0    0    0  0.00000000000E+00  0.00000000000E+00  0.12525980253E-10  0.17130000000E+03  0.17130000000E+03 0.  1.
       11    1    1    2    0    0  0.34918261954E-02 -0.17811024535E-02  0.24987972959E-01  0.25298719145E-01  0.51109989000E-03 0.  1.
     -623    1    1    2    0    0 -0.14594015293E-02 -0.48588520423E-03  0.51316548612E-03  0.17130000001E+03  0.17130000000E+03 0.  1.
      622    1    1    2    0    0 -0.20324246661E-02  0.22669876578E-02  0.39744988289E+01  0.39747012732E+01  0.40000000000E-01 0.  1.
</event>
<event>
 5   0  0.6200596E+07  0.9118800E+02  0.7818608E-02  0.1180000E+00
       11   -1    0    0    0    0  0.00000000000E+00  0.00000000000E+00  0.39999999673E+01  0.40000000000E+01  0.51109989000E-03 0.  1.
     -623   -1    0    0    0    0  0.00000000000E+00  0.00000000000E+00  0.12525980253E-10  0.17130000000E+03  0.17130000000E+03 0.  1.
       11    1    1    2    0    0  0.28324375140E-01  0.28288396598E-01  0.11604507999E+01  0.11611411731E+01  0.51109989000E-03 0.  1.
     -623    1    1    2    0    0 -0.37432213059E-03 -0.13051672337E-02  0.12380352723E-02  0.17130000001E+03  0.17130000000E+03 0.  1.
      622    1    1    2    0    0 -0.27950053010E-01 -0.26983229364E-01  0.28383111322E+01  0.28388588171E+01  0.40000000000E-01 0.  1.
</event>
<event>
 5   0  0.6200596E+07  0.9118800E+02  0.7818608E-02  0.1180000E+00
       11   -1    0    0    0    0  0.00000000000E+00  0.00000000000E+00  0.39999999673E+01  0.40000000000E+01  0.51109989000E-03 0.  1.
     -623   -1    0    0    0    0  0.00000000000E+00  0.00000000000E+00  0.12525980253E-10  0.17130000000E+03  0.17130000000E+03 0. -1.
       11    1    1    2    0    0  0.23443004330E-01 -0.25836056197E-01  0.20662666425E+01  0.20665611957E+01  0.51109989000E-03 0.  1.
     -623    1    1    2    0    0  0.91027928999E-02  0.13160977633E-02  0.11381309655E-02  0.17130000025E+03  0.17130000000E+03 0. -1.
      622    1    1    2    0    0 -0.32545797230E-01  0.24519958433E-01  0.19325951939E+01  0.19334385536E+01  0.40000000000E-01 0.  1.
</event>
<event>
 5   0  0.6200596E+07  0.9118800E+02  0.7818608E-02  0.1180000E+00
       11   -1    0    0    0    0  0.00000000000E+00  0.00000000000E+00  0.39999999673E+01  0.40000000000E+01  0.51109989000E-03 0.  1.
     -623   -1    0    0    0    0  0.00000000000E+00  0.00000000000E+00  0.12525980253E-10  0.17130000000E+03  0.17130000000E+03 0.  1.
       11    1    1    2    0    0 -0.53821211334E-02  0.17193966492E-02  0.87873630887E-01  0.88056571471E-01  0.51109989000E-03 0.  1.
     -623    1    1    2    0    0  0.15050511484E-02 -0.68391649477E-02  0.39283061052E-03  0.17130000014E+03  0.17130000000E+03 0.  1.
      622    1    1    2    0    0  0.38770699850E-02  0.51197682985E-02  0.39117335059E+01  0.39119432849E+01  0.40000000000E-01 0.  1.
</event>
<event>
 5   0  0.6200596E+07  0.9118800E+02  0.7818608E-02  0.1180000E+00
       11   -1    0    0    0    0  0.00000000000E+00  0.00000000000E+00  0.39999999673E+01  0.40000000000E+01  0.51109989000E-03 0. -1.
     -623   -1    0    0    0    0  0.00000000000E+00  0.00000000000E+00  0.12525980253E-10  0.17130000000E+03  0.17130000000E+03 0. -1.
       11    1    1    2    0    0 -0.24613095502E-03 -0.88688621601E-03  0.11905551787E-01  0.11952009574E-01  0.51109989000E-03 0. -1.
     -623    1    1    2    0    0 -0.15755255979E-03  0.16501109329E-03  0.24711568341E-03  0.17130000000E+03  0.17130000000E+03 0. -1.
      622    1    1    2    0    0  0.40368351481E-03  0.72187512273E-03  0.39878472999E+01  0.39880479901E+01  0.40000000000E-01 0. -1.
</event>
<event>
 5   0  0.6200596E+07  0.9118800E+02  0.7818608E-02  0.1180000E+00
       11   -1    0    0    0    0  0.00000000000E+00  0.00000000000E+00  0.39999999673E+01  0.40000000000E+01  0.51109989000E-03 0. -1.
     -623   -1    0    0    0    0  0.00000000000E+00  0.00000000000E+00  0.12525980253E-10  0.17130000000E+03  0.17130000000E+03 0. -1.
       11    1    1    2    0    0 -0.20735294577E-02  0.17952446483E-02  0.25625456238E+00  0.25626974927E+00  0.51109989000E-03 0. -1.
     -623    1    1    2    0    0  0.38231921961E-02 -0.35940630002E-03  0.22957839524E-03  0.17130000004E+03  0.17130000000E+03 0. -1.
      622    1    1    2    0    0 -0.17496627383E-02 -0.14358383483E-02  0.37435158266E+01  0.37437302075E+01  0.40000000000E-01 0. -1.
</event>
<event>
 5   0  0.6200596E+07  0.9118800E+02  0.7818608E-02  0.1180000E+00
       11   -1    0    0    0    0  0.00000000000E+00  0.00000000000E+00  0.39999999673E+01  0.40000000000E+01  0.51109989000E-03 0.  1.
     -623   -1    0    0    0    0  0.00000000000E+00  0.00000000000E+00  0.12525980253E-10  0.17130000000E+03  0.17130000000E+03 0. -1.
       11    1    1    2    0    0 -0.17851116353E-01 -0.99022693114E-02  0.16546358820E+00  0.16671885776E+00  0.51109989000E-03 0.  1.
     -623    1    1    2    0    0  0.43711272192E-02  0.11869780768E-03  0.15001924244E-02  0.17130000006E+03  0.17130000000E+03 0. -1.
      622    1    1    2    0    0  0.13479989134E-01  0.97835715037E-02  0.38330361867E+01  0.38332810799E+01  0.40000000000E-01 0.  1.
</event>
<event>
 5   0  0.6200596E+07  0.9118800E+02  0.7818608E-02  0.1180000E+00
       11   -1    0    0    0    0  0.00000000000E+00  0.00000000000E+00  0.39999999673E+01  0.40000000000E+01  0.51109989000E-03 0. -1.
     -623   -1    0    0    0    0  0.00000000000E+00  0.00000000000E+00  0.12525980253E-10  0.17130000000E+03  0.17130000000E+03 0.  1.
       11    1    1    2    0    0  0.65396231809E-02  0.52616568683E-02  0.33449045511E-01  0.34489876352E-01  0.51109989000E-03 0. -1.
     -623    1    1    2    0    0 -0.41919332905E-02 -0.67622344803E-03  0.12459462396E-02  0.17130000006E+03  0.17130000000E+03 0.  1.
      622    1    1    2    0    0 -0.23476898905E-02 -0.45854334202E-02  0.39653049756E+01  0.39655100665E+01  0.40000000000E-01 0. -1.
</event>
<event>
 5   0  0.6200596E+07  0.9118800E+02  0.7818608E-02  0.1180000E+00
       11   -1    0    0    0    0  0.00000000000E+00  0.00000000000E+00  0.39999999673E+01  0.40000000000E+01  0.51109989000E-03 0. -1.
     -623   -1    0    0    0    0  0.00000000000E+00  0.00000000000E+00  0.12525980253E-10  0.17130000000E+03  0.17130000000E+03 0. -1.
       11    1    1    2    0    0 -0.11479873022E-01  0.27282125640E-01  0.30569741647E+01  0.30571174996E+01  0.51109989000E-03 0. -1.
     -623    1    1    2    0    0  0.14388216485E-02 -0.28071791111E-02  0.13637089554E-02  0.17130000003E+03  0.17130000000E+03 0. -1.
      622    1    1    2    0    0  0.10041051374E-01 -0.24474946529E-01  0.94166209374E+00  0.94288246590E+00  0.40000000000E-01 0.  0.
</event>
<event>
 5   0  0.6200596E+07  0.9118800E+02  0.7818608E-02  0.1180000E+00
       11   -1    0    0    0    0  0.00000000000E+00  0.00000000000E+00  0.39999999673E+01  0.40000000000E+01  0.51109989000E-03 0.  1.
     -623   -1    0    0    0    0  0.00000000000E+00  0.00000000000E+00  0.12525980253E-10  0.17130000000E+03  0.17130000000E+03 0. -1.
       11    1    1    2    0    0 -0.17148273252E-02 -0.21550517511E-02  0.10353491456E+00  0.10357279873E+00  0.51109989000E-03 0.  1.
     -623    1    1    2    0    0  0.15866048873E-02 -0.95111368575E-03  0.24442365969E-03  0.17130000001E+03  0.17130000000E+03 0. -1.
      622    1    1    2    0    0  0.12822243788E-03  0.31061654369E-02  0.38962206291E+01  0.38964271911E+01  0.40000000000E-01 0.  1.
</event>
<event>
 5   0  0.6200596E+07  0.9118800E+02  0.7818608E-02  0.1180000E+00
       11   -1    0    0    0    0  0.00000000000E+00  0.00000000000E+00  0.39999999673E+01  0.40000000000E+01  0.51109989000E-03 0.  1.
     -623   -1    0    0    0    0  0.00000000000E+00  0.00000000000E+00  0.12525980253E-10  0.17130000000E+03  0.17130000000E+03 0. -1.
       11    1    1    2    0    0 -0.47556343745E-03 -0.46388807557E-03  0.44373063660E-01  0.44380979627E-01  0.51109989000E-03 0.  1.
     -623    1    1    2    0    0  0.13152499246E-02  0.20396866669E-02  0.21055278485E-03  0.17130000002E+03  0.17130000000E+03 0. -1.
      622    1    1    2    0    0 -0.83968648711E-03 -0.15757985914E-02  0.39554163509E+01  0.39556190031E+01  0.40000000000E-01 0.  1.
</event>
<event>
 5   0  0.6200596E+07  0.9118800E+02  0.7818608E-02  0.1180000E+00
       11   -1    0    0    0    0  0.00000000000E+00  0.00000000000E+00  0.39999999673E+01  0.40000000000E+01  0.51109989000E-03 0.  1.
     -623   -1    0    0    0    0  0.00000000000E+00  0.00000000000E+00  0.12525980253E-10  0.17130000000E+03  0.17130000000E+03 0.  1.
       11    1    1    2    0    0 -0.12898005924E-02 -0.11054939209E-01  0.72709494870E+00  0.72718030839E+00  0.51109989000E-03 0.  1.
     -623    1    1    2    0    0  0.10342464327E-01  0.32408981006E-02  0.35196682120E-03  0.17130000034E+03  0.17130000000E+03 0.  1.
      622    1    1    2    0    0 -0.90526637349E-02  0.78140411089E-02  0.32725530518E+01  0.32728193484E+01  0.40000000000E-01 0.  1.
</event>
<event>
 5   0  0.6200596E+07  0.9118800E+02  0.7818608E-02  0.1180000E+00
       11   -1    0    0    0    0  0.00000000000E+00  0.00000000000E+00  0.39999999673E+01  0.40000000000E+01  0.51109989000E-03 0. -1.
     -623   -1    0    0    0    0  0.00000000000E+00  0.00000000000E+00  0.12525980253E-10  0.17130000000E+03  0.17130000000E+03 0. -1.
       11    1    1    2    0    0  0.14328494715E-02  0.36262096058E-02  0.12883373311E+00  0.12889373321E+00  0.51109989000E-03 0. -1.
     -623    1    1    2    0    0  0.70770861839E-04 -0.15968542672E-02  0.26746390651E-03  0.17130000001E+03  0.17130000000E+03 0. -1.
      622    1    1    2    0    0 -0.15036203333E-02 -0.20293553386E-02  0.38708987703E+01  0.38711062591E+01  0.40000000000E-01 0. -1.
</event>
<event>
 5   0  0.6200596E+07  0.9118800E+02  0.7818608E-02  0.1180000E+00
       11   -1    0    0    0    0  0.00000000000E+00  0.00000000000E+00  0.39999999673E+01  0.40000000000E+01  0.51109989000E-03 0.  1.
     -623   -1    0    0    0    0  0.00000000000E+00  0.00000000000E+00  0.12525980253E-10  0.17130000000E+03  0.17130000000E+03 0. -1.
       11    1    1    2    0    0  0.14510060978E-02  0.11601287524E-02  0.23660526606E+00  0.23661311135E+00  0.51109989000E-03 0.  1.
     -623    1    1    2    0    0 -0.57871230080E-02 -0.49671979873E-02  0.22498695157E-03  0.17130000017E+03  0.17130000000E+03 0. -1.
      622    1    1    2    0    0  0.43361169102E-02  0.38070692349E-02  0.37631697143E+01  0.37633867187E+01  0.40000000000E-01 0.  1.
</event>
<event>
 5   0  0.6200596E+07  0.9118800E+02  0.7818608E-02  0.1180000E+00
       11   -1    0    0    0    0  0.00000000000E+00  0.00000000000E+00  0.39999999673E+01  0.40000000000E+01  0.51109989000E-03 0. -1.
     -623   -1    0    0    0    0  0.00000000000E+00  0.00000000000E+00  0.12525980253E-10  0.17130000000E+03  0.17130000000E+03 0. -1.
       11    1    1    2    0    0  0.50282187537E-02 -0.11894362274E-02  0.60753156128E-01  0.60974625402E-01  0.51109989000E-03 0. -1.
     -623    1    1    2    0    0 -0.14071730208E-02  0.15503306147E-02  0.42623210716E-03  0.17130000001E+03  0.17130000000E+03 0. -1.
      622    1    1    2    0    0 -0.36210457329E-02 -0.36089438723E-03  0.39388205791E+01  0.39390253613E+01  0.40000000000E-01 0. -1.
</event>
<event>
 5   0  0.6200596E+07  0.9118800E+02  0.7818608E-02  0.1180000E+00
       11   -1    0    0    0    0  0.00000000000E+00  0.00000000000E+00  0.39999999673E+01  0.40000000000E+01  0.51109989000E-03 0.  1.
     -623   -1    0    0    0    0  0.00000000000E+00  0.00000000000E+00  0.12525980253E-10  0.17130000000E+03  0.17130000000E+03 0.  1.
       11    1    1    2    0    0  0.41279999043E-03  0.36892475799E-03  0.41530421235E-02  0.42208399561E-02  0.51109989000E-03 0.  1.
     -623    1    1    2    0    0  0.20553596200E-03 -0.55189875968E-03  0.26803473060E-03  0.17130000000E+03  0.17130000000E+03 0.  1.
      622    1    1    2    0    0 -0.61833595243E-03  0.18297400169E-03  0.39955788905E+01  0.39957791588E+01  0.40000000000E-01 0.  1.
</event>
<event>
 5   0  0.6200596E+07  0.9118800E+02  0.7818608E-02  0.1180000E+00
       11   -1    0    0    0    0  0.00000000000E+00  0.00000000000E+00  0.39999999673E+01  0.40000000000E+01  0.51109989000E-03 0. -1.
     -623   -1    0    0    0    0  0.00000000000E+00  0.00000000000E+00  0.12525980253E-10  0.17130000000E+03  0.17130000000E+03 0.  1.
       11    1    1    2    0    0  0.13922365339E-02 -0.27093126265E-02  0.33686178057E+00  0.33687594027E+00  0.51109989000E-03 0. -1.
     -623    1    1    2    0    0 -0.75715635339E-02  0.13717393695E-01  0.25499673870E-03  0.17130000072E+03  0.17130000000E+03 0.  1.
      622    1    1    2    0    0  0.61793270000E-02 -0.11008081068E-01  0.36628831900E+01  0.36631233430E+01  0.40000000000E-01 0. -1.
</event>
<event>
 5   0  0.6200596E+07  0.9118800E+02  0.7818608E-02  0.1180000E+00
       11   -1    0    0    0    0  0.00000000000E+00  0.00000000000E+00  0.39999999673E+01  0.40000000000E+01  0.51109989000E-03 0. -1.
     -623   -1    0    0    0    0  0.00000000000E+00  0.00000000000E+00  0.12525980253E-10  0.17130000000E+03  0.17130000000E+03 0. -1.
       11    1    1    2    0    0  0.16557828158E-01  0.85595939094E-02  0.81154693623E+00  0.81176112203E+00  0.51109989000E-03 0. -1.
     -623    1    1    2    0    0 -0.33269951885E-02 -0.13131963464E-03  0.50371516496E-03  0.17130000003E+03  0.17130000000E+03 0. -1.
      622    1    1    2    0    0 -0.13230832969E-01 -0.84282742748E-02  0.31879493160E+01  0.31882388449E+01  0.40000000000E-01 0.  0.
</event>
<event>
 5   0  0.6200596E+07  0.9118800E+02  0.7818608E-02  0.1180000E+00
       11   -1    0    0    0    0  0.00000000000E+00  0.00000000000E+00  0.39999999673E+01  0.40000000000E+01  0.51109989000E-03 0.  1.
     -623   -1    0    0    0    0  0.00000000000E+00  0.00000000000E+00  0.12525980253E-10  0.17130000000E+03  0.17130000000E+03 0. -1.
       11    1    1    2    0    0 -0.45230188793E-02  0.11911280339E-02  0.80591711461E+00  0.80593084898E+00  0.51109989000E-03 0.  1.
     -623    1    1    2    0    0  0.68697691796E-04  0.99840528995E-03  0.26803556298E-03  0.17130000000E+03  0.17130000000E+03 0. -1.
      622    1    1    2    0    0  0.44543211875E-02 -0.21895333238E-02  0.31938148172E+01  0.31940691479E+01  0.40000000000E-01 0.  1.
</event>
<event>
 5   0  0.6200596E+07  0.9118800E+02  0.7818608E-02  0.1180000E+00
       11   -1    0    0    0    0  0.00000000000E+00  0.00000000000E+00  0.39999999673E+01  0.40000000000E+01  0.51109989000E-03 0.  1.
     -623   -1    0    0    0    0  0.00000000000E+00  0.00000000000E+00  0.12525980253E-10  0.17130000000E+03  0.17130000000E+03 0. -1.
       11    1    1    2    0    0 -0.35088403012E-02 -0.35163891101E-02  0.14569037885E+00  0.14577593994E+00  0.51109989000E-03 0.  1.
     -623    1    1    2    0    0  0.25846728562E-02  0.94432118609E-03  0.29408993535E-03  0.17130000002E+03  0.17130000000E+03 0. -1.
      622    1    1    2    0    0  0.92416744497E-03  0.25720679240E-02  0.38540154986E+01  0.38542240377E+01  0.40000000000E-01 0.  1.
</event>
<event>
 5   0  0.6200596E+07  0.9118800E+02  0.7818608E-02  0.1180000E+00
       11   -1    0    0    0    0  0.00000000000E+00  0.00000000000E+00  0.39999999673E+01  0.40000000000E+01  0.51109989000E-03 0. -1.
     -623   -1    0    0    0    0  0.00000000000E+00  0.00000000000E+00  0.12525980253E-10  0.17130000000E+03  0.17130000000E+03 0. -1.
       11    1    1    2    0    0 -0.82264188754E-02  0.69416882077E-02  0.11267309703E+00  0.11318722993E+00  0.51109989000E-03 0. -1.
     -623    1    1    2    0    0 -0.77698775128E-03  0.26853246542E-02  0.74230556315E-03  0.17130000002E+03  0.17130000000E+03 0. -1.
      622    1    1    2    0    0  0.90034066267E-02 -0.96270128619E-02  0.38865845648E+01  0.38868127457E+01  0.40000000000E-01 0. -1.
</event>
<event>
 5   0  0.6200596E+07  0.9118800E+02  0.7818608E-02  0.1180000E+00
       11   -1    0    0    0    0  0.00000000000E+00  0.00000000000E+00  0.39999999673E+01  0.40000000000E+01  0.51109989000E-03 0.  1.
     -623   -1    0    0    0    0  0.00000000000E+00  0.00000000000E+00  0.12525980253E-10  0.17130000000E+03  0.17130000000E+03 0.  1.
       11    1    1    2    0    0 -0.88198583602E-02  0.12377510108E-01  0.35701711354E+00  0.35734083623E+00  0.51109989000E-03 0.  1.
     -623    1    1    2    0    0  0.30257116851E-02  0.20525270938E-02  0.57654837386E-03  0.17130000004E+03  0.17130000000E+03 0.  1.
      622    1    1    2    0    0  0.57941466750E-02 -0.14430037202E-01  0.36424063054E+01  0.36426591238E+01  0.40000000000E-01 0.  1.
</event>
<event>
 5   0  0.6200596E+07  0.9118800E+02  0.7818608E-02  0.1180000E+00
       11   -1    0    0    0    0  0.00000000000E+00  0.00000000000E+00  0.39999999673E+01  0.40000000000E+01  0.51109989000E-03 0. -1.
     -623   -1    0    0    0    0  0.00000000000E+00  0.00000000000E+00  0.12525980253E-10  0.17130000000E+03  0.17130000000E+03 0. -1.
       11    1    1    2    0    0 -0.21194159522E-01 -0.15688136920E-01  0.11627508115E+01  0.11630498789E+01  0.51109989000E-03 0. -1.
     -623    1    1    2    0    0  0.41721308294E-03 -0.30879095047E-03  0.70224217334E-03  0.17130000000E+03  0.17130000000E+03 0. -1.
      622    1    1    2    0    0  0.20776946440E-01  0.15996927870E-01  0.28365469137E+01  0.28369501188E+01  0.40000000000E-01 0.  1.
</event>
<event>
 5   0  0.6200596E+07  0.9118800E+02  0.7818608E-02  0.1180000E+00
       11   -1    0    0    0    0  0.00000000000E+00  0.00000000000E+00  0.39999999673E+01  0.40000000000E+01  0.51109989000E-03 0. -1.
     -623   -1    0    0    0    0  0.00000000000E+00  0.00000000000E+00  0.12525980253E-10  0.17130000000E+03  0.17130000000E+03 0.  1.
       11    1    1    2    0    0  0.21264414504E-03  0.26265770187E-03  0.46325958851E-01  0.46330010693E-01  0.51109989000E-03 0. -1.
     -623    1    1    2    0    0  0.14821050684E-02 -0.75348890376E-02  0.21359202633E-03  0.17130000017E+03  0.17130000000E+03 0.  1.
      622    1    1    2    0    0 -0.16947492134E-02  0.72722313357E-02  0.39534604165E+01  0.39536698170E+01  0.40000000000E-01 0. -1.
</event>
<event>
 5   0  0.6200596E+07  0.9118800E+02  0.7818608E-02  0.1180000E+00
       11   -1    0    0    0    0  0.00000000000E+00  0.00000000000E+00  0.39999999673E+01  0.40000000000E+01  0.51109989000E-03 0. -1.
     -623   -1    0    0    0    0  0.00000000000E+00  0.00000000000E+00  0.12525980253E-10  0.17130000000E+03  0.17130000000E+03 0.  1.
       11    1    1    2    0    0 -0.12667947216E-02  0.69139196233E-02  0.18558293613E+00  0.18571670484E+00  0.51109989000E-03 0. -1.
     -623    1    1    2    0    0  0.98654652536E-02  0.30955084144E-02  0.36661908040E-03  0.17130000031E+03  0.17130000000E+03 0.  1.
      622    1    1    2    0    0 -0.85986705320E-02 -0.10009428038E-01  0.38140504121E+01  0.38142829827E+01  0.40000000000E-01 0. -1.
</event>
<event>
 5   0  0.6200596E+07  0.9118800E+02  0.7818608E-02  0.1180000E+00
       11   -1    0    0    0    0  0.00000000000E+00  0.00000000000E+00  0.39999999673E+01  0.40000000000E+01  0.51109989000E-03 0. -1.
     -623   -1    0    0    0    0  0.00000000000E+00  0.00000000000E+00  0.12525980253E-10  0.17130000000E+03  0.17130000000E+03 0.  1.
       11    1    1    2    0    0  0.56344526566E-03 -0.32899393096E-02  0.35840639038E-01  0.35999358299E-01  0.51109989000E-03 0. -1.
     -623    1    1    2    0    0 -0.11464092385E-01  0.20941566602E-02  0.37607398385E-03  0.17130000040E+03  0.17130000000E+03 0.  1.
      622    1    1    2    0    0  0.10900647120E-01  0.11957826494E-02  0.39637832543E+01  0.39640002449E+01  0.40000000000E-01 0. -1.
</event>
<event>
 5   0  0.6200596E+07  0.9118800E+02  0.7818608E-02  0.1180000E+00
       11   -1    0    0    0    0  0.00000000000E+00  0.00000000000E+00  0.39999999673E+01  0.40000000000E+01  0.51109989000E-03 0.  1.
     -623   -1    0    0    0    0  0.00000000000E+00  0.00000000000E+00  0.12525980253E-10  0.17130000000E+03  0.17130000000E+03 0.  1.
       11    1    1    2    0    0  0.27663436092E-02  0.11665412190E-02  0.12351387488E-01  0.12721299835E-01  0.51109989000E-03 0.  1.
     -623    1    1    2    0    0  0.84076377519E-04 -0.37084407876E-03  0.57162252638E-03  0.17130000000E+03  0.17130000000E+03 0.  1.
      622    1    1    2    0    0 -0.28504199867E-02 -0.79569714022E-03  0.39870769573E+01  0.39872786988E+01  0.40000000000E-01 0.  1.
</event>
<event>
 5   0  0.6200596E+07  0.9118800E+02  0.7818608E-02  0.1180000E+00
       11   -1    0    0    0    0  0.00000000000E+00  0.00000000000E+00  0.39999999673E+01  0.40000000000E+01  0.51109989000E-03 0.  1.
     -623   -1    0    0    0    0  0.00000000000E+00  0.00000000000E+00  0.12525980253E-10  0.17130000000E+03  0.17130000000E+03 0. -1.
       11    1    1    2    0    0 -0.29026520520E-02  0.21322114585E-02  0.28422254789E-01  0.28654100967E-01  0.51109989000E-03 0.  1.
     -623    1    1    2    0    0 -0.10878412080E-02 -0.13623647364E-02  0.43535070443E-03  0.17130000001E+03  0.17130000000E+03 0. -1.
      622    1    1    2    0    0  0.39904932600E-02 -0.76984672215E-03  0.39711423619E+01  0.39713458896E+01  0.40000000000E-01 0.  1.
</event>
<event>
 5   0  0.6200596E+07  0.9118800E+02  0.7818608E-02  0.1180000E+00
       11   -1    0    0    0    0  0.00000000000E+00  0.00000000000E+00  0.39999999673E+01  0.40000000000E+01  0.51109989000E-03 0. -1.
     -623   -1    0    0    0    0  0.00000000000E+00  0.00000000000E+00  0.12525980253E-10  0.17130000000E+03  0.17130000000E+03 0. -1.
       11    1    1    2    0    0  0.12909425470E-01 -0.51844068749E-02  0.19226332982E+00  0.19276664794E+00  0.51109989000E-03 0. -1.
     -623    1    1    2    0    0 -0.22773820609E-03 -0.29129478037E-02  0.74317777258E-03  0.17130000003E+03  0.17130000000E+03 0. -1.
      622    1    1    2    0    0 -0.12681687264E-01  0.80973546786E-02  0.38069934598E+01  0.38072333255E+01  0.40000000000E-01 0. -1.
</event>
<event>
 5   0  0.6200596E+07  0.9118800E+02  0.7818608E-02  0.1180000E+00
       11   -1    0    0    0    0  0.00000000000E+00  0.00000000000E+00  0.39999999673E+01  0.40000000000E+01  0.51109989000E-03 0.  1.
     -623   -1    0    0    0    0  0.00000000000E+00  0.00000000000E+00  0.12525980253E-10  0.17130000000E+03  0.17130000000E+03 0. -1.
       11    1    1    2    0    0 -0.44027846320E-02 -0.78806436142E-02  0.13611696429E+00  0.13641692800E+00  0.51109989000E-03 0.  1.
     -623    1    1    2    0    0  0.39968149774E-02  0.18487492445E-02  0.51178580843E-03  0.17130000006E+03  0.17130000000E+03 0. -1.
      622    1    1    2    0    0  0.40596965464E-03  0.60318943698E-02  0.38633712173E+01  0.38635830146E+01  0.40000000000E-01 0.  0.
</event>
<event>
 5   0  0.6200596E+07  0.9118800E+02  0.7818608E-02  0.1180000E+00
       11   -1    0    0    0    0  0.00000000000E+00  0.00000000000E+00  0.39999999673E+01  0.40000000000E+01  0.51109989000E-03 0. -1.
     -623   -1    0    0    0    0  0.00000000000E+00  0.00000000000E+00  0.12525980253E-10  0.17130000000E+03  0.17130000000E+03 0.  1.
       11    1    1    2    0    0  0.15437393238E-02  0.34057508864E-02  0.27582233814E-01  0.27839236954E-01  0.51109989000E-03 0. -1.
     -623    1    1    2    0    0  0.20790476225E-02  0.19567176063E-04  0.46151967402E-03  0.17130000001E+03  0.17130000000E+03 0.  1.
      622    1    1    2    0    0 -0.36227869463E-02 -0.34253180625E-02  0.39719562139E+01  0.39721607498E+01  0.40000000000E-01 0. -1.
</event>
<event>
 5   0  0.6200596E+07  0.9118800E+02  0.7818608E-02  0.1180000E+00
       11   -1    0    0    0    0  0.00000000000E+00  0.00000000000E+00  0.39999999673E+01  0.40000000000E+01  0.51109989000E-03 0.  1.
     -623   -1    0    0    0    0  0.00000000000E+00  0.00000000000E+00  0.12525980253E-10  0.17130000000E+03  0.17130000000E+03 0.  1.
       11    1    1    2    0    0 -0.17821911428E-02 -0.48936256857E-02  0.40275716451E+00  0.40279115998E+00  0.51109989000E-03 0.  1.
     -623    1    1    2    0    0  0.74691523649E-02  0.96152757011E-03  0.26317497339E-03  0.17130000017E+03  0.17130000000E+03 0.  1.
      622    1    1    2    0    0 -0.56869612221E-02  0.39320981156E-02  0.35969796279E+01  0.35972086743E+01  0.40000000000E-01 0.  1.
</event>
<event>
 5   0  0.6200596E+07  0.9118800E+02  0.7818608E-02  0.1180000E+00
       11   -1    0    0    0    0  0.00000000000E+00  0.00000000000E+00  0.39999999673E+01  0.40000000000E+01  0.51109989000E-03 0. -1.
     -623   -1    0    0    0    0  0.00000000000E+00  0.00000000000E+00  0.12525980253E-10  0.17130000000E+03  0.17130000000E+03 0. -1.
       11    1    1    2    0    0 -0.20253109763E-02  0.44685807963E-02  0.63712484516E-01  0.63903145489E-01  0.51109989000E-03 0. -1.
     -623    1    1    2    0    0  0.83236707991E-03  0.38304945094E-02  0.40285629123E-03  0.17130000005E+03  0.17130000000E+03 0. -1.
      622    1    1    2    0    0  0.11929438963E-02 -0.82990753058E-02  0.39358846266E+01  0.39360968092E+01  0.40000000000E-01 0.  0.
</event>
<event>
 5   0  0.6200596E+07  0.9118800E+02  0.7818608E-02  0.1180000E+00
       11   -1    0    0    0    0  0.00000000000E+00  0.00000000000E+00  0.39999999673E+01  0.40000000000E+01  0.51109989000E-03 0.  1.
     -623   -1    0    0    0    0  0.00000000000E+00  0.00000000000E+00  0.12525980253E-10  0.17130000000E+03  0.17130000000E+03 0. -1.
       11    1    1    2    0    0 -0.74163036704E-02  0.50508908272E-02  0.17410976677E+00  0.17434157612E+00  0.51109989000E-03 0.  1.
     -623    1    1    2    0    0 -0.26648220546E-02 -0.49410363425E-02  0.45427424395E-03  0.17130000009E+03  0.17130000000E+03 0. -1.
      622    1    1    2    0    0  0.10081125725E-01 -0.10985448471E-03  0.38254359263E+01  0.38256583313E+01  0.40000000000E-01 0.  1.
</event>
<event>
 5   0  0.6200596E+07  0.9118800E+02  0.7818608E-02  0.1180000E+00
       11   -1    0    0    0    0  0.00000000000E+00  0.00000000000E+00  0.39999999673E+01  0.40000000000E+01  0.51109989000E-03 0. -1.
     -623   -1    0    0    0    0  0.00000000000E+00  0.00000000000E+00  0.12525980253E-10  0.17130000000E+03  0.17130000000E+03 0. -1.
       11    1    1    2    0    0 -0.84719683247E-04  0.20856270278E-01  0.27210278545E+01  0.27211078327E+01  0.51109989000E-03 0. -1.
     -623    1    1    2    0    0  0.77212651317E-03 -0.99138282205E-02  0.75295188948E-03  0.17130000029E+03  0.17130000000E+03 0. -1.
      622    1    1    2    0    0 -0.68740682993E-03 -0.10942442057E-01  0.12782191610E+01  0.12788918770E+01  0.40000000000E-01 0.  0.
</event>
<event>
 5   0  0.6200596E+07  0.9118800E+02  0.7818608E-02  0.1180000E+00
       11   -1    0    0    0    0  0.00000000000E+00  0.00000000000E+00  0.39999999673E+01  0.40000000000E+01  0.51109989000E-03 0. -1.
     -623   -1    0    0    0    0  0.00000000000E+00  0.00000000000E+00  0.12525980253E-10  0.17130000000E+03  0.17130000000E+03 0.  1.
       11    1    1    2    0    0  0.23657028048E-01 -0.22329186745E-01  0.30169719764E+01  0.30171473970E+01  0.51109989000E-03 0. -1.
     -623    1    1    2    0    0 -0.55454924838E-02 -0.14957917233E-02  0.14459105172E-02  0.17130000010E+03  0.17130000000E+03 0.  1.
      622    1    1    2    0    0 -0.18111535564E-01  0.23824978468E-01  0.98158208041E+00  0.98285250058E+00  0.40000000000E-01 0. -1.
</event>
<event>
 5   0  0.6200596E+07  0.9118800E+02  0.7818608E-02  0.1180000E+00
       11   -1    0    0    0    0  0.00000000000E+00  0.00000000000E+00  0.39999999673E+01  0.40000000000E+01  0.51109989000E-03 0. -1.
     -623   -1    0    0    0    0  0.00000000000E+00  0.00000000000E+00  0.12525980253E-10  0.17130000000E+03  0.17130000000E+03 0. -1.
       11    1    1    2    0    0  0.62881629027E-03 -0.39550794497E-03  0.90994066446E+00  0.90994111122E+00  0.51109989000E-03 0. -1.
     -623    1    1    2    0    0  0.16570382612E-02  0.50488901060E-03  0.26017615137E-03  0.17130000001E+03  0.17130000000E+03 0. -1.
      622    1    1    2    0    0 -0.22858545515E-02 -0.10938106564E-03  0.30897991267E+01  0.30900588798E+01  0.40000000000E-01 0. -1.
</event>
<event>
 5   0  0.6200596E+07  0.9118800E+02  0.7818608E-02  0.1180000E+00
       11   -1    0    0    0    0  0.00000000000E+00  0.00000000000E+00  0.39999999673E+01  0.40000000000E+01  0.51109989000E-03 0.  1.
     -623   -1    0    0    0    0  0.00000000000E+00  0.00000000000E+00  0.12525980253E-10  0.17130000000E+03  0.17130000000E+03 0.  1.
       11    1    1    2    0    0 -0.38989646644E-03  0.13253655608E-02  0.44192817085E-01  0.44217359900E-01  0.51109989000E-03 0.  1.
     -623    1    1    2    0    0 -0.16657708692E-04  0.13104194632E-03  0.22704013712E-03  0.17130000000E+03  0.17130000000E+03 0.  1.
      622    1    1    2    0    0  0.40655417513E-03 -0.14564075072E-02  0.39555801101E+01  0.39557826399E+01  0.40000000000E-01 0.  1.
</event>
<event>
 5   0  0.6200596E+07  0.9118800E+02  0.7818608E-02  0.1180000E+00
       11   -1    0    0    0    0  0.00000000000E+00  0.00000000000E+00  0.39999999673E+01  0.40000000000E+01  0.51109989000E-03 0.  1.
     -623   -1    0    0    0    0  0.00000000000E+00  0.00000000000E+00  0.12525980253E-10  0.17130000000E+03  0.17130000000E+03 0.  1.
       11    1    1    2    0    0  0.46989279134E-02 -0.67644418356E-03  0.61287182600E+00  0.61289042563E+00  0.51109989000E-03 0.  1.
     -623    1    1    2    0    0 -0.55334043544E-02  0.44667649081E-02  0.25713633448E-03  0.17130000015E+03  0.17130000000E+03 0.  1.
      622    1    1    2    0    0  0.83447644100E-03 -0.37903207246E-02  0.33868710050E+01  0.33871094266E+01  0.40000000000E-01 0.  1.
</event>
<event>
 5   0  0.6200596E+07  0.9118800E+02  0.7818608E-02  0.1180000E+00
       11   -1    0    0    0    0  0.00000000000E+00  0.00000000000E+00  0.39999999673E+01  0.40000000000E+01  0.51109989000E-03 0.  1.
     -623   -1    0    0    0    0  0.00000000000E+00  0.00000000000E+00  0.12525980253E-10  0.17130000000E+03  0.17130000000E+03 0. -1.
       11    1    1    2    0    0 -0.52583750548E-02 -0.11753960535E-01  0.10579155469E+00  0.10657354438E+00  0.51109989000E-03 0.  1.
     -623    1    1    2    0    0  0.37511179032E-03 -0.83423539409E-03  0.10108561494E-02  0.17130000001E+03  0.17130000000E+03 0. -1.
      622    1    1    2    0    0  0.48832632645E-02  0.12588195929E-01  0.38931975565E+01  0.38934264502E+01  0.40000000000E-01 0.  1.
</event>
<event>
 5   0  0.6200596E+07  0.9118800E+02  0.7818608E-02  0.1180000E+00
       11   -1    0    0    0    0  0.00000000000E+00  0.00000000000E+00  0.39999999673E+01  0.40000000000E+01  0.51109989000E-03 0. -1.
     -623   -1    0    0    0    0  0.00000000000E+00  0.00000000000E+00  0.12525980253E-10  0.17130000000E+03  0.17130000000E+03 0.  1.
       11    1    1    2    0    0 -0.64481688040E-02 -0.30730226072E-02  0.11204326225E+01  0.11204555078E+01  0.51109989000E-03 0. -1.
     -623    1    1    2    0    0  0.35596865589E-02 -0.63099173529E-02  0.31757882143E-03  0.17130000015E+03  0.17130000000E+03 0.  1.
      622    1    1    2    0    0  0.28884822451E-02  0.93829399601E-02  0.28792497661E+01  0.28795443387E+01  0.40000000000E-01 0. -1.
</event>
<event>
 5   0  0.6200596E+07  0.9118800E+02  0.7818608E-02  0.1180000E+00
       11   -1    0    0    0    0  0.00000000000E+00  0.00000000000E+00  0.39999999673E+01  0.40000000000E+01  0.51109989000E-03 0. -1.
     -623   -1    0    0    0    0  0.00000000000E+00  0.00000000000E+00  0.12525980253E-10  0.17130000000E+03  0.17130000000E+03 0.  1.
       11    1    1    2    0    0  0.15647727747E-01 -0.22471288736E-01  0.31169313887E+01  0.31170517085E+01  0.51109989000E-03 0. -1.
     -623    1    1    2    0    0  0.16637917305E-02  0.20058366446E-02  0.14342346894E-02  0.17130000003E+03  0.17130000000E+03 0.  1.
      622    1    1    2    0    0 -0.17311519478E-01  0.20465452091E-01  0.88163434399E+00  0.88294826572E+00  0.40000000000E-01 0. -1.
</event>
<event>
 5   0  0.6200596E+07  0.9118800E+02  0.7818608E-02  0.1180000E+00
       11   -1    0    0    0    0  0.00000000000E+00  0.00000000000E+00  0.39999999673E+01  0.40000000000E+01  0.51109989000E-03 0. -1.
     -623   -1    0    0    0    0  0.00000000000E+00  0.00000000000E+00  0.12525980253E-10  0.17130000000E+03  0.17130000000E+03 0. -1.
       11    1    1    2    0    0 -0.21535826657E-01  0.67682678026E-02  0.18414773313E+00  0.18552695253E+00  0.51109989000E-03 0. -1.
     -623    1    1    2    0    0  0.18993159898E-02  0.55690986521E-02  0.16595287696E-02  0.17130000011E+03  0.17130000000E+03 0. -1.
      622    1    1    2    0    0  0.19636510667E-01 -0.12337366455E-01  0.38141927055E+01  0.38144729384E+01  0.40000000000E-01 0. -1.
</event>
<event>
 5   0  0.6200596E+07  0.9118800E+02  0.7818608E-02  0.1180000E+00
       11   -1    0    0    0    0  0.00000000000E+00  0.00000000000E+00  0.39999999673E+01  0.40000000000E+01  0.51109989000E-03 0. -1.
     -623   -1    0    0    0    0  0.00000000000E+00  0.00000000000E+00  0.12525980253E-10  0.17130000000E+03  0.17130000000E+03 0.  1.
       11    1    1    2    0    0  0.11988113288E-01  0.10241928183E-01  0.25068519461E+00  0.25118109000E+00  0.51109989000E-03 0. -1.
     -623    1    1    2    0    0 -0.41049229735E-03  0.81592448956E-02  0.77250916758E-03  0.17130000020E+03  0.17130000000E+03 0.  1.
      622    1    1    2    0    0 -0.11577620991E-01 -0.18401173079E-01  0.37485422636E+01  0.37488187135E+01  0.40000000000E-01 0. -1.
</event>
<event>
 5   0  0.6200596E+07  0.9118800E+02  0.7818608E-02  0.1180000E+00
       11   -1    0    0    0    0  0.00000000000E+00  0.00000000000E+00  0.39999999673E+01  0.40000000000E+01  0.51109989000E-03 0. -1.
     -623   -1    0    0    0    0  0.00000000000E+00  0.00000000000E+00  0.12525980253E-10  0.17130000000E+03  0.17130000000E+03 0.  1.
       11    1    1    2    0    0 -0.44642967204E-02  0.34264211174E-02  0.21572509531E+00  0.21579909239E+00  0.51109989000E-03 0. -1.
     -623    1    1    2    0    0  0.70934134459E-02  0.51626483777E-02  0.29626183861E-03  0.17130000022E+03  0.17130000000E+03 0.  1.
      622    1    1    2    0    0 -0.26291167255E-02 -0.85890694951E-02  0.37839786102E+01  0.37842006827E+01  0.40000000000E-01 0. -1.
</event>
<event>
 5   0  0.6200596E+07  0.9118800E+02  0.7818608E-02  0.1180000E+00
       11   -1    0    0    0    0  0.00000000000E+00  0.00000000000E+00  0.39999999673E+01  0.40000000000E+01  0.51109989000E-03 0.  1.
     -623   -1    0    0    0    0  0.00000000000E+00  0.00000000000E+00  0.12525980253E-10  0.17130000000E+03  0.17130000000E+03 0.  1.
       11    1    1    2    0    0  0.51682938363E-01  0.14668597299E-01  0.18369371627E+01  0.18377226926E+01  0.51109989000E-03 0.  1.
     -623    1    1    2    0    0 -0.57139866687E-02 -0.24302244420E-02  0.16790558402E-02  0.17130000012E+03  0.17130000000E+03 0.  1.
      622    1    1    2    0    0 -0.45968951695E-01 -0.12238372857E-01  0.21613837488E+01  0.21622771866E+01  0.40000000000E-01 0.  1.
</event>
<event>
 5   0  0.6200596E+07  0.9118800E+02  0.7818608E-02  0.1180000E+00
       11   -1    0    0    0    0  0.00000000000E+00  0.00000000000E+00  0.39999999673E+01  0.40000000000E+01  0.51109989000E-03 0. -1.
     -623   -1    0    0    0    0  0.00000000000E+00  0.00000000000E+00  0.12525980253E-10  0.17130000000E+03  0.17130000000E+03 0. -1.
       11    1    1    2    0    0  0.13756566790E-01 -0.18202501648E-01  0.73883197431E+00  0.73918436244E+00  0.51109989000E-03 0. -1.
     -623    1    1    2    0    0 -0.17793719917E-03 -0.20952164601E-02  0.68917048631E-03  0.17130000001E+03  0.17130000000E+03 0. -1.
      622    1    1    2    0    0 -0.13578629591E-01  0.20297718108E-01  0.32604788226E+01  0.32608156233E+01  0.40000000000E-01 0.  0.
</event>
<event>
 5   0  0.6200596E+07  0.9118800E+02  0.7818608E-02  0.1180000E+00
       11   -1    0    0    0    0  0.00000000000E+00  0.00000000000E+00  0.39999999673E+01  0.40000000000E+01  0.51109989000E-03 0. -1.
     -623   -1    0    0    0    0  0.00000000000E+00  0.00000000000E+00  0.12525980253E-10  0.17130000000E+03  0.17130000000E+03 0. -1.
       11    1    1    2    0    0 -0.14755047516E-01 -0.68096400481E-02  0.12293315893E+01  0.12294390999E+01  0.51109989000E-03 0. -1.
     -623    1    1    2    0    0 -0.48161716166E-01  0.25758245390E-01  0.11843353119E-02  0.17130000871E+03  0.17130000000E+03 0. -1.
      622    1    1    2    0    0  0.62916763682E-01 -0.18948605342E-01  0.27694840428E+01  0.27705521890E+01  0.40000000000E-01 0.  0.
</event>
<event>
 5   0  0.6200596E+07  0.9118800E+02  0.7818608E-02  0.1180000E+00
       11   -1    0    0    0    0  0.00000000000E+00  0.00000000000E+00  0.39999999673E+01  0.40000000000E+01  0.51109989000E-03 0. -1.
     -623   -1    0    0    0    0  0.00000000000E+00  0.00000000000E+00  0.12525980253E-10  0.17130000000E+03  0.17130000000E+03 0.  1.
       11    1    1    2    0    0  0.17876300248E-01 -0.57776200250E-01  0.50767266465E+00  0.51126260091E+00  0.51109989000E-03 0. -1.
     -623    1    1    2    0    0  0.89747045482E-02  0.33706942529E-01  0.40091940479E-02  0.17130000360E+03  0.17130000000E+03 0.  1.
      622    1    1    2    0    0 -0.26851004796E-01  0.24069257721E-01  0.34883181087E+01  0.34887338008E+01  0.40000000000E-01 0. -1.
</event>
<event>
 5   0  0.6200596E+07  0.9118800E+02  0.7818608E-02  0.1180000E+00
       11   -1    0    0    0    0  0.00000000000E+00  0.00000000000E+00  0.39999999673E+01  0.40000000000E+01  0.51109989000E-03 0. -1.
     -623   -1    0    0    0    0  0.00000000000E+00  0.00000000000E+00  0.12525980253E-10  0.17130000000E+03  0.17130000000E+03 0.  1.
       11    1    1    2    0    0 -0.12064278275E-02 -0.89027437464E-03  0.19151317257E-01  0.19216717449E-01  0.51109989000E-03 0. -1.
     -623    1    1    2    0    0  0.19334586754E-02  0.54591879929E-03  0.26643137721E-03  0.17130000001E+03  0.17130000000E+03 0.  1.
      622    1    1    2    0    0 -0.72703084793E-03  0.34435557534E-03  0.39805822187E+01  0.39807832706E+01  0.40000000000E-01 0. -1.
</event>
<event>
 5   0  0.6200596E+07  0.9118800E+02  0.7818608E-02  0.1180000E+00
       11   -1    0    0    0    0  0.00000000000E+00  0.00000000000E+00  0.39999999673E+01  0.40000000000E+01  0.51109989000E-03 0.  1.
     -623   -1    0    0    0    0  0.00000000000E+00  0.00000000000E+00  0.12525980253E-10  0.17130000000E+03  0.17130000000E+03 0. -1.
       11    1    1    2    0    0 -0.10162789359E-02 -0.58061352024E-03  0.26788338966E-02  0.29677108429E-02  0.51109989000E-03 0.  1.
     -623    1    1    2    0    0  0.92430433230E-03 -0.46136461485E-03  0.48913850734E-03  0.17130000000E+03  0.17130000000E+03 0. -1.
      622    1    1    2    0    0  0.91974603639E-04  0.10419781351E-02  0.39968319950E+01  0.39970322853E+01  0.40000000000E-01 0.  1.
</event>
<event>
 5   0  0.6200596E+07  0.9118800E+02  0.7818608E-02  0.1180000E+00
       11   -1    0    0    0    0  0.00000000000E+00  0.00000000000E+00  0.39999999673E+01  0.40000000000E+01  0.51109989000E-03 0. -1.
     -623   -1    0    0    0    0  0.00000000000E+00  0.00000000000E+00  0.12525980253E-10  0.17130000000E+03  0.17130000000E+03 0. -1.
       11    1    1    2    0    0 -0.15972176334E-02  0.10687321044E-02  0.59005205298E-01  0.59038705666E-01  0.51109989000E-03 0. -1.
     -623    1    1    2    0    0  0.27848201159E-02 -0.14713379331E-02  0.23669774978E-03  0.17130000003E+03  0.17130000000E+03 0. -1.
      622    1    1    2    0    0 -0.11876024825E-02  0.40260582870E-03  0.39407580643E+01  0.39409612652E+01  0.40000000000E-01 0. -1.
</event>
<event>
 5   0  0.6200596E+07  0.9118800E+02  0.7818608E-02  0.1180000E+00
       11   -1    0    0    0    0  0.00000000000E+00  0.00000000000E+00  0.39999999673E+01  0.40000000000E+01  0.51109989000E-03 0. -1.
     -623   -1    0    0    0    0  0.00000000000E+00  0.00000000000E+00  0.12525980253E-10  0.17130000000E+03  0.17130000000E+03 0. -1.
       11    1    1    2    0    0 -0.11371364927E-01  0.24545249007E-02  0.58754290091E+00  0.58765828018E+00  0.51109989000E-03 0. -1.
     -623    1    1    2    0    0 -0.67476751722E-03 -0.42124488552E-03  0.37166981477E-03  0.17130000000E+03  0.17130000000E+03 0. -1.
      622    1    1    2    0    0  0.12046132445E-01 -0.20332800152E-02  0.34120853966E+01  0.34123417176E+01  0.40000000000E-01 0. -1.
</event>
<event>
 5   0  0.6200596E+07  0.9118800E+02  0.7818608E-02  0.1180000E+00
       11   -1    0    0    0    0  0.00000000000E+00  0.00000000000E+00  0.39999999673E+01  0.40000000000E+01  0.51109989000E-03 0. -1.
     -623   -1    0    0    0    0  0.00000000000E+00  0.00000000000E+00  0.12525980253E-10  0.17130000000E+03  0.17130000000E+03 0.  1.
       11    1    1    2    0    0 -0.35283907330E-02 -0.31973631152E-03  0.63491935271E-01  0.63592757754E-01  0.51109989000E-03 0. -1.
     -623    1    1    2    0    0  0.61274319059E-03  0.36326982313E-03  0.30510793558E-03  0.17130000000E+03  0.17130000000E+03 0.  1.
      622    1    1    2    0    0  0.29156475424E-02 -0.43533511614E-04  0.39362029242E+01  0.39364072405E+01  0.40000000000E-01 0. -1.
</event>
<event>
 5   0  0.6200596E+07  0.9118800E+02  0.7818608E-02  0.1180000E+00
       11   -1    0    0    0    0  0.00000000000E+00  0.00000000000E+00  0.39999999673E+01  0.40000000000E+01  0.51109989000E-03 0.  1.
     -623   -1    0    0    0    0  0.00000000000E+00  0.00000000000E+00  0.12525980253E-10  0.17130000000E+03  0.17130000000E+03 0.  1.
       11    1    1    2    0    0 -0.70588347011E-02 -0.19039948666E-02  0.24646345681E+00  0.24657240135E+00  0.51109989000E-03 0.  1.
     -623    1    1    2    0    0 -0.12793613799E-02 -0.15220371247E-02  0.33289416838E-03  0.17130000001E+03  0.17130000000E+03 0.  1.
      622    1    1    2    0    0  0.83381960810E-02  0.34260319914E-02  0.37532036164E+01  0.37534275868E+01  0.40000000000E-01 0.  1.
</event>
<event>
 5   0  0.6200596E+07  0.9118800E+02  0.7818608E-02  0.1180000E+00
       11   -1    0    0    0    0  0.00000000000E+00  0.00000000000E+00  0.39999999673E+01  0.40000000000E+01  0.51109989000E-03 0.  1.
     -623   -1    0    0    0    0  0.00000000000E+00  0.00000000000E+00  0.12525980253E-10  0.17130000000E+03  0.17130000000E+03 0.  1.
       11    1    1    2    0    0  0.97042631086E-02 -0.53446717684E-02  0.10739103949E+00  0.10796219164E+00  0.51109989000E-03 0.  1.
     -623    1    1    2    0    0  0.13769241729E-02  0.20978733456E-02  0.79382307527E-03  0.17130000002E+03  0.17130000000E+03 0.  1.
      622    1    1    2    0    0 -0.11081187281E-01  0.32467984227E-02  0.38918151048E+01  0.38920377881E+01  0.40000000000E-01 0.  1.
</event>
<event>
 5   0  0.6200596E+07  0.9118800E+02  0.7818608E-02  0.1180000E+00
       11   -1    0    0    0    0  0.00000000000E+00  0.00000000000E+00  0.39999999673E+01  0.40000000000E+01  0.51109989000E-03 0. -1.
     -623   -1    0    0    0    0  0.00000000000E+00  0.00000000000E+00  0.12525980253E-10  0.17130000000E+03  0.17130000000E+03 0. -1.
       11    1    1    2    0    0  0.14890793792E-01  0.25985318241E-01  0.24910405877E+00  0.25089851697E+00  0.51109989000E-03 0. -1.
     -623    1    1    2    0    0 -0.37564311797E-01 -0.23048226434E-01  0.20832151265E-02  0.17130000568E+03  0.17130000000E+03 0. -1.
      622    1    1    2    0    0  0.22673518005E-01 -0.29370918063E-02  0.37488126935E+01  0.37490958011E+01  0.40000000000E-01 0. -1.
</event>
<event>
 5   0  0.6200596E+07  0.9118800E+02  0.7818608E-02  0.1180000E+00
       11   -1    0    0    0    0  0.00000000000E+00  0.00000000000E+00  0.39999999673E+01  0.40000000000E+01  0.51109989000E-03 0.  1.
     -623   -1    0    0    0    0  0.00000000000E+00  0.00000000000E+00  0.12525980253E-10  0.17130000000E+03  0.17130000000E+03 0.  1.
       11    1    1    2    0    0 -0.36426311140E-01 -0.17474833892E-01  0.70538763422E+00  0.70654385688E+00  0.51109989000E-03 0.  1.
     -623    1    1    2    0    0 -0.11459985273E-02 -0.66728421130E-02  0.17021246905E-02  0.17130000014E+03  0.17130000000E+03 0.  1.
      622    1    1    2    0    0  0.37572309667E-01  0.24147676005E-01  0.32929102084E+01  0.32934560009E+01  0.40000000000E-01 0.  1.
</event>
<event>
 5   0  0.6200596E+07  0.9118800E+02  0.7818608E-02  0.1180000E+00
       11   -1    0    0    0    0  0.00000000000E+00  0.00000000000E+00  0.39999999673E+01  0.40000000000E+01  0.51109989000E-03 0.  1.
     -623   -1    0    0    0    0  0.00000000000E+00  0.00000000000E+00  0.12525980253E-10  0.17130000000E+03  0.17130000000E+03 0.  1.
       11    1    1    2    0    0  0.13108346220E-01 -0.27184532477E-02  0.32547079709E+00  0.32574640399E+00  0.51109989000E-03 0.  1.
     -623    1    1    2    0    0  0.25825484608E-03 -0.33423289303E-03  0.51889629101E-03  0.17130000000E+03  0.17130000000E+03 0.  1.
      622    1    1    2    0    0 -0.13366601066E-01  0.30526861407E-02  0.36740102740E+01  0.36742535947E+01  0.40000000000E-01 0.  1.
</event>
<event>
 5   0  0.6200596E+07  0.9118800E+02  0.7818608E-02  0.1180000E+00
       11   -1    0    0    0    0  0.00000000000E+00  0.00000000000E+00  0.39999999673E+01  0.40000000000E+01  0.51109989000E-03 0.  1.
     -623   -1    0    0    0    0  0.00000000000E+00  0.00000000000E+00  0.12525980253E-10  0.17130000000E+03  0.17130000000E+03 0.  1.
       11    1    1    2    0    0 -0.28031578005E-02 -0.12619638103E-01  0.92767456570E-01  0.93665229298E-01  0.51109989000E-03 0.  1.
     -623    1    1    2    0    0  0.19721640685E-02  0.40611948061E-02  0.11120684220E-02  0.17130000006E+03  0.17130000000E+03 0.  1.
      622    1    1    2    0    0  0.83099373199E-03  0.85584432966E-02  0.39061204424E+01  0.39063347076E+01  0.40000000000E-01 0.  1.
</event>
<event>
 5   0  0.6200596E+07  0.9118800E+02  0.7818608E-02  0.1180000E+00
       11   -1    0    0    0    0  0.00000000000E+00  0.00000000000E+00  0.39999999673E+01  0.40000000000E+01  0.51109989000E-03 0.  1.
     -623   -1    0    0    0    0  0.00000000000E+00  0.00000000000E+00  0.12525980253E-10  0.17130000000E+03  0.17130000000E+03 0.  1.
       11    1    1    2    0    0 -0.10059123872E-01 -0.62465702266E-02  0.19687151945E+01  0.19687508690E+01  0.51109989000E-03 0.  1.
     -623    1    1    2    0    0 -0.87780688170E-03  0.46190723747E-03  0.46721841008E-03  0.17130000000E+03  0.17130000000E+03 0.  1.
      622    1    1    2    0    0  0.10936930754E-01  0.57846629891E-02  0.20308175544E+01  0.20312491275E+01  0.40000000000E-01 0.  1.
</event>
<event>
 5   0  0.6200596E+07  0.9118800E+02  0.7818608E-02  0.1180000E+00
       11   -1    0    0    0    0  0.00000000000E+00  0.00000000000E+00  0.39999999673E+01  0.40000000000E+01  0.51109989000E-03 0.  1.
     -623   -1    0    0    0    0  0.00000000000E+00  0.00000000000E+00  0.12525980253E-10  0.17130000000E+03  0.17130000000E+03 0. -1.
       11    1    1    2    0    0 -0.20204566316E-02  0.26239686702E-03  0.48047336715E+00  0.48047795877E+00  0.51109989000E-03 0.  1.
     -623    1    1    2    0    0 -0.19038937172E-03  0.24567333180E-03  0.23260145510E-03  0.17130000000E+03  0.17130000000E+03 0. -1.
      622    1    1    2    0    0  0.22108460033E-02 -0.50807019881E-03  0.35192939988E+01  0.35195220408E+01  0.40000000000E-01 0.  1.
</event>
<event>
 5   0  0.6200596E+07  0.9118800E+02  0.7818608E-02  0.1180000E+00
       11   -1    0    0    0    0  0.00000000000E+00  0.00000000000E+00  0.39999999673E+01  0.40000000000E+01  0.51109989000E-03 0. -1.
     -623   -1    0    0    0    0  0.00000000000E+00  0.00000000000E+00  0.12525980253E-10  0.17130000000E+03  0.17130000000E+03 0.  1.
       11    1    1    2    0    0 -0.39686253034E-01 -0.37216342321E-01  0.40031794523E+00  0.40399848182E+00  0.51109989000E-03 0. -1.
     -623    1    1    2    0    0 -0.19997812624E-01  0.62220549571E-02  0.45332844567E-02  0.17130000134E+03  0.17130000000E+03 0.  1.
      622    1    1    2    0    0  0.59684065658E-01  0.30994287364E-01  0.35951487377E+01  0.35960001779E+01  0.40000000000E-01 0. -1.
</event>
<event>
 5   0  0.6200596E+07  0.9118800E+02  0.7818608E-02  0.1180000E+00
       11   -1    0    0    0    0  0.00000000000E+00  0.00000000000E+00  0.39999999673E+01  0.40000000000E+01  0.51109989000E-03 0. -1.
     -623   -1    0    0    0    0  0.00000000000E+00  0.00000000000E+00  0.12525980253E-10  0.17130000000E+03  0.17130000000E+03 0.  1.
       11    1    1    2    0    0 -0.36525742315E-02  0.66480426662E-02  0.11071679562E+00  0.11097751044E+00  0.51109989000E-03 0. -1.
     -623    1    1    2    0    0  0.20436641620E-02  0.86150752956E-03  0.47399339515E-03  0.17130000002E+03  0.17130000000E+03 0.  1.
      622    1    1    2    0    0  0.16089100696E-02 -0.75095501958E-02  0.38888091783E+01  0.38890224745E+01  0.40000000000E-01 0. -1.
</event>
<event>
 5   0  0.6200596E+07  0.9118800E+02  0.7818608E-02  0.1180000E+00
       11   -1    0    0    0    0  0.00000000000E+00  0.00000000000E+00  0.39999999673E+01  0.40000000000E+01  0.51109989000E-03 0. -1.
     -623   -1    0    0    0    0  0.00000000000E+00  0.00000000000E+00  0.12525980253E-10  0.17130000000E+03  0.17130000000E+03 0.  1.
       11    1    1    2    0    0 -0.45535903805E-03  0.15303034813E-02  0.11240830025E-01  0.11365151157E-01  0.51109989000E-03 0. -1.
     -623    1    1    2    0    0  0.88488664524E-03  0.14532625977E-03  0.32524118187E-03  0.17130000000E+03  0.17130000000E+03 0.  1.
      622    1    1    2    0    0 -0.42952760720E-03 -0.16756297410E-02  0.39884338962E+01  0.39886348462E+01  0.40000000000E-01 0. -1.
</event>
<event>
 5   0  0.6200596E+07  0.9118800E+02  0.7818608E-02  0.1180000E+00
       11   -1    0    0    0    0  0.00000000000E+00  0.00000000000E+00  0.39999999673E+01  0.40000000000E+01  0.51109989000E-03 0. -1.
     -623   -1    0    0    0    0  0.00000000000E+00  0.00000000000E+00  0.12525980253E-10  0.17130000000E+03  0.17130000000E+03 0. -1.
       11    1    1    2    0    0  0.16557038978E-01  0.70519646272E-02  0.91221770856E+00  0.91239535004E+00  0.51109989000E-03 0. -1.
     -623    1    1    2    0    0 -0.10002676448E-02  0.52384215188E-03  0.48521425780E-03  0.17130000000E+03  0.17130000000E+03 0. -1.
      622    1    1    2    0    0 -0.15556771334E-01 -0.75758067791E-02  0.30872970445E+01  0.30876046456E+01  0.40000000000E-01 0.  0.
</event>
<event>
 5   0  0.6200596E+07  0.9118800E+02  0.7818608E-02  0.1180000E+00
       11   -1    0    0    0    0  0.00000000000E+00  0.00000000000E+00  0.39999999673E+01  0.40000000000E+01  0.51109989000E-03 0.  1.
     -623   -1    0    0    0    0  0.00000000000E+00  0.00000000000E+00  0.12525980253E-10  0.17130000000E+03  0.17130000000E+03 0. -1.
       11    1    1    2    0    0 -0.21460403641E-03 -0.11381525470E-01  0.17857907181E+00  0.17894225685E+00  0.51109989000E-03 0.  1.
     -623    1    1    2    0    0 -0.44575079137E-03 -0.14786916167E-02  0.59423183562E-03  0.17130000001E+03  0.17130000000E+03 0. -1.
      622    1    1    2    0    0  0.66035482778E-03  0.12860217086E-01  0.38208266637E+01  0.38210577352E+01  0.40000000000E-01 0.  1.
</event>
<event>
 5   0  0.6200596E+07  0.9118800E+02  0.7818608E-02  0.1180000E+00
       11   -1    0    0    0    0  0.00000000000E+00  0.00000000000E+00  0.39999999673E+01  0.40000000000E+01  0.51109989000E-03 0.  1.
     -623   -1    0    0    0    0  0.00000000000E+00  0.00000000000E+00  0.12525980253E-10  0.17130000000E+03  0.17130000000E+03 0.  1.
       11    1    1    2    0    0  0.19674190854E-01 -0.15709203664E-02  0.28377961072E+00  0.28446558713E+00  0.51109989000E-03 0.  1.
     -623    1    1    2    0    0  0.81850933452E-03  0.41593397416E-02  0.95873558776E-03  0.17130000006E+03  0.17130000000E+03 0.  1.
      622    1    1    2    0    0 -0.20492700188E-01 -0.25884193752E-02  0.37152616210E+01  0.37155343577E+01  0.40000000000E-01 0.  1.
</event>
<event>
 5   0  0.6200596E+07  0.9118800E+02  0.7818608E-02  0.1180000E+00
       11   -1    0    0    0    0  0.00000000000E+00  0.00000000000E+00  0.39999999673E+01  0.40000000000E+01  0.51109989000E-03 0. -1.
     -623   -1    0    0    0    0  0.00000000000E+00  0.00000000000E+00  0.12525980253E-10  0.17130000000E+03  0.17130000000E+03 0. -1.
       11    1    1    2    0    0  0.15108159281E-01  0.30936053523E-02  0.19434552769E+00  0.19495710355E+00  0.51109989000E-03 0. -1.
     -623    1    1    2    0    0 -0.69107641849E-03  0.71994225425E-03  0.85102685631E-03  0.17130000001E+03  0.17130000000E+03 0. -1.
      622    1    1    2    0    0 -0.14417082862E-01 -0.38135476066E-02  0.38048034128E+01  0.38050428914E+01  0.40000000000E-01 0. -1.
</event>
<event>
 5   0  0.6200596E+07  0.9118800E+02  0.7818608E-02  0.1180000E+00
       11   -1    0    0    0    0  0.00000000000E+00  0.00000000000E+00  0.39999999673E+01  0.40000000000E+01  0.51109989000E-03 0.  1.
     -623   -1    0    0    0    0  0.00000000000E+00  0.00000000000E+00  0.12525980253E-10  0.17130000000E+03  0.17130000000E+03 0. -1.
       11    1    1    2    0    0 -0.44750055574E-03  0.64237490096E-04  0.72042713750E-02  0.72365137913E-02  0.51109989000E-03 0.  1.
     -623    1    1    2    0    0  0.97001921420E-03  0.12624843538E-02  0.23283946778E-03  0.17130000001E+03  0.17130000000E+03 0. -1.
      622    1    1    2    0    0 -0.52251865845E-03 -0.13267218439E-02  0.39925628565E+01  0.39927634787E+01  0.40000000000E-01 0.  1.
</event>
<event>
 5   0  0.6200596E+07  0.9118800E+02  0.7818608E-02  0.1180000E+00
       11   -1    0    0    0    0  0.00000000000E+00  0.00000000000E+00  0.39999999673E+01  0.40000000000E+01  0.51109989000E-03 0. -1.
     -623   -1    0    0    0    0  0.00000000000E+00  0.00000000000E+00  0.12525980253E-10  0.17130000000E+03  0.17130000000E+03 0.  1.
       11    1    1    2    0    0  0.18572409159E-03 -0.81889839696E-04  0.15559872963E-01  0.15569587867E-01  0.51109989000E-03 0. -1.
     -623    1    1    2    0    0  0.15103819201E-03  0.44684143613E-03  0.21050056972E-03  0.17130000000E+03  0.17130000000E+03 0.  1.
      622    1    1    2    0    0 -0.33676228360E-03 -0.36495159644E-03  0.39842295938E+01  0.39844304114E+01  0.40000000000E-01 0. -1.
</event>
<event>
 5   0  0.6200596E+07  0.9118800E+02  0.7818608E-02  0.1180000E+00
       11   -1    0    0    0    0  0.00000000000E+00  0.00000000000E+00  0.39999999673E+01  0.40000000000E+01  0.51109989000E-03 0. -1.
     -623   -1    0    0    0    0  0.00000000000E+00  0.00000000000E+00  0.12525980253E-10  0.17130000000E+03  0.17130000000E+03 0. -1.
       11    1    1    2    0    0  0.67294206795E-01  0.59673865019E-01  0.15913780155E+01  0.15939177299E+01  0.51109989000E-03 0. -1.
     -623    1    1    2    0    0  0.43190343891E-01 -0.32712409870E-01  0.55704613058E-02  0.17130000866E+03  0.17130000000E+03 0. -1.
      622    1    1    2    0    0 -0.11048455069E+00 -0.26961455149E-01  0.24030514906E+01  0.24060736112E+01  0.40000000000E-01 0. -1.
</event>
<event>
 5   0  0.6200596E+07  0.9118800E+02  0.7818608E-02  0.1180000E+00
       11   -1    0    0    0    0  0.00000000000E+00  0.00000000000E+00  0.39999999673E+01  0.40000000000E+01  0.51109989000E-03 0.  1.
     -623   -1    0    0    0    0  0.00000000000E+00  0.00000000000E+00  0.12525980253E-10  0.17130000000E+03  0.17130000000E+03 0.  1.
       11    1    1    2    0    0 -0.73491105523E-02 -0.27221101367E-02  0.37916319681E-01  0.38721154788E-01  0.51109989000E-03 0.  1.
     -623    1    1    2    0    0  0.35551827813E-02  0.69779949938E-02  0.10110478440E-02  0.17130000018E+03  0.17130000000E+03 0.  1.
      622    1    1    2    0    0  0.37939277709E-02 -0.42558848571E-02  0.39610725998E+01  0.39612786632E+01  0.40000000000E-01 0.  1.
</event>
<event>
 5   0  0.6200596E+07  0.9118800E+02  0.7818608E-02  0.1180000E+00
       11   -1    0    0    0    0  0.00000000000E+00  0.00000000000E+00  0.39999999673E+01  0.40000000000E+01  0.51109989000E-03 0. -1.
     -623   -1    0    0    0    0  0.00000000000E+00  0.00000000000E+00  0.12525980253E-10  0.17130000000E+03  0.17130000000E+03 0.  1.
       11    1    1    2    0    0 -0.56590915539E-02 -0.84887829599E-03  0.13630885114E-01  0.14792165591E-01  0.51109989000E-03 0. -1.
     -623    1    1    2    0    0  0.78956346731E-02  0.14528184515E-02  0.13628621852E-02  0.17130000019E+03  0.17130000000E+03 0.  1.
      622    1    1    2    0    0 -0.22365431192E-02 -0.60394015556E-03  0.39850062201E+01  0.39852076409E+01  0.40000000000E-01 0. -1.
</event>
<event>
 5   0  0.6200596E+07  0.9118800E+02  0.7818608E-02  0.1180000E+00
       11   -1    0    0    0    0  0.00000000000E+00  0.00000000000E+00  0.39999999673E+01  0.40000000000E+01  0.51109989000E-03 0.  1.
     -623   -1    0    0    0    0  0.00000000000E+00  0.00000000000E+00  0.12525980253E-10  0.17130000000E+03  0.17130000000E+03 0. -1.
       11    1    1    2    0    0 -0.58212171308E-04 -0.16566605932E-03  0.61402843779E-02  0.61640203864E-02  0.51109989000E-03 0.  1.
     -623    1    1    2    0    0  0.42076906092E-03  0.15159727915E-03  0.22403428090E-03  0.17130000000E+03  0.17130000000E+03 0. -1.
      622    1    1    2    0    0 -0.36255688961E-03  0.14068780171E-04  0.39936356487E+01  0.39938359789E+01  0.40000000000E-01 0.  1.
</event>
<event>
 5   0  0.6200596E+07  0.9118800E+02  0.7818608E-02  0.1180000E+00
       11   -1    0    0    0    0  0.00000000000E+00  0.00000000000E+00  0.39999999673E+01  0.40000000000E+01  0.51109989000E-03 0. -1.
     -623   -1    0    0    0    0  0.00000000000E+00  0.00000000000E+00  0.12525980253E-10  0.17130000000E+03  0.17130000000E+03 0. -1.
       11    1    1    2    0    0  0.62930554766E-03  0.60807521651E-03  0.52076486739E+00  0.52076585344E+00  0.51109989000E-03 0. -1.
     -623    1    1    2    0    0  0.89436814721E-03 -0.32460836365E-03  0.23124467172E-03  0.17130000000E+03  0.17130000000E+03 0. -1.
      622    1    1    2    0    0 -0.15236736949E-02 -0.28346685286E-03  0.34790038553E+01  0.34792341438E+01  0.40000000000E-01 0. -1.
</event>
<event>
 5   0  0.6200596E+07  0.9118800E+02  0.7818608E-02  0.1180000E+00
       11   -1    0    0    0    0  0.00000000000E+00  0.00000000000E+00  0.39999999673E+01  0.40000000000E+01  0.51109989000E-03 0.  1.
     -623   -1    0    0    0    0  0.00000000000E+00  0.00000000000E+00  0.12525980253E-10  0.17130000000E+03  0.17130000000E+03 0. -1.
       11    1    1    2    0    0 -0.41030008189E-02 -0.40163008239E-02  0.74733334491E-02  0.94380730711E-02  0.51109989000E-03 0.  1.
     -623    1    1    2    0    0  0.50117544905E-02  0.54208204337E-02  0.21657084812E-02  0.17130000017E+03  0.17130000000E+03 0. -1.
      622    1    1    2    0    0 -0.90875367155E-03 -0.14045196098E-02  0.39903609254E+01  0.39905617542E+01  0.40000000000E-01 0.  1.
</event>
<event>
 5   0  0.6200596E+07  0.9118800E+02  0.7818608E-02  0.1180000E+00
       11   -1    0    0    0    0  0.00000000000E+00  0.00000000000E+00  0.39999999673E+01  0.40000000000E+01  0.51109989000E-03 0. -1.
     -623   -1    0    0    0    0  0.00000000000E+00  0.00000000000E+00  0.12525980253E-10  0.17130000000E+03  0.17130000000E+03 0. -1.
       11    1    1    2    0    0 -0.32950455635E-01  0.32388638370E-02  0.99916942253E+00  0.99971796968E+00  0.51109989000E-03 0. -1.
     -623    1    1    2    0    0  0.10723701520E-02 -0.78538907197E-03  0.98555189922E-03  0.17130000001E+03  0.17130000000E+03 0. -1.
      622    1    1    2    0    0  0.31878085483E-01 -0.24534747651E-02  0.29998449929E+01  0.30002820223E+01  0.40000000000E-01 0. -1.
</event>
<event>
 5   0  0.6200596E+07  0.9118800E+02  0.7818608E-02  0.1180000E+00
       11   -1    0    0    0    0  0.00000000000E+00  0.00000000000E+00  0.39999999673E+01  0.40000000000E+01  0.51109989000E-03 0. -1.
     -623   -1    0    0    0    0  0.00000000000E+00  0.00000000000E+00  0.12525980253E-10  0.17130000000E+03  0.17130000000E+03 0. -1.
       11    1    1    2    0    0 -0.74529378062E-03  0.46004547627E-02  0.26361194248E+00  0.26365363090E+00  0.51109989000E-03 0. -1.
     -623    1    1    2    0    0  0.14283345412E-03  0.61136739984E-04  0.25873181462E-03  0.17130000000E+03  0.17130000000E+03 0. -1.
      622    1    1    2    0    0  0.60246032650E-03 -0.46615915027E-02  0.37361292931E+01  0.37363463688E+01  0.40000000000E-01 0. -1.
</event>
<event>
 5   0  0.6200596E+07  0.9118800E+02  0.7818608E-02  0.1180000E+00
       11   -1    0    0    0    0  0.00000000000E+00  0.00000000000E+00  0.39999999673E+01  0.40000000000E+01  0.51109989000E-03 0.  1.
     -623   -1    0    0    0    0  0.00000000000E+00  0.00000000000E+00  0.12525980253E-10  0.17130000000E+03  0.17130000000E+03 0.  1.
       11    1    1    2    0    0 -0.28509906928E-02  0.16000450391E-02  0.36977578153E+00  0.36979058685E+00  0.51109989000E-03 0.  1.
     -623    1    1    2    0    0 -0.46127500834E-02 -0.24031702718E-02  0.24299354203E-03  0.17130000008E+03  0.17130000000E+03 0.  1.
      622    1    1    2    0    0  0.74637407761E-02  0.80312523265E-03  0.36299811923E+01  0.36302093340E+01  0.40000000000E-01 0.  1.
</event>
<event>
 5   0  0.6200596E+07  0.9118800E+02  0.7818608E-02  0.1180000E+00
       11   -1    0    0    0    0  0.00000000000E+00  0.00000000000E+00  0.39999999673E+01  0.40000000000E+01  0.51109989000E-03 0. -1.
     -623   -1    0    0    0    0  0.00000000000E+00  0.00000000000E+00  0.12525980253E-10  0.17130000000E+03  0.17130000000E+03 0.  1.
       11    1    1    2    0    0 -0.18257880531E-01 -0.55747418857E-01  0.84503170213E+00  0.84706550144E+00  0.51109989000E-03 0. -1.
     -623    1    1    2    0    0  0.14055425173E-01  0.23588226756E-01  0.24565539864E-02  0.17130000222E+03  0.17130000000E+03 0.  1.
      622    1    1    2    0    0  0.42024553589E-02  0.32159192101E-01  0.31525117112E+01  0.31529322802E+01  0.40000000000E-01 0. -1.
</event>
<event>
 5   0  0.6200596E+07  0.9118800E+02  0.7818608E-02  0.1180000E+00
       11   -1    0    0    0    0  0.00000000000E+00  0.00000000000E+00  0.39999999673E+01  0.40000000000E+01  0.51109989000E-03 0.  1.
     -623   -1    0    0    0    0  0.00000000000E+00  0.00000000000E+00  0.12525980253E-10  0.17130000000E+03  0.17130000000E+03 0.  1.
       11    1    1    2    0    0  0.65848370984E-04 -0.33965729203E-03  0.24981500286E-01  0.24989123256E-01  0.51109989000E-03 0.  1.
     -623    1    1    2    0    0 -0.20779544944E-02 -0.12839931029E-02  0.20971117845E-03  0.17130000002E+03  0.17130000000E+03 0.  1.
      622    1    1    2    0    0  0.20121061235E-02  0.16236503950E-02  0.39748087559E+01  0.39750108592E+01  0.40000000000E-01 0.  1.
</event>
<event>
 5   0  0.6200596E+07  0.9118800E+02  0.7818608E-02  0.1180000E+00
       11   -1    0    0    0    0  0.00000000000E+00  0.00000000000E+00  0.39999999673E+01  0.40000000000E+01  0.51109989000E-03 0.  1.
     -623   -1    0    0    0    0  0.00000000000E+00  0.00000000000E+00  0.12525980253E-10  0.17130000000E+03  0.17130000000E+03 0. -1.
       11    1    1    2    0    0 -0.13192232134E-02  0.90045800546E-02  0.10936844218E+00  0.10974762038E+00  0.51109989000E-03 0.  1.
     -623    1    1    2    0    0  0.17213353126E-02  0.30163371761E-02  0.60342363364E-03  0.17130000004E+03  0.17130000000E+03 0. -1.
      622    1    1    2    0    0 -0.40211209923E-03 -0.12020917231E-01  0.38900281015E+01  0.38902523434E+01  0.40000000000E-01 0.  1.
</event>
<event>
 5   0  0.6200596E+07  0.9118800E+02  0.7818608E-02  0.1180000E+00
       11   -1    0    0    0    0  0.00000000000E+00  0.00000000000E+00  0.39999999673E+01  0.40000000000E+01  0.51109989000E-03 0. -1.
     -623   -1    0    0    0    0  0.00000000000E+00  0.00000000000E+00  0.12525980253E-10  0.17130000000E+03  0.17130000000E+03 0.  1.
       11    1    1    2    0    0  0.36409450758E-02  0.50133522182E-02  0.16080221079E-01  0.17240212048E-01  0.51109989000E-03 0. -1.
     -623    1    1    2    0    0 -0.17718891911E-02 -0.84764200001E-02  0.13629977072E-02  0.17130000022E+03  0.17130000000E+03 0.  1.
      622    1    1    2    0    0 -0.18690558847E-02  0.34630677819E-02  0.39825567486E+01  0.39827595636E+01  0.40000000000E-01 0. -1.
</event>
<event>
 5   0  0.6200596E+07  0.9118800E+02  0.7818608E-02  0.1180000E+00
       11   -1    0    0    0    0  0.00000000000E+00  0.00000000000E+00  0.39999999673E+01  0.40000000000E+01  0.51109989000E-03 0.  1.
     -623   -1    0    0    0    0  0.00000000000E+00  0.00000000000E+00  0.12525980253E-10  0.17130000000E+03  0.17130000000E+03 0. -1.
       11    1    1    2    0    0  0.88966266369E-02  0.34464530631E-02  0.12935794185E+00  0.12971031704E+00  0.51109989000E-03 0.  1.
     -623    1    1    2    0    0 -0.61033855518E-02  0.67680464407E-02  0.57378220267E-03  0.17130000024E+03  0.17130000000E+03 0. -1.
      622    1    1    2    0    0 -0.27932410851E-02 -0.10214499504E-01  0.38700682433E+01  0.38702894396E+01  0.40000000000E-01 0.  1.
</event>
<event>
 5   0  0.6200596E+07  0.9118800E+02  0.7818608E-02  0.1180000E+00
       11   -1    0    0    0    0  0.00000000000E+00  0.00000000000E+00  0.39999999673E+01  0.40000000000E+01  0.51109989000E-03 0. -1.
     -623   -1    0    0    0    0  0.00000000000E+00  0.00000000000E+00  0.12525980253E-10  0.17130000000E+03  0.17130000000E+03 0. -1.
       11    1    1    2    0    0 -0.81793706881E-02 -0.14932418692E-01  0.31899550888E+00  0.31944995717E+00  0.51109989000E-03 0. -1.
     -623    1    1    2    0    0 -0.15732524822E-01  0.41264220939E-01  0.84935893699E-03  0.17130000569E+03  0.17130000000E+03 0. -1.
      622    1    1    2    0    0  0.23911895510E-01 -0.26331802247E-01  0.36801550995E+01  0.36805443482E+01  0.40000000000E-01 0. -1.
</event>
<event>
 5   0  0.6200596E+07  0.9118800E+02  0.7818608E-02  0.1180000E+00
       11   -1    0    0    0    0  0.00000000000E+00  0.00000000000E+00  0.39999999673E+01  0.40000000000E+01  0.51109989000E-03 0. -1.
     -623   -1    0    0    0    0  0.00000000000E+00  0.00000000000E+00  0.12525980253E-10  0.17130000000E+03  0.17130000000E+03 0. -1.
       11    1    1    2    0    0 -0.24018077531E-02 -0.63332432966E-02  0.40610198634E+00  0.40615879060E+00  0.51109989000E-03 0. -1.
     -623    1    1    2    0    0  0.68498205670E-03 -0.26508460554E-03  0.28585115362E-03  0.17130000000E+03  0.17130000000E+03 0. -1.
      622    1    1    2    0    0  0.17168256964E-02  0.65983279021E-02  0.35936121299E+01  0.35938412076E+01  0.40000000000E-01 0. -1.
</event>
<event>
 5   0  0.6200596E+07  0.9118800E+02  0.7818608E-02  0.1180000E+00
       11   -1    0    0    0    0  0.00000000000E+00  0.00000000000E+00  0.39999999673E+01  0.40000000000E+01  0.51109989000E-03 0.  1.
     -623   -1    0    0    0    0  0.00000000000E+00  0.00000000000E+00  0.12525980253E-10  0.17130000000E+03  0.17130000000E+03 0.  1.
       11    1    1    2    0    0 -0.30266658156E-04  0.15302345668E-02  0.40277274636E-02  0.43389333612E-02  0.51109989000E-03 0.  1.
     -623    1    1    2    0    0  0.41293384476E-03 -0.55272083611E-03  0.51153551202E-03  0.17130000000E+03  0.17130000000E+03 0.  1.
      622    1    1    2    0    0 -0.38266718660E-03 -0.97751373071E-03  0.39954607044E+01  0.39956610645E+01  0.40000000000E-01 0.  1.
</event>
<event>
 5   0  0.6200596E+07  0.9118800E+02  0.7818608E-02  0.1180000E+00
       11   -1    0    0    0    0  0.00000000000E+00  0.00000000000E+00  0.39999999673E+01  0.40000000000E+01  0.51109989000E-03 0. -1.
     -623   -1    0    0    0    0  0.00000000000E+00  0.00000000000E+00  0.12525980253E-10  0.17130000000E+03  0.17130000000E+03 0.  1.
       11    1    1    2    0    0 -0.93544875193E-02  0.18680689357E-01  0.99126591606E+00  0.99148618354E+00  0.51109989000E-03 0. -1.
     -623    1    1    2    0    0 -0.50461829063E-02  0.14833387268E-03  0.57963058165E-03  0.17130000008E+03  0.17130000000E+03 0.  1.
      622    1    1    2    0    0  0.14400670426E-01 -0.18829023230E-01  0.30081544207E+01  0.30085137411E+01  0.40000000000E-01 0.  0.
</event>
<event>
 5   0  0.6200596E+07  0.9118800E+02  0.7818608E-02  0.1180000E+00
       11   -1    0    0    0    0  0.00000000000E+00  0.00000000000E+00  0.39999999673E+01  0.40000000000E+01  0.51109989000E-03 0.  1.
     -623   -1    0    0    0    0  0.00000000000E+00  0.00000000000E+00  0.12525980253E-10  0.17130000000E+03  0.17130000000E+03 0. -1.
       11    1    1    2    0    0 -0.78756161206E-03  0.10657315124E-02  0.14559229413E-01  0.14628342981E-01  0.51109989000E-03 0.  1.
     -623    1    1    2    0    0 -0.24553059452E-02 -0.15961309936E-02  0.27120004530E-03  0.17130000003E+03  0.17130000000E+03 0. -1.
      622    1    1    2    0    0  0.32428675572E-02  0.53039948116E-03  0.39851695379E+01  0.39853716318E+01  0.40000000000E-01 0.  1.
</event>
<event>
 5   0  0.6200596E+07  0.9118800E+02  0.7818608E-02  0.1180000E+00
       11   -1    0    0    0    0  0.00000000000E+00  0.00000000000E+00  0.39999999673E+01  0.40000000000E+01  0.51109989000E-03 0.  1.
     -623   -1    0    0    0    0  0.00000000000E+00  0.00000000000E+00  0.12525980253E-10  0.17130000000E+03  0.17130000000E+03 0.  1.
       11    1    1    2    0    0 -0.73264233104E-03 -0.16154574701E-02  0.82395453058E+00  0.82395659846E+00  0.51109989000E-03 0.  1.
     -623    1    1    2    0    0  0.25366036448E-02 -0.51282764037E-03  0.25517620158E-03  0.17130000002E+03  0.17130000000E+03 0.  1.
      622    1    1    2    0    0 -0.18039613138E-02  0.21282851104E-02  0.31757902606E+01  0.31760433818E+01  0.40000000000E-01 0.  1.
</event>
<event>
 5   0  0.6200596E+07  0.9118800E+02  0.7818608E-02  0.1180000E+00
       11   -1    0    0    0    0  0.00000000000E+00  0.00000000000E+00  0.39999999673E+01  0.40000000000E+01  0.51109989000E-03 0.  1.
     -623   -1    0    0    0    0  0.00000000000E+00  0.00000000000E+00  0.12525980253E-10  0.17130000000E+03  0.17130000000E+03 0. -1.
       11    1    1    2    0    0 -0.39361864638E-02  0.54888410352E-01  0.28899886898E+01  0.28905126049E+01  0.51109989000E-03 0.  1.
     -623    1    1    2    0    0 -0.59641590013E-02  0.89784030217E-02  0.31307614104E-02  0.17130000037E+03  0.17130000000E+03 0. -1.
      622    1    1    2    0    0  0.99003454651E-02 -0.63866813373E-01  0.11068805162E+01  0.11094870273E+01  0.40000000000E-01 0.  0.
</event>
<event>
 5   0  0.6200596E+07  0.9118800E+02  0.7818608E-02  0.1180000E+00
       11   -1    0    0    0    0  0.00000000000E+00  0.00000000000E+00  0.39999999673E+01  0.40000000000E+01  0.51109989000E-03 0.  1.
     -623   -1    0    0    0    0  0.00000000000E+00  0.00000000000E+00  0.12525980253E-10  0.17130000000E+03  0.17130000000E+03 0.  1.
       11    1    1    2    0    0  0.47422063275E-02  0.64809804075E-02  0.24912456389E-02  0.84237256954E-02  0.51109989000E-03 0.  1.
     -623    1    1    2    0    0 -0.14577793637E-02 -0.61463039950E-02  0.61344662229E-02  0.17130000023E+03  0.17130000000E+03 0.  1.
      622    1    1    2    0    0 -0.32844269638E-02 -0.33467641245E-03  0.39913742555E+01  0.39915760480E+01  0.40000000000E-01 0.  1.
</event>
<event>
 5   0  0.6200596E+07  0.9118800E+02  0.7818608E-02  0.1180000E+00
       11   -1    0    0    0    0  0.00000000000E+00  0.00000000000E+00  0.39999999673E+01  0.40000000000E+01  0.51109989000E-03 0.  1.
     -623   -1    0    0    0    0  0.00000000000E+00  0.00000000000E+00  0.12525980253E-10  0.17130000000E+03  0.17130000000E+03 0.  1.
       11    1    1    2    0    0 -0.14828916718E-02  0.26003240563E-02  0.51362419745E-01  0.51452114007E-01  0.51109989000E-03 0.  1.
     -623    1    1    2    0    0  0.29593967550E-02 -0.16433938722E-03  0.29332637379E-03  0.17130000003E+03  0.17130000000E+03 0.  1.
      622    1    1    2    0    0 -0.14765050833E-02 -0.24359846691E-02  0.39483442212E+01  0.39485478601E+01  0.40000000000E-01 0.  1.
</event>
<event>
 5   0  0.6200596E+07  0.9118800E+02  0.7818608E-02  0.1180000E+00
       11   -1    0    0    0    0  0.00000000000E+00  0.00000000000E+00  0.39999999673E+01  0.40000000000E+01  0.51109989000E-03 0.  1.
     -623   -1    0    0    0    0  0.00000000000E+00  0.00000000000E+00  0.12525980253E-10  0.17130000000E+03  0.17130000000E+03 0.  1.
       11    1    1    2    0    0  0.71600478285E-02 -0.11156783180E-01  0.36625784763E+00  0.36649803856E+00  0.51109989000E-03 0.  1.
     -623    1    1    2    0    0 -0.86620943418E-02 -0.22964278752E-02  0.48579098513E-03  0.17130000024E+03  0.17130000000E+03 0.  1.
      622    1    1    2    0    0  0.15020465132E-02  0.13453211055E-01  0.36332563287E+01  0.36335017264E+01  0.40000000000E-01 0.  1.
</event>
<event>
 5   0  0.6200596E+07  0.9118800E+02  0.7818608E-02  0.1180000E+00
       11   -1    0    0    0    0  0.00000000000E+00  0.00000000000E+00  0.39999999673E+01  0.40000000000E+01  0.51109989000E-03 0. -1.
     -623   -1    0    0    0    0  0.00000000000E+00  0.00000000000E+00  0.12525980253E-10  0.17130000000E+03  0.17130000000E+03 0.  1.
       11    1    1    2    0    0 -0.39778846591E-03 -0.15648021121E-02  0.52849881842E-02  0.55496992607E-02  0.51109989000E-03 0. -1.
     -623    1    1    2    0    0  0.84289636114E-03  0.59218062163E-03  0.46510827690E-03  0.17130000000E+03  0.17130000000E+03 0.  1.
      622    1    1    2    0    0 -0.44510789523E-03  0.97262149045E-03  0.39942498709E+01  0.39944502970E+01  0.40000000000E-01 0. -1.
</event>
<event>
 5   0  0.6200596E+07  0.9118800E+02  0.7818608E-02  0.1180000E+00
       11   -1    0    0    0    0  0.00000000000E+00  0.00000000000E+00  0.39999999673E+01  0.40000000000E+01  0.51109989000E-03 0.  1.
     -623   -1    0    0    0    0  0.00000000000E+00  0.00000000000E+00  0.12525980253E-10  0.17130000000E+03  0.17130000000E+03 0. -1.
       11    1    1    2    0    0 -0.46937435651E-02  0.11193080349E-01  0.97809874601E+00  0.97817418410E+00  0.51109989000E-03 0.  1.
     -623    1    1    2    0    0 -0.40598152844E-03 -0.23385934470E-03  0.36433696659E-03  0.17130000000E+03  0.17130000000E+03 0. -1.
      622    1    1    2    0    0  0.50997250936E-02 -0.10959221004E-01  0.30215368844E+01  0.30218258149E+01  0.40000000000E-01 0.  1.
</event>
<event>
 5   0  0.6200596E+07  0.9118800E+02  0.7818608E-02  0.1180000E+00
       11   -1    0    0    0    0  0.00000000000E+00  0.00000000000E+00  0.39999999673E+01  0.40000000000E+01  0.51109989000E-03 0. -1.
     -623   -1    0    0    0    0  0.00000000000E+00  0.00000000000E+00  0.12525980253E-10  0.17130000000E+03  0.17130000000E+03 0. -1.
       11    1    1    2    0    0 -0.85325397252E-03  0.54831542315E-03  0.15579757989E-01  0.15621100260E-01  0.51109989000E-03 0. -1.
     -623    1    1    2    0    0 -0.32873825585E-04 -0.32703477625E-02  0.24315860527E-03  0.17130000003E+03  0.17130000000E+03 0. -1.
      622    1    1    2    0    0  0.88612779811E-03  0.27220323393E-02  0.39841770508E+01  0.39843788683E+01  0.40000000000E-01 0. -1.
</event>
<event>
 5   0  0.6200596E+07  0.9118800E+02  0.7818608E-02  0.1180000E+00
       11   -1    0    0    0    0  0.00000000000E+00  0.00000000000E+00  0.39999999673E+01  0.40000000000E+01  0.51109989000E-03 0. -1.
     -623   -1    0    0    0    0  0.00000000000E+00  0.00000000000E+00  0.12525980253E-10  0.17130000000E+03  0.17130000000E+03 0.  1.
       11    1    1    2    0    0  0.13311075162E-03  0.11482848536E-02  0.46541864953E-02  0.48227533522E-02  0.51109989000E-03 0. -1.
     -623    1    1    2    0    0  0.63509371639E-03 -0.11863166215E-02  0.36886038741E-03  0.17130000001E+03  0.17130000000E+03 0.  1.
      622    1    1    2    0    0 -0.76820446801E-03  0.38031767948E-04  0.39949769205E+01  0.39951772410E+01  0.40000000000E-01 0. -1.
</event>
<event>
 5   0  0.6200596E+07  0.9118800E+02  0.7818608E-02  0.1180000E+00
       11   -1    0    0    0    0  0.00000000000E+00  0.00000000000E+00  0.39999999673E+01  0.40000000000E+01  0.51109989000E-03 0.  1.
     -623   -1    0    0    0    0  0.00000000000E+00  0.00000000000E+00  0.12525980253E-10  0.17130000000E+03  0.17130000000E+03 0. -1.
       11    1    1    2    0    0  0.73268278123E-03 -0.13469743809E-02  0.22109577596E-01  0.22168577018E-01  0.51109989000E-03 0.  1.
     -623    1    1    2    0    0 -0.48049785058E-03 -0.72809675730E-03  0.26063815258E-03  0.17130000000E+03  0.17130000000E+03 0. -1.
      622    1    1    2    0    0 -0.25218493066E-03  0.20750711382E-02  0.39776297516E+01  0.39778314206E+01  0.40000000000E-01 0.  1.
</event>
<event>
 5   0  0.6200596E+07  0.9118800E+02  0.7818608E-02  0.1180000E+00
       11   -1    0    0    0    0  0.00000000000E+00  0.00000000000E+00  0.39999999673E+01  0.40000000000E+01  0.51109989000E-03 0. -1.
     -623   -1    0    0    0    0  0.00000000000E+00  0.00000000000E+00  0.12525980253E-10  0.17130000000E+03  0.17130000000E+03 0. -1.
       11    1    1    2    0    0  0.47939936822E-02  0.60100839247E-03  0.95492358919E-01  0.95615874313E-01  0.51109989000E-03 0. -1.
     -623    1    1    2    0    0 -0.24675226751E-04  0.43845748121E-03  0.33143834682E-03  0.17130000000E+03  0.17130000000E+03 0. -1.
      622    1    1    2    0    0 -0.47693184554E-02 -0.10394658737E-02  0.39041761701E+01  0.39043841248E+01  0.40000000000E-01 0. -1.
</event>
<event>
 5   0  0.6200596E+07  0.9118800E+02  0.7818608E-02  0.1180000E+00
       11   -1    0    0    0    0  0.00000000000E+00  0.00000000000E+00  0.39999999673E+01  0.40000000000E+01  0.51109989000E-03 0.  1.
     -623   -1    0    0    0    0  0.00000000000E+00  0.00000000000E+00  0.12525980253E-10  0.17130000000E+03  0.17130000000E+03 0.  1.
       11    1    1    2    0    0  0.62237668636E-02  0.18283704015E-01  0.10921100851E+01  0.10922809749E+01  0.51109989000E-03 0.  1.
     -623    1    1    2    0    0  0.74192350219E-02 -0.39362637977E-02  0.51361729604E-03  0.17130000021E+03  0.17130000000E+03 0.  1.
      622    1    1    2    0    0 -0.13643001886E-01 -0.14347440217E-01  0.29073762650E+01  0.29077188184E+01  0.40000000000E-01 0.  1.
</event>
<event>
 5   0  0.6200596E+07  0.9118800E+02  0.7818608E-02  0.1180000E+00
       11   -1    0    0    0    0  0.00000000000E+00  0.00000000000E+00  0.39999999673E+01  0.40000000000E+01  0.51109989000E-03 0.  1.
     -623   -1    0    0    0    0  0.00000000000E+00  0.00000000000E+00  0.12525980253E-10  0.17130000000E+03  0.17130000000E+03 0.  1.
       11    1    1    2    0    0 -0.25252259832E-03  0.19435864042E-01  0.30712283053E+01  0.30712898563E+01  0.51109989000E-03 0.  1.
     -623    1    1    2    0    0 -0.35796810629E-02  0.10392849965E-02  0.11572319163E-02  0.17130000004E+03  0.17130000000E+03 0.  1.
      622    1    1    2    0    0  0.38322036612E-02 -0.20475149038E-01  0.92761443013E+00  0.92871009928E+00  0.40000000000E-01 0.  1.
</event>
<event>
 5   0  0.6200596E+07  0.9118800E+02  0.7818608E-02  0.1180000E+00
       11   -1    0    0    0    0  0.00000000000E+00  0.00000000000E+00  0.39999999673E+01  0.40000000000E+01  0.51109989000E-03 0. -1.
     -623   -1    0    0    0    0  0.00000000000E+00  0.00000000000E+00  0.12525980253E-10  0.17130000000E+03  0.17130000000E+03 0. -1.
       11    1    1    2    0    0 -0.75721078397E-02 -0.62674628278E-02  0.11681110930E+00  0.11722505869E+00  0.51109989000E-03 0. -1.
     -623    1    1    2    0    0  0.33123037961E-02 -0.15962211614E-02  0.63030139070E-03  0.17130000004E+03  0.17130000000E+03 0. -1.
      622    1    1    2    0    0  0.42598040436E-02  0.78636839892E-02  0.38825585567E+01  0.38827749007E+01  0.40000000000E-01 0. -1.
</event>
<event>
 5   0  0.6200596E+07  0.9118800E+02  0.7818608E-02  0.1180000E+00
       11   -1    0    0    0    0  0.00000000000E+00  0.00000000000E+00  0.39999999673E+01  0.40000000000E+01  0.51109989000E-03 0. -1.
     -623   -1    0    0    0    0  0.00000000000E+00  0.00000000000E+00  0.12525980253E-10  0.17130000000E+03  0.17130000000E+03 0. -1.
       11    1    1    2    0    0 -0.37600054365E-02 -0.85073767510E-03  0.14570633236E+00  0.14575821728E+00  0.51109989000E-03 0. -1.
     -623    1    1    2    0    0 -0.15092591644E-02  0.11522156245E-02  0.26304600603E-03  0.17130000001E+03  0.17130000000E+03 0. -1.
      622    1    1    2    0    0  0.52692646009E-02 -0.30147794940E-03  0.38540305890E+01  0.38542417720E+01  0.40000000000E-01 0. -1.
</event>
<event>
 5   0  0.6200596E+07  0.9118800E+02  0.7818608E-02  0.1180000E+00
       11   -1    0    0    0    0  0.00000000000E+00  0.00000000000E+00  0.39999999673E+01  0.40000000000E+01  0.51109989000E-03 0. -1.
     -623   -1    0    0    0    0  0.00000000000E+00  0.00000000000E+00  0.12525980253E-10  0.17130000000E+03  0.17130000000E+03 0. -1.
       11    1    1    2    0    0  0.12391999202E-01 -0.12410878225E-01  0.12095914736E+01  0.12097187218E+01  0.51109989000E-03 0. -1.
     -623    1    1    2    0    0 -0.40176359036E-03 -0.10519858647E-02  0.47219108758E-03  0.17130000000E+03  0.17130000000E+03 0. -1.
      622    1    1    2    0    0 -0.11990235612E-01  0.13462864090E-01  0.27899363027E+01  0.27902812739E+01  0.40000000000E-01 0. -1.
</event>
<event>
 5   0  0.6200596E+07  0.9118800E+02  0.7818608E-02  0.1180000E+00
       11   -1    0    0    0    0  0.00000000000E+00  0.00000000000E+00  0.39999999673E+01  0.40000000000E+01  0.51109989000E-03 0. -1.
     -623   -1    0    0    0    0  0.00000000000E+00  0.00000000000E+00  0.12525980253E-10  0.17130000000E+03  0.17130000000E+03 0.  1.
       11    1    1    2    0    0 -0.55378266847E-04  0.13370598685E-02  0.41597877386E-01  0.41622535012E-01  0.51109989000E-03 0. -1.
     -623    1    1    2    0    0 -0.19841952693E-02 -0.62178023740E-02  0.23039230309E-03  0.17130000012E+03  0.17130000000E+03 0.  1.
      622    1    1    2    0    0  0.20395735361E-02  0.48807425055E-02  0.39581716977E+01  0.39583773405E+01  0.40000000000E-01 0. -1.
</event>
<event>
 5   0  0.6200596E+07  0.9118800E+02  0.7818608E-02  0.1180000E+00
       11   -1    0    0    0    0  0.00000000000E+00  0.00000000000E+00  0.39999999673E+01  0.40000000000E+01  0.51109989000E-03 0. -1.
     -623   -1    0    0    0    0  0.00000000000E+00  0.00000000000E+00  0.12525980253E-10  0.17130000000E+03  0.17130000000E+03 0.  1.
       11    1    1    2    0    0 -0.95767930298E-02 -0.26538643911E-01  0.52157238005E+00  0.52233516389E+00  0.51109989000E-03 0. -1.
     -623    1    1    2    0    0 -0.47016009380E-02  0.30518142468E-01  0.10271753441E-02  0.17130000279E+03  0.17130000000E+03 0.  1.
      622    1    1    2    0    0  0.14278393968E-01 -0.39794985570E-02  0.34774004120E+01  0.34776620500E+01  0.40000000000E-01 0. -1.
</event>
<event>
 5   0  0.6200596E+07  0.9118800E+02  0.7818608E-02  0.1180000E+00
       11   -1    0    0    0    0  0.00000000000E+00  0.00000000000E+00  0.39999999673E+01  0.40000000000E+01  0.51109989000E-03 0. -1.
     -623   -1    0    0    0    0  0.00000000000E+00  0.00000000000E+00  0.12525980253E-10  0.17130000000E+03  0.17130000000E+03 0.  1.
       11    1    1    2    0    0 -0.16328917573E-01 -0.61944708099E-01  0.79479152872E+00  0.79736918410E+00  0.51109989000E-03 0. -1.
     -623    1    1    2    0    0 -0.68840387430E-02  0.43278073514E-02  0.34301611537E-02  0.17130000023E+03  0.17130000000E+03 0.  1.
      622    1    1    2    0    0  0.23212956316E-01  0.57616900747E-01  0.32017782775E+01  0.32026305886E+01  0.40000000000E-01 0. -1.
</event>
<event>
 5   0  0.6200596E+07  0.9118800E+02  0.7818608E-02  0.1180000E+00
       11   -1    0    0    0    0  0.00000000000E+00  0.00000000000E+00  0.39999999673E+01  0.40000000000E+01  0.51109989000E-03 0. -1.
     -623   -1    0    0    0    0  0.00000000000E+00  0.00000000000E+00  0.12525980253E-10  0.17130000000E+03  0.17130000000E+03 0.  1.
       11    1    1    2    0    0 -0.15399077314E-02 -0.48088728234E-03  0.83477796054E-01  0.83494947300E-01  0.51109989000E-03 0. -1.
     -623    1    1    2    0    0  0.89513001601E-03 -0.65200914046E-03  0.22160834256E-03  0.17130000000E+03  0.17130000000E+03 0.  1.
      622    1    1    2    0    0  0.64477771539E-03  0.11328964228E-02  0.39163005630E+01  0.39165050490E+01  0.40000000000E-01 0. -1.
</event>
<event>
 5   0  0.6200596E+07  0.9118800E+02  0.7818608E-02  0.1180000E+00
       11   -1    0    0    0    0  0.00000000000E+00  0.00000000000E+00  0.39999999673E+01  0.40000000000E+01  0.51109989000E-03 0.  1.
     -623   -1    0    0    0    0  0.00000000000E+00  0.00000000000E+00  0.12525980253E-10  0.17130000000E+03  0.17130000000E+03 0. -1.
       11    1    1    2    0    0 -0.12390983753E-02 -0.12686337379E-02  0.13483793067E+00  0.13485056013E+00  0.51109989000E-03 0.  1.
     -623    1    1    2    0    0 -0.32467009921E-02 -0.79168681425E-03  0.22276522250E-03  0.17130000003E+03  0.17130000000E+03 0. -1.
      622    1    1    2    0    0  0.44857993674E-02  0.20603205521E-02  0.38649392715E+01  0.38651494071E+01  0.40000000000E-01 0.  1.
</event>
<event>
 5   0  0.6200596E+07  0.9118800E+02  0.7818608E-02  0.1180000E+00
       11   -1    0    0    0    0  0.00000000000E+00  0.00000000000E+00  0.39999999673E+01  0.40000000000E+01  0.51109989000E-03 0.  1.
     -623   -1    0    0    0    0  0.00000000000E+00  0.00000000000E+00  0.12525980253E-10  0.17130000000E+03  0.17130000000E+03 0.  1.
       11    1    1    2    0    0  0.15523471527E-03  0.42908697420E-03  0.61703409407E-02  0.62082640100E-02  0.51109989000E-03 0.  1.
     -623    1    1    2    0    0 -0.89691101404E-04  0.10502316288E-03  0.23824282419E-03  0.17130000000E+03  0.17130000000E+03 0.  1.
      622    1    1    2    0    0 -0.65543613862E-04 -0.53411013708E-03  0.39935913836E+01  0.39937917358E+01  0.40000000000E-01 0.  1.
</event>
<event>
 5   0  0.6200596E+07  0.9118800E+02  0.7818608E-02  0.1180000E+00
       11   -1    0    0    0    0  0.00000000000E+00  0.00000000000E+00  0.39999999673E+01  0.40000000000E+01  0.51109989000E-03 0. -1.
     -623   -1    0    0    0    0  0.00000000000E+00  0.00000000000E+00  0.12525980253E-10  0.17130000000E+03  0.17130000000E+03 0.  1.
       11    1    1    2    0    0  0.47323861774E-02  0.11220145843E-01  0.96816835736E+00  0.96824507051E+00  0.51109989000E-03 0. -1.
     -623    1    1    2    0    0  0.20424999659E-01 -0.19116742912E-01  0.45752435947E-03  0.17130000228E+03  0.17130000000E+03 0.  1.
      622    1    1    2    0    0 -0.25157385836E-01  0.78965970690E-02  0.30313740856E+01  0.30317526445E+01  0.40000000000E-01 0.  0.
</event>
<event>
 5   0  0.6200596E+07  0.9118800E+02  0.7818608E-02  0.1180000E+00
       11   -1    0    0    0    0  0.00000000000E+00  0.00000000000E+00  0.39999999673E+01  0.40000000000E+01  0.51109989000E-03 0. -1.
     -623   -1    0    0    0    0  0.00000000000E+00  0.00000000000E+00  0.12525980253E-10  0.17130000000E+03  0.17130000000E+03 0.  1.
       11    1    1    2    0    0 -0.69479386989E-02 -0.62784150753E-02  0.13205194818E-01  0.16196627415E-01  0.51109989000E-03 0. -1.
     -623    1    1    2    0    0 -0.49344594386E-02  0.18585268885E-02  0.32125030242E-02  0.17130000011E+03  0.17130000000E+03 0.  1.
      622    1    1    2    0    0  0.11882398138E-01  0.44198881868E-02  0.39835822695E+01  0.39838032613E+01  0.40000000000E-01 0. -1.
</event>
<event>
 5   0  0.6200596E+07  0.9118800E+02  0.7818608E-02  0.1180000E+00
       11   -1    0    0    0    0  0.00000000000E+00  0.00000000000E+00  0.39999999673E+01  0.40000000000E+01  0.51109989000E-03 0.  1.
     -623   -1    0    0    0    0  0.00000000000E+00  0.00000000000E+00  0.12525980253E-10  0.17130000000E+03  0.17130000000E+03 0. -1.
       11    1    1    2    0    0 -0.90920200602E-02 -0.33677000299E-03  0.40798467014E+00  0.40808642532E+00  0.51109989000E-03 0.  1.
     -623    1    1    2    0    0  0.51978567902E-02  0.16261707059E-02  0.32688135189E-03  0.17130000009E+03  0.17130000000E+03 0. -1.
      622    1    1    2    0    0  0.38941632700E-02 -0.12894007029E-02  0.35916884159E+01  0.35919134878E+01  0.40000000000E-01 0.  0.
</event>
<event>
 5   0  0.6200596E+07  0.9118800E+02  0.7818608E-02  0.1180000E+00
       11   -1    0    0    0    0  0.00000000000E+00  0.00000000000E+00  0.39999999673E+01  0.40000000000E+01  0.51109989000E-03 0. -1.
     -623   -1    0    0    0    0  0.00000000000E+00  0.00000000000E+00  0.12525980253E-10  0.17130000000E+03  0.17130000000E+03 0.  1.
       11    1    1    2    0    0  0.12520694786E-02  0.27248239089E-02  0.15610057804E+00  0.15613021498E+00  0.51109989000E-03 0. -1.
     -623    1    1    2    0    0  0.11126329848E-02 -0.41121255556E-02  0.23876443438E-03  0.17130000005E+03  0.17130000000E+03 0.  1.
      622    1    1    2    0    0 -0.23647024633E-02  0.13873016467E-02  0.38436606249E+01  0.38438697319E+01  0.40000000000E-01 0. -1.
</event>
<event>
 5   0  0.6200596E+07  0.9118800E+02  0.7818608E-02  0.1180000E+00
       11   -1    0    0    0    0  0.00000000000E+00  0.00000000000E+00  0.39999999673E+01  0.40000000000E+01  0.51109989000E-03 0. -1.
     -623   -1    0    0    0    0  0.00000000000E+00  0.00000000000E+00  0.12525980253E-10  0.17130000000E+03  0.17130000000E+03 0.  1.
       11    1    1    2    0    0 -0.14762997682E-02 -0.25923987755E-05  0.99684258229E+00  0.99684380650E+00  0.51109989000E-03 0. -1.
     -623    1    1    2    0    0  0.50208422899E-02  0.46065527680E-02  0.27334684237E-03  0.17130000014E+03  0.17130000000E+03 0.  1.
      622    1    1    2    0    0 -0.35445425217E-02 -0.46039603692E-02  0.30028840382E+01  0.30031560578E+01  0.40000000000E-01 0. -1.
</event>
<event>
 5   0  0.6200596E+07  0.9118800E+02  0.7818608E-02  0.1180000E+00
       11   -1    0    0    0    0  0.00000000000E+00  0.00000000000E+00  0.39999999673E+01  0.40000000000E+01  0.51109989000E-03 0.  1.
     -623   -1    0    0    0    0  0.00000000000E+00  0.00000000000E+00  0.12525980253E-10  0.17130000000E+03  0.17130000000E+03 0. -1.
       11    1    1    2    0    0 -0.40833850279E-03 -0.58882103088E-03  0.19200926028E+00  0.19201127755E+00  0.51109989000E-03 0.  1.
     -623    1    1    2    0    0  0.26211129284E-01  0.12473372935E-02  0.30156751505E-03  0.17130000201E+03  0.17130000000E+03 0. -1.
      622    1    1    2    0    0 -0.25802790781E-01 -0.65851626261E-03  0.38076891396E+01  0.38079867123E+01  0.40000000000E-01 0.  0.
</event>
<event>
 5   0  0.6200596E+07  0.9118800E+02  0.7818608E-02  0.1180000E+00
       11   -1    0    0    0    0  0.00000000000E+00  0.00000000000E+00  0.39999999673E+01  0.40000000000E+01  0.51109989000E-03 0. -1.
     -623   -1    0    0    0    0  0.00000000000E+00  0.00000000000E+00  0.12525980253E-10  0.17130000000E+03  0.17130000000E+03 0.  1.
       11    1    1    2    0    0 -0.27323455038E-01 -0.22499242386E-02  0.15221852213E+00  0.15466859105E+00  0.51109989000E-03 0. -1.
     -623    1    1    2    0    0  0.12396490375E-01 -0.10672703000E-04  0.26881943108E-02  0.17130000047E+03  0.17130000000E+03 0.  1.
      622    1    1    2    0    0  0.14926964663E-01  0.22605969416E-02  0.38450932509E+01  0.38453309393E+01  0.40000000000E-01 0. -1.
</event>
<event>
 5   0  0.6200596E+07  0.9118800E+02  0.7818608E-02  0.1180000E+00
       11   -1    0    0    0    0  0.00000000000E+00  0.00000000000E+00  0.39999999673E+01  0.40000000000E+01  0.51109989000E-03 0. -1.
     -623   -1    0    0    0    0  0.00000000000E+00  0.00000000000E+00  0.12525980253E-10  0.17130000000E+03  0.17130000000E+03 0.  1.
       11    1    1    2    0    0 -0.39464083477E-01 -0.27918975379E-01  0.14434600308E+01  0.14442693671E+01  0.51109989000E-03 0. -1.
     -623    1    1    2    0    0 -0.34930180964E-02  0.15592094935E-02  0.16194562794E-02  0.17130000005E+03  0.17130000000E+03 0.  1.
      622    1    1    2    0    0  0.42957101573E-01  0.26359765885E-01  0.25549204803E+01  0.25557305825E+01  0.40000000000E-01 0.  0.
</event>
<event>
 5   0  0.6200596E+07  0.9118800E+02  0.7818608E-02  0.1180000E+00
       11   -1    0    0    0    0  0.00000000000E+00  0.00000000000E+00  0.39999999673E+01  0.40000000000E+01  0.51109989000E-03 0. -1.
     -623   -1    0    0    0    0  0.00000000000E+00  0.00000000000E+00  0.12525980253E-10  0.17130000000E+03  0.17130000000E+03 0.  1.
       11    1    1    2    0    0 -0.52363934105E-02 -0.25197071442E-02  0.45583554014E+00  0.45587286563E+00  0.51109989000E-03 0. -1.
     -623    1    1    2    0    0 -0.11798724677E-02 -0.30340153971E-02  0.27321677185E-03  0.17130000003E+03  0.17130000000E+03 0.  1.
      622    1    1    2    0    0  0.64162658782E-02  0.55537225412E-02  0.35438912104E+01  0.35441271032E+01  0.40000000000E-01 0. -1.
</event>
<event>
 5   0  0.6200596E+07  0.9118800E+02  0.7818608E-02  0.1180000E+00
       11   -1    0    0    0    0  0.00000000000E+00  0.00000000000E+00  0.39999999673E+01  0.40000000000E+01  0.51109989000E-03 0.  1.
     -623   -1    0    0    0    0  0.00000000000E+00  0.00000000000E+00  0.12525980253E-10  0.17130000000E+03  0.17130000000E+03 0.  1.
       11    1    1    2    0    0 -0.10485482253E-01  0.27454215146E-03  0.92657103049E-01  0.93250311938E-01  0.51109989000E-03 0.  1.
     -623    1    1    2    0    0 -0.16012499243E-02 -0.14136043211E-02  0.81683478727E-03  0.17130000002E+03  0.17130000000E+03 0.  1.
      622    1    1    2    0    0  0.12086732177E-01  0.11390621697E-02  0.39065260295E+01  0.39067496728E+01  0.40000000000E-01 0.  1.
</event>
<event>
 5   0  0.6200596E+07  0.9118800E+02  0.7818608E-02  0.1180000E+00
       11   -1    0    0    0    0  0.00000000000E+00  0.00000000000E+00  0.39999999673E+01  0.40000000000E+01  0.51109989000E-03 0. -1.
     -623   -1    0    0    0    0  0.00000000000E+00  0.00000000000E+00  0.12525980253E-10  0.17130000000E+03  0.17130000000E+03 0.  1.
       11    1    1    2    0    0  0.56972287743E-02 -0.62717449003E-03  0.17240321394E+01  0.17240417427E+01  0.51109989000E-03 0. -1.
     -623    1    1    2    0    0  0.37837082341E-03  0.56987595560E-03  0.36921119473E-03  0.17130000000E+03  0.17130000000E+03 0.  1.
      622    1    1    2    0    0 -0.60755995977E-02  0.57298534431E-04  0.22755986168E+01  0.22759582555E+01  0.40000000000E-01 0. -1.
</event>
<event>
 5   0  0.6200596E+07  0.9118800E+02  0.7818608E-02  0.1180000E+00
       11   -1    0    0    0    0  0.00000000000E+00  0.00000000000E+00  0.39999999673E+01  0.40000000000E+01  0.51109989000E-03 0. -1.
     -623   -1    0    0    0    0  0.00000000000E+00  0.00000000000E+00  0.12525980253E-10  0.17130000000E+03  0.17130000000E+03 0. -1.
       11    1    1    2    0    0  0.45898379425E-01  0.29652103908E-01  0.21749274841E+01  0.21756138745E+01  0.51109989000E-03 0. -1.
     -623    1    1    2    0    0 -0.42054216446E-01 -0.13061312359E-01  0.12100885004E-02  0.17130000566E+03  0.17130000000E+03 0. -1.
      622    1    1    2    0    0 -0.38441629788E-02 -0.16590791549E-01  0.18238623948E+01  0.18243804612E+01  0.40000000000E-01 0.  0.
</event>
<event>
 5   0  0.6200596E+07  0.9118800E+02  0.7818608E-02  0.1180000E+00
       11   -1    0    0    0    0  0.00000000000E+00  0.00000000000E+00  0.39999999673E+01  0.40000000000E+01  0.51109989000E-03 0.  1.
     -623   -1    0    0    0    0  0.00000000000E+00  0.00000000000E+00  0.12525980253E-10  0.17130000000E+03  0.17130000000E+03 0. -1.
       11    1    1    2    0    0 -0.26558388342E-01 -0.68577128493E-02  0.22451167287E+01  0.22452843389E+01  0.51109989000E-03 0.  1.
     -623    1    1    2    0    0  0.12617250270E-01 -0.56974741457E-03  0.69513885551E-03  0.17130000047E+03  0.17130000000E+03 0. -1.
      622    1    1    2    0    0  0.13941138072E-01  0.74274602638E-02  0.17541880999E+01  0.17547151940E+01  0.40000000000E-01 0.  1.
</event>
<event>
 5   0  0.6200596E+07  0.9118800E+02  0.7818608E-02  0.1180000E+00
       11   -1    0    0    0    0  0.00000000000E+00  0.00000000000E+00  0.39999999673E+01  0.40000000000E+01  0.51109989000E-03 0. -1.
     -623   -1    0    0    0    0  0.00000000000E+00  0.00000000000E+00  0.12525980253E-10  0.17130000000E+03  0.17130000000E+03 0. -1.
       11    1    1    2    0    0  0.36631469510E-01 -0.26817586142E-01  0.39407285670E+00  0.39667962526E+00  0.51109989000E-03 0. -1.
     -623    1    1    2    0    0  0.31582439340E-02  0.20126628029E-01  0.30559215082E-02  0.17130000124E+03  0.17130000000E+03 0. -1.
      622    1    1    2    0    0 -0.39789713444E-01  0.66909581124E-02  0.36028711891E+01  0.36033191360E+01  0.40000000000E-01 0. -1.
</event>
<event>
 5   0  0.6200596E+07  0.9118800E+02  0.7818608E-02  0.1180000E+00
       11   -1    0    0    0    0  0.00000000000E+00  0.00000000000E+00  0.39999999673E+01  0.40000000000E+01  0.51109989000E-03 0.  1.
     -623   -1    0    0    0    0  0.00000000000E+00  0.00000000000E+00  0.12525980253E-10  0.17130000000E+03  0.17130000000E+03 0.  1.
       11    1    1    2    0    0 -0.14900609209E-02  0.14722084062E-01  0.45133242414E+00  0.45157521892E+00  0.51109989000E-03 0.  1.
     -623    1    1    2    0    0  0.53107777356E-02 -0.10996091880E-01  0.47267082049E-03  0.17130000044E+03  0.17130000000E+03 0.  1.
      622    1    1    2    0    0 -0.38207168148E-02 -0.37259921821E-02  0.35481948724E+01  0.35484243452E+01  0.40000000000E-01 0.  1.
</event>
<event>
 5   0  0.6200596E+07  0.9118800E+02  0.7818608E-02  0.1180000E+00
       11   -1    0    0    0    0  0.00000000000E+00  0.00000000000E+00  0.39999999673E+01  0.40000000000E+01  0.51109989000E-03 0. -1.
     -623   -1    0    0    0    0  0.00000000000E+00  0.00000000000E+00  0.12525980253E-10  0.17130000000E+03  0.17130000000E+03 0.  1.
       11    1    1    2    0    0  0.10210959764E-01 -0.12375261043E-01  0.66021817066E+00  0.66041328339E+00  0.51109989000E-03 0. -1.
     -623    1    1    2    0    0 -0.90720639519E-03 -0.95498165253E-03  0.47421213024E-03  0.17130000001E+03  0.17130000000E+03 0.  1.
      622    1    1    2    0    0 -0.93037533691E-02  0.13330242695E-01  0.33393075846E+01  0.33395867109E+01  0.40000000000E-01 0. -1.
</event>
<event>
 5   0  0.6200596E+07  0.9118800E+02  0.7818608E-02  0.1180000E+00
       11   -1    0    0    0    0  0.00000000000E+00  0.00000000000E+00  0.39999999673E+01  0.40000000000E+01  0.51109989000E-03 0.  1.
     -623   -1    0    0    0    0  0.00000000000E+00  0.00000000000E+00  0.12525980253E-10  0.17130000000E+03  0.17130000000E+03 0. -1.
       11    1    1    2    0    0  0.79256489032E-02 -0.10309305671E-01  0.89185914768E+00  0.89195408975E+00  0.51109989000E-03 0.  1.
     -623    1    1    2    0    0  0.33878196705E-03 -0.50944778751E-03  0.38213783927E-03  0.17130000000E+03  0.17130000000E+03 0. -1.
      622    1    1    2    0    0 -0.82644308702E-02  0.10818753458E-01  0.31077586818E+01  0.31080459087E+01  0.40000000000E-01 0.  0.
</event>
<event>
 5   0  0.6200596E+07  0.9118800E+02  0.7818608E-02  0.1180000E+00
       11   -1    0    0    0    0  0.00000000000E+00  0.00000000000E+00  0.39999999673E+01  0.40000000000E+01  0.51109989000E-03 0. -1.
     -623   -1    0    0    0    0  0.00000000000E+00  0.00000000000E+00  0.12525980253E-10  0.17130000000E+03  0.17130000000E+03 0. -1.
       11    1    1    2    0    0 -0.25881288308E-02  0.55703972397E-02  0.48132221114E-01  0.48525247740E-01  0.51109989000E-03 0. -1.
     -623    1    1    2    0    0 -0.33978384956E-03 -0.63886086237E-04  0.60037838260E-03  0.17130000000E+03  0.17130000000E+03 0. -1.
      622    1    1    2    0    0  0.29279126803E-02 -0.55065111535E-02  0.39512673679E+01  0.39514747509E+01  0.40000000000E-01 0. -1.
</event>
<event>
 5   0  0.6200596E+07  0.9118800E+02  0.7818608E-02  0.1180000E+00
       11   -1    0    0    0    0  0.00000000000E+00  0.00000000000E+00  0.39999999673E+01  0.40000000000E+01  0.51109989000E-03 0. -1.
     -623   -1    0    0    0    0  0.00000000000E+00  0.00000000000E+00  0.12525980253E-10  0.17130000000E+03  0.17130000000E+03 0.  1.
       11    1    1    2    0    0 -0.17211426447E-03  0.36945992735E-02  0.94854329123E-01  0.94927786565E-01  0.51109989000E-03 0. -1.
     -623    1    1    2    0    0 -0.52502843885E-02  0.98955630217E-03  0.28494983245E-03  0.17130000008E+03  0.17130000000E+03 0.  1.
      622    1    1    2    0    0  0.54223986529E-02 -0.46841555757E-02  0.39048606884E+01  0.39050721299E+01  0.40000000000E-01 0. -1.
</event>
<event>
 5   0  0.6200596E+07  0.9118800E+02  0.7818608E-02  0.1180000E+00
       11   -1    0    0    0    0  0.00000000000E+00  0.00000000000E+00  0.39999999673E+01  0.40000000000E+01  0.51109989000E-03 0. -1.
     -623   -1    0    0    0    0  0.00000000000E+00  0.00000000000E+00  0.12525980253E-10  0.17130000000E+03  0.17130000000E+03 0.  1.
       11    1    1    2    0    0  0.30638445788E-02  0.42059672176E-02  0.55715795755E-01  0.55960597046E-01  0.51109989000E-03 0. -1.
     -623    1    1    2    0    0  0.16819622991E-03 -0.65321327252E-03  0.45053810149E-03  0.17130000000E+03  0.17130000000E+03 0.  1.
      622    1    1    2    0    0 -0.32320408087E-02 -0.35527539451E-02  0.39438336335E+01  0.39440394010E+01  0.40000000000E-01 0. -1.
</event>
<event>
 5   0  0.6200596E+07  0.9118800E+02  0.7818608E-02  0.1180000E+00
       11   -1    0    0    0    0  0.00000000000E+00  0.00000000000E+00  0.39999999673E+01  0.40000000000E+01  0.51109989000E-03 0. -1.
     -623   -1    0    0    0    0  0.00000000000E+00  0.00000000000E+00  0.12525980253E-10  0.17130000000E+03  0.17130000000E+03 0.  1.
       11    1    1    2    0    0 -0.53733444238E-03 -0.94798679487E-04  0.14937771629E-01  0.14956468772E-01  0.51109989000E-03 0. -1.
     -623    1    1    2    0    0  0.77921112516E-03 -0.11680400289E-02  0.21963353049E-03  0.17130000001E+03  0.17130000000E+03 0.  1.
      622    1    1    2    0    0 -0.24187668278E-03  0.12628387084E-02  0.39848425622E+01  0.39850435253E+01  0.40000000000E-01 0. -1.
</event>
<event>
 5   0  0.6200596E+07  0.9118800E+02  0.7818608E-02  0.1180000E+00
       11   -1    0    0    0    0  0.00000000000E+00  0.00000000000E+00  0.39999999673E+01  0.40000000000E+01  0.51109989000E-03 0. -1.
     -623   -1    0    0    0    0  0.00000000000E+00  0.00000000000E+00  0.12525980253E-10  0.17130000000E+03  0.17130000000E+03 0. -1.
       11    1    1    2    0    0 -0.79405497791E-03 -0.14633844150E-01  0.31081604080E+00  0.31116177843E+00  0.51109989000E-03 0. -1.
     -623    1    1    2    0    0  0.15563474450E-02  0.15893766715E-02  0.58574137995E-03  0.17130000002E+03  0.17130000000E+03 0. -1.
      622    1    1    2    0    0 -0.76229246712E-03  0.13044467479E-01  0.36885981852E+01  0.36888382061E+01  0.40000000000E-01 0. -1.
</event>
<event>
 5   0  0.6200596E+07  0.9118800E+02  0.7818608E-02  0.1180000E+00
       11   -1    0    0    0    0  0.00000000000E+00  0.00000000000E+00  0.39999999673E+01  0.40000000000E+01  0.51109989000E-03 0.  1.
     -623   -1    0    0    0    0  0.00000000000E+00  0.00000000000E+00  0.12525980253E-10  0.17130000000E+03  0.17130000000E+03 0. -1.
       11    1    1    2    0    0 -0.55332059136E-03 -0.44695872093E-02  0.13258414797E+00  0.13266160291E+00  0.51109989000E-03 0.  1.
     -623    1    1    2    0    0 -0.20106591707E-02 -0.10695888773E-02  0.28912090433E-03  0.17130000002E+03  0.17130000000E+03 0. -1.
      622    1    1    2    0    0  0.25639797621E-02  0.55391760866E-02  0.38671266985E+01  0.38673383817E+01  0.40000000000E-01 0.  1.
</event>
<event>
 5   0  0.6200596E+07  0.9118800E+02  0.7818608E-02  0.1180000E+00
       11   -1    0    0    0    0  0.00000000000E+00  0.00000000000E+00  0.39999999673E+01  0.40000000000E+01  0.51109989000E-03 0. -1.
     -623   -1    0    0    0    0  0.00000000000E+00  0.00000000000E+00  0.12525980253E-10  0.17130000000E+03  0.17130000000E+03 0.  1.
       11    1    1    2    0    0 -0.43158333331E-02 -0.49476606136E-02  0.10677366716E+01  0.10677569794E+01  0.51109989000E-03 0. -1.
     -623    1    1    2    0    0 -0.21425990135E-02  0.30702458120E-02  0.30087190972E-03  0.17130000004E+03  0.17130000000E+03 0.  1.
      622    1    1    2    0    0  0.64584323465E-02  0.18774148016E-02  0.29319624238E+01  0.29322429795E+01  0.40000000000E-01 0. -1.
</event>
<event>
 5   0  0.6200596E+07  0.9118800E+02  0.7818608E-02  0.1180000E+00
       11   -1    0    0    0    0  0.00000000000E+00  0.00000000000E+00  0.39999999673E+01  0.40000000000E+01  0.51109989000E-03 0. -1.
     -623   -1    0    0    0    0  0.00000000000E+00  0.00000000000E+00  0.12525980253E-10  0.17130000000E+03  0.17130000000E+03 0. -1.
       11    1    1    2    0    0  0.75974203155E-02  0.48656752703E-02  0.29995653279E+00  0.30009261634E+00  0.51109989000E-03 0. -1.
     -623    1    1    2    0    0  0.14408048240E-02 -0.48473007020E-02  0.36339398842E-03  0.17130000008E+03  0.17130000000E+03 0. -1.
      622    1    1    2    0    0 -0.90382251394E-02 -0.18374568225E-04  0.36996800406E+01  0.36999073086E+01  0.40000000000E-01 0. -1.
</event>
<event>
 5   0  0.6200596E+07  0.9118800E+02  0.7818608E-02  0.1180000E+00
       11   -1    0    0    0    0  0.00000000000E+00  0.00000000000E+00  0.39999999673E+01  0.40000000000E+01  0.51109989000E-03 0. -1.
     -623   -1    0    0    0    0  0.00000000000E+00  0.00000000000E+00  0.12525980253E-10  0.17130000000E+03  0.17130000000E+03 0. -1.
       11    1    1    2    0    0 -0.58254252580E-02 -0.75623726269E-02  0.36773682146E+00  0.36786105548E+00  0.51109989000E-03 0. -1.
     -623    1    1    2    0    0  0.56017684661E-02 -0.27734163918E-02  0.35929219375E-03  0.17130000011E+03  0.17130000000E+03 0. -1.
      622    1    1    2    0    0  0.22365679194E-03  0.10335789019E-01  0.36319038537E+01  0.36321388301E+01  0.40000000000E-01 0. -1.
</event>
<event>
 5   0  0.6200596E+07  0.9118800E+02  0.7818608E-02  0.1180000E+00
       11   -1    0    0    0    0  0.00000000000E+00  0.00000000000E+00  0.39999999673E+01  0.40000000000E+01  0.51109989000E-03 0.  1.
     -623   -1    0    0    0    0  0.00000000000E+00  0.00000000000E+00  0.12525980253E-10  0.17130000000E+03  0.17130000000E+03 0. -1.
       11    1    1    2    0    0  0.17599480864E-02  0.34826734496E-02  0.13545686523E-01  0.14105788786E-01  0.51109989000E-03 0.  1.
     -623    1    1    2    0    0 -0.23443127415E-02 -0.13004260652E-03  0.76225314790E-03  0.17130000002E+03  0.17130000000E+03 0. -1.
      622    1    1    2    0    0  0.58436465506E-03 -0.33526308431E-02  0.39856920277E+01  0.39858941934E+01  0.40000000000E-01 0.  1.
</event>
<event>
 5   0  0.6200596E+07  0.9118800E+02  0.7818608E-02  0.1180000E+00
       11   -1    0    0    0    0  0.00000000000E+00  0.00000000000E+00  0.39999999673E+01  0.40000000000E+01  0.51109989000E-03 0.  1.
     -623   -1    0    0    0    0  0.00000000000E+00  0.00000000000E+00  0.12525980253E-10  0.17130000000E+03  0.17130000000E+03 0. -1.
       11    1    1    2    0    0 -0.21673383508E-01 -0.15646631382E-01  0.76529267444E-01  0.81065051805E-01  0.51109989000E-03 0.  1.
     -623    1    1    2    0    0 -0.48810974556E-02  0.71915303531E-02  0.48392761938E-02  0.17130000029E+03  0.17130000000E+03 0. -1.
      622    1    1    2    0    0  0.26554480964E-01  0.84551010288E-02  0.39186314237E+01  0.39189346593E+01  0.40000000000E-01 0.  1.
</event>
<event>
 5   0  0.6200596E+07  0.9118800E+02  0.7818608E-02  0.1180000E+00
       11   -1    0    0    0    0  0.00000000000E+00  0.00000000000E+00  0.39999999673E+01  0.40000000000E+01  0.51109989000E-03 0. -1.
     -623   -1    0    0    0    0  0.00000000000E+00  0.00000000000E+00  0.12525980253E-10  0.17130000000E+03  0.17130000000E+03 0. -1.
       11    1    1    2    0    0 -0.71270484941E-03  0.15131725979E-02  0.13340888592E-01  0.13455042476E-01  0.51109989000E-03 0. -1.
     -623    1    1    2    0    0 -0.36088023153E-03 -0.42859311796E-03  0.31509463387E-03  0.17130000000E+03  0.17130000000E+03 0. -1.
      622    1    1    2    0    0  0.10735850809E-02 -0.10845794800E-02  0.39863439841E+01  0.39865449563E+01  0.40000000000E-01 0. -1.
</event>
<event>
 5   0  0.6200596E+07  0.9118800E+02  0.7818608E-02  0.1180000E+00
       11   -1    0    0    0    0  0.00000000000E+00  0.00000000000E+00  0.39999999673E+01  0.40000000000E+01  0.51109989000E-03 0. -1.
     -623   -1    0    0    0    0  0.00000000000E+00  0.00000000000E+00  0.12525980253E-10  0.17130000000E+03  0.17130000000E+03 0.  1.
       11    1    1    2    0    0  0.19115849114E-01 -0.49968826481E-02  0.13235387199E+00  0.13382149744E+00  0.51109989000E-03 0. -1.
     -623    1    1    2    0    0 -0.22613415614E-02  0.45689166125E-03  0.17139514609E-02  0.17130000002E+03  0.17130000000E+03 0.  1.
      622    1    1    2    0    0 -0.16854507553E-01  0.45399909868E-02  0.38659321439E+01  0.38661784785E+01  0.40000000000E-01 0. -1.
</event>
<event>
 5   0  0.6200596E+07  0.9118800E+02  0.7818608E-02  0.1180000E+00
       11   -1    0    0    0    0  0.00000000000E+00  0.00000000000E+00  0.39999999673E+01  0.40000000000E+01  0.51109989000E-03 0. -1.
     -623   -1    0    0    0    0  0.00000000000E+00  0.00000000000E+00  0.12525980253E-10  0.17130000000E+03  0.17130000000E+03 0. -1.
       11    1    1    2    0    0  0.22233817406E-02 -0.50620088489E-02  0.99862590971E-01  0.10001682687E+00  0.51109989000E-03 0. -1.
     -623    1    1    2    0    0 -0.10573159018E-01 -0.11821583608E-01  0.40555924935E-03  0.17130000073E+03  0.17130000000E+03 0. -1.
      622    1    1    2    0    0  0.83497772771E-02  0.16883592456E-01  0.38997318171E+01  0.38999824384E+01  0.40000000000E-01 0. -1.
</event>
<event>
 5   0  0.6200596E+07  0.9118800E+02  0.7818608E-02  0.1180000E+00
       11   -1    0    0    0    0  0.00000000000E+00  0.00000000000E+00  0.39999999673E+01  0.40000000000E+01  0.51109989000E-03 0.  1.
     -623   -1    0    0    0    0  0.00000000000E+00  0.00000000000E+00  0.12525980253E-10  0.17130000000E+03  0.17130000000E+03 0.  1.
       11    1    1    2    0    0 -0.41804626225E-03  0.11919643305E-02  0.55576778414E+00  0.55576945459E+00  0.51109989000E-03 0.  1.
     -623    1    1    2    0    0 -0.38386747920E-03 -0.34746699829E-04  0.23420650000E-03  0.17130000000E+03  0.17130000000E+03 0.  1.
      622    1    1    2    0    0  0.80191374145E-03 -0.11572176307E-02  0.34439979767E+01  0.34442305448E+01  0.40000000000E-01 0.  1.
</event>
<event>
 5   0  0.6200596E+07  0.9118800E+02  0.7818608E-02  0.1180000E+00
       11   -1    0    0    0    0  0.00000000000E+00  0.00000000000E+00  0.39999999673E+01  0.40000000000E+01  0.51109989000E-03 0. -1.
     -623   -1    0    0    0    0  0.00000000000E+00  0.00000000000E+00  0.12525980253E-10  0.17130000000E+03  0.17130000000E+03 0. -1.
       11    1    1    2    0    0 -0.46284528487E-01 -0.40474301820E-02  0.58591604529E+00  0.58775548710E+00  0.51109989000E-03 0. -1.
     -623    1    1    2    0    0  0.34935569331E-01 -0.23063620455E-01  0.22055826181E-02  0.17130000513E+03  0.17130000000E+03 0. -1.
      622    1    1    2    0    0  0.11348959156E-01  0.27111050637E-01  0.34118783395E+01  0.34122393836E+01  0.40000000000E-01 0. -1.
</event>
<event>
 5   0  0.6200596E+07  0.9118800E+02  0.7818608E-02  0.1180000E+00
       11   -1    0    0    0    0  0.00000000000E+00  0.00000000000E+00  0.39999999673E+01  0.40000000000E+01  0.51109989000E-03 0. -1.
     -623   -1    0    0    0    0  0.00000000000E+00  0.00000000000E+00  0.12525980253E-10  0.17130000000E+03  0.17130000000E+03 0. -1.
       11    1    1    2    0    0 -0.10689945568E-01 -0.13509333702E-01  0.12576359033E+00  0.12693903618E+00  0.51109989000E-03 0. -1.
     -623    1    1    2    0    0 -0.36088123184E-03  0.13446486652E-02  0.14168563314E-02  0.17130000001E+03  0.17130000000E+03 0. -1.
      622    1    1    2    0    0  0.11050826800E-01  0.12164685037E-01  0.38728195207E+01  0.38730609523E+01  0.40000000000E-01 0. -1.
</event>
<event>
 5   0  0.6200596E+07  0.9118800E+02  0.7818608E-02  0.1180000E+00
       11   -1    0    0    0    0  0.00000000000E+00  0.00000000000E+00  0.39999999673E+01  0.40000000000E+01  0.51109989000E-03 0. -1.
     -623   -1    0    0    0    0  0.00000000000E+00  0.00000000000E+00  0.12525980253E-10  0.17130000000E+03  0.17130000000E+03 0.  1.
       11    1    1    2    0    0  0.42026719832E-02  0.72844002269E-03  0.21427796007E-01  0.21854169822E-01  0.51109989000E-03 0. -1.
     -623    1    1    2    0    0  0.41518782817E-03  0.86446557431E-03  0.63044810074E-03  0.17130000000E+03  0.17130000000E+03 0.  1.
      622    1    1    2    0    0 -0.46178598114E-02 -0.15929055970E-02  0.39779417233E+01  0.39781458263E+01  0.40000000000E-01 0. -1.
</event>
<event>
 5   0  0.6200596E+07  0.9118800E+02  0.7818608E-02  0.1180000E+00
       11   -1    0    0    0    0  0.00000000000E+00  0.00000000000E+00  0.39999999673E+01  0.40000000000E+01  0.51109989000E-03 0.  1.
     -623   -1    0    0    0    0  0.00000000000E+00  0.00000000000E+00  0.12525980253E-10  0.17130000000E+03  0.17130000000E+03 0.  1.
       11    1    1    2    0    0  0.39329965614E-03 -0.64973279491E-03  0.26330648013E-01  0.26346557316E-01  0.51109989000E-03 0.  1.
     -623    1    1    2    0    0  0.12094488071E-02  0.64536525478E-03  0.21753669753E-03  0.17130000001E+03  0.17130000000E+03 0.  1.
      622    1    1    2    0    0 -0.16027484632E-02  0.43675401271E-05  0.39734517826E+01  0.39736534371E+01  0.40000000000E-01 0.  1.
</event>
<event>
 5   0  0.6200596E+07  0.9118800E+02  0.7818608E-02  0.1180000E+00
       11   -1    0    0    0    0  0.00000000000E+00  0.00000000000E+00  0.39999999673E+01  0.40000000000E+01  0.51109989000E-03 0. -1.
     -623   -1    0    0    0    0  0.00000000000E+00  0.00000000000E+00  0.12525980253E-10  0.17130000000E+03  0.17130000000E+03 0.  1.
       11    1    1    2    0    0  0.14099797107E-01  0.48218913421E-02  0.47527119336E+00  0.47550501930E+00  0.51109989000E-03 0. -1.
     -623    1    1    2    0    0 -0.93183164247E-02  0.70810252993E-02  0.48452820505E-03  0.17130000040E+03  0.17130000000E+03 0.  1.
      622    1    1    2    0    0 -0.47814806828E-02 -0.11902916641E-01  0.35242442458E+01  0.35244945802E+01  0.40000000000E-01 0. -1.
</event>
<event>
 5   0  0.6200596E+07  0.9118800E+02  0.7818608E-02  0.1180000E+00
       11   -1    0    0    0    0  0.00000000000E+00  0.00000000000E+00  0.39999999673E+01  0.40000000000E+01  0.51109989000E-03 0.  1.
     -623   -1    0    0    0    0  0.00000000000E+00  0.00000000000E+00  0.12525980253E-10  0.17130000000E+03  0.17130000000E+03 0. -1.
       11    1    1    2    0    0 -0.28021569308E-02 -0.21375394481E-01  0.16911098754E+01  0.16912473596E+01  0.51109989000E-03 0.  1.
     -623    1    1    2    0    0 -0.48663791932E-02 -0.67774918579E-02  0.66860808091E-03  0.17130000020E+03  0.17130000000E+03 0. -1.
      622    1    1    2    0    0  0.76685361241E-02  0.28152886339E-01  0.23082214839E+01  0.23087524359E+01  0.40000000000E-01 0.  0.
</event>
<event>
 5   0  0.6200596E+07  0.9118800E+02  0.7818608E-02  0.1180000E+00
       11   -1    0    0    0    0  0.00000000000E+00  0.00000000000E+00  0.39999999673E+01  0.40000000000E+01  0.51109989000E-03 0.  1.
     -623   -1    0    0    0    0  0.00000000000E+00  0.00000000000E+00  0.12525980253E-10  0.17130000000E+03  0.17130000000E+03 0. -1.
       11    1    1    2    0    0  0.15896667550E-03 -0.98680194046E-03  0.47822913429E-02  0.49122886916E-02  0.51109989000E-03 0.  1.
     -623    1    1    2    0    0 -0.24823164635E-02  0.18191200166E-03  0.33099073921E-03  0.17130000002E+03  0.17130000000E+03 0. -1.
      622    1    1    2    0    0  0.23233497880E-02  0.80488993880E-03  0.39948866853E+01  0.39950876929E+01  0.40000000000E-01 0.  1.
</event>
<event>
 5   0  0.6200596E+07  0.9118800E+02  0.7818608E-02  0.1180000E+00
       11   -1    0    0    0    0  0.00000000000E+00  0.00000000000E+00  0.39999999673E+01  0.40000000000E+01  0.51109989000E-03 0.  1.
     -623   -1    0    0    0    0  0.00000000000E+00  0.00000000000E+00  0.12525980253E-10  0.17130000000E+03  0.17130000000E+03 0. -1.
       11    1    1    2    0    0 -0.36562062282E-02  0.41663978748E-02  0.40132415817E-01  0.40516647639E-01  0.51109989000E-03 0.  1.
     -623    1    1    2    0    0  0.53422408823E-02 -0.79100260553E-02  0.58864671127E-03  0.17130000027E+03  0.17130000000E+03 0. -1.
      622    1    1    2    0    0 -0.16860346542E-02  0.37436281805E-02  0.39592789048E+01  0.39594830854E+01  0.40000000000E-01 0.  1.
</event>
<event>
 5   0  0.6200596E+07  0.9118800E+02  0.7818608E-02  0.1180000E+00
       11   -1    0    0    0    0  0.00000000000E+00  0.00000000000E+00  0.39999999673E+01  0.40000000000E+01  0.51109989000E-03 0. -1.
     -623   -1    0    0    0    0  0.00000000000E+00  0.00000000000E+00  0.12525980253E-10  0.17130000000E+03  0.17130000000E+03 0.  1.
       11    1    1    2    0    0  0.11370042900E-01 -0.65581605529E-03  0.13150809565E+00  0.13200131974E+00  0.51109989000E-03 0. -1.
     -623    1    1    2    0    0 -0.29990185526E-02  0.30555426948E-02  0.70988037851E-03  0.17130000005E+03  0.17130000000E+03 0.  1.
      622    1    1    2    0    0 -0.83710243476E-02 -0.23997266395E-02  0.38677819913E+01  0.38679986253E+01  0.40000000000E-01 0. -1.
</event>
<event>
 5   0  0.6200596E+07  0.9118800E+02  0.7818608E-02  0.1180000E+00
       11   -1    0    0    0    0  0.00000000000E+00  0.00000000000E+00  0.39999999673E+01  0.40000000000E+01  0.51109989000E-03 0.  1.
     -623   -1    0    0    0    0  0.00000000000E+00  0.00000000000E+00  0.12525980253E-10  0.17130000000E+03  0.17130000000E+03 0.  1.
       11    1    1    2    0    0  0.64549037210E-02 -0.18054574334E-01  0.86718424236E+00  0.86739633666E+00  0.51109989000E-03 0.  1.
     -623    1    1    2    0    0  0.32556231941E-03  0.36829651960E-02  0.50779968656E-03  0.17130000004E+03  0.17130000000E+03 0.  1.
      622    1    1    2    0    0 -0.67804660405E-02  0.14371609138E-01  0.31323079253E+01  0.31326036227E+01  0.40000000000E-01 0.  0.
</event>
<event>
 5   0  0.6200596E+07  0.9118800E+02  0.7818608E-02  0.1180000E+00
       11   -1    0    0    0    0  0.00000000000E+00  0.00000000000E+00  0.39999999673E+01  0.40000000000E+01  0.51109989000E-03 0. -1.
     -623   -1    0    0    0    0  0.00000000000E+00  0.00000000000E+00  0.12525980253E-10  0.17130000000E+03  0.17130000000E+03 0.  1.
       11    1    1    2    0    0 -0.13832073393E-02 -0.87363941785E-03  0.35936718377E+00  0.35937127111E+00  0.51109989000E-03 0. -1.
     -623    1    1    2    0    0 -0.35680429749E-03  0.29090896235E-03  0.22426684228E-03  0.17130000000E+03  0.17130000000E+03 0.  1.
      622    1    1    2    0    0  0.17400116368E-02  0.58273045550E-03  0.36404085167E+01  0.36406287281E+01  0.40000000000E-01 0. -1.
</event>
<event>
 5   0  0.6200596E+07  0.9118800E+02  0.7818608E-02  0.1180000E+00
       11   -1    0    0    0    0  0.00000000000E+00  0.00000000000E+00  0.39999999673E+01  0.40000000000E+01  0.51109989000E-03 0.  1.
     -623   -1    0    0    0    0  0.00000000000E+00  0.00000000000E+00  0.12525980253E-10  0.17130000000E+03  0.17130000000E+03 0.  1.
       11    1    1    2    0    0 -0.14618128448E-01  0.19426066966E-01  0.16864471725E+01  0.16866224796E+01  0.51109989000E-03 0.  1.
     -623    1    1    2    0    0 -0.20837690070E-02  0.28834172376E-02  0.68904871979E-03  0.17130000004E+03  0.17130000000E+03 0.  1.
      622    1    1    2    0    0  0.16701897455E-01 -0.22309484203E-01  0.23128637461E+01  0.23133774821E+01  0.40000000000E-01 0.  0.
</event>
<event>
 5   0  0.6200596E+07  0.9118800E+02  0.7818608E-02  0.1180000E+00
       11   -1    0    0    0    0  0.00000000000E+00  0.00000000000E+00  0.39999999673E+01  0.40000000000E+01  0.51109989000E-03 0. -1.
     -623   -1    0    0    0    0  0.00000000000E+00  0.00000000000E+00  0.12525980253E-10  0.17130000000E+03  0.17130000000E+03 0.  1.
       11    1    1    2    0    0  0.30907889460E-02 -0.13853476697E-01  0.37725054872E+00  0.37751782676E+00  0.51109989000E-03 0. -1.
     -623    1    1    2    0    0  0.65314177631E-03  0.43371370093E-02  0.50258752369E-03  0.17130000006E+03  0.17130000000E+03 0.  1.
      622    1    1    2    0    0 -0.37439307223E-02  0.95163396878E-02  0.36222468311E+01  0.36224821164E+01  0.40000000000E-01 0. -1.
</event>
<event>
 5   0  0.6200596E+07  0.9118800E+02  0.7818608E-02  0.1180000E+00
       11   -1    0    0    0    0  0.00000000000E+00  0.00000000000E+00  0.39999999673E+01  0.40000000000E+01  0.51109989000E-03 0. -1.
     -623   -1    0    0    0    0  0.00000000000E+00  0.00000000000E+00  0.12525980253E-10  0.17130000000E+03  0.17130000000E+03 0. -1.
       11    1    1    2    0    0 -0.66773574849E-03 -0.11690858332E-02  0.49015194322E-02  0.51086931850E-02  0.51109989000E-03 0. -1.
     -623    1    1    2    0    0 -0.52306204732E-03  0.12991806830E-02  0.40758770764E-03  0.17130000001E+03  0.17130000000E+03 0. -1.
      622    1    1    2    0    0  0.11907977958E-02 -0.13009484983E-03  0.39946908602E+01  0.39948913006E+01  0.40000000000E-01 0. -1.
</event>
<event>
 5   0  0.6200596E+07  0.9118800E+02  0.7818608E-02  0.1180000E+00
       11   -1    0    0    0    0  0.00000000000E+00  0.00000000000E+00  0.39999999673E+01  0.40000000000E+01  0.51109989000E-03 0.  1.
     -623   -1    0    0    0    0  0.00000000000E+00  0.00000000000E+00  0.12525980253E-10  0.17130000000E+03  0.17130000000E+03 0. -1.
       11    1    1    2    0    0  0.11789571580E-01 -0.11403370485E-02  0.18752446191E+00  0.18789885418E+00  0.51109989000E-03 0.  1.
     -623    1    1    2    0    0 -0.15137450048E-02  0.56157437847E-03  0.59812646400E-03  0.17130000001E+03  0.17130000000E+03 0. -1.
      622    1    1    2    0    0 -0.10275826575E-01  0.57876267002E-03  0.38118773790E+01  0.38121011372E+01  0.40000000000E-01 0.  0.
</event>
<event>
 5   0  0.6200596E+07  0.9118800E+02  0.7818608E-02  0.1180000E+00
       11   -1    0    0    0    0  0.00000000000E+00  0.00000000000E+00  0.39999999673E+01  0.40000000000E+01  0.51109989000E-03 0.  1.
     -623   -1    0    0    0    0  0.00000000000E+00  0.00000000000E+00  0.12525980253E-10  0.17130000000E+03  0.17130000000E+03 0. -1.
       11    1    1    2    0    0 -0.17834442012E-02 -0.12976260520E-01  0.62274892642E+00  0.62288686821E+00  0.51109989000E-03 0.  1.
     -623    1    1    2    0    0 -0.54696368794E-03  0.44360137022E-03  0.39886862826E-03  0.17130000000E+03  0.17130000000E+03 0. -1.
      622    1    1    2    0    0  0.23304078891E-02  0.12532659150E-01  0.33768521723E+01  0.33771131299E+01  0.40000000000E-01 0.  1.
</event>
<event>
 5   0  0.6200596E+07  0.9118800E+02  0.7818608E-02  0.1180000E+00
       11   -1    0    0    0    0  0.00000000000E+00  0.00000000000E+00  0.39999999673E+01  0.40000000000E+01  0.51109989000E-03 0.  1.
     -623   -1    0    0    0    0  0.00000000000E+00  0.00000000000E+00  0.12525980253E-10  0.17130000000E+03  0.17130000000E+03 0.  1.
       11    1    1    2    0    0  0.57227774851E-02 -0.32268248415E-01  0.16366660977E+01  0.16369942476E+01  0.51109989000E-03 0.  1.
     -623    1    1    2    0    0 -0.16038361966E-02  0.28270049408E-02  0.85375806551E-03  0.17130000003E+03  0.17130000000E+03 0.  1.
      622    1    1    2    0    0 -0.41189412885E-02  0.29441243474E-01  0.23624801116E+01  0.23630057194E+01  0.40000000000E-01 0.  1.
</event>
<event>
 5   0  0.6200596E+07  0.9118800E+02  0.7818608E-02  0.1180000E+00
       11   -1    0    0    0    0  0.00000000000E+00  0.00000000000E+00  0.39999999673E+01  0.40000000000E+01  0.51109989000E-03 0.  1.
     -623   -1    0    0    0    0  0.00000000000E+00  0.00000000000E+00  0.12525980253E-10  0.17130000000E+03  0.17130000000E+03 0. -1.
       11    1    1    2    0    0 -0.56998854991E-02  0.49523246402E-02  0.13154224818E+01  0.13154442523E+01  0.51109989000E-03 0.  1.
     -623    1    1    2    0    0  0.12930732952E-02  0.28594029218E-02  0.33476869839E-03  0.17130000003E+03  0.17130000000E+03 0. -1.
      622    1    1    2    0    0  0.44068122039E-02 -0.78117275619E-02  0.26842427169E+01  0.26845557186E+01  0.40000000000E-01 0. -1.
</event>
<event>
 5   0  0.6200596E+07  0.9118800E+02  0.7818608E-02  0.1180000E+00
       11   -1    0    0    0    0  0.00000000000E+00  0.00000000000E+00  0.39999999673E+01  0.40000000000E+01  0.51109989000E-03 0. -1.
     -623   -1    0    0    0    0  0.00000000000E+00  0.00000000000E+00  0.12525980253E-10  0.17130000000E+03  0.17130000000E+03 0.  1.
       11    1    1    2    0    0  0.13114091132E-01  0.31504235122E-01  0.13640445341E+01  0.13644714172E+01  0.51109989000E-03 0. -1.
     -623    1    1    2    0    0 -0.42987612213E-02 -0.34028548706E-01  0.74980182233E-03  0.17130000344E+03  0.17130000000E+03 0.  1.
      622    1    1    2    0    0 -0.88153299107E-02  0.25243135841E-02  0.26352056314E+01  0.26355251473E+01  0.40000000000E-01 0.  0.
</event>
<event>
 5   0  0.6200596E+07  0.9118800E+02  0.7818608E-02  0.1180000E+00
       11   -1    0    0    0    0  0.00000000000E+00  0.00000000000E+00  0.39999999673E+01  0.40000000000E+01  0.51109989000E-03 0. -1.
     -623   -1    0    0    0    0  0.00000000000E+00  0.00000000000E+00  0.12525980253E-10  0.17130000000E+03  0.17130000000E+03 0.  1.
       11    1    1    2    0    0 -0.12847509279E-02  0.84950966164E-03  0.91059807924E-02  0.92494518425E-02  0.51109989000E-03 0. -1.
     -623    1    1    2    0    0  0.22044796944E-02 -0.30113974341E-02  0.34463958416E-03  0.17130000004E+03  0.17130000000E+03 0.  1.
      622    1    1    2    0    0 -0.91972876643E-03  0.21618877724E-02  0.39905493470E+01  0.39907505072E+01  0.40000000000E-01 0. -1.
</event>
<event>
 5   0  0.6200596E+07  0.9118800E+02  0.7818608E-02  0.1180000E+00
       11   -1    0    0    0    0  0.00000000000E+00  0.00000000000E+00  0.39999999673E+01  0.40000000000E+01  0.51109989000E-03 0.  1.
     -623   -1    0    0    0    0  0.00000000000E+00  0.00000000000E+00  0.12525980253E-10  0.17130000000E+03  0.17130000000E+03 0.  1.
       11    1    1    2    0    0  0.63952384101E-02  0.64067538813E-02  0.43103363359E+00  0.43112898311E+00  0.51109989000E-03 0.  1.
     -623    1    1    2    0    0 -0.98692029891E-02 -0.99723832838E-02  0.32353156911E-03  0.17130000057E+03  0.17130000000E+03 0.  1.
      622    1    1    2    0    0  0.34739645790E-02  0.35656294024E-02  0.35686428022E+01  0.35688704420E+01  0.40000000000E-01 0.  1.
</event>
<event>
 5   0  0.6200596E+07  0.9118800E+02  0.7818608E-02  0.1180000E+00
       11   -1    0    0    0    0  0.00000000000E+00  0.00000000000E+00  0.39999999673E+01  0.40000000000E+01  0.51109989000E-03 0. -1.
     -623   -1    0    0    0    0  0.00000000000E+00  0.00000000000E+00  0.12525980253E-10  0.17130000000E+03  0.17130000000E+03 0.  1.
       11    1    1    2    0    0  0.11155718026E-01  0.14265083019E-02  0.26702606378E+00  0.26726328765E+00  0.51109989000E-03 0. -1.
     -623    1    1    2    0    0  0.61507688877E-03  0.10909881638E-02  0.47093167938E-03  0.17130000001E+03  0.17130000000E+03 0.  1.
      622    1    1    2    0    0 -0.11770794915E-01 -0.25174964657E-02  0.37325029719E+01  0.37327367071E+01  0.40000000000E-01 0. -1.
</event>
<event>
 5   0  0.6200596E+07  0.9118800E+02  0.7818608E-02  0.1180000E+00
       11   -1    0    0    0    0  0.00000000000E+00  0.00000000000E+00  0.39999999673E+01  0.40000000000E+01  0.51109989000E-03 0.  1.
     -623   -1    0    0    0    0  0.00000000000E+00  0.00000000000E+00  0.12525980253E-10  0.17130000000E+03  0.17130000000E+03 0. -1.
       11    1    1    2    0    0 -0.21456622738E-02 -0.81524947604E-02  0.20733566416E+01  0.20733738427E+01  0.51109989000E-03 0.  1.
     -623    1    1    2    0    0  0.66721760419E-02  0.19177622407E-02  0.44799700425E-03  0.17130000014E+03  0.17130000000E+03 0. -1.
      622    1    1    2    0    0 -0.45265137681E-02  0.62347325197E-02  0.19261953288E+01  0.19266260161E+01  0.40000000000E-01 0.  1.
</event>
<event>
 5   0  0.6200596E+07  0.9118800E+02  0.7818608E-02  0.1180000E+00
       11   -1    0    0    0    0  0.00000000000E+00  0.00000000000E+00  0.39999999673E+01  0.40000000000E+01  0.51109989000E-03 0. -1.
     -623   -1    0    0    0    0  0.00000000000E+00  0.00000000000E+00  0.12525980253E-10  0.17130000000E+03  0.17130000000E+03 0. -1.
       11    1    1    2    0    0 -0.22761304718E-02  0.86574622558E-03  0.33218386442E-01  0.33311450076E-01  0.51109989000E-03 0. -1.
     -623    1    1    2    0    0 -0.19380036325E-02 -0.49957514222E-03  0.29698315415E-03  0.17130000001E+03  0.17130000000E+03 0. -1.
      622    1    1    2    0    0  0.42141341043E-02 -0.36617108336E-03  0.39664845978E+01  0.39666885380E+01  0.40000000000E-01 0. -1.
</event>
<event>
 5   0  0.6200596E+07  0.9118800E+02  0.7818608E-02  0.1180000E+00
       11   -1    0    0    0    0  0.00000000000E+00  0.00000000000E+00  0.39999999673E+01  0.40000000000E+01  0.51109989000E-03 0.  1.
     -623   -1    0    0    0    0  0.00000000000E+00  0.00000000000E+00  0.12525980253E-10  0.17130000000E+03  0.17130000000E+03 0.  1.
       11    1    1    2    0    0  0.43346220502E-01 -0.38561109348E-02  0.76155348362E+00  0.76279599767E+00  0.51109989000E-03 0.  1.
     -623    1    1    2    0    0  0.34169044627E-02 -0.57071744248E-01  0.24105019945E-02  0.17130000956E+03  0.17130000000E+03 0.  1.
      622    1    1    2    0    0 -0.46763124965E-01  0.60927855183E-01  0.32360359817E+01  0.32371944440E+01  0.40000000000E-01 0. -1.
</event>
<event>
 5   0  0.6200596E+07  0.9118800E+02  0.7818608E-02  0.1180000E+00
       11   -1    0    0    0    0  0.00000000000E+00  0.00000000000E+00  0.39999999673E+01  0.40000000000E+01  0.51109989000E-03 0. -1.
     -623   -1    0    0    0    0  0.00000000000E+00  0.00000000000E+00  0.12525980253E-10  0.17130000000E+03  0.17130000000E+03 0.  1.
       11    1    1    2    0    0  0.91293799240E-03  0.56694730734E-02  0.23391222426E+00  0.23398326064E+00  0.51109989000E-03 0. -1.
     -623    1    1    2    0    0 -0.13276741499E-02  0.86940676470E-04  0.28786364682E-03  0.17130000001E+03  0.17130000000E+03 0.  1.
      622    1    1    2    0    0  0.41473615750E-03 -0.57564137499E-02  0.37657998795E+01  0.37660167340E+01  0.40000000000E-01 0. -1.
</event>
<event>
 5   0  0.6200596E+07  0.9118800E+02  0.7818608E-02  0.1180000E+00
       11   -1    0    0    0    0  0.00000000000E+00  0.00000000000E+00  0.39999999673E+01  0.40000000000E+01  0.51109989000E-03 0.  1.
     -623   -1    0    0    0    0  0.00000000000E+00  0.00000000000E+00  0.12525980253E-10  0.17130000000E+03  0.17130000000E+03 0. -1.
       11    1    1    2    0    0 -0.52645221161E-01  0.14842756693E-01  0.24968554200E+00  0.25560703794E+00  0.51109989000E-03 0.  1.
     -623    1    1    2    0    0 -0.14960945491E-01  0.10532265562E-01  0.68326461915E-02  0.17130000111E+03  0.17130000000E+03 0. -1.
      622    1    1    2    0    0  0.67606166651E-01 -0.25375022255E-01  0.37434817792E+01  0.37443918487E+01  0.40000000000E-01 0.  1.
</event>
<event>
 5   0  0.6200596E+07  0.9118800E+02  0.7818608E-02  0.1180000E+00
       11   -1    0    0    0    0  0.00000000000E+00  0.00000000000E+00  0.39999999673E+01  0.40000000000E+01  0.51109989000E-03 0.  1.
     -623   -1    0    0    0    0  0.00000000000E+00  0.00000000000E+00  0.12525980253E-10  0.17130000000E+03  0.17130000000E+03 0.  1.
       11    1    1    2    0    0  0.49387637878E-03  0.48741163992E-03  0.14253624266E+00  0.14253884795E+00  0.51109989000E-03 0.  1.
     -623    1    1    2    0    0 -0.73084084215E-03 -0.22299617487E-02  0.21038561306E-03  0.17130000002E+03  0.17130000000E+03 0.  1.
      622    1    1    2    0    0  0.23696446337E-03  0.17425501088E-02  0.38572533391E+01  0.38574611358E+01  0.40000000000E-01 0.  1.
</event>
<event>
 5   0  0.6200596E+07  0.9118800E+02  0.7818608E-02  0.1180000E+00
       11   -1    0    0    0    0  0.00000000000E+00  0.00000000000E+00  0.39999999673E+01  0.40000000000E+01  0.51109989000E-03 0.  1.
     -623   -1    0    0    0    0  0.00000000000E+00  0.00000000000E+00  0.12525980253E-10  0.17130000000E+03  0.17130000000E+03 0. -1.
       11    1    1    2    0    0  0.98293681519E-02  0.22370122640E-01  0.18170632771E+00  0.18334254720E+00  0.51109989000E-03 0.  1.
     -623    1    1    2    0    0 -0.20647912926E-01  0.16891944885E-01  0.20651861103E-02  0.17130000209E+03  0.17130000000E+03 0. -1.
      622    1    1    2    0    0  0.10818544774E-01 -0.39262067525E-01  0.38162284535E+01  0.38166553631E+01  0.40000000000E-01 0.  1.
</event>
<event>
 5   0  0.6200596E+07  0.9118800E+02  0.7818608E-02  0.1180000E+00
       11   -1    0    0    0    0  0.00000000000E+00  0.00000000000E+00  0.39999999673E+01  0.40000000000E+01  0.51109989000E-03 0.  1.
     -623   -1    0    0    0    0  0.00000000000E+00  0.00000000000E+00  0.12525980253E-10  0.17130000000E+03  0.17130000000E+03 0. -1.
       11    1    1    2    0    0 -0.10019912488E-01  0.31154965342E-02  0.70990788398E-01  0.71763906137E-01  0.51109989000E-03 0.  1.
     -623    1    1    2    0    0  0.11362267262E-01  0.40217718355E-03  0.97892870042E-03  0.17130000038E+03  0.17130000000E+03 0. -1.
      622    1    1    2    0    0 -0.13423547739E-02 -0.35176737178E-02  0.39280302503E+01  0.39282357138E+01  0.40000000000E-01 0.  1.
</event>
<event>
 5   0  0.6200596E+07  0.9118800E+02  0.7818608E-02  0.1180000E+00
       11   -1    0    0    0    0  0.00000000000E+00  0.00000000000E+00  0.39999999673E+01  0.40000000000E+01  0.51109989000E-03 0.  1.
     -623   -1    0    0    0    0  0.00000000000E+00  0.00000000000E+00  0.12525980253E-10  0.17130000000E+03  0.17130000000E+03 0. -1.
       11    1    1    2    0    0 -0.27163277974E-01  0.14125733822E-01  0.26486279695E+00  0.26662697249E+00  0.51109989000E-03 0.  1.
     -623    1    1    2    0    0  0.22379139647E-02 -0.42913572780E-02  0.20746783617E-02  0.17130000008E+03  0.17130000000E+03 0. -1.
      622    1    1    2    0    0  0.24925364010E-01 -0.98343765440E-02  0.37330624920E+01  0.37333729466E+01  0.40000000000E-01 0.  1.
</event>
<event>
 5   0  0.6200596E+07  0.9118800E+02  0.7818608E-02  0.1180000E+00
       11   -1    0    0    0    0  0.00000000000E+00  0.00000000000E+00  0.39999999673E+01  0.40000000000E+01  0.51109989000E-03 0. -1.
     -623   -1    0    0    0    0  0.00000000000E+00  0.00000000000E+00  0.12525980253E-10  0.17130000000E+03  0.17130000000E+03 0.  1.
       11    1    1    2    0    0  0.76727711707E-04  0.25162782951E-02  0.17356380960E-01  0.17545447428E-01  0.51109989000E-03 0. -1.
     -623    1    1    2    0    0  0.30769532891E-02  0.57900872695E-03  0.39240078742E-03  0.17130000003E+03  0.17130000000E+03 0.  1.
      622    1    1    2    0    0 -0.31536810008E-02 -0.30952870221E-02  0.39822511856E+01  0.39824545235E+01  0.40000000000E-01 0. -1.
</event>
<event>
 5   0  0.6200596E+07  0.9118800E+02  0.7818608E-02  0.1180000E+00
       11   -1    0    0    0    0  0.00000000000E+00  0.00000000000E+00  0.39999999673E+01  0.40000000000E+01  0.51109989000E-03 0. -1.
     -623   -1    0    0    0    0  0.00000000000E+00  0.00000000000E+00  0.12525980253E-10  0.17130000000E+03  0.17130000000E+03 0.  1.
       11    1    1    2    0    0  0.63668545006E-02  0.10901198185E-02  0.10365699465E+00  0.10385932293E+00  0.51109989000E-03 0. -1.
     -623    1    1    2    0    0  0.16236807217E-02 -0.51374215332E-02  0.41801424234E-03  0.17130000009E+03  0.17130000000E+03 0.  1.
      622    1    1    2    0    0 -0.79905352223E-02  0.40473017147E-02  0.38959249585E+01  0.38961405918E+01  0.40000000000E-01 0. -1.
</event>
<event>
 5   0  0.6200596E+07  0.9118800E+02  0.7818608E-02  0.1180000E+00
       11   -1    0    0    0    0  0.00000000000E+00  0.00000000000E+00  0.39999999673E+01  0.40000000000E+01  0.51109989000E-03 0. -1.
     -623   -1    0    0    0    0  0.00000000000E+00  0.00000000000E+00  0.12525980253E-10  0.17130000000E+03  0.17130000000E+03 0. -1.
       11    1    1    2    0    0 -0.27458198639E-01 -0.10916141654E-01  0.11269936503E+00  0.11650975461E+00  0.51109989000E-03 0. -1.
     -623    1    1    2    0    0  0.68251605791E-02  0.15412180718E-01  0.40746583701E-02  0.17130000088E+03  0.17130000000E+03 0. -1.
      622    1    1    2    0    0  0.20633038060E-01 -0.44960390640E-02  0.38832259440E+01  0.38834893676E+01  0.40000000000E-01 0. -1.
</event>
<event>
 5   0  0.6200596E+07  0.9118800E+02  0.7818608E-02  0.1180000E+00
       11   -1    0    0    0    0  0.00000000000E+00  0.00000000000E+00  0.39999999673E+01  0.40000000000E+01  0.51109989000E-03 0. -1.
     -623   -1    0    0    0    0  0.00000000000E+00  0.00000000000E+00  0.12525980253E-10  0.17130000000E+03  0.17130000000E+03 0. -1.
       11    1    1    2    0    0  0.35972242056E-01 -0.21899329711E-01  0.54768943926E+00  0.54930644083E+00  0.51109989000E-03 0. -1.
     -623    1    1    2    0    0 -0.45004444993E-01 -0.18472426574E-01  0.21037492209E-02  0.17130000692E+03  0.17130000000E+03 0. -1.
      622    1    1    2    0    0  0.90322029367E-02  0.40371756286E-01  0.34502067789E+01  0.34506866384E+01  0.40000000000E-01 0. -1.
</event>
<event>
 5   0  0.6200596E+07  0.9118800E+02  0.7818608E-02  0.1180000E+00
       11   -1    0    0    0    0  0.00000000000E+00  0.00000000000E+00  0.39999999673E+01  0.40000000000E+01  0.51109989000E-03 0.  1.
     -623   -1    0    0    0    0  0.00000000000E+00  0.00000000000E+00  0.12525980253E-10  0.17130000000E+03  0.17130000000E+03 0. -1.
       11    1    1    2    0    0 -0.13156845786E-01 -0.13972316304E-02  0.37329659354E+00  0.37353134114E+00  0.51109989000E-03 0.  1.
     -623    1    1    2    0    0 -0.38739886459E-03  0.78631651857E-03  0.48067068466E-03  0.17130000000E+03  0.17130000000E+03 0. -1.
      622    1    1    2    0    0  0.13544244650E-01  0.61091511184E-03  0.36262227031E+01  0.36264686559E+01  0.40000000000E-01 0.  1.
</event>
<event>
 5   0  0.6200596E+07  0.9118800E+02  0.7818608E-02  0.1180000E+00
       11   -1    0    0    0    0  0.00000000000E+00  0.00000000000E+00  0.39999999673E+01  0.40000000000E+01  0.51109989000E-03 0.  1.
     -623   -1    0    0    0    0  0.00000000000E+00  0.00000000000E+00  0.12525980253E-10  0.17130000000E+03  0.17130000000E+03 0. -1.
       11    1    1    2    0    0 -0.65288225249E-03  0.20649779814E-02  0.35712907982E+00  0.35713601227E+00  0.51109989000E-03 0.  1.
     -623    1    1    2    0    0  0.27387438410E-03  0.21497863193E-02  0.22898581825E-03  0.17130000001E+03  0.17130000000E+03 0. -1.
      622    1    1    2    0    0  0.37900786839E-03 -0.42147643008E-02  0.36426419017E+01  0.36428639739E+01  0.40000000000E-01 0.  1.
</event>
<event>
 5   0  0.6200596E+07  0.9118800E+02  0.7818608E-02  0.1180000E+00
       11   -1    0    0    0    0  0.00000000000E+00  0.00000000000E+00  0.39999999673E+01  0.40000000000E+01  0.51109989000E-03 0.  1.
     -623   -1    0    0    0    0  0.00000000000E+00  0.00000000000E+00  0.12525980253E-10  0.17130000000E+03  0.17130000000E+03 0. -1.
       11    1    1    2    0    0  0.13067324196E-01 -0.24344209617E-02  0.83573233573E+00  0.83583818983E+00  0.51109989000E-03 0.  1.
     -623    1    1    2    0    0  0.11975639976E-04 -0.44985668932E-03  0.38701325854E-03  0.17130000000E+03  0.17130000000E+03 0. -1.
      622    1    1    2    0    0 -0.13079299836E-01  0.28842776511E-02  0.31638806184E+01  0.31641618091E+01  0.40000000000E-01 0.  1.
</event>
<event>
 5   0  0.6200596E+07  0.9118800E+02  0.7818608E-02  0.1180000E+00
       11   -1    0    0    0    0  0.00000000000E+00  0.00000000000E+00  0.39999999673E+01  0.40000000000E+01  0.51109989000E-03 0.  1.
     -623   -1    0    0    0    0  0.00000000000E+00  0.00000000000E+00  0.12525980253E-10  0.17130000000E+03  0.17130000000E+03 0. -1.
       11    1    1    2    0    0 -0.53984727937E-01  0.81009925781E-02  0.47283894668E+00  0.47597994458E+00  0.51109989000E-03 0.  1.
     -623    1    1    2    0    0  0.91566198606E-02 -0.21914727366E-02  0.36583925739E-02  0.17130000030E+03  0.17130000000E+03 0. -1.
      622    1    1    2    0    0  0.44828108077E-01 -0.59095198414E-02  0.35235026281E+01  0.35240197576E+01  0.40000000000E-01 0.  1.
</event>
<event>
 5   0  0.6200596E+07  0.9118800E+02  0.7818608E-02  0.1180000E+00
       11   -1    0    0    0    0  0.00000000000E+00  0.00000000000E+00  0.39999999673E+01  0.40000000000E+01  0.51109989000E-03 0. -1.
     -623   -1    0    0    0    0  0.00000000000E+00  0.00000000000E+00  0.12525980253E-10  0.17130000000E+03  0.17130000000E+03 0.  1.
       11    1    1    2    0    0 -0.54083009990E-02  0.77307366210E-03  0.32552254179E-01  0.33011480382E-01  0.51109989000E-03 0. -1.
     -623    1    1    2    0    0  0.14476395051E-02 -0.38529990552E-02  0.66408668168E-03  0.17130000005E+03  0.17130000000E+03 0.  1.
      622    1    1    2    0    0  0.39606614939E-02  0.30799253931E-02  0.39667836265E+01  0.39669884689E+01  0.40000000000E-01 0. -1.
</event>
<event>
 5   0  0.6200596E+07  0.9118800E+02  0.7818608E-02  0.1180000E+00
       11   -1    0    0    0    0  0.00000000000E+00  0.00000000000E+00  0.39999999673E+01  0.40000000000E+01  0.51109989000E-03 0. -1.
     -623   -1    0    0    0    0  0.00000000000E+00  0.00000000000E+00  0.12525980253E-10  0.17130000000E+03  0.17130000000E+03 0.  1.
       11    1    1    2    0    0  0.83744225148E-03  0.29778232214E-01  0.70570671515E+00  0.70633538312E+00  0.51109989000E-03 0. -1.
     -623    1    1    2    0    0  0.71733674332E-03  0.14113935455E-01  0.11649822246E-02  0.17130000059E+03  0.17130000000E+03 0.  1.
      622    1    1    2    0    0 -0.15547789948E-02 -0.43892167669E-01  0.32931282700E+01  0.32936640300E+01  0.40000000000E-01 0.  0.
</event>
<event>
 5   0  0.6200596E+07  0.9118800E+02  0.7818608E-02  0.1180000E+00
       11   -1    0    0    0    0  0.00000000000E+00  0.00000000000E+00  0.39999999673E+01  0.40000000000E+01  0.51109989000E-03 0. -1.
     -623   -1    0    0    0    0  0.00000000000E+00  0.00000000000E+00  0.12525980253E-10  0.17130000000E+03  0.17130000000E+03 0.  1.
       11    1    1    2    0    0  0.12255363251E-02  0.82765137737E-02  0.70844375697E+00  0.70849334551E+00  0.51109989000E-03 0. -1.
     -623    1    1    2    0    0  0.90738925863E-03 -0.15633190822E-02  0.30016205675E-03  0.17130000001E+03  0.17130000000E+03 0.  1.
      622    1    1    2    0    0 -0.21329255837E-02 -0.67131946915E-02  0.32912560483E+01  0.32915066447E+01  0.40000000000E-01 0.  1.
</event>
<event>
 5   0  0.6200596E+07  0.9118800E+02  0.7818608E-02  0.1180000E+00
       11   -1    0    0    0    0  0.00000000000E+00  0.00000000000E+00  0.39999999673E+01  0.40000000000E+01  0.51109989000E-03 0. -1.
     -623   -1    0    0    0    0  0.00000000000E+00  0.00000000000E+00  0.12525980253E-10  0.17130000000E+03  0.17130000000E+03 0. -1.
       11    1    1    2    0    0  0.10757063750E-01  0.16764530375E-01  0.20507400656E+01  0.20508368638E+01  0.51109989000E-03 0. -1.
     -623    1    1    2    0    0 -0.14951866009E-02  0.60866370877E-03  0.60670337487E-03  0.17130000001E+03  0.17130000000E+03 0. -1.
      622    1    1    2    0    0 -0.92618771493E-02 -0.17373194084E-01  0.19486531984E+01  0.19491631275E+01  0.40000000000E-01 0. -1.
</event>
<event>
 5   0  0.6200596E+07  0.9118800E+02  0.7818608E-02  0.1180000E+00
       11   -1    0    0    0    0  0.00000000000E+00  0.00000000000E+00  0.39999999673E+01  0.40000000000E+01  0.51109989000E-03 0. -1.
     -623   -1    0    0    0    0  0.00000000000E+00  0.00000000000E+00  0.12525980253E-10  0.17130000000E+03  0.17130000000E+03 0.  1.
       11    1    1    2    0    0  0.10100272111E-02 -0.12142940636E-02  0.22272044253E+00  0.22272662931E+00  0.51109989000E-03 0. -1.
     -623    1    1    2    0    0  0.65349830634E-03  0.12447215856E-03  0.21847805808E-03  0.17130000000E+03  0.17130000000E+03 0.  1.
      622    1    1    2    0    0 -0.16635255174E-02  0.10898219051E-02  0.37770610468E+01  0.37772733693E+01  0.40000000000E-01 0. -1.
</event>
<event>
 5   0  0.6200596E+07  0.9118800E+02  0.7818608E-02  0.1180000E+00
       11   -1    0    0    0    0  0.00000000000E+00  0.00000000000E+00  0.39999999673E+01  0.40000000000E+01  0.51109989000E-03 0.  1.
     -623   -1    0    0    0    0  0.00000000000E+00  0.00000000000E+00  0.12525980253E-10  0.17130000000E+03  0.17130000000E+03 0. -1.
       11    1    1    2    0    0 -0.13915284213E-02  0.43963310790E-03  0.69400064195E-02  0.71101715180E-02  0.51109989000E-03 0.  1.
     -623    1    1    2    0    0 -0.48883948697E-03  0.65714245513E-03  0.37108940933E-03  0.17130000000E+03  0.17130000000E+03 0. -1.
      622    1    1    2    0    0  0.18803679083E-02 -0.10967755630E-02  0.39926888715E+01  0.39928898261E+01  0.40000000000E-01 0.  1.
</event>
<event>
 5   0  0.6200596E+07  0.9118800E+02  0.7818608E-02  0.1180000E+00
       11   -1    0    0    0    0  0.00000000000E+00  0.00000000000E+00  0.39999999673E+01  0.40000000000E+01  0.51109989000E-03 0. -1.
     -623   -1    0    0    0    0  0.00000000000E+00  0.00000000000E+00  0.12525980253E-10  0.17130000000E+03  0.17130000000E+03 0.  1.
       11    1    1    2    0    0 -0.26564289441E-02  0.16284862381E-03  0.45615970770E-01  0.45696401893E-01  0.51109989000E-03 0. -1.
     -623    1    1    2    0    0  0.12261967154E-02  0.48719130173E-03  0.28303229335E-03  0.17130000001E+03  0.17130000000E+03 0.  1.
      622    1    1    2    0    0  0.14302322287E-02 -0.65003992554E-03  0.39541009643E+01  0.39543035928E+01  0.40000000000E-01 0. -1.
</event>
<event>
 5   0  0.6200596E+07  0.9118800E+02  0.7818608E-02  0.1180000E+00
       11   -1    0    0    0    0  0.00000000000E+00  0.00000000000E+00  0.39999999673E+01  0.40000000000E+01  0.51109989000E-03 0. -1.
     -623   -1    0    0    0    0  0.00000000000E+00  0.00000000000E+00  0.12525980253E-10  0.17130000000E+03  0.17130000000E+03 0.  1.
       11    1    1    2    0    0  0.58918039827E-02  0.59073549122E-02  0.50734638773E-01  0.51418624918E-01  0.51109989000E-03 0. -1.
     -623    1    1    2    0    0 -0.46728406026E-02  0.25416335108E-03  0.89162510777E-03  0.17130000007E+03  0.17130000000E+03 0.  1.
      622    1    1    2    0    0 -0.12189633801E-02 -0.61615182633E-02  0.39483737035E+01  0.39485813088E+01  0.40000000000E-01 0. -1.
</event>
<event>
 5   0  0.6200596E+07  0.9118800E+02  0.7818608E-02  0.1180000E+00
       11   -1    0    0    0    0  0.00000000000E+00  0.00000000000E+00  0.39999999673E+01  0.40000000000E+01  0.51109989000E-03 0. -1.
     -623   -1    0    0    0    0  0.00000000000E+00  0.00000000000E+00  0.12525980253E-10  0.17130000000E+03  0.17130000000E+03 0.  1.
       11    1    1    2    0    0  0.30773915218E-01  0.28593080873E-01  0.69550655352E+00  0.69677415662E+00  0.51109989000E-03 0. -1.
     -623    1    1    2    0    0 -0.83458418434E-02 -0.10162753040E-02  0.17012534425E-02  0.17130000021E+03  0.17130000000E+03 0.  1.
      622    1    1    2    0    0 -0.22428073374E-01 -0.27576805569E-01  0.33027921604E+01  0.33032256286E+01  0.40000000000E-01 0. -1.
</event>
<event>
 5   0  0.6200596E+07  0.9118800E+02  0.7818608E-02  0.1180000E+00
       11   -1    0    0    0    0  0.00000000000E+00  0.00000000000E+00  0.39999999673E+01  0.40000000000E+01  0.51109989000E-03 0. -1.
     -623   -1    0    0    0    0  0.00000000000E+00  0.00000000000E+00  0.12525980253E-10  0.17130000000E+03  0.17130000000E+03 0.  1.
       11    1    1    2    0    0  0.30507485907E-01  0.13464349793E-02  0.15407000059E+01  0.15410026895E+01  0.51109989000E-03 0. -1.
     -623    1    1    2    0    0  0.63769461635E-02  0.59062631359E-02  0.91561119136E-03  0.17130000022E+03  0.17130000000E+03 0.  1.
      622    1    1    2    0    0 -0.36884432071E-01 -0.72526981152E-02  0.24583843503E+01  0.24589970876E+01  0.40000000000E-01 0.  1.
</event>
<event>
 5   0  0.6200596E+07  0.9118800E+02  0.7818608E-02  0.1180000E+00
       11   -1    0    0    0    0  0.00000000000E+00  0.00000000000E+00  0.39999999673E+01  0.40000000000E+01  0.51109989000E-03 0.  1.
     -623   -1    0    0    0    0  0.00000000000E+00  0.00000000000E+00  0.12525980253E-10  0.17130000000E+03  0.17130000000E+03 0. -1.
       11    1    1    2    0    0 -0.82640319874E-02  0.47509765194E-03  0.47686545455E-01  0.48402353071E-01  0.51109989000E-03 0.  1.
     -623    1    1    2    0    0  0.21385850085E-04 -0.19663792076E-02  0.92712225747E-03  0.17130000001E+03  0.17130000000E+03 0. -1.
      622    1    1    2    0    0  0.82426461373E-02  0.14912815557E-02  0.39513862996E+01  0.39515976331E+01  0.40000000000E-01 0.  1.
</event>
<event>
 5   0  0.6200596E+07  0.9118800E+02  0.7818608E-02  0.1180000E+00
       11   -1    0    0    0    0  0.00000000000E+00  0.00000000000E+00  0.39999999673E+01  0.40000000000E+01  0.51109989000E-03 0.  1.
     -623   -1    0    0    0    0  0.00000000000E+00  0.00000000000E+00  0.12525980253E-10  0.17130000000E+03  0.17130000000E+03 0. -1.
       11    1    1    2    0    0 -0.32831987078E-02 -0.42609633169E-02  0.18787006157E+00  0.18794774927E+00  0.51109989000E-03 0.  1.
     -623    1    1    2    0    0 -0.47725974590E-02  0.10915167950E-01  0.30225652311E-03  0.17130000041E+03  0.17130000000E+03 0. -1.
      622    1    1    2    0    0  0.80557961668E-02 -0.66542046327E-02  0.38118276493E+01  0.38120518362E+01  0.40000000000E-01 0.  1.
</event>
<event>
 5   0  0.6200596E+07  0.9118800E+02  0.7818608E-02  0.1180000E+00
       11   -1    0    0    0    0  0.00000000000E+00  0.00000000000E+00  0.39999999673E+01  0.40000000000E+01  0.51109989000E-03 0. -1.
     -623   -1    0    0    0    0  0.00000000000E+00  0.00000000000E+00  0.12525980253E-10  0.17130000000E+03  0.17130000000E+03 0. -1.
       11    1    1    2    0    0  0.11568410286E-01  0.18284227267E-01  0.38817661445E+00  0.38877948288E+00  0.51109989000E-03 0. -1.
     -623    1    1    2    0    0 -0.16259608754E-03 -0.14386285256E-02  0.88168959401E-03  0.17130000001E+03  0.17130000000E+03 0. -1.
      622    1    1    2    0    0 -0.11405814199E-01 -0.16845598742E-01  0.36109416633E+01  0.36112205087E+01  0.40000000000E-01 0.  0.
</event>
<event>
 5   0  0.6200596E+07  0.9118800E+02  0.7818608E-02  0.1180000E+00
       11   -1    0    0    0    0  0.00000000000E+00  0.00000000000E+00  0.39999999673E+01  0.40000000000E+01  0.51109989000E-03 0. -1.
     -623   -1    0    0    0    0  0.00000000000E+00  0.00000000000E+00  0.12525980253E-10  0.17130000000E+03  0.17130000000E+03 0.  1.
       11    1    1    2    0    0  0.32096168787E-03  0.60693013929E-03  0.13168895162E-01  0.13196681450E-01  0.51109989000E-03 0. -1.
     -623    1    1    2    0    0  0.10914473108E-02 -0.48443802752E-03  0.22867711321E-03  0.17130000000E+03  0.17130000000E+03 0.  1.
      622    1    1    2    0    0 -0.14124089987E-02 -0.12249211176E-03  0.39866023951E+01  0.39868033142E+01  0.40000000000E-01 0. -1.
</event>
<event>
 5   0  0.6200596E+07  0.9118800E+02  0.7818608E-02  0.1180000E+00
       11   -1    0    0    0    0  0.00000000000E+00  0.00000000000E+00  0.39999999673E+01  0.40000000000E+01  0.51109989000E-03 0. -1.
     -623   -1    0    0    0    0  0.00000000000E+00  0.00000000000E+00  0.12525980253E-10  0.17130000000E+03  0.17130000000E+03 0. -1.
       11    1    1    2    0    0  0.13686842934E-01 -0.32393318793E-02  0.38141279597E+00  0.38167237927E+00  0.51109989000E-03 0. -1.
     -623    1    1    2    0    0  0.49310139323E-03  0.27011059320E-02  0.50850367631E-03  0.17130000002E+03  0.17130000000E+03 0. -1.
      622    1    1    2    0    0 -0.14179944328E-01  0.53822594730E-03  0.36180786677E+01  0.36183275980E+01  0.40000000000E-01 0. -1.
</event>
<event>
 5   0  0.6200596E+07  0.9118800E+02  0.7818608E-02  0.1180000E+00
       11   -1    0    0    0    0  0.00000000000E+00  0.00000000000E+00  0.39999999673E+01  0.40000000000E+01  0.51109989000E-03 0.  1.
     -623   -1    0    0    0    0  0.00000000000E+00  0.00000000000E+00  0.12525980253E-10  0.17130000000E+03  0.17130000000E+03 0. -1.
       11    1    1    2    0    0  0.17452200528E-01  0.62761640401E-01  0.26663573127E+01  0.26671530108E+01  0.51109989000E-03 0.  1.
     -623    1    1    2    0    0 -0.37288899913E-01 -0.18319366109E-01  0.22903288845E-02  0.17130000505E+03  0.17130000000E+03 0. -1.
      622    1    1    2    0    0  0.19836699385E-01 -0.44442274292E-01  0.13313523258E+01  0.13328419358E+01  0.40000000000E-01 0. -1.
</event>
<event>
 5   0  0.6200596E+07  0.9118800E+02  0.7818608E-02  0.1180000E+00
       11   -1    0    0    0    0  0.00000000000E+00  0.00000000000E+00  0.39999999673E+01  0.40000000000E+01  0.51109989000E-03 0.  1.
     -623   -1    0    0    0    0  0.00000000000E+00  0.00000000000E+00  0.12525980253E-10  0.17130000000E+03  0.17130000000E+03 0. -1.
       11    1    1    2    0    0  0.49724556762E-02  0.16607204140E-02  0.11085007935E+00  0.11097515317E+00  0.51109989000E-03 0.  1.
     -623    1    1    2    0    0 -0.24770980053E-02 -0.27043835181E-02  0.33173394553E-03  0.17130000004E+03  0.17130000000E+03 0. -1.
      622    1    1    2    0    0 -0.24953576709E-02  0.10436631040E-02  0.38888181541E+01  0.38890248073E+01  0.40000000000E-01 0.  1.
</event>
<event>
 5   0  0.6200596E+07  0.9118800E+02  0.7818608E-02  0.1180000E+00
       11   -1    0    0    0    0  0.00000000000E+00  0.00000000000E+00  0.39999999673E+01  0.40000000000E+01  0.51109989000E-03 0.  1.
     -623   -1    0    0    0    0  0.00000000000E+00  0.00000000000E+00  0.12525980253E-10  0.17130000000E+03  0.17130000000E+03 0.  1.
       11    1    1    2    0    0 -0.66231737417E-03 -0.28233171274E-03  0.10462243822E-01  0.10499435386E-01  0.51109989000E-03 0.  1.
     -623    1    1    2    0    0  0.49992984764E-02  0.33500791888E-02  0.24133322472E-03  0.17130000011E+03  0.17130000000E+03 0.  1.
      622    1    1    2    0    0 -0.43369811022E-02 -0.30677474761E-02  0.39892963903E+01  0.39895004587E+01  0.40000000000E-01 0.  1.
</event>
<event>
 5   0  0.6200596E+07  0.9118800E+02  0.7818608E-02  0.1180000E+00
       11   -1    0    0    0    0  0.00000000000E+00  0.00000000000E+00  0.39999999673E+01  0.40000000000E+01  0.51109989000E-03 0.  1.
     -623   -1    0    0    0    0  0.00000000000E+00  0.00000000000E+00  0.12525980253E-10  0.17130000000E+03  0.17130000000E+03 0.  1.
       11    1    1    2    0    0 -0.13532870269E-02 -0.11228961018E-01  0.76113163712E+00  0.76121583746E+00  0.51109989000E-03 0.  1.
     -623    1    1    2    0    0 -0.20761318911E-02  0.42375258039E-02  0.34061116025E-03  0.17130000007E+03  0.17130000000E+03 0.  1.
      622    1    1    2    0    0  0.34294189180E-02  0.69914352145E-02  0.32385277191E+01  0.32387840972E+01  0.40000000000E-01 0.  1.
</event>
<event>
 5   0  0.6200596E+07  0.9118800E+02  0.7818608E-02  0.1180000E+00
       11   -1    0    0    0    0  0.00000000000E+00  0.00000000000E+00  0.39999999673E+01  0.40000000000E+01  0.51109989000E-03 0.  1.
     -623   -1    0    0    0    0  0.00000000000E+00  0.00000000000E+00  0.12525980253E-10  0.17130000000E+03  0.17130000000E+03 0.  1.
       11    1    1    2    0    0 -0.18663220654E-01  0.21056195895E-01  0.15620426263E+01  0.15622961008E+01  0.51109989000E-03 0.  1.
     -623    1    1    2    0    0  0.89050432479E-03 -0.22595695767E-03  0.73545706343E-03  0.17130000000E+03  0.17130000000E+03 0.  1.
      622    1    1    2    0    0  0.17772716330E-01 -0.20830238937E-01  0.24372218840E+01  0.24377038951E+01  0.40000000000E-01 0.  0.
</event>
<event>
 5   0  0.6200596E+07  0.9118800E+02  0.7818608E-02  0.1180000E+00
       11   -1    0    0    0    0  0.00000000000E+00  0.00000000000E+00  0.39999999673E+01  0.40000000000E+01  0.51109989000E-03 0.  1.
     -623   -1    0    0    0    0  0.00000000000E+00  0.00000000000E+00  0.12525980253E-10  0.17130000000E+03  0.17130000000E+03 0. -1.
       11    1    1    2    0    0 -0.10658130496E-01  0.12263572360E-01  0.22716522313E+01  0.22717103935E+01  0.51109989000E-03 0.  1.
     -623    1    1    2    0    0 -0.24799391452E-01  0.17027276691E-01  0.11359277071E-02  0.17130000265E+03  0.17130000000E+03 0. -1.
      622    1    1    2    0    0  0.35457521949E-01 -0.29290849052E-01  0.17272118084E+01  0.17282869614E+01  0.40000000000E-01 0.  0.
</event>
<event>
 5   0  0.6200596E+07  0.9118800E+02  0.7818608E-02  0.1180000E+00
       11   -1    0    0    0    0  0.00000000000E+00  0.00000000000E+00  0.39999999673E+01  0.40000000000E+01  0.51109989000E-03 0. -1.
     -623   -1    0    0    0    0  0.00000000000E+00  0.00000000000E+00  0.12525980253E-10  0.17130000000E+03  0.17130000000E+03 0.  1.
       11    1    1    2    0    0  0.62204353975E-02  0.20923718912E-01  0.18818351360E+00  0.18944601300E+00  0.51109989000E-03 0. -1.
     -623    1    1    2    0    0  0.79517932622E-02 -0.19559760960E-01  0.15003240646E-02  0.17130000131E+03  0.17130000000E+03 0.  1.
      622    1    1    2    0    0 -0.14172228660E-01 -0.13639579519E-02  0.38103161297E+01  0.38105526792E+01  0.40000000000E-01 0. -1.
</event>
<event>
 5   0  0.6200596E+07  0.9118800E+02  0.7818608E-02  0.1180000E+00
       11   -1    0    0    0    0  0.00000000000E+00  0.00000000000E+00  0.39999999673E+01  0.40000000000E+01  0.51109989000E-03 0. -1.
     -623   -1    0    0    0    0  0.00000000000E+00  0.00000000000E+00  0.12525980253E-10  0.17130000000E+03  0.17130000000E+03 0.  1.
       11    1    1    2    0    0 -0.22221941533E-01  0.17065152326E-01  0.34434909398E+01  0.34436049640E+01  0.51109989000E-03 0. -1.
     -623    1    1    2    0    0 -0.17630955708E-02 -0.54726016157E-02  0.21935543051E-02  0.17130000011E+03  0.17130000000E+03 0.  1.
      622    1    1    2    0    0  0.23985037104E-01 -0.11592550710E-01  0.55431547323E+00  0.55639492548E+00  0.40000000000E-01 0.  1.
</event>
<event>
 5   0  0.6200596E+07  0.9118800E+02  0.7818608E-02  0.1180000E+00
       11   -1    0    0    0    0  0.00000000000E+00  0.00000000000E+00  0.39999999673E+01  0.40000000000E+01  0.51109989000E-03 0. -1.
     -623   -1    0    0    0    0  0.00000000000E+00  0.00000000000E+00  0.12525980253E-10  0.17130000000E+03  0.17130000000E+03 0. -1.
       11    1    1    2    0    0  0.29242406844E-01  0.68013033344E-03  0.26918763434E+01  0.26920353063E+01  0.51109989000E-03 0. -1.
     -623    1    1    2    0    0 -0.32030215059E-01 -0.11183831378E-01  0.81924215477E-03  0.17130000336E+03  0.17130000000E+03 0. -1.
      622    1    1    2    0    0  0.27878082150E-02  0.10503701045E-01  0.13073043818E+01  0.13079613321E+01  0.40000000000E-01 0. -1.
</event>
<event>
 5   0  0.6200596E+07  0.9118800E+02  0.7818608E-02  0.1180000E+00
       11   -1    0    0    0    0  0.00000000000E+00  0.00000000000E+00  0.39999999673E+01  0.40000000000E+01  0.51109989000E-03 0.  1.
     -623   -1    0    0    0    0  0.00000000000E+00  0.00000000000E+00  0.12525980253E-10  0.17130000000E+03  0.17130000000E+03 0.  1.
       11    1    1    2    0    0  0.95490918861E-03  0.42221913666E-02  0.90688911802E+00  0.90689959331E+00  0.51109989000E-03 0.  1.
     -623    1    1    2    0    0  0.27015795491E-01  0.16568902400E-01  0.46839405495E-03  0.17130000293E+03  0.17130000000E+03 0.  1.
      622    1    1    2    0    0 -0.27970704679E-01 -0.20791093766E-01  0.30926424553E+01  0.30930974744E+01  0.40000000000E-01 0.  0.
</event>
<event>
 5   0  0.6200596E+07  0.9118800E+02  0.7818608E-02  0.1180000E+00
       11   -1    0    0    0    0  0.00000000000E+00  0.00000000000E+00  0.39999999673E+01  0.40000000000E+01  0.51109989000E-03 0.  1.
     -623   -1    0    0    0    0  0.00000000000E+00  0.00000000000E+00  0.12525980253E-10  0.17130000000E+03  0.17130000000E+03 0. -1.
       11    1    1    2    0    0 -0.23454279369E-03  0.73978430946E-03  0.14156677727E-01  0.14187143320E-01  0.51109989000E-03 0.  1.
     -623    1    1    2    0    0  0.11505057985E-03 -0.82063166341E-04  0.23120616359E-03  0.17130000000E+03  0.17130000000E+03 0. -1.
      622    1    1    2    0    0  0.11949221384E-03 -0.65772114312E-03  0.39856120835E+01  0.39858128565E+01  0.40000000000E-01 0.  1.
</event>
<event>
 5   0  0.6200596E+07  0.9118800E+02  0.7818608E-02  0.1180000E+00
       11   -1    0    0    0    0  0.00000000000E+00  0.00000000000E+00  0.39999999673E+01  0.40000000000E+01  0.51109989000E-03 0. -1.
     -623   -1    0    0    0    0  0.00000000000E+00  0.00000000000E+00  0.12525980253E-10  0.17130000000E+03  0.17130000000E+03 0.  1.
       11    1    1    2    0    0  0.15339931899E-01  0.49211029300E-02  0.27336110296E+00  0.27383587163E+00  0.51109989000E-03 0. -1.
     -623    1    1    2    0    0 -0.11898312213E-01 -0.11467327154E-02  0.69335992234E-03  0.17130000042E+03  0.17130000000E+03 0.  1.
      622    1    1    2    0    0 -0.34416196866E-02 -0.37743702146E-02  0.37259455045E+01  0.37261637099E+01  0.40000000000E-01 0. -1.
</event>
<event>
 5   0  0.6200596E+07  0.9118800E+02  0.7818608E-02  0.1180000E+00
       11   -1    0    0    0    0  0.00000000000E+00  0.00000000000E+00  0.39999999673E+01  0.40000000000E+01  0.51109989000E-03 0.  1.
     -623   -1    0    0    0    0  0.00000000000E+00  0.00000000000E+00  0.12525980253E-10  0.17130000000E+03  0.17130000000E+03 0.  1.
       11    1    1    2    0    0  0.85189490454E-02  0.49525280252E-03  0.14738896238E+00  0.14763666625E+00  0.51109989000E-03 0.  1.
     -623    1    1    2    0    0 -0.14600141558E-01 -0.11968420859E-01  0.47826838569E-03  0.17130000104E+03  0.17130000000E+03 0.  1.
      622    1    1    2    0    0  0.60811925122E-02  0.11473168057E-01  0.38521327366E+01  0.38523622928E+01  0.40000000000E-01 0.  1.
</event>
<event>
 5   0  0.6200596E+07  0.9118800E+02  0.7818608E-02  0.1180000E+00
       11   -1    0    0    0    0  0.00000000000E+00  0.00000000000E+00  0.39999999673E+01  0.40000000000E+01  0.51109989000E-03 0.  1.
     -623   -1    0    0    0    0  0.00000000000E+00  0.00000000000E+00  0.12525980253E-10  0.17130000000E+03  0.17130000000E+03 0.  1.
       11    1    1    2    0    0  0.50986107268E-01  0.56745997315E-02  0.12012117209E+01  0.12023068011E+01  0.51109989000E-03 0.  1.
     -623    1    1    2    0    0 -0.31165919454E-02  0.63974333542E-04  0.17965406674E-02  0.17130000004E+03  0.17130000000E+03 0.  1.
      622    1    1    2    0    0 -0.47869515323E-01 -0.57385740650E-02  0.27969917058E+01  0.27976931611E+01  0.40000000000E-01 0.  1.
</event>
<event>
 5   0  0.6200596E+07  0.9118800E+02  0.7818608E-02  0.1180000E+00
       11   -1    0    0    0    0  0.00000000000E+00  0.00000000000E+00  0.39999999673E+01  0.40000000000E+01  0.51109989000E-03 0. -1.
     -623   -1    0    0    0    0  0.00000000000E+00  0.00000000000E+00  0.12525980253E-10  0.17130000000E+03  0.17130000000E+03 0.  1.
       11    1    1    2    0    0  0.59958272057E-03 -0.29145542433E-03  0.27782699137E-02  0.29024905966E-02  0.51109989000E-03 0. -1.
     -623    1    1    2    0    0  0.32121062669E-02  0.27705000686E-02  0.32697745473E-03  0.17130000005E+03  0.17130000000E+03 0.  1.
      622    1    1    2    0    0 -0.38116889875E-02 -0.24790446442E-02  0.39968947200E+01  0.39970974566E+01  0.40000000000E-01 0. -1.
</event>
<event>
 5   0  0.6200596E+07  0.9118800E+02  0.7818608E-02  0.1180000E+00
       11   -1    0    0    0    0  0.00000000000E+00  0.00000000000E+00  0.39999999673E+01  0.40000000000E+01  0.51109989000E-03 0. -1.
     -623   -1    0    0    0    0  0.00000000000E+00  0.00000000000E+00  0.12525980253E-10  0.17130000000E+03  0.17130000000E+03 0. -1.
       11    1    1    2    0    0 -0.17875467275E-02 -0.73039452671E-02  0.14134233619E+01  0.14134434562E+01  0.51109989000E-03 0. -1.
     -623    1    1    2    0    0  0.16793898559E-02  0.17251375379E-02  0.33540831722E-03  0.17130000002E+03  0.17130000000E+03 0. -1.
      622    1    1    2    0    0  0.10815687151E-03  0.55788077292E-02  0.25862411972E+01  0.25865565265E+01  0.40000000000E-01 0.  1.
</event>
<event>
 5   0  0.6200596E+07  0.9118800E+02  0.7818608E-02  0.1180000E+00
       11   -1    0    0    0    0  0.00000000000E+00  0.00000000000E+00  0.39999999673E+01  0.40000000000E+01  0.51109989000E-03 0.  1.
     -623   -1    0    0    0    0  0.00000000000E+00  0.00000000000E+00  0.12525980253E-10  0.17130000000E+03  0.17130000000E+03 0. -1.
       11    1    1    2    0    0  0.57253913562E-01 -0.10986035486E-01  0.23588930192E+01  0.23596133668E+01  0.51109989000E-03 0.  1.
     -623    1    1    2    0    0  0.20219615964E-02 -0.11690902812E-02  0.23248315011E-02  0.17130000003E+03  0.17130000000E+03 0. -1.
      622    1    1    2    0    0 -0.59275875158E-01  0.12155125767E-01  0.16387821167E+01  0.16403866015E+01  0.40000000000E-01 0.  0.
</event>
<event>
 5   0  0.6200596E+07  0.9118800E+02  0.7818608E-02  0.1180000E+00
       11   -1    0    0    0    0  0.00000000000E+00  0.00000000000E+00  0.39999999673E+01  0.40000000000E+01  0.51109989000E-03 0.  1.
     -623   -1    0    0    0    0  0.00000000000E+00  0.00000000000E+00  0.12525980253E-10  0.17130000000E+03  0.17130000000E+03 0. -1.
       11    1    1    2    0    0 -0.38327576201E-02  0.11240947225E-01  0.22052737421E-01  0.25052612136E-01  0.51109989000E-03 0.  1.
     -623    1    1    2    0    0  0.14084253290E-01 -0.14352323718E-01  0.32167561265E-02  0.17130000121E+03  0.17130000000E+03 0. -1.
      622    1    1    2    0    0 -0.10251495670E-01  0.31113764929E-02  0.39747304738E+01  0.39749461774E+01  0.40000000000E-01 0.  1.
</event>
<event>
 5   0  0.6200596E+07  0.9118800E+02  0.7818608E-02  0.1180000E+00
       11   -1    0    0    0    0  0.00000000000E+00  0.00000000000E+00  0.39999999673E+01  0.40000000000E+01  0.51109989000E-03 0.  1.
     -623   -1    0    0    0    0  0.00000000000E+00  0.00000000000E+00  0.12525980253E-10  0.17130000000E+03  0.17130000000E+03 0.  1.
       11    1    1    2    0    0 -0.14347677121E-01  0.36531233234E-02  0.38703904369E+00  0.38732245444E+00  0.51109989000E-03 0.  1.
     -623    1    1    2    0    0  0.35023214660E-02 -0.23068235081E-02  0.52141036293E-03  0.17130000005E+03  0.17130000000E+03 0.  1.
      622    1    1    2    0    0  0.10845355655E-01 -0.13462998152E-02  0.36124395133E+01  0.36126774934E+01  0.40000000000E-01 0.  1.
</event>
<event>
 5   0  0.6200596E+07  0.9118800E+02  0.7818608E-02  0.1180000E+00
       11   -1    0    0    0    0  0.00000000000E+00  0.00000000000E+00  0.39999999673E+01  0.40000000000E+01  0.51109989000E-03 0.  1.
     -623   -1    0    0    0    0  0.00000000000E+00  0.00000000000E+00  0.12525980253E-10  0.17130000000E+03  0.17130000000E+03 0. -1.
       11    1    1    2    0    0 -0.13875749787E-02 -0.22059520945E-02  0.10647186362E-01  0.10973394574E-01  0.51109989000E-03 0.  1.
     -623    1    1    2    0    0  0.68935576033E-03 -0.16741750775E-03  0.52750026636E-03  0.17130000000E+03  0.17130000000E+03 0. -1.
      622    1    1    2    0    0  0.69821921832E-03  0.23733696023E-02  0.39888252807E+01  0.39890266031E+01  0.40000000000E-01 0.  1.
</event>
<event>
 5   0  0.6200596E+07  0.9118800E+02  0.7818608E-02  0.1180000E+00
       11   -1    0    0    0    0  0.00000000000E+00  0.00000000000E+00  0.39999999673E+01  0.40000000000E+01  0.51109989000E-03 0.  1.
     -623   -1    0    0    0    0  0.00000000000E+00  0.00000000000E+00  0.12525980253E-10  0.17130000000E+03  0.17130000000E+03 0.  1.
       11    1    1    2    0    0 -0.21219649015E-02  0.30099641066E-02  0.11642947668E-01  0.12222195790E-01  0.51109989000E-03 0.  1.
     -623    1    1    2    0    0  0.15002192178E-03 -0.31473759162E-02  0.78035422150E-03  0.17130000003E+03  0.17130000000E+03 0.  1.
      622    1    1    2    0    0  0.19719429798E-02  0.13741180961E-03  0.39875766655E+01  0.39877777735E+01  0.40000000000E-01 0.  1.
</event>
<event>
 5   0  0.6200596E+07  0.9118800E+02  0.7818608E-02  0.1180000E+00
       11   -1    0    0    0    0  0.00000000000E+00  0.00000000000E+00  0.39999999673E+01  0.40000000000E+01  0.51109989000E-03 0.  1.
     -623   -1    0    0    0    0  0.00000000000E+00  0.00000000000E+00  0.12525980253E-10  0.17130000000E+03  0.17130000000E+03 0.  1.
       11    1    1    2    0    0 -0.13817579825E-02  0.24798048079E-02  0.26022782941E-02  0.38848114928E-02  0.51109989000E-03 0.  1.
     -623    1    1    2    0    0  0.16554523875E-02 -0.36831283111E-03  0.14832820635E-02  0.17130000001E+03  0.17130000000E+03 0.  1.
      622    1    1    2    0    0 -0.27369440502E-03 -0.21114919768E-02  0.39959144070E+01  0.39961151737E+01  0.40000000000E-01 0.  1.
</event>
<event>
 5   0  0.6200596E+07  0.9118800E+02  0.7818608E-02  0.1180000E+00
       11   -1    0    0    0    0  0.00000000000E+00  0.00000000000E+00  0.39999999673E+01  0.40000000000E+01  0.51109989000E-03 0. -1.
     -623   -1    0    0    0    0  0.00000000000E+00  0.00000000000E+00  0.12525980253E-10  0.17130000000E+03  0.17130000000E+03 0.  1.
       11    1    1    2    0    0  0.20666316823E-01  0.43258813564E-01  0.17543108916E+01  0.17549659220E+01  0.51109989000E-03 0. -1.
     -623    1    1    2    0    0 -0.14338511381E-02  0.21047241295E-04  0.15110702002E-02  0.17130000001E+03  0.17130000000E+03 0.  1.
      622    1    1    2    0    0 -0.19232465684E-01 -0.43279860805E-01  0.22441780055E+01  0.22450340654E+01  0.40000000000E-01 0. -1.
</event>
<event>
 5   0  0.6200596E+07  0.9118800E+02  0.7818608E-02  0.1180000E+00
       11   -1    0    0    0    0  0.00000000000E+00  0.00000000000E+00  0.39999999673E+01  0.40000000000E+01  0.51109989000E-03 0.  1.
     -623   -1    0    0    0    0  0.00000000000E+00  0.00000000000E+00  0.12525980253E-10  0.17130000000E+03  0.17130000000E+03 0. -1.
       11    1    1    2    0    0  0.17374370280E-01  0.16162492455E-01  0.15638697531E+01  0.15640498588E+01  0.51109989000E-03 0.  1.
     -623    1    1    2    0    0 -0.33956832668E-01 -0.21677966378E-01  0.57594314070E-03  0.17130000474E+03  0.17130000000E+03 0. -1.
      622    1    1    2    0    0  0.16582462388E-01  0.55154739231E-02  0.24355542711E+01  0.24359454030E+01  0.40000000000E-01 0.  1.
</event>
<event>
 5   0  0.6200596E+07  0.9118800E+02  0.7818608E-02  0.1180000E+00
       11   -1    0    0    0    0  0.00000000000E+00  0.00000000000E+00  0.39999999673E+01  0.40000000000E+01  0.51109989000E-03 0.  1.
     -623   -1    0    0    0    0  0.00000000000E+00  0.00000000000E+00  0.12525980253E-10  0.17130000000E+03  0.17130000000E+03 0.  1.
       11    1    1    2    0    0  0.80357056498E-03  0.26034228180E-02  0.16987610872E-01  0.17212311871E-01  0.51109989000E-03 0.  1.
     -623    1    1    2    0    0 -0.12770776901E-02 -0.56709224100E-02  0.42684641060E-03  0.17130000010E+03  0.17130000000E+03 0.  1.
      622    1    1    2    0    0  0.47350712516E-03  0.30674995919E-02  0.39825855101E+01  0.39827875890E+01  0.40000000000E-01 0.  1.
</event>
<event>
 5   0  0.6200596E+07  0.9118800E+02  0.7818608E-02  0.1180000E+00
       11   -1    0    0    0    0  0.00000000000E+00  0.00000000000E+00  0.39999999673E+01  0.40000000000E+01  0.51109989000E-03 0. -1.
     -623   -1    0    0    0    0  0.00000000000E+00  0.00000000000E+00  0.12525980253E-10  0.17130000000E+03  0.17130000000E+03 0. -1.
       11    1    1    2    0    0 -0.19755302191E-02  0.10136063779E-01  0.49271621543E+00  0.49282468757E+00  0.51109989000E-03 0. -1.
     -623    1    1    2    0    0 -0.79638715135E-03  0.76502008128E-03  0.35459276133E-03  0.17130000000E+03  0.17130000000E+03 0. -1.
      622    1    1    2    0    0  0.27719173704E-02 -0.10901083860E-01  0.35069291592E+01  0.35071753085E+01  0.40000000000E-01 0. -1.
</event>
<event>
 5   0  0.6200596E+07  0.9118800E+02  0.7818608E-02  0.1180000E+00
       11   -1    0    0    0    0  0.00000000000E+00  0.00000000000E+00  0.39999999673E+01  0.40000000000E+01  0.51109989000E-03 0. -1.
     -623   -1    0    0    0    0  0.00000000000E+00  0.00000000000E+00  0.12525980253E-10  0.17130000000E+03  0.17130000000E+03 0. -1.
       11    1    1    2    0    0 -0.49455844354E-02 -0.76160721373E-02  0.61312119979E+00  0.61318865793E+00  0.51109989000E-03 0. -1.
     -623    1    1    2    0    0 -0.29800343013E-02  0.30756847345E-02  0.31601580495E-03  0.17130000005E+03  0.17130000000E+03 0. -1.
      622    1    1    2    0    0  0.79256187367E-02  0.45403874028E-02  0.33865627518E+01  0.33868112882E+01  0.40000000000E-01 0. -1.
</event>
<event>
 5   0  0.6200596E+07  0.9118800E+02  0.7818608E-02  0.1180000E+00
       11   -1    0    0    0    0  0.00000000000E+00  0.00000000000E+00  0.39999999673E+01  0.40000000000E+01  0.51109989000E-03 0. -1.
     -623   -1    0    0    0    0  0.00000000000E+00  0.00000000000E+00  0.12525980253E-10  0.17130000000E+03  0.17130000000E+03 0.  1.
       11    1    1    2    0    0 -0.57816265028E-03 -0.14224066034E-02  0.20398185904E+00  0.20398827797E+00  0.51109989000E-03 0. -1.
     -623    1    1    2    0    0  0.30994728516E-02  0.83548969114E-03  0.21805261733E-03  0.17130000003E+03  0.17130000000E+03 0.  1.
      622    1    1    2    0    0 -0.25213102013E-02  0.58691691230E-03  0.37958000557E+01  0.37960116918E+01  0.40000000000E-01 0. -1.
</event>
<event>
 5   0  0.6200596E+07  0.9118800E+02  0.7818608E-02  0.1180000E+00
       11   -1    0    0    0    0  0.00000000000E+00  0.00000000000E+00  0.39999999673E+01  0.40000000000E+01  0.51109989000E-03 0.  1.
     -623   -1    0    0    0    0  0.00000000000E+00  0.00000000000E+00  0.12525980253E-10  0.17130000000E+03  0.17130000000E+03 0. -1.
       11    1    1    2    0    0  0.69494033392E-03  0.31390574034E-02  0.40763374923E-01  0.40893160544E-01  0.51109989000E-03 0.  1.
     -623    1    1    2    0    0 -0.19951702977E-02  0.37498950147E-04  0.33332378801E-03  0.17130000001E+03  0.17130000000E+03 0. -1.
      622    1    1    2    0    0  0.13002299638E-02 -0.31765563535E-02  0.39589032686E+01  0.39591068275E+01  0.40000000000E-01 0.  1.
</event>
<event>
 5   0  0.6200596E+07  0.9118800E+02  0.7818608E-02  0.1180000E+00
       11   -1    0    0    0    0  0.00000000000E+00  0.00000000000E+00  0.39999999673E+01  0.40000000000E+01  0.51109989000E-03 0.  1.
     -623   -1    0    0    0    0  0.00000000000E+00  0.00000000000E+00  0.12525980253E-10  0.17130000000E+03  0.17130000000E+03 0. -1.
       11    1    1    2    0    0  0.55781797721E-02  0.10078156323E-01  0.35362458579E+00  0.35381251281E+00  0.51109989000E-03 0.  1.
     -623    1    1    2    0    0  0.54177156581E-03 -0.65773826609E-03  0.42461745281E-03  0.17130000000E+03  0.17130000000E+03 0. -1.
      622    1    1    2    0    0 -0.61199513379E-02 -0.94204180573E-02  0.36459507641E+01  0.36461874845E+01  0.40000000000E-01 0.  0.
</event>
<event>
 5   0  0.6200596E+07  0.9118800E+02  0.7818608E-02  0.1180000E+00
       11   -1    0    0    0    0  0.00000000000E+00  0.00000000000E+00  0.39999999673E+01  0.40000000000E+01  0.51109989000E-03 0. -1.
     -623   -1    0    0    0    0  0.00000000000E+00  0.00000000000E+00  0.12525980253E-10  0.17130000000E+03  0.17130000000E+03 0.  1.
       11    1    1    2    0    0  0.21028222318E-02 -0.59070261516E-02  0.17749964367E+00  0.17761109071E+00  0.51109989000E-03 0. -1.
     -623    1    1    2    0    0  0.67460184992E-02  0.55233161709E-02  0.33119792147E-03  0.17130000022E+03  0.17130000000E+03 0.  1.
      622    1    1    2    0    0 -0.88488407310E-02  0.38370998067E-03  0.38221691258E+01  0.38223886871E+01  0.40000000000E-01 0. -1.
</event>
<event>
 5   0  0.6200596E+07  0.9118800E+02  0.7818608E-02  0.1180000E+00
       11   -1    0    0    0    0  0.00000000000E+00  0.00000000000E+00  0.39999999673E+01  0.40000000000E+01  0.51109989000E-03 0.  1.
     -623   -1    0    0    0    0  0.00000000000E+00  0.00000000000E+00  0.12525980253E-10  0.17130000000E+03  0.17130000000E+03 0. -1.
       11    1    1    2    0    0  0.33633628768E-03  0.47023798830E-03  0.46989649184E-02  0.47619049242E-02  0.51109989000E-03 0.  1.
     -623    1    1    2    0    0 -0.89685239625E-04  0.15248350745E-03  0.26320720329E-03  0.17130000000E+03  0.17130000000E+03 0. -1.
      622    1    1    2    0    0 -0.24665104805E-03 -0.62272149575E-03  0.39950377952E+01  0.39952380948E+01  0.40000000000E-01 0.  1.
</event>
<event>
 5   0  0.6200596E+07  0.9118800E+02  0.7818608E-02  0.1180000E+00
       11   -1    0    0    0    0  0.00000000000E+00  0.00000000000E+00  0.39999999673E+01  0.40000000000E+01  0.51109989000E-03 0.  1.
     -623   -1    0    0    0    0  0.00000000000E+00  0.00000000000E+00  0.12525980253E-10  0.17130000000E+03  0.17130000000E+03 0. -1.
       11    1    1    2    0    0  0.14354382006E-01 -0.72180128479E-04  0.10891641922E+01  0.10892589005E+01  0.51109989000E-03 0.  1.
     -623    1    1    2    0    0 -0.15245857880E-02  0.26235612404E-02  0.39895639330E-03  0.17130000003E+03  0.17130000000E+03 0. -1.
      622    1    1    2    0    0 -0.12829796218E-01 -0.25513811119E-02  0.29104368188E+01  0.29107410722E+01  0.40000000000E-01 0.  0.
</event>
<event>
 5   0  0.6200596E+07  0.9118800E+02  0.7818608E-02  0.1180000E+00
       11   -1    0    0    0    0  0.00000000000E+00  0.00000000000E+00  0.39999999673E+01  0.40000000000E+01  0.51109989000E-03 0. -1.
     -623   -1    0    0    0    0  0.00000000000E+00  0.00000000000E+00  0.12525980253E-10  0.17130000000E+03  0.17130000000E+03 0.  1.
       11    1    1    2    0    0  0.11373862316E-01 -0.12487695645E-02  0.20464286786E+00  0.20496313999E+00  0.51109989000E-03 0. -1.
     -623    1    1    2    0    0 -0.89361812876E-02 -0.52825297636E-02  0.53776587282E-03  0.17130000032E+03  0.17130000000E+03 0.  1.
      622    1    1    2    0    0 -0.24376810282E-02  0.65312993281E-02  0.37948193336E+01  0.37950365446E+01  0.40000000000E-01 0. -1.
</event>
<event>
 5   0  0.6200596E+07  0.9118800E+02  0.7818608E-02  0.1180000E+00
       11   -1    0    0    0    0  0.00000000000E+00  0.00000000000E+00  0.39999999673E+01  0.40000000000E+01  0.51109989000E-03 0. -1.
     -623   -1    0    0    0    0  0.00000000000E+00  0.00000000000E+00  0.12525980253E-10  0.17130000000E+03  0.17130000000E+03 0.  1.
       11    1    1    2    0    0  0.16236588948E-01 -0.55992297657E-02  0.58193200968E-01  0.60676915328E-01  0.51109989000E-03 0. -1.
     -623    1    1    2    0    0 -0.36012738992E-02  0.24019554385E-02  0.27084060987E-02  0.17130000008E+03  0.17130000000E+03 0.  1.
      622    1    1    2    0    0 -0.12635315049E-01  0.31972743272E-02  0.39390983603E+01  0.39393230086E+01  0.40000000000E-01 0. -1.
</event>
<event>
 5   0  0.6200596E+07  0.9118800E+02  0.7818608E-02  0.1180000E+00
       11   -1    0    0    0    0  0.00000000000E+00  0.00000000000E+00  0.39999999673E+01  0.40000000000E+01  0.51109989000E-03 0.  1.
     -623   -1    0    0    0    0  0.00000000000E+00  0.00000000000E+00  0.12525980253E-10  0.17130000000E+03  0.17130000000E+03 0. -1.
       11    1    1    2    0    0 -0.17666139272E-02 -0.14978045794E-01  0.23202629203E+01  0.23203119927E+01  0.51109989000E-03 0.  1.
     -623    1    1    2    0    0  0.81114400380E-04 -0.26116124465E-03  0.59538435667E-03  0.17130000000E+03  0.17130000000E+03 0. -1.
      622    1    1    2    0    0  0.16854995268E-02  0.15239207039E-01  0.16791416627E+01  0.16796880061E+01  0.40000000000E-01 0. -1.
</event>
<event>
 5   0  0.6200596E+07  0.9118800E+02  0.7818608E-02  0.1180000E+00
       11   -1    0    0    0    0  0.00000000000E+00  0.00000000000E+00  0.39999999673E+01  0.40000000000E+01  0.51109989000E-03 0. -1.
     -623   -1    0    0    0    0  0.00000000000E+00  0.00000000000E+00  0.12525980253E-10  0.17130000000E+03  0.17130000000E+03 0.  1.
       11    1    1    2    0    0  0.58876486341E-02  0.22850526157E-01  0.12768746192E+01  0.12770927395E+01  0.51109989000E-03 0. -1.
     -623    1    1    2    0    0 -0.23194785499E-02  0.14395364752E-02  0.62262353625E-03  0.17130000002E+03  0.17130000000E+03 0.  1.
      622    1    1    2    0    0 -0.35681700842E-02 -0.24290062632E-01  0.27225027246E+01  0.27229072376E+01  0.40000000000E-01 0.  1.
</event>
<event>
 5   0  0.6200596E+07  0.9118800E+02  0.7818608E-02  0.1180000E+00
       11   -1    0    0    0    0  0.00000000000E+00  0.00000000000E+00  0.39999999673E+01  0.40000000000E+01  0.51109989000E-03 0. -1.
     -623   -1    0    0    0    0  0.00000000000E+00  0.00000000000E+00  0.12525980253E-10  0.17130000000E+03  0.17130000000E+03 0.  1.
       11    1    1    2    0    0  0.11326165625E-03 -0.71329697549E-03  0.16628001889E-02  0.18835463492E-02  0.51109989000E-03 0. -1.
     -623    1    1    2    0    0 -0.27392720099E-02  0.12869188339E-02  0.42174359817E-03  0.17130000003E+03  0.17130000000E+03 0.  1.
      622    1    1    2    0    0  0.26260103537E-02 -0.57362185843E-03  0.39979154236E+01  0.39981164264E+01  0.40000000000E-01 0. -1.
</event>
<event>
 5   0  0.6200596E+07  0.9118800E+02  0.7818608E-02  0.1180000E+00
       11   -1    0    0    0    0  0.00000000000E+00  0.00000000000E+00  0.39999999673E+01  0.40000000000E+01  0.51109989000E-03 0. -1.
     -623   -1    0    0    0    0  0.00000000000E+00  0.00000000000E+00  0.12525980253E-10  0.17130000000E+03  0.17130000000E+03 0.  1.
       11    1    1    2    0    0 -0.25667503025E-03  0.29841824884E-03  0.40385343109E-02  0.40897331845E-02  0.51109989000E-03 0. -1.
     -623    1    1    2    0    0 -0.42304070285E-03  0.38949315408E-03  0.25149412470E-03  0.17130000000E+03  0.17130000000E+03 0.  1.
      622    1    1    2    0    0  0.67971573310E-03 -0.68791140292E-03  0.39957099389E+01  0.39959102657E+01  0.40000000000E-01 0. -1.
</event>
<event>
 5   0  0.6200596E+07  0.9118800E+02  0.7818608E-02  0.1180000E+00
       11   -1    0    0    0    0  0.00000000000E+00  0.00000000000E+00  0.39999999673E+01  0.40000000000E+01  0.51109989000E-03 0. -1.
     -623   -1    0    0    0    0  0.00000000000E+00  0.00000000000E+00  0.12525980253E-10  0.17130000000E+03  0.17130000000E+03 0.  1.
       11    1    1    2    0    0 -0.98733222213E-03  0.20347339203E-02  0.25040668944E+00  0.25041742412E+00  0.51109989000E-03 0. -1.
     -623    1    1    2    0    0 -0.61969023900E-03 -0.14038222226E-02  0.22446969201E-03  0.17130000001E+03  0.17130000000E+03 0.  1.
      622    1    1    2    0    0  0.16070224611E-02 -0.63091169771E-03  0.37493688082E+01  0.37495825689E+01  0.40000000000E-01 0. -1.
</event>
<event>
 5   0  0.6200596E+07  0.9118800E+02  0.7818608E-02  0.1180000E+00
       11   -1    0    0    0    0  0.00000000000E+00  0.00000000000E+00  0.39999999673E+01  0.40000000000E+01  0.51109989000E-03 0.  1.
     -623   -1    0    0    0    0  0.00000000000E+00  0.00000000000E+00  0.12525980253E-10  0.17130000000E+03  0.17130000000E+03 0. -1.
       11    1    1    2    0    0  0.27324294920E-01 -0.48493961229E-01  0.14464223042E+01  0.14474930137E+01  0.51109989000E-03 0.  1.
     -623    1    1    2    0    0  0.77098702325E-02  0.44155589361E-02  0.20055241245E-02  0.17130000024E+03  0.17130000000E+03 0. -1.
      622    1    1    2    0    0 -0.35034165152E-01  0.44078402293E-01  0.25515721390E+01  0.25525067441E+01  0.40000000000E-01 0.  1.
</event>
<event>
 5   0  0.6200596E+07  0.9118800E+02  0.7818608E-02  0.1180000E+00
       11   -1    0    0    0    0  0.00000000000E+00  0.00000000000E+00  0.39999999673E+01  0.40000000000E+01  0.51109989000E-03 0. -1.
     -623   -1    0    0    0    0  0.00000000000E+00  0.00000000000E+00  0.12525980253E-10  0.17130000000E+03  0.17130000000E+03 0. -1.
       11    1    1    2    0    0 -0.44916675391E-02 -0.60488166631E-03  0.52505292987E-01  0.52703016734E-01  0.51109989000E-03 0. -1.
     -623    1    1    2    0    0  0.42404497198E-02 -0.23075978271E-02  0.40151767033E-03  0.17130000007E+03  0.17130000000E+03 0. -1.
      622    1    1    2    0    0  0.25121781936E-03  0.29124794935E-02  0.39470931567E+01  0.39472969148E+01  0.40000000000E-01 0. -1.
</event>
<event>
 5   0  0.6200596E+07  0.9118800E+02  0.7818608E-02  0.1180000E+00
       11   -1    0    0    0    0  0.00000000000E+00  0.00000000000E+00  0.39999999673E+01  0.40000000000E+01  0.51109989000E-03 0. -1.
     -623   -1    0    0    0    0  0.00000000000E+00  0.00000000000E+00  0.12525980253E-10  0.17130000000E+03  0.17130000000E+03 0.  1.
       11    1    1    2    0    0  0.10672807025E-01  0.18983670257E-01  0.18689459388E+01  0.18690728910E+01  0.51109989000E-03 0. -1.
     -623    1    1    2    0    0  0.89510077814E-02 -0.17350485063E-01  0.59449210215E-03  0.17130000111E+03  0.17130000000E+03 0.  1.
      622    1    1    2    0    0 -0.19623814807E-01 -0.16331851945E-02  0.21304595365E+01  0.21309259954E+01  0.40000000000E-01 0. -1.
</event>
<event>
 5   0  0.6200596E+07  0.9118800E+02  0.7818608E-02  0.1180000E+00
       11   -1    0    0    0    0  0.00000000000E+00  0.00000000000E+00  0.39999999673E+01  0.40000000000E+01  0.51109989000E-03 0. -1.
     -623   -1    0    0    0    0  0.00000000000E+00  0.00000000000E+00  0.12525980253E-10  0.17130000000E+03  0.17130000000E+03 0.  1.
       11    1    1    2    0    0  0.34382445940E-01  0.11204464831E-01  0.18149983416E+01  0.18153586240E+01  0.51109989000E-03 0. -1.
     -623    1    1    2    0    0 -0.27333924186E-02  0.14744094492E-02  0.99260802049E-03  0.17130000003E+03  0.17130000000E+03 0.  1.
      622    1    1    2    0    0 -0.31649053521E-01 -0.12678874280E-01  0.21840090177E+01  0.21846413449E+01  0.40000000000E-01 0. -1.
</event>
<event>
 5   0  0.6200596E+07  0.9118800E+02  0.7818608E-02  0.1180000E+00
       11   -1    0    0    0    0  0.00000000000E+00  0.00000000000E+00  0.39999999673E+01  0.40000000000E+01  0.51109989000E-03 0.  1.
     -623   -1    0    0    0    0  0.00000000000E+00  0.00000000000E+00  0.12525980253E-10  0.17130000000E+03  0.17130000000E+03 0.  1.
       11    1    1    2    0    0  0.70408767582E-03  0.30813430387E-02  0.47148274046E-01  0.47256865984E-01  0.51109989000E-03 0.  1.
     -623    1    1    2    0    0 -0.15776850194E-02 -0.70680146501E-03  0.31177438958E-03  0.17130000001E+03  0.17130000000E+03 0.  1.
      622    1    1    2    0    0  0.87359734363E-03 -0.23745415737E-02  0.39525399189E+01  0.39527431250E+01  0.40000000000E-01 0.  1.
</event>
<event>
 5   0  0.6200596E+07  0.9118800E+02  0.7818608E-02  0.1180000E+00
       11   -1    0    0    0    0  0.00000000000E+00  0.00000000000E+00  0.39999999673E+01  0.40000000000E+01  0.51109989000E-03 0. -1.
     -623   -1    0    0    0    0  0.00000000000E+00  0.00000000000E+00  0.12525980253E-10  0.17130000000E+03  0.17130000000E+03 0. -1.
       11    1    1    2    0    0  0.72491729546E-02  0.41126501375E-01  0.81713261929E+00  0.81819919234E+00  0.51109989000E-03 0. -1.
     -623    1    1    2    0    0 -0.82001099631E-02 -0.46688438576E-01  0.13295485677E-02  0.17130000656E+03  0.17130000000E+03 0. -1.
      622    1    1    2    0    0  0.95093700849E-03  0.55619372009E-02  0.31815377995E+01  0.31817942437E+01  0.40000000000E-01 0. -1.
</event>
<event>
 5   0  0.6200596E+07  0.9118800E+02  0.7818608E-02  0.1180000E+00
       11   -1    0    0    0    0  0.00000000000E+00  0.00000000000E+00  0.39999999673E+01  0.40000000000E+01  0.51109989000E-03 0. -1.
     -623   -1    0    0    0    0  0.00000000000E+00  0.00000000000E+00  0.12525980253E-10  0.17130000000E+03  0.17130000000E+03 0. -1.
       11    1    1    2    0    0  0.33926913807E-03  0.11095465252E-01  0.10541221875E+01  0.10541807586E+01  0.51109989000E-03 0. -1.
     -623    1    1    2    0    0 -0.20390686676E-02 -0.31496311998E-03  0.35035357483E-03  0.17130000001E+03  0.17130000000E+03 0. -1.
      622    1    1    2    0    0  0.16997995295E-02 -0.10780502132E-01  0.29455274263E+01  0.29458192286E+01  0.40000000000E-01 0. -1.
</event>
<event>
 5   0  0.6200596E+07  0.9118800E+02  0.7818608E-02  0.1180000E+00
       11   -1    0    0    0    0  0.00000000000E+00  0.00000000000E+00  0.39999999673E+01  0.40000000000E+01  0.51109989000E-03 0. -1.
     -623   -1    0    0    0    0  0.00000000000E+00  0.00000000000E+00  0.12525980253E-10  0.17130000000E+03  0.17130000000E+03 0.  1.
       11    1    1    2    0    0 -0.10877050686E-01 -0.54804129597E-02  0.14036114661E+01  0.14036644023E+01  0.51109989000E-03 0. -1.
     -623    1    1    2    0    0  0.52757284718E-02  0.12159017041E-02  0.37067987986E-03  0.17130000009E+03  0.17130000000E+03 0.  1.
      622    1    1    2    0    0  0.56013222143E-02  0.42645112556E-02  0.25960178214E+01  0.25963355118E+01  0.40000000000E-01 0. -1.
</event>
<event>
 5   0  0.6200596E+07  0.9118800E+02  0.7818608E-02  0.1180000E+00
       11   -1    0    0    0    0  0.00000000000E+00  0.00000000000E+00  0.39999999673E+01  0.40000000000E+01  0.51109989000E-03 0. -1.
     -623   -1    0    0    0    0  0.00000000000E+00  0.00000000000E+00  0.12525980253E-10  0.17130000000E+03  0.17130000000E+03 0. -1.
       11    1    1    2    0    0 -0.17601178635E-02 -0.57240970860E-03  0.90365120914E-02  0.92382595600E-02  0.51109989000E-03 0. -1.
     -623    1    1    2    0    0  0.12461210948E-02 -0.29817324172E-03  0.40231617605E-03  0.17130000001E+03  0.17130000000E+03 0. -1.
      622    1    1    2    0    0  0.51399676872E-03  0.87058295032E-03  0.39905611391E+01  0.39907617352E+01  0.40000000000E-01 0. -1.
</event>
<event>
 5   0  0.6200596E+07  0.9118800E+02  0.7818608E-02  0.1180000E+00
       11   -1    0    0    0    0  0.00000000000E+00  0.00000000000E+00  0.39999999673E+01  0.40000000000E+01  0.51109989000E-03 0.  1.
     -623   -1    0    0    0    0  0.00000000000E+00  0.00000000000E+00  0.12525980253E-10  0.17130000000E+03  0.17130000000E+03 0. -1.
       11    1    1    2    0    0 -0.16764896817E-02 -0.51588407106E-03  0.12668529889E-01  0.12799594716E-01  0.51109989000E-03 0.  1.
     -623    1    1    2    0    0  0.37670083395E-03  0.26871900237E-02  0.33250419835E-03  0.17130000002E+03  0.17130000000E+03 0. -1.
      622    1    1    2    0    0  0.12997888477E-02 -0.21713059526E-02  0.39869989333E+01  0.39872003835E+01  0.40000000000E-01 0.  1.
</event>
<event>
 5   0  0.6200596E+07  0.9118800E+02  0.7818608E-02  0.1180000E+00
       11   -1    0    0    0    0  0.00000000000E+00  0.00000000000E+00  0.39999999673E+01  0.40000000000E+01  0.51109989000E-03 0. -1.
     -623   -1    0    0    0    0  0.00000000000E+00  0.00000000000E+00  0.12525980253E-10  0.17130000000E+03  0.17130000000E+03 0.  1.
       11    1    1    2    0    0 -0.59265442942E-02  0.33346010337E-02  0.68619735122E-01  0.68957760705E-01  0.51109989000E-03 0. -1.
     -623    1    1    2    0    0  0.24750781809E-02 -0.17147551627E-04  0.54444049906E-03  0.17130000002E+03  0.17130000000E+03 0.  1.
      622    1    1    2    0    0  0.34514661133E-02 -0.33174534820E-02  0.39308357917E+01  0.39310422205E+01  0.40000000000E-01 0. -1.
</event>
<event>
 5   0  0.6200596E+07  0.9118800E+02  0.7818608E-02  0.1180000E+00
       11   -1    0    0    0    0  0.00000000000E+00  0.00000000000E+00  0.39999999673E+01  0.40000000000E+01  0.51109989000E-03 0. -1.
     -623   -1    0    0    0    0  0.00000000000E+00  0.00000000000E+00  0.12525980253E-10  0.17130000000E+03  0.17130000000E+03 0. -1.
       11    1    1    2    0    0 -0.10851392075E-01 -0.15351013656E-02  0.16569824153E+00  0.16606106622E+00  0.51109989000E-03 0. -1.
     -623    1    1    2    0    0  0.14841086846E-03 -0.21269244806E-02  0.58816398834E-03  0.17130000001E+03  0.17130000000E+03 0. -1.
      622    1    1    2    0    0  0.10702981206E-01  0.36620258463E-02  0.38337135618E+01  0.38339389195E+01  0.40000000000E-01 0. -1.
</event>
<event>
 5   0  0.6200596E+07  0.9118800E+02  0.7818608E-02  0.1180000E+00
       11   -1    0    0    0    0  0.00000000000E+00  0.00000000000E+00  0.39999999673E+01  0.40000000000E+01  0.51109989000E-03 0.  1.
     -623   -1    0    0    0    0  0.00000000000E+00  0.00000000000E+00  0.12525980253E-10  0.17130000000E+03  0.17130000000E+03 0.  1.
       11    1    1    2    0    0 -0.52162259016E-02 -0.30267067631E-02  0.98402474801E-01  0.98588428506E-01  0.51109989000E-03 0.  1.
     -623    1    1    2    0    0  0.36833989140E-03 -0.16366442672E-02  0.39678845971E-03  0.17130000001E+03  0.17130000000E+03 0.  1.
      622    1    1    2    0    0  0.48478860102E-02  0.46633510303E-02  0.39012007041E+01  0.39014115628E+01  0.40000000000E-01 0.  1.
</event>
<event>
 5   0  0.6200596E+07  0.9118800E+02  0.7818608E-02  0.1180000E+00
       11   -1    0    0    0    0  0.00000000000E+00  0.00000000000E+00  0.39999999673E+01  0.40000000000E+01  0.51109989000E-03 0.  1.
     -623   -1    0    0    0    0  0.00000000000E+00  0.00000000000E+00  0.12525980253E-10  0.17130000000E+03  0.17130000000E+03 0.  1.
       11    1    1    2    0    0  0.65625939884E-02  0.20510871958E-02  0.47300405770E-01  0.47800253193E-01  0.51109989000E-03 0.  1.
     -623    1    1    2    0    0 -0.60898232032E-02  0.19337857964E-02  0.70439679395E-03  0.17130000012E+03  0.17130000000E+03 0.  1.
      622    1    1    2    0    0 -0.47277078524E-03 -0.39848729922E-02  0.39519951648E+01  0.39521996262E+01  0.40000000000E-01 0.  1.
</event>
<event>
 5   0  0.6200596E+07  0.9118800E+02  0.7818608E-02  0.1180000E+00
       11   -1    0    0    0    0  0.00000000000E+00  0.00000000000E+00  0.39999999673E+01  0.40000000000E+01  0.51109989000E-03 0. -1.
     -623   -1    0    0    0    0  0.00000000000E+00  0.00000000000E+00  0.12525980253E-10  0.17130000000E+03  0.17130000000E+03 0.  1.
       11    1    1    2    0    0 -0.23855493829E-01  0.60750201910E-02  0.87971907762E+00  0.88006358134E+00  0.51109989000E-03 0. -1.
     -623    1    1    2    0    0 -0.22192194953E-02  0.11236693679E-02  0.71819241113E-03  0.17130000002E+03  0.17130000000E+03 0.  1.
      622    1    1    2    0    0  0.26074713324E-01 -0.71986895589E-02  0.31195626973E+01  0.31199363991E+01  0.40000000000E-01 0.  0.
</event>
<event>
 5   0  0.6200596E+07  0.9118800E+02  0.7818608E-02  0.1180000E+00
       11   -1    0    0    0    0  0.00000000000E+00  0.00000000000E+00  0.39999999673E+01  0.40000000000E+01  0.51109989000E-03 0. -1.
     -623   -1    0    0    0    0  0.00000000000E+00  0.00000000000E+00  0.12525980253E-10  0.17130000000E+03  0.17130000000E+03 0.  1.
       11    1    1    2    0    0  0.10215611820E-02  0.16383059974E-02  0.48226726013E-02  0.52198684472E-02  0.51109989000E-03 0. -1.
     -623    1    1    2    0    0 -0.75969851616E-03  0.86262062530E-03  0.59822593460E-03  0.17130000000E+03  0.17130000000E+03 0.  1.
      622    1    1    2    0    0 -0.26186266582E-03 -0.25009266227E-02  0.39945790688E+01  0.39947801267E+01  0.40000000000E-01 0. -1.
</event>
<event>
 5   0  0.6200596E+07  0.9118800E+02  0.7818608E-02  0.1180000E+00
       11   -1    0    0    0    0  0.00000000000E+00  0.00000000000E+00  0.39999999673E+01  0.40000000000E+01  0.51109989000E-03 0.  1.
     -623   -1    0    0    0    0  0.00000000000E+00  0.00000000000E+00  0.12525980253E-10  0.17130000000E+03  0.17130000000E+03 0. -1.
       11    1    1    2    0    0 -0.78342296160E-03  0.20569780656E-01  0.33939994217E+00  0.34002398680E+00  0.51109989000E-03 0.  1.
     -623    1    1    2    0    0 -0.52918576610E-02 -0.18850638278E-02  0.89543353264E-03  0.17130000009E+03  0.17130000000E+03 0. -1.
      622    1    1    2    0    0  0.60752806226E-02 -0.18684716828E-01  0.36597045917E+01  0.36599759188E+01  0.40000000000E-01 0.  1.
</event>
<event>
 5   0  0.6200596E+07  0.9118800E+02  0.7818608E-02  0.1180000E+00
       11   -1    0    0    0    0  0.00000000000E+00  0.00000000000E+00  0.39999999673E+01  0.40000000000E+01  0.51109989000E-03 0. -1.
     -623   -1    0    0    0    0  0.00000000000E+00  0.00000000000E+00  0.12525980253E-10  0.17130000000E+03  0.17130000000E+03 0.  1.
       11    1    1    2    0    0 -0.13347332903E-01  0.12202133215E-01  0.70349714733E+00  0.70372973567E+00  0.51109989000E-03 0. -1.
     -623    1    1    2    0    0 -0.44842020836E-03  0.45298367574E-02  0.54666598552E-03  0.17130000006E+03  0.17130000000E+03 0.  1.
      622    1    1    2    0    0  0.13795753111E-01 -0.16731969972E-01  0.32959561540E+01  0.32962702030E+01  0.40000000000E-01 0. -1.
</event>
<event>
 5   0  0.6200596E+07  0.9118800E+02  0.7818608E-02  0.1180000E+00
       11   -1    0    0    0    0  0.00000000000E+00  0.00000000000E+00  0.39999999673E+01  0.40000000000E+01  0.51109989000E-03 0.  1.
     -623   -1    0    0    0    0  0.00000000000E+00  0.00000000000E+00  0.12525980253E-10  0.17130000000E+03  0.17130000000E+03 0. -1.
       11    1    1    2    0    0  0.30331054981E-02 -0.92861492890E-05  0.11042021276E-01  0.11462428629E-01  0.51109989000E-03 0.  1.
     -623    1    1    2    0    0 -0.89205782976E-02 -0.84697367622E-03  0.62562742669E-03  0.17130000024E+03  0.17130000000E+03 0. -1.
      622    1    1    2    0    0  0.58874727995E-02  0.85625982551E-03  0.39883323187E+01  0.39885373359E+01  0.40000000000E-01 0.  1.
</event>
<event>
 5   0  0.6200596E+07  0.9118800E+02  0.7818608E-02  0.1180000E+00
       11   -1    0    0    0    0  0.00000000000E+00  0.00000000000E+00  0.39999999673E+01  0.40000000000E+01  0.51109989000E-03 0.  1.
     -623   -1    0    0    0    0  0.00000000000E+00  0.00000000000E+00  0.12525980253E-10  0.17130000000E+03  0.17130000000E+03 0.  1.
       11    1    1    2    0    0  0.61922850909E-02 -0.34620943570E-02  0.22219081850E+00  0.22230463679E+00  0.51109989000E-03 0.  1.
     -623    1    1    2    0    0  0.31390880191E-03  0.60908772298E-03  0.33224301183E-03  0.17130000000E+03  0.17130000000E+03 0.  1.
      622    1    1    2    0    0 -0.65061938928E-02  0.28530066340E-02  0.37774769059E+01  0.37776953615E+01  0.40000000000E-01 0.  1.
</event>
<event>
 5   0  0.6200596E+07  0.9118800E+02  0.7818608E-02  0.1180000E+00
       11   -1    0    0    0    0  0.00000000000E+00  0.00000000000E+00  0.39999999673E+01  0.40000000000E+01  0.51109989000E-03 0.  1.
     -623   -1    0    0    0    0  0.00000000000E+00  0.00000000000E+00  0.12525980253E-10  0.17130000000E+03  0.17130000000E+03 0. -1.
       11    1    1    2    0    0 -0.74308198025E-02 -0.98548827188E-02  0.43147728388E+00  0.43165407855E+00  0.51109989000E-03 0.  1.
     -623    1    1    2    0    0  0.12344274618E-02 -0.17862131886E-02  0.42534696840E-03  0.17130000001E+03  0.17130000000E+03 0. -1.
      622    1    1    2    0    0  0.61963923408E-02  0.11641095907E-01  0.35680973365E+01  0.35683459072E+01  0.40000000000E-01 0.  1.
</event>
<event>
 5   0  0.6200596E+07  0.9118800E+02  0.7818608E-02  0.1180000E+00
       11   -1    0    0    0    0  0.00000000000E+00  0.00000000000E+00  0.39999999673E+01  0.40000000000E+01  0.51109989000E-03 0.  1.
     -623   -1    0    0    0    0  0.00000000000E+00  0.00000000000E+00  0.12525980253E-10  0.17130000000E+03  0.17130000000E+03 0. -1.
       11    1    1    2    0    0  0.14667380658E-02  0.10530953933E-02  0.34108953762E-01  0.34160536843E-01  0.51109989000E-03 0.  1.
     -623    1    1    2    0    0 -0.17258066115E-03  0.68020733636E-04  0.25364824184E-03  0.17130000000E+03  0.17130000000E+03 0. -1.
      622    1    1    2    0    0 -0.12941574047E-02 -0.11211161269E-02  0.39656373654E+01  0.39658394629E+01  0.40000000000E-01 0.  1.
</event>
<event>
 5   0  0.6200596E+07  0.9118800E+02  0.7818608E-02  0.1180000E+00
       11   -1    0    0    0    0  0.00000000000E+00  0.00000000000E+00  0.39999999673E+01  0.40000000000E+01  0.51109989000E-03 0.  1.
     -623   -1    0    0    0    0  0.00000000000E+00  0.00000000000E+00  0.12525980253E-10  0.17130000000E+03  0.17130000000E+03 0.  1.
       11    1    1    2    0    0 -0.28875591589E-01  0.47356937423E-01  0.78977977687E+00  0.79172522790E+00  0.51109989000E-03 0.  1.
     -623    1    1    2    0    0  0.16323948932E-01 -0.31160025589E-01  0.22638538053E-02  0.17130000363E+03  0.17130000000E+03 0.  1.
      622    1    1    2    0    0  0.12551642658E-01 -0.16196911834E-01  0.32079563367E+01  0.32082711453E+01  0.40000000000E-01 0.  1.
</event>
<event>
 5   0  0.6200596E+07  0.9118800E+02  0.7818608E-02  0.1180000E+00
       11   -1    0    0    0    0  0.00000000000E+00  0.00000000000E+00  0.39999999673E+01  0.40000000000E+01  0.51109989000E-03 0.  1.
     -623   -1    0    0    0    0  0.00000000000E+00  0.00000000000E+00  0.12525980253E-10  0.17130000000E+03  0.17130000000E+03 0. -1.
       11    1    1    2    0    0 -0.12031708409E-01 -0.20645102786E-02  0.44321022156E+00  0.44337860337E+00  0.51109989000E-03 0.  1.
     -623    1    1    2    0    0 -0.84658922518E-02 -0.48790768352E-02  0.45941704815E-03  0.17130000028E+03  0.17130000000E+03 0. -1.
      622    1    1    2    0    0  0.20497600660E-01  0.69435871138E-02  0.35563303288E+01  0.35566211173E+01  0.40000000000E-01 0.  1.
</event>
<event>
 5   0  0.6200596E+07  0.9118800E+02  0.7818608E-02  0.1180000E+00
       11   -1    0    0    0    0  0.00000000000E+00  0.00000000000E+00  0.39999999673E+01  0.40000000000E+01  0.51109989000E-03 0.  1.
     -623   -1    0    0    0    0  0.00000000000E+00  0.00000000000E+00  0.12525980253E-10  0.17130000000E+03  0.17130000000E+03 0.  1.
       11    1    1    2    0    0  0.38863835717E-03 -0.12389215791E-02  0.35817071983E-02  0.38439320259E-02  0.51109989000E-03 0.  1.
     -623    1    1    2    0    0  0.58779652999E-03  0.23815315220E-03  0.46263600005E-03  0.17130000000E+03  0.17130000000E+03 0.  1.
      622    1    1    2    0    0 -0.97643488716E-03  0.10007684269E-02  0.39959556242E+01  0.39961560662E+01  0.40000000000E-01 0.  1.
</event>
<event>
 5   0  0.6200596E+07  0.9118800E+02  0.7818608E-02  0.1180000E+00
       11   -1    0    0    0    0  0.00000000000E+00  0.00000000000E+00  0.39999999673E+01  0.40000000000E+01  0.51109989000E-03 0.  1.
     -623   -1    0    0    0    0  0.00000000000E+00  0.00000000000E+00  0.12525980253E-10  0.17130000000E+03  0.17130000000E+03 0. -1.
       11    1    1    2    0    0 -0.86272124416E-02  0.48531783773E-02  0.62575423809E+00  0.62583273312E+00  0.51109989000E-03 0.  1.
     -623    1    1    2    0    0  0.37974929644E-02 -0.25362643109E-02  0.31987978367E-03  0.17130000006E+03  0.17130000000E+03 0. -1.
      622    1    1    2    0    0  0.48297194771E-02 -0.23169140664E-02  0.33739258495E+01  0.33741672057E+01  0.40000000000E-01 0.  1.
</event>
<event>
 5   0  0.6200596E+07  0.9118800E+02  0.7818608E-02  0.1180000E+00
       11   -1    0    0    0    0  0.00000000000E+00  0.00000000000E+00  0.39999999673E+01  0.40000000000E+01  0.51109989000E-03 0. -1.
     -623   -1    0    0    0    0  0.00000000000E+00  0.00000000000E+00  0.12525980253E-10  0.17130000000E+03  0.17130000000E+03 0.  1.
       11    1    1    2    0    0  0.28403530780E-01 -0.13474969812E-01  0.27215249748E+01  0.27217065942E+01  0.51109989000E-03 0. -1.
     -623    1    1    2    0    0  0.74589231995E-02 -0.64417237663E-03  0.13891956004E-02  0.17130000017E+03  0.17130000000E+03 0.  1.
      622    1    1    2    0    0 -0.35862453979E-01  0.14119142189E-01  0.12770857970E+01  0.12782932366E+01  0.40000000000E-01 0.  0.
</event>
<event>
 5   0  0.6200596E+07  0.9118800E+02  0.7818608E-02  0.1180000E+00
       11   -1    0    0    0    0  0.00000000000E+00  0.00000000000E+00  0.39999999673E+01  0.40000000000E+01  0.51109989000E-03 0. -1.
     -623   -1    0    0    0    0  0.00000000000E+00  0.00000000000E+00  0.12525980253E-10  0.17130000000E+03  0.17130000000E+03 0.  1.
       11    1    1    2    0    0 -0.24596628409E-01  0.50816992554E-01  0.14685689146E+01  0.14696537957E+01  0.51109989000E-03 0. -1.
     -623    1    1    2    0    0  0.48700858321E-03 -0.27852881153E-02  0.19719366583E-02  0.17130000003E+03  0.17130000000E+03 0.  1.
      622    1    1    2    0    0  0.24109619825E-01 -0.48031704438E-01  0.25294591161E+01  0.25303461696E+01  0.40000000000E-01 0. -1.
</event>
<event>
 5   0  0.6200596E+07  0.9118800E+02  0.7818608E-02  0.1180000E+00
       11   -1    0    0    0    0  0.00000000000E+00  0.00000000000E+00  0.39999999673E+01  0.40000000000E+01  0.51109989000E-03 0.  1.
     -623   -1    0    0    0    0  0.00000000000E+00  0.00000000000E+00  0.12525980253E-10  0.17130000000E+03  0.17130000000E+03 0.  1.
       11    1    1    2    0    0 -0.11628185553E-02 -0.72713466166E-03  0.75801110804E-02  0.77201150411E-02  0.51109989000E-03 0.  1.
     -623    1    1    2    0    0 -0.85081542820E-03  0.35350123876E-03  0.34089124983E-03  0.17130000000E+03  0.17130000000E+03 0.  1.
      622    1    1    2    0    0  0.20136339835E-02  0.37363342290E-03  0.39920789650E+01  0.39922798821E+01  0.40000000000E-01 0.  1.
</event>
<event>
 5   0  0.6200596E+07  0.9118800E+02  0.7818608E-02  0.1180000E+00
       11   -1    0    0    0    0  0.00000000000E+00  0.00000000000E+00  0.39999999673E+01  0.40000000000E+01  0.51109989000E-03 0. -1.
     -623   -1    0    0    0    0  0.00000000000E+00  0.00000000000E+00  0.12525980253E-10  0.17130000000E+03  0.17130000000E+03 0. -1.
       11    1    1    2    0    0  0.94561653736E-02  0.20619407575E-01  0.36570672767E+00  0.36640994926E+00  0.51109989000E-03 0. -1.
     -623    1    1    2    0    0 -0.15077488038E-01 -0.29854672866E-01  0.94271705465E-03  0.17130000327E+03  0.17130000000E+03 0. -1.
      622    1    1    2    0    0  0.56213226639E-02  0.92352652910E-02  0.36333505226E+01  0.36335867830E+01  0.40000000000E-01 0. -1.
</event>
<event>
 5   0  0.6200596E+07  0.9118800E+02  0.7818608E-02  0.1180000E+00
       11   -1    0    0    0    0  0.00000000000E+00  0.00000000000E+00  0.39999999673E+01  0.40000000000E+01  0.51109989000E-03 0. -1.
     -623   -1    0    0    0    0  0.00000000000E+00  0.00000000000E+00  0.12525980253E-10  0.17130000000E+03  0.17130000000E+03 0. -1.
       11    1    1    2    0    0 -0.25868436463E-01 -0.67668267521E-02  0.17844584542E+01  0.17846588475E+01  0.51109989000E-03 0. -1.
     -623    1    1    2    0    0  0.29995408184E-02 -0.54308839102E-03  0.69165947163E-03  0.17130000003E+03  0.17130000000E+03 0. -1.
      622    1    1    2    0    0  0.22868895645E-01  0.73099151431E-02  0.22148498537E+01  0.22153411240E+01  0.40000000000E-01 0.  0.
</event>
<event>
 5   0  0.6200596E+07  0.9118800E+02  0.7818608E-02  0.1180000E+00
       11   -1    0    0    0    0  0.00000000000E+00  0.00000000000E+00  0.39999999673E+01  0.40000000000E+01  0.51109989000E-03 0. -1.
     -623   -1    0    0    0    0  0.00000000000E+00  0.00000000000E+00  0.12525980253E-10  0.17130000000E+03  0.17130000000E+03 0.  1.
       11    1    1    2    0    0 -0.65366864790E-03  0.72971675837E-04  0.47012228141E-02  0.47744451432E-02  0.51109989000E-03 0. -1.
     -623    1    1    2    0    0  0.32415754413E-03 -0.13594023476E-02  0.27366034398E-03  0.17130000001E+03  0.17130000000E+03 0.  1.
      622    1    1    2    0    0  0.32951110377E-03  0.12864306718E-02  0.39950250842E+01  0.39952255489E+01  0.40000000000E-01 0. -1.
</event>
<event>
 5   0  0.6200596E+07  0.9118800E+02  0.7818608E-02  0.1180000E+00
       11   -1    0    0    0    0  0.00000000000E+00  0.00000000000E+00  0.39999999673E+01  0.40000000000E+01  0.51109989000E-03 0. -1.
     -623   -1    0    0    0    0  0.00000000000E+00  0.00000000000E+00  0.12525980253E-10  0.17130000000E+03  0.17130000000E+03 0. -1.
       11    1    1    2    0    0  0.10024019300E-01 -0.91269767498E-02  0.54337153522E+00  0.54354086247E+00  0.51109989000E-03 0. -1.
     -623    1    1    2    0    0 -0.18545999839E-01 -0.12923210211E-01  0.48309091457E-03  0.17130000149E+03  0.17130000000E+03 0. -1.
      622    1    1    2    0    0  0.85219805394E-02  0.22050186961E-01  0.34561453412E+01  0.34564576454E+01  0.40000000000E-01 0. -1.
</event>
<event>
 5   0  0.6200596E+07  0.9118800E+02  0.7818608E-02  0.1180000E+00
       11   -1    0    0    0    0  0.00000000000E+00  0.00000000000E+00  0.39999999673E+01  0.40000000000E+01  0.51109989000E-03 0.  1.
     -623   -1    0    0    0    0  0.00000000000E+00  0.00000000000E+00  0.12525980253E-10  0.17130000000E+03  0.17130000000E+03 0.  1.
       11    1    1    2    0    0  0.39875125223E-01  0.10896601770E-01  0.39514714094E+00  0.39730377013E+00  0.51109989000E-03 0.  1.
     -623    1    1    2    0    0 -0.55035271739E-02  0.58541733081E-02  0.25817883752E-02  0.17130000021E+03  0.17130000000E+03 0.  1.
      622    1    1    2    0    0 -0.34371598049E-01 -0.16750775078E-01  0.36022710380E+01  0.36026960220E+01  0.40000000000E-01 0.  1.
</event>
<event>
 5   0  0.6200596E+07  0.9118800E+02  0.7818608E-02  0.1180000E+00
       11   -1    0    0    0    0  0.00000000000E+00  0.00000000000E+00  0.39999999673E+01  0.40000000000E+01  0.51109989000E-03 0.  1.
     -623   -1    0    0    0    0  0.00000000000E+00  0.00000000000E+00  0.12525980253E-10  0.17130000000E+03  0.17130000000E+03 0. -1.
       11    1    1    2    0    0  0.40241438233E-02  0.14239835559E-03  0.73116154874E-01  0.73228732998E-01  0.51109989000E-03 0.  1.
     -623    1    1    2    0    0  0.11265378840E-02  0.28037056452E-02  0.32079087856E-03  0.17130000003E+03  0.17130000000E+03 0. -1.
      622    1    1    2    0    0 -0.51506817073E-02 -0.29461040008E-02  0.39265630216E+01  0.39267712401E+01  0.40000000000E-01 0.  1.
</event>
<event>
 5   0  0.6200596E+07  0.9118800E+02  0.7818608E-02  0.1180000E+00
       11   -1    0    0    0    0  0.00000000000E+00  0.00000000000E+00  0.39999999673E+01  0.40000000000E+01  0.51109989000E-03 0. -1.
     -623   -1    0    0    0    0  0.00000000000E+00  0.00000000000E+00  0.12525980253E-10  0.17130000000E+03  0.17130000000E+03 0. -1.
       11    1    1    2    0    0  0.96041224309E-02 -0.10151422280E-01  0.29687801613E+00  0.29720718064E+00  0.51109989000E-03 0. -1.
     -623    1    1    2    0    0  0.30905996734E-02  0.68613425022E-02  0.56858207893E-03  0.17130000017E+03  0.17130000000E+03 0. -1.
      622    1    1    2    0    0 -0.12694722104E-01  0.32900797774E-02  0.37025533692E+01  0.37027926531E+01  0.40000000000E-01 0. -1.
</event>
<event>
 5   0  0.6200596E+07  0.9118800E+02  0.7818608E-02  0.1180000E+00
       11   -1    0    0    0    0  0.00000000000E+00  0.00000000000E+00  0.39999999673E+01  0.40000000000E+01  0.51109989000E-03 0.  1.
     -623   -1    0    0    0    0  0.00000000000E+00  0.00000000000E+00  0.12525980253E-10  0.17130000000E+03  0.17130000000E+03 0.  1.
       11    1    1    2    0    0  0.17659447285E-01  0.45713345835E-02  0.11090119582E+01  0.11091620882E+01  0.51109989000E-03 0.  1.
     -623    1    1    2    0    0  0.19923482743E-03 -0.16620035383E-01  0.50793446729E-03  0.17130000081E+03  0.17130000000E+03 0.  1.
      622    1    1    2    0    0 -0.17858682112E-01  0.12048700799E-01  0.28904800747E+01  0.28908371047E+01  0.40000000000E-01 0.  1.
</event>
<event>
 5   0  0.6200596E+07  0.9118800E+02  0.7818608E-02  0.1180000E+00
       11   -1    0    0    0    0  0.00000000000E+00  0.00000000000E+00  0.39999999673E+01  0.40000000000E+01  0.51109989000E-03 0. -1.
     -623   -1    0    0    0    0  0.00000000000E+00  0.00000000000E+00  0.12525980253E-10  0.17130000000E+03  0.17130000000E+03 0. -1.
       11    1    1    2    0    0  0.11372600141E-01 -0.14105716729E-01  0.72880053198E+00  0.72902591443E+00  0.51109989000E-03 0. -1.
     -623    1    1    2    0    0 -0.32486156610E-02 -0.12319164807E-02  0.51602196909E-03  0.17130000004E+03  0.17130000000E+03 0. -1.
      622    1    1    2    0    0 -0.81239844799E-02  0.15337633210E-01  0.32706834134E+01  0.32709740496E+01  0.40000000000E-01 0. -1.
</event>
<event>
 5   0  0.6200596E+07  0.9118800E+02  0.7818608E-02  0.1180000E+00
       11   -1    0    0    0    0  0.00000000000E+00  0.00000000000E+00  0.39999999673E+01  0.40000000000E+01  0.51109989000E-03 0.  1.
     -623   -1    0    0    0    0  0.00000000000E+00  0.00000000000E+00  0.12525980253E-10  0.17130000000E+03  0.17130000000E+03 0. -1.
       11    1    1    2    0    0  0.21416658536E-01 -0.25048314555E-01  0.14542770438E+01  0.14546504985E+01  0.51109989000E-03 0.  1.
     -623    1    1    2    0    0 -0.48359198529E-02  0.16525152338E-01  0.75689115781E-03  0.17130000087E+03  0.17130000000E+03 0. -1.
      622    1    1    2    0    0 -0.16580738683E-01  0.85231622170E-02  0.25449660324E+01  0.25453486345E+01  0.40000000000E-01 0.  1.
</event>
<event>
 5   0  0.6200596E+07  0.9118800E+02  0.7818608E-02  0.1180000E+00
       11   -1    0    0    0    0  0.00000000000E+00  0.00000000000E+00  0.39999999673E+01  0.40000000000E+01  0.51109989000E-03 0.  1.
     -623   -1    0    0    0    0  0.00000000000E+00  0.00000000000E+00  0.12525980253E-10  0.17130000000E+03  0.17130000000E+03 0. -1.
       11    1    1    2    0    0 -0.53122365836E-03 -0.12581065239E-02  0.55512255277E-01  0.55531403168E-01  0.51109989000E-03 0.  1.
     -623    1    1    2    0    0  0.12308244072E-04  0.42618051185E-03  0.22205866975E-03  0.17130000000E+03  0.17130000000E+03 0. -1.
      622    1    1    2    0    0  0.51891541429E-03  0.83192601209E-03  0.39442656534E+01  0.39444685962E+01  0.40000000000E-01 0.  1.
</event>
<event>
 5   0  0.6200596E+07  0.9118800E+02  0.7818608E-02  0.1180000E+00
       11   -1    0    0    0    0  0.00000000000E+00  0.00000000000E+00  0.39999999673E+01  0.40000000000E+01  0.51109989000E-03 0.  1.
     -623   -1    0    0    0    0  0.00000000000E+00  0.00000000000E+00  0.12525980253E-10  0.17130000000E+03  0.17130000000E+03 0. -1.
       11    1    1    2    0    0 -0.50103751289E-02  0.26319130155E-02  0.48251370011E+00  0.48254716126E+00  0.51109989000E-03 0.  1.
     -623    1    1    2    0    0 -0.37039095723E-02 -0.38462471228E-02  0.27196152351E-03  0.17130000008E+03  0.17130000000E+03 0. -1.
      622    1    1    2    0    0  0.87142847012E-02  0.12143341073E-02  0.35172143057E+01  0.35174527553E+01  0.40000000000E-01 0.  1.
</event>
<event>
 5   0  0.6200596E+07  0.9118800E+02  0.7818608E-02  0.1180000E+00
       11   -1    0    0    0    0  0.00000000000E+00  0.00000000000E+00  0.39999999673E+01  0.40000000000E+01  0.51109989000E-03 0. -1.
     -623   -1    0    0    0    0  0.00000000000E+00  0.00000000000E+00  0.12525980253E-10  0.17130000000E+03  0.17130000000E+03 0.  1.
       11    1    1    2    0    0  0.15750549958E-02  0.71135167885E-03  0.26695602293E-01  0.26756367864E-01  0.51109989000E-03 0. -1.
     -623    1    1    2    0    0  0.71800757456E-03 -0.16774697582E-02  0.26287397230E-03  0.17130000001E+03  0.17130000000E+03 0.  1.
      622    1    1    2    0    0 -0.22930625704E-02  0.96611807935E-03  0.39730414911E+01  0.39732436222E+01  0.40000000000E-01 0. -1.
</event>
<event>
 5   0  0.6200596E+07  0.9118800E+02  0.7818608E-02  0.1180000E+00
       11   -1    0    0    0    0  0.00000000000E+00  0.00000000000E+00  0.39999999673E+01  0.40000000000E+01  0.51109989000E-03 0. -1.
     -623   -1    0    0    0    0  0.00000000000E+00  0.00000000000E+00  0.12525980253E-10  0.17130000000E+03  0.17130000000E+03 0.  1.
       11    1    1    2    0    0  0.71611382726E-01  0.51361885826E-01  0.21817345494E+01  0.21835137139E+01  0.51109989000E-03 0. -1.
     -623    1    1    2    0    0 -0.99789036926E-02 -0.79035882849E-03  0.39707461732E-02  0.17130000034E+03  0.17130000000E+03 0.  1.
      622    1    1    2    0    0 -0.61632479034E-01 -0.50571526997E-01  0.18142946718E+01  0.18164859476E+01  0.40000000000E-01 0. -1.
</event>
<event>
 5   0  0.6200596E+07  0.9118800E+02  0.7818608E-02  0.1180000E+00
       11   -1    0    0    0    0  0.00000000000E+00  0.00000000000E+00  0.39999999673E+01  0.40000000000E+01  0.51109989000E-03 0.  1.
     -623   -1    0    0    0    0  0.00000000000E+00  0.00000000000E+00  0.12525980253E-10  0.17130000000E+03  0.17130000000E+03 0. -1.
       11    1    1    2    0    0  0.91018481603E-02  0.12550901345E-01  0.29232760031E+00  0.29273888687E+00  0.51109989000E-03 0.  1.
     -623    1    1    2    0    0  0.11760027486E-02  0.18996046688E-02  0.66948172291E-03  0.17130000002E+03  0.17130000000E+03 0. -1.
      622    1    1    2    0    0 -0.10277850909E-01 -0.14450506013E-01  0.37070028853E+01  0.37072610972E+01  0.40000000000E-01 0.  1.
</event>
<event>
 5   0  0.6200596E+07  0.9118800E+02  0.7818608E-02  0.1180000E+00
       11   -1    0    0    0    0  0.00000000000E+00  0.00000000000E+00  0.39999999673E+01  0.40000000000E+01  0.51109989000E-03 0.  1.
     -623   -1    0    0    0    0  0.00000000000E+00  0.00000000000E+00  0.12525980253E-10  0.17130000000E+03  0.17130000000E+03 0. -1.
       11    1    1    2    0    0  0.51068019205E-02  0.18412354453E-01  0.97885375193E+00  0.97904035826E+00  0.51109989000E-03 0.  1.
     -623    1    1    2    0    0 -0.27524522534E-02  0.21497906503E-02  0.52234074850E-03  0.17130000004E+03  0.17130000000E+03 0. -1.
      622    1    1    2    0    0 -0.23543496671E-02 -0.20562145103E-01  0.30206238747E+01  0.30209596053E+01  0.40000000000E-01 0.  0.
</event>
<event>
 5   0  0.6200596E+07  0.9118800E+02  0.7818608E-02  0.1180000E+00
       11   -1    0    0    0    0  0.00000000000E+00  0.00000000000E+00  0.39999999673E+01  0.40000000000E+01  0.51109989000E-03 0. -1.
     -623   -1    0    0    0    0  0.00000000000E+00  0.00000000000E+00  0.12525980253E-10  0.17130000000E+03  0.17130000000E+03 0. -1.
       11    1    1    2    0    0  0.13389883572E-01 -0.12184302706E-02  0.92889688231E+00  0.92899432331E+00  0.51109989000E-03 0. -1.
     -623    1    1    2    0    0  0.21708600569E-03  0.56359476445E-02  0.39133870528E-03  0.17130000009E+03  0.17130000000E+03 0. -1.
      622    1    1    2    0    0 -0.13606969577E-01 -0.44175173740E-02  0.30707117463E+01  0.30710055834E+01  0.40000000000E-01 0. -1.
</event>
<event>
 5   0  0.6200596E+07  0.9118800E+02  0.7818608E-02  0.1180000E+00
       11   -1    0    0    0    0  0.00000000000E+00  0.00000000000E+00  0.39999999673E+01  0.40000000000E+01  0.51109989000E-03 0. -1.
     -623   -1    0    0    0    0  0.00000000000E+00  0.00000000000E+00  0.12525980253E-10  0.17130000000E+03  0.17130000000E+03 0.  1.
       11    1    1    2    0    0 -0.76647689256E-02 -0.23915002444E-01  0.31918647305E+00  0.32017329967E+00  0.51109989000E-03 0. -1.
     -623    1    1    2    0    0 -0.74425675665E-02  0.28925525983E-01  0.12412350699E-02  0.17130000261E+03  0.17130000000E+03 0.  1.
      622    1    1    2    0    0  0.15107336492E-01 -0.50105235393E-02  0.36795722592E+01  0.36798240920E+01  0.40000000000E-01 0. -1.
</event>
<event>
 5   0  0.6200596E+07  0.9118800E+02  0.7818608E-02  0.1180000E+00
       11   -1    0    0    0    0  0.00000000000E+00  0.00000000000E+00  0.39999999673E+01  0.40000000000E+01  0.51109989000E-03 0.  1.
     -623   -1    0    0    0    0  0.00000000000E+00  0.00000000000E+00  0.12525980253E-10  0.17130000000E+03  0.17130000000E+03 0. -1.
       11    1    1    2    0    0 -0.66747279674E-02 -0.55573638471E-02  0.21732040286E+00  0.21749449420E+00  0.51109989000E-03 0.  1.
     -623    1    1    2    0    0  0.46905155964E-02  0.15111326488E-02  0.38832072188E-03  0.17130000007E+03  0.17130000000E+03 0. -1.
      622    1    1    2    0    0  0.19842123710E-02  0.40462311983E-02  0.37822912438E+01  0.37825054345E+01  0.40000000000E-01 0.  0.
</event>
<event>
 5   0  0.6200596E+07  0.9118800E+02  0.7818608E-02  0.1180000E+00
       11   -1    0    0    0    0  0.00000000000E+00  0.00000000000E+00  0.39999999673E+01  0.40000000000E+01  0.51109989000E-03 0. -1.
     -623   -1    0    0    0    0  0.00000000000E+00  0.00000000000E+00  0.12525980253E-10  0.17130000000E+03  0.17130000000E+03 0. -1.
       11    1    1    2    0    0  0.87348197595E-04 -0.49546613493E-03  0.56241260779E-01  0.56245833196E-01  0.51109989000E-03 0. -1.
     -623    1    1    2    0    0 -0.22818498566E-03  0.47046415984E-04  0.20742568899E-03  0.17130000000E+03  0.17130000000E+03 0. -1.
      622    1    1    2    0    0  0.14083678806E-03  0.44841971894E-03  0.39435512809E+01  0.39437541665E+01  0.40000000000E-01 0. -1.
</event>
<event>
 5   0  0.6200596E+07  0.9118800E+02  0.7818608E-02  0.1180000E+00
       11   -1    0    0    0    0  0.00000000000E+00  0.00000000000E+00  0.39999999673E+01  0.40000000000E+01  0.51109989000E-03 0.  1.
     -623   -1    0    0    0    0  0.00000000000E+00  0.00000000000E+00  0.12525980253E-10  0.17130000000E+03  0.17130000000E+03 0. -1.
       11    1    1    2    0    0 -0.17025979896E-03 -0.20248940830E-02  0.43326834137E-01  0.43377470692E-01  0.51109989000E-03 0.  1.
     -623    1    1    2    0    0  0.16084050623E-02  0.67652153511E-02  0.25604422414E-03  0.17130000014E+03  0.17130000000E+03 0. -1.
      622    1    1    2    0    0 -0.14381452633E-02 -0.47403212681E-02  0.39564170890E+01  0.39566223880E+01  0.40000000000E-01 0.  1.
</event>
<event>
 5   0  0.6200596E+07  0.9118800E+02  0.7818608E-02  0.1180000E+00
       11   -1    0    0    0    0  0.00000000000E+00  0.00000000000E+00  0.39999999673E+01  0.40000000000E+01  0.51109989000E-03 0.  1.
     -623   -1    0    0    0    0  0.00000000000E+00  0.00000000000E+00  0.12525980253E-10  0.17130000000E+03  0.17130000000E+03 0.  1.
       11    1    1    2    0    0  0.41513221879E-02  0.72094264418E-02  0.30780172990E+00  0.30791455870E+00  0.51109989000E-03 0.  1.
     -623    1    1    2    0    0 -0.53898572230E-02  0.30532035976E-02  0.34406634881E-03  0.17130000011E+03  0.17130000000E+03 0.  1.
      622    1    1    2    0    0  0.12385350350E-02 -0.10262630039E-01  0.36918541711E+01  0.36920853290E+01  0.40000000000E-01 0.  1.
</event>
<event>
 5   0  0.6200596E+07  0.9118800E+02  0.7818608E-02  0.1180000E+00
       11   -1    0    0    0    0  0.00000000000E+00  0.00000000000E+00  0.39999999673E+01  0.40000000000E+01  0.51109989000E-03 0.  1.
     -623   -1    0    0    0    0  0.00000000000E+00  0.00000000000E+00  0.12525980253E-10  0.17130000000E+03  0.17130000000E+03 0. -1.
       11    1    1    2    0    0  0.17034035373E-02  0.25781475777E-03  0.80765101589E-02  0.82740128872E-02  0.51109989000E-03 0.  1.
     -623    1    1    2    0    0 -0.83602990768E-03 -0.16482844452E-02  0.39823654185E-03  0.17130000001E+03  0.17130000000E+03 0. -1.
      622    1    1    2    0    0 -0.86737362960E-03  0.13904696874E-02  0.39915252207E+01  0.39917259767E+01  0.40000000000E-01 0.  1.
</event>
<event>
 5   0  0.6200596E+07  0.9118800E+02  0.7818608E-02  0.1180000E+00
       11   -1    0    0    0    0  0.00000000000E+00  0.00000000000E+00  0.39999999673E+01  0.40000000000E+01  0.51109989000E-03 0.  1.
     -623   -1    0    0    0    0  0.00000000000E+00  0.00000000000E+00  0.12525980253E-10  0.17130000000E+03  0.17130000000E+03 0.  1.
       11    1    1    2    0    0  0.12010176602E-02 -0.39364174807E-01  0.38655642304E-01  0.55186054451E-01  0.51109989000E-03 0.  1.
     -623    1    1    2    0    0  0.69417164177E-02  0.40631673607E-01  0.16747569146E-01  0.17130000578E+03  0.17130000000E+03 0.  1.
      622    1    1    2    0    0 -0.81427340779E-02 -0.12674987993E-02  0.39445967559E+01  0.39448081674E+01  0.40000000000E-01 0.  1.
</event>
<event>
 5   0  0.6200596E+07  0.9118800E+02  0.7818608E-02  0.1180000E+00
       11   -1    0    0    0    0  0.00000000000E+00  0.00000000000E+00  0.39999999673E+01  0.40000000000E+01  0.51109989000E-03 0. -1.
     -623   -1    0    0    0    0  0.00000000000E+00  0.00000000000E+00  0.12525980253E-10  0.17130000000E+03  0.17130000000E+03 0.  1.
       11    1    1    2    0    0  0.10587770434E-02  0.14337806146E-01  0.24211723857E-01  0.28163140583E-01  0.51109989000E-03 0. -1.
     -623    1    1    2    0    0 -0.53221296082E-02 -0.48320268046E-02  0.41666727666E-02  0.17130000020E+03  0.17130000000E+03 0.  1.
      622    1    1    2    0    0  0.42633525648E-02 -0.95057793417E-02  0.39716215707E+01  0.39718366579E+01  0.40000000000E-01 0. -1.
</event>
<event>
 5   0  0.6200596E+07  0.9118800E+02  0.7818608E-02  0.1180000E+00
       11   -1    0    0    0    0  0.00000000000E+00  0.00000000000E+00  0.39999999673E+01  0.40000000000E+01  0.51109989000E-03 0.  1.
     -623   -1    0    0    0    0  0.00000000000E+00  0.00000000000E+00  0.12525980253E-10  0.17130000000E+03  0.17130000000E+03 0.  1.
       11    1    1    2    0    0 -0.21825305419E-02  0.11813453580E-02  0.14652199688E+00  0.14654390403E+00  0.51109989000E-03 0.  1.
     -623    1    1    2    0    0 -0.10751593293E-02  0.13566399137E-02  0.23170777135E-03  0.17130000001E+03  0.17130000000E+03 0.  1.
      622    1    1    2    0    0  0.32576898712E-02 -0.25379852717E-02  0.38532462627E+01  0.38534560871E+01  0.40000000000E-01 0.  1.
</event>
<event>
 5   0  0.6200596E+07  0.9118800E+02  0.7818608E-02  0.1180000E+00
       11   -1    0    0    0    0  0.00000000000E+00  0.00000000000E+00  0.39999999673E+01  0.40000000000E+01  0.51109989000E-03 0. -1.
     -623   -1    0    0    0    0  0.00000000000E+00  0.00000000000E+00  0.12525980253E-10  0.17130000000E+03  0.17130000000E+03 0.  1.
       11    1    1    2    0    0  0.20437818257E-02  0.29031864835E-02  0.78495825614E+00  0.78496645192E+00  0.51109989000E-03 0. -1.
     -623    1    1    2    0    0 -0.17822973590E-02  0.56308879936E-03  0.25889351530E-03  0.17130000001E+03  0.17130000000E+03 0.  1.
      622    1    1    2    0    0 -0.26148446674E-03 -0.34662752829E-02  0.32147828177E+01  0.32150335377E+01  0.40000000000E-01 0. -1.
</event>
<event>
 5   0  0.6200596E+07  0.9118800E+02  0.7818608E-02  0.1180000E+00
       11   -1    0    0    0    0  0.00000000000E+00  0.00000000000E+00  0.39999999673E+01  0.40000000000E+01  0.51109989000E-03 0. -1.
     -623   -1    0    0    0    0  0.00000000000E+00  0.00000000000E+00  0.12525980253E-10  0.17130000000E+03  0.17130000000E+03 0.  1.
       11    1    1    2    0    0 -0.26080937290E-02 -0.72756832117E-03  0.96349236642E-01  0.96388630720E-01  0.51109989000E-03 0. -1.
     -623    1    1    2    0    0 -0.33919556865E-04 -0.44590575759E-03  0.24537652158E-03  0.17130000000E+03  0.17130000000E+03 0.  1.
      622    1    1    2    0    0  0.26420132859E-02  0.11734740788E-02  0.39034053542E+01  0.39036113685E+01  0.40000000000E-01 0. -1.
</event>
<event>
 5   0  0.6200596E+07  0.9118800E+02  0.7818608E-02  0.1180000E+00
       11   -1    0    0    0    0  0.00000000000E+00  0.00000000000E+00  0.39999999673E+01  0.40000000000E+01  0.51109989000E-03 0. -1.
     -623   -1    0    0    0    0  0.00000000000E+00  0.00000000000E+00  0.12525980253E-10  0.17130000000E+03  0.17130000000E+03 0.  1.
       11    1    1    2    0    0  0.11134094159E-02  0.62400394033E-03  0.74653160693E-02  0.75908646491E-02  0.51109989000E-03 0. -1.
     -623    1    1    2    0    0 -0.13122085688E-02 -0.14770093372E-02  0.32600901729E-03  0.17130000001E+03  0.17130000000E+03 0.  1.
      622    1    1    2    0    0  0.19879915282E-03  0.85300539690E-03  0.39922086423E+01  0.39924091236E+01  0.40000000000E-01 0. -1.
</event>
<event>
 5   0  0.6200596E+07  0.9118800E+02  0.7818608E-02  0.1180000E+00
       11   -1    0    0    0    0  0.00000000000E+00  0.00000000000E+00  0.39999999673E+01  0.40000000000E+01  0.51109989000E-03 0.  1.
     -623   -1    0    0    0    0  0.00000000000E+00  0.00000000000E+00  0.12525980253E-10  0.17130000000E+03  0.17130000000E+03 0. -1.
       11    1    1    2    0    0  0.71847527176E-03  0.19650121649E-02  0.15556875068E+00  0.15558365880E+00  0.51109989000E-03 0.  1.
     -623    1    1    2    0    0 -0.15133860900E-02 -0.35230229134E-03  0.22340278627E-03  0.17130000001E+03  0.17130000000E+03 0. -1.
      622    1    1    2    0    0  0.79491081828E-03 -0.16127098736E-02  0.38442078139E+01  0.38444163340E+01  0.40000000000E-01 0.  1.
</event>
<event>
 5   0  0.6200596E+07  0.9118800E+02  0.7818608E-02  0.1180000E+00
       11   -1    0    0    0    0  0.00000000000E+00  0.00000000000E+00  0.39999999673E+01  0.40000000000E+01  0.51109989000E-03 0. -1.
     -623   -1    0    0    0    0  0.00000000000E+00  0.00000000000E+00  0.12525980253E-10  0.17130000000E+03  0.17130000000E+03 0.  1.
       11    1    1    2    0    0  0.31313744097E-02  0.34621719191E-02  0.26522961505E+00  0.26527118589E+00  0.51109989000E-03 0. -1.
     -623    1    1    2    0    0 -0.13768509953E-03 -0.22331928720E-03  0.25835478321E-03  0.17130000000E+03  0.17130000000E+03 0.  1.
      622    1    1    2    0    0 -0.29936893102E-02 -0.32388526319E-02  0.37345119975E+01  0.37347288137E+01  0.40000000000E-01 0. -1.
</event>
<event>
 5   0  0.6200596E+07  0.9118800E+02  0.7818608E-02  0.1180000E+00
       11   -1    0    0    0    0  0.00000000000E+00  0.00000000000E+00  0.39999999673E+01  0.40000000000E+01  0.51109989000E-03 0.  1.
     -623   -1    0    0    0    0  0.00000000000E+00  0.00000000000E+00  0.12525980253E-10  0.17130000000E+03  0.17130000000E+03 0. -1.
       11    1    1    2    0    0  0.80778289102E-02 -0.12554485850E-01  0.50241110105E-01  0.52414662071E-01  0.51109989000E-03 0.  1.
     -623    1    1    2    0    0 -0.10236868757E-01  0.13568884518E-01  0.23777606756E-02  0.17130000086E+03  0.17130000000E+03 0. -1.
      622    1    1    2    0    0  0.21590398465E-02 -0.10143986676E-02  0.39473810966E+01  0.39475844781E+01  0.40000000000E-01 0.  1.
</event>
<event>
 5   0  0.6200596E+07  0.9118800E+02  0.7818608E-02  0.1180000E+00
       11   -1    0    0    0    0  0.00000000000E+00  0.00000000000E+00  0.39999999673E+01  0.40000000000E+01  0.51109989000E-03 0.  1.
     -623   -1    0    0    0    0  0.00000000000E+00  0.00000000000E+00  0.12525980253E-10  0.17130000000E+03  0.17130000000E+03 0. -1.
       11    1    1    2    0    0  0.47275455780E-03  0.93816479998E-02  0.11898922919E+01  0.11899294796E+01  0.51109989000E-03 0.  1.
     -623    1    1    2    0    0 -0.80621815497E-02 -0.13015519499E-01  0.33514404888E-03  0.17130000068E+03  0.17130000000E+03 0. -1.
      622    1    1    2    0    0  0.75894269919E-02  0.36338714994E-02  0.28097725314E+01  0.28100698359E+01  0.40000000000E-01 0.  1.
</event>
<event>
 5   0  0.6200596E+07  0.9118800E+02  0.7818608E-02  0.1180000E+00
       11   -1    0    0    0    0  0.00000000000E+00  0.00000000000E+00  0.39999999673E+01  0.40000000000E+01  0.51109989000E-03 0. -1.
     -623   -1    0    0    0    0  0.00000000000E+00  0.00000000000E+00  0.12525980253E-10  0.17130000000E+03  0.17130000000E+03 0. -1.
       11    1    1    2    0    0  0.57422393226E-03  0.89997721753E-03  0.15168812300E-01  0.15214919658E-01  0.51109989000E-03 0. -1.
     -623    1    1    2    0    0  0.22793784738E-03  0.19248562141E-02  0.24793663672E-03  0.17130000001E+03  0.17130000000E+03 0. -1.
      622    1    1    2    0    0 -0.80216177964E-03 -0.28248334316E-02  0.39845832184E+01  0.39847850692E+01  0.40000000000E-01 0. -1.
</event>
<event>
 5   0  0.6200596E+07  0.9118800E+02  0.7818608E-02  0.1180000E+00
       11   -1    0    0    0    0  0.00000000000E+00  0.00000000000E+00  0.39999999673E+01  0.40000000000E+01  0.51109989000E-03 0.  1.
     -623   -1    0    0    0    0  0.00000000000E+00  0.00000000000E+00  0.12525980253E-10  0.17130000000E+03  0.17130000000E+03 0. -1.
       11    1    1    2    0    0  0.40264311909E-02  0.12285295354E-02  0.62495403289E+00  0.62496841990E+00  0.51109989000E-03 0.  1.
     -623    1    1    2    0    0 -0.55961378355E-03 -0.80394139243E-03  0.25320789270E-03  0.17130000000E+03  0.17130000000E+03 0. -1.
      622    1    1    2    0    0 -0.34668174073E-02 -0.42458814299E-03  0.33747927266E+01  0.33750315771E+01  0.40000000000E-01 0.  1.
</event>
<event>
 5   0  0.6200596E+07  0.9118800E+02  0.7818608E-02  0.1180000E+00
       11   -1    0    0    0    0  0.00000000000E+00  0.00000000000E+00  0.39999999673E+01  0.40000000000E+01  0.51109989000E-03 0. -1.
     -623   -1    0    0    0    0  0.00000000000E+00  0.00000000000E+00  0.12525980253E-10  0.17130000000E+03  0.17130000000E+03 0.  1.
       11    1    1    2    0    0 -0.12564014254E-01  0.61256701983E-03  0.19079311661E+00  0.19120801307E+00  0.51109989000E-03 0. -1.
     -623    1    1    2    0    0  0.62015658121E-02 -0.38970641024E-02  0.63179839949E-03  0.17130000016E+03  0.17130000000E+03 0.  1.
      622    1    1    2    0    0  0.63624484420E-02  0.32844970826E-02  0.38085750523E+01  0.38087918292E+01  0.40000000000E-01 0. -1.
</event>
<event>
 5   0  0.6200596E+07  0.9118800E+02  0.7818608E-02  0.1180000E+00
       11   -1    0    0    0    0  0.00000000000E+00  0.00000000000E+00  0.39999999673E+01  0.40000000000E+01  0.51109989000E-03 0.  1.
     -623   -1    0    0    0    0  0.00000000000E+00  0.00000000000E+00  0.12525980253E-10  0.17130000000E+03  0.17130000000E+03 0.  1.
       11    1    1    2    0    0  0.60508626156E-04  0.42988392784E-02  0.64350905808E-02  0.77559843208E-02  0.51109989000E-03 0.  1.
     -623    1    1    2    0    0  0.13779043270E-02 -0.28677835908E-02  0.15218066351E-02  0.17130000004E+03  0.17130000000E+03 0.  1.
      622    1    1    2    0    0 -0.14384129532E-02 -0.14310556876E-02  0.39920430701E+01  0.39922439794E+01  0.40000000000E-01 0.  1.
</event>
<event>
 5   0  0.6200596E+07  0.9118800E+02  0.7818608E-02  0.1180000E+00
       11   -1    0    0    0    0  0.00000000000E+00  0.00000000000E+00  0.39999999673E+01  0.40000000000E+01  0.51109989000E-03 0. -1.
     -623   -1    0    0    0    0  0.00000000000E+00  0.00000000000E+00  0.12525980253E-10  0.17130000000E+03  0.17130000000E+03 0.  1.
       11    1    1    2    0    0 -0.36172414122E-02 -0.54066422975E-02  0.78850631299E-01  0.79120158586E-01  0.51109989000E-03 0. -1.
     -623    1    1    2    0    0 -0.79029846042E-03  0.76236051850E-03  0.47876813443E-03  0.17130000000E+03  0.17130000000E+03 0.  1.
      622    1    1    2    0    0  0.44075398726E-02  0.46442817790E-02  0.39206705679E+01  0.39208798372E+01  0.40000000000E-01 0. -1.
</event>
<event>
 5   0  0.6200596E+07  0.9118800E+02  0.7818608E-02  0.1180000E+00
       11   -1    0    0    0    0  0.00000000000E+00  0.00000000000E+00  0.39999999673E+01  0.40000000000E+01  0.51109989000E-03 0. -1.
     -623   -1    0    0    0    0  0.00000000000E+00  0.00000000000E+00  0.12525980253E-10  0.17130000000E+03  0.17130000000E+03 0.  1.
       11    1    1    2    0    0 -0.24989344199E-02  0.13296069660E-01  0.16820051448E+00  0.16874449453E+00  0.51109989000E-03 0. -1.
     -623    1    1    2    0    0 -0.30264894353E-02  0.79086283007E-03  0.78267614016E-03  0.17130000003E+03  0.17130000000E+03 0.  1.
      622    1    1    2    0    0  0.55254238552E-02 -0.14086932490E-01  0.38310167767E+01  0.38312554751E+01  0.40000000000E-01 0. -1.
</event>
<event>
 5   0  0.6200596E+07  0.9118800E+02  0.7818608E-02  0.1180000E+00
       11   -1    0    0    0    0  0.00000000000E+00  0.00000000000E+00  0.39999999673E+01  0.40000000000E+01  0.51109989000E-03 0. -1.
     -623   -1    0    0    0    0  0.00000000000E+00  0.00000000000E+00  0.12525980253E-10  0.17130000000E+03  0.17130000000E+03 0. -1.
       11    1    1    2    0    0 -0.15911060768E-02 -0.14767909141E-03  0.23835000752E-01  0.23893972282E-01  0.51109989000E-03 0. -1.
     -623    1    1    2    0    0 -0.31108055448E-04 -0.56513233146E-03  0.26054182933E-03  0.17130000000E+03  0.17130000000E+03 0. -1.
      622    1    1    2    0    0  0.16222141323E-02  0.71281142288E-03  0.39759044248E+01  0.39761060266E+01  0.40000000000E-01 0. -1.
</event>
<event>
 5   0  0.6200596E+07  0.9118800E+02  0.7818608E-02  0.1180000E+00
       11   -1    0    0    0    0  0.00000000000E+00  0.00000000000E+00  0.39999999673E+01  0.40000000000E+01  0.51109989000E-03 0.  1.
     -623   -1    0    0    0    0  0.00000000000E+00  0.00000000000E+00  0.12525980253E-10  0.17130000000E+03  0.17130000000E+03 0. -1.
       11    1    1    2    0    0 -0.14548277786E-01 -0.36404752937E-02  0.39562943028E+00  0.39591389566E+00  0.51109989000E-03 0.  1.
     -623    1    1    2    0    0 -0.54647348204E-03 -0.16783459129E-02  0.54195702211E-03  0.17130000001E+03  0.17130000000E+03 0. -1.
      622    1    1    2    0    0  0.15094751268E-01  0.53188212066E-02  0.36038285801E+01  0.36040860944E+01  0.40000000000E-01 0.  1.
</event>
<event>
 5   0  0.6200596E+07  0.9118800E+02  0.7818608E-02  0.1180000E+00
       11   -1    0    0    0    0  0.00000000000E+00  0.00000000000E+00  0.39999999673E+01  0.40000000000E+01  0.51109989000E-03 0. -1.
     -623   -1    0    0    0    0  0.00000000000E+00  0.00000000000E+00  0.12525980253E-10  0.17130000000E+03  0.17130000000E+03 0.  1.
       11    1    1    2    0    0 -0.10261763577E-02 -0.16925858136E-02  0.11055311098E-01  0.11242731404E-01  0.51109989000E-03 0. -1.
     -623    1    1    2    0    0 -0.56129673488E-03  0.53468792022E-03  0.38844260810E-03  0.17130000000E+03  0.17130000000E+03 0.  1.
      622    1    1    2    0    0  0.15874730926E-02  0.11578978934E-02  0.39885562137E+01  0.39887572664E+01  0.40000000000E-01 0. -1.
</event>
<event>
 5   0  0.6200596E+07  0.9118800E+02  0.7818608E-02  0.1180000E+00
       11   -1    0    0    0    0  0.00000000000E+00  0.00000000000E+00  0.39999999673E+01  0.40000000000E+01  0.51109989000E-03 0.  1.
     -623   -1    0    0    0    0  0.00000000000E+00  0.00000000000E+00  0.12525980253E-10  0.17130000000E+03  0.17130000000E+03 0. -1.
       11    1    1    2    0    0 -0.19738283572E-01  0.12883967098E-01  0.72261985203E+00  0.72300436252E+00  0.51109989000E-03 0.  1.
     -623    1    1    2    0    0  0.15984506732E-01 -0.37378081407E-02  0.64431548611E-03  0.17130000079E+03  0.17130000000E+03 0. -1.
      622    1    1    2    0    0  0.37537768400E-02 -0.91461589570E-02  0.32767357998E+01  0.32769948497E+01  0.40000000000E-01 0.  1.
</event>
<event>
 5   0  0.6200596E+07  0.9118800E+02  0.7818608E-02  0.1180000E+00
       11   -1    0    0    0    0  0.00000000000E+00  0.00000000000E+00  0.39999999673E+01  0.40000000000E+01  0.51109989000E-03 0. -1.
     -623   -1    0    0    0    0  0.00000000000E+00  0.00000000000E+00  0.12525980253E-10  0.17130000000E+03  0.17130000000E+03 0. -1.
       11    1    1    2    0    0  0.40002049849E-02 -0.58916959175E-02  0.25554379682E+00  0.25564351554E+00  0.51109989000E-03 0. -1.
     -623    1    1    2    0    0 -0.78453579757E-03 -0.34878167614E-03  0.31993099088E-03  0.17130000000E+03  0.17130000000E+03 0. -1.
      622    1    1    2    0    0 -0.32156691873E-02  0.62404775936E-02  0.37441362395E+01  0.37443564820E+01  0.40000000000E-01 0. -1.
</event>
<event>
 5   0  0.6200596E+07  0.9118800E+02  0.7818608E-02  0.1180000E+00
       11   -1    0    0    0    0  0.00000000000E+00  0.00000000000E+00  0.39999999673E+01  0.40000000000E+01  0.51109989000E-03 0.  1.
     -623   -1    0    0    0    0  0.00000000000E+00  0.00000000000E+00  0.12525980253E-10  0.17130000000E+03  0.17130000000E+03 0.  1.
       11    1    1    2    0    0 -0.67052604437E-02 -0.22417496834E-02  0.27491860493E+00  0.27500997531E+00  0.51109989000E-03 0.  1.
     -623    1    1    2    0    0 -0.17116012537E-01 -0.12873184752E-01  0.41429114262E-03  0.17130000134E+03  0.17130000000E+03 0.  1.
      622    1    1    2    0    0  0.23821272980E-01  0.15114934435E-01  0.37246670713E+01  0.37249886854E+01  0.40000000000E-01 0.  0.
</event>
<event>
 5   0  0.6200596E+07  0.9118800E+02  0.7818608E-02  0.1180000E+00
       11   -1    0    0    0    0  0.00000000000E+00  0.00000000000E+00  0.39999999673E+01  0.40000000000E+01  0.51109989000E-03 0. -1.
     -623   -1    0    0    0    0  0.00000000000E+00  0.00000000000E+00  0.12525980253E-10  0.17130000000E+03  0.17130000000E+03 0.  1.
       11    1    1    2    0    0  0.11232791920E-01  0.23637699737E-01  0.29811734538E+01  0.29812883690E+01  0.51109989000E-03 0. -1.
     -623    1    1    2    0    0 -0.15788346364E-01  0.34646343996E-02  0.12723213620E-02  0.17130000077E+03  0.17130000000E+03 0.  1.
      622    1    1    2    0    0  0.45555544444E-02 -0.27102334136E-01  0.10175541922E+01  0.10187108636E+01  0.40000000000E-01 0.  0.
</event>
<event>
 5   0  0.6200596E+07  0.9118800E+02  0.7818608E-02  0.1180000E+00
       11   -1    0    0    0    0  0.00000000000E+00  0.00000000000E+00  0.39999999673E+01  0.40000000000E+01  0.51109989000E-03 0. -1.
     -623   -1    0    0    0    0  0.00000000000E+00  0.00000000000E+00  0.12525980253E-10  0.17130000000E+03  0.17130000000E+03 0.  1.
       11    1    1    2    0    0 -0.82288885880E-03 -0.16779853126E-02  0.89109651312E-02  0.91191722556E-02  0.51109989000E-03 0.  1.
     -623    1    1    2    0    0  0.12365747733E-02  0.15392387541E-02  0.40867224018E-03  0.17130000001E+03  0.17130000000E+03 0.  1.
      622    1    1    2    0    0 -0.41368591446E-03  0.13874655859E-03  0.39906803300E+01  0.39908808159E+01  0.40000000000E-01 0. -1.
</event>
<event>
 5   0  0.6200596E+07  0.9118800E+02  0.7818608E-02  0.1180000E+00
       11   -1    0    0    0    0  0.00000000000E+00  0.00000000000E+00  0.39999999673E+01  0.40000000000E+01  0.51109989000E-03 0.  1.
     -623   -1    0    0    0    0  0.00000000000E+00  0.00000000000E+00  0.12525980253E-10  0.17130000000E+03  0.17130000000E+03 0. -1.
       11    1    1    2    0    0  0.33775779637E-02  0.13544806667E-02  0.13424381069E+00  0.13429409734E+00  0.51109989000E-03 0.  1.
     -623    1    1    2    0    0  0.15093238899E-03  0.56565452634E-03  0.25929606942E-03  0.17130000000E+03  0.17130000000E+03 0. -1.
      622    1    1    2    0    0 -0.35285103527E-02 -0.19201351931E-02  0.38654968606E+01  0.38657059015E+01  0.40000000000E-01 0.  1.
</event>
<event>
 5   0  0.6200596E+07  0.9118800E+02  0.7818608E-02  0.1180000E+00
       11   -1    0    0    0    0  0.00000000000E+00  0.00000000000E+00  0.39999999673E+01  0.40000000000E+01  0.51109989000E-03 0. -1.
     -623   -1    0    0    0    0  0.00000000000E+00  0.00000000000E+00  0.12525980253E-10  0.17130000000E+03  0.17130000000E+03 0. -1.
       11    1    1    2    0    0 -0.85745753930E-02 -0.10971037971E-01  0.27551517000E-01  0.30874493132E-01  0.51109989000E-03 0. -1.
     -623    1    1    2    0    0  0.84024807037E-02 -0.75733790524E-03  0.35420814748E-02  0.17130000024E+03  0.17130000000E+03 0. -1.
      622    1    1    2    0    0  0.17209468925E-03  0.11728375876E-01  0.39689063689E+01  0.39691252625E+01  0.40000000000E-01 0. -1.
</event>
<event>
 5   0  0.6200596E+07  0.9118800E+02  0.7818608E-02  0.1180000E+00
       11   -1    0    0    0    0  0.00000000000E+00  0.00000000000E+00  0.39999999673E+01  0.40000000000E+01  0.51109989000E-03 0. -1.
     -623   -1    0    0    0    0  0.00000000000E+00  0.00000000000E+00  0.12525980253E-10  0.17130000000E+03  0.17130000000E+03 0.  1.
       11    1    1    2    0    0  0.73207582769E-03 -0.17672010968E-03  0.46991054263E-02  0.47864368517E-02  0.51109989000E-03 0. -1.
     -623    1    1    2    0    0  0.39958695692E-03  0.11197191650E-02  0.28781935713E-03  0.17130000000E+03  0.17130000000E+03 0.  1.
      622    1    1    2    0    0 -0.11316627846E-02 -0.94299905536E-03  0.39950130426E+01  0.39952135588E+01  0.40000000000E-01 0. -1.
</event>
<event>
 5   0  0.6200596E+07  0.9118800E+02  0.7818608E-02  0.1180000E+00
       11   -1    0    0    0    0  0.00000000000E+00  0.00000000000E+00  0.39999999673E+01  0.40000000000E+01  0.51109989000E-03 0. -1.
     -623   -1    0    0    0    0  0.00000000000E+00  0.00000000000E+00  0.12525980253E-10  0.17130000000E+03  0.17130000000E+03 0.  1.
       11    1    1    2    0    0  0.20067245183E-02  0.14430398729E-01  0.57130836849E+00  0.57149433635E+00  0.51109989000E-03 0. -1.
     -623    1    1    2    0    0  0.15886886780E-02  0.22274687106E-02  0.46165908280E-03  0.17130000002E+03  0.17130000000E+03 0.  1.
      622    1    1    2    0    0 -0.35954131963E-02 -0.16657867440E-01  0.34282299398E+01  0.34285056412E+01  0.40000000000E-01 0. -1.
</event>
<event>
 5   0  0.6200596E+07  0.9118800E+02  0.7818608E-02  0.1180000E+00
       11   -1    0    0    0    0  0.00000000000E+00  0.00000000000E+00  0.39999999673E+01  0.40000000000E+01  0.51109989000E-03 0.  1.
     -623   -1    0    0    0    0  0.00000000000E+00  0.00000000000E+00  0.12525980253E-10  0.17130000000E+03  0.17130000000E+03 0.  1.
       11    1    1    2    0    0 -0.18313258963E-01 -0.38975524241E-01  0.14626321867E+01  0.14632660871E+01  0.51109989000E-03 0.  1.
     -623    1    1    2    0    0  0.66066073121E-02 -0.11519318046E-02  0.12938472943E-02  0.17130000014E+03  0.17130000000E+03 0.  1.
      622    1    1    2    0    0  0.11706651651E-01  0.40127456046E-01  0.25360739334E+01  0.25367337767E+01  0.40000000000E-01 0. -1.
</event>
<event>
 5   0  0.6200596E+07  0.9118800E+02  0.7818608E-02  0.1180000E+00
       11   -1    0    0    0    0  0.00000000000E+00  0.00000000000E+00  0.39999999673E+01  0.40000000000E+01  0.51109989000E-03 0.  1.
     -623   -1    0    0    0    0  0.00000000000E+00  0.00000000000E+00  0.12525980253E-10  0.17130000000E+03  0.17130000000E+03 0. -1.
       11    1    1    2    0    0  0.14815613523E-02 -0.16592544653E-02  0.11032684444E-01  0.11266299145E-01  0.51109989000E-03 0.  1.
     -623    1    1    2    0    0 -0.28131444398E-02  0.25169596388E-03  0.43464648743E-03  0.17130000002E+03  0.17130000000E+03 0. -1.
      622    1    1    2    0    0  0.13315830876E-02  0.14075585014E-02  0.39885326364E+01  0.39887336770E+01  0.40000000000E-01 0.  1.
</event>
<event>
 5   0  0.6200596E+07  0.9118800E+02  0.7818608E-02  0.1180000E+00
       11   -1    0    0    0    0  0.00000000000E+00  0.00000000000E+00  0.39999999673E+01  0.40000000000E+01  0.51109989000E-03 0. -1.
     -623   -1    0    0    0    0  0.00000000000E+00  0.00000000000E+00  0.12525980253E-10  0.17130000000E+03  0.17130000000E+03 0. -1.
       11    1    1    2    0    0  0.32005125844E-02  0.83143593605E-02  0.14820331182E+01  0.14820599841E+01  0.51109989000E-03 0. -1.
     -623    1    1    2    0    0 -0.88127180720E-02 -0.63693777553E-02  0.35192545507E-03  0.17130000035E+03  0.17130000000E+03 0. -1.
      622    1    1    2    0    0  0.56122054876E-02 -0.19449816052E-02  0.25176149237E+01  0.25179396704E+01  0.40000000000E-01 0. -1.
</event>
<event>
 5   0  0.6200596E+07  0.9118800E+02  0.7818608E-02  0.1180000E+00
       11   -1    0    0    0    0  0.00000000000E+00  0.00000000000E+00  0.39999999673E+01  0.40000000000E+01  0.51109989000E-03 0. -1.
     -623   -1    0    0    0    0  0.00000000000E+00  0.00000000000E+00  0.12525980253E-10  0.17130000000E+03  0.17130000000E+03 0. -1.
       11    1    1    2    0    0 -0.35730155589E-02  0.51020091940E-02  0.83471031498E-01  0.83704666883E-01  0.51109989000E-03 0. -1.
     -623    1    1    2    0    0 -0.76506302656E-03  0.75034847403E-03  0.44466245775E-03  0.17130000000E+03  0.17130000000E+03 0. -1.
      622    1    1    2    0    0  0.43380785855E-02 -0.58523576680E-02  0.39160842734E+01  0.39162953292E+01  0.40000000000E-01 0.  0.
</event>
<event>
 5   0  0.6200596E+07  0.9118800E+02  0.7818608E-02  0.1180000E+00
       11   -1    0    0    0    0  0.00000000000E+00  0.00000000000E+00  0.39999999673E+01  0.40000000000E+01  0.51109989000E-03 0. -1.
     -623   -1    0    0    0    0  0.00000000000E+00  0.00000000000E+00  0.12525980253E-10  0.17130000000E+03  0.17130000000E+03 0. -1.
       11    1    1    2    0    0 -0.72150410761E-02  0.20574238259E-02  0.43158662776E+00  0.43165213806E+00  0.51109989000E-03 0. -1.
     -623    1    1    2    0    0  0.66415791334E-02  0.50144951405E-02  0.29693477241E-03  0.17130000020E+03  0.17130000000E+03 0. -1.
      622    1    1    2    0    0  0.57346194270E-03 -0.70719189664E-02  0.35681164048E+01  0.35683476595E+01  0.40000000000E-01 0. -1.
</event>
<event>
 5   0  0.6200596E+07  0.9118800E+02  0.7818608E-02  0.1180000E+00
       11   -1    0    0    0    0  0.00000000000E+00  0.00000000000E+00  0.39999999673E+01  0.40000000000E+01  0.51109989000E-03 0. -1.
     -623   -1    0    0    0    0  0.00000000000E+00  0.00000000000E+00  0.12525980253E-10  0.17130000000E+03  0.17130000000E+03 0.  1.
       11    1    1    2    0    0 -0.21836295468E-01 -0.70009228051E-02  0.53973457331E+00  0.54022172074E+00  0.51109989000E-03 0. -1.
     -623    1    1    2    0    0 -0.37222644777E-02 -0.83683474144E-02  0.84715128020E-03  0.17130000025E+03  0.17130000000E+03 0.  1.
      622    1    1    2    0    0  0.25558559946E-01  0.15369270219E-01  0.34594182428E+01  0.34597780323E+01  0.40000000000E-01 0. -1.
</event>
<event>
 5   0  0.6200596E+07  0.9118800E+02  0.7818608E-02  0.1180000E+00
       11   -1    0    0    0    0  0.00000000000E+00  0.00000000000E+00  0.39999999673E+01  0.40000000000E+01  0.51109989000E-03 0. -1.
     -623   -1    0    0    0    0  0.00000000000E+00  0.00000000000E+00  0.12525980253E-10  0.17130000000E+03  0.17130000000E+03 0.  1.
       11    1    1    2    0    0 -0.13949455397E-02  0.24366804175E-03  0.91834637370E-02  0.93060450315E-02  0.51109989000E-03 0. -1.
     -623    1    1    2    0    0  0.17744998788E-02  0.74455460887E-03  0.32317160589E-03  0.17130000001E+03  0.17130000000E+03 0.  1.
      622    1    1    2    0    0 -0.37955433909E-03 -0.98822265061E-03  0.39904933320E+01  0.39906939439E+01  0.40000000000E-01 0. -1.
</event>
<event>
 5   0  0.6200596E+07  0.9118800E+02  0.7818608E-02  0.1180000E+00
       11   -1    0    0    0    0  0.00000000000E+00  0.00000000000E+00  0.39999999673E+01  0.40000000000E+01  0.51109989000E-03 0.  1.
     -623   -1    0    0    0    0  0.00000000000E+00  0.00000000000E+00  0.12525980253E-10  0.17130000000E+03  0.17130000000E+03 0. -1.
       11    1    1    2    0    0 -0.94592344986E-02 -0.17830799548E-02  0.18363414105E-01  0.20739640562E-01  0.51109989000E-03 0.  1.
     -623    1    1    2    0    0  0.12110097118E-01  0.62525056852E-02  0.25811960511E-02  0.17130000056E+03  0.17130000000E+03 0. -1.
      622    1    1    2    0    0 -0.26508626192E-02 -0.44694257304E-02  0.39790553572E+01  0.39792597978E+01  0.40000000000E-01 0.  1.
</event>
<event>
 5   0  0.6200596E+07  0.9118800E+02  0.7818608E-02  0.1180000E+00
       11   -1    0    0    0    0  0.00000000000E+00  0.00000000000E+00  0.39999999673E+01  0.40000000000E+01  0.51109989000E-03 0.  1.
     -623   -1    0    0    0    0  0.00000000000E+00  0.00000000000E+00  0.12525980253E-10  0.17130000000E+03  0.17130000000E+03 0. -1.
       11    1    1    2    0    0  0.32714237925E-02  0.16858663122E-01  0.15510546974E+01  0.15511498485E+01  0.51109989000E-03 0.  1.
     -623    1    1    2    0    0  0.10829818923E-02 -0.21899396862E-02  0.46965356748E-03  0.17130000002E+03  0.17130000000E+03 0. -1.
      622    1    1    2    0    0 -0.43544056848E-02 -0.14668723436E-01  0.24484756163E+01  0.24488501335E+01  0.40000000000E-01 0.  1.
</event>
<event>
 5   0  0.6200596E+07  0.9118800E+02  0.7818608E-02  0.1180000E+00
       11   -1    0    0    0    0  0.00000000000E+00  0.00000000000E+00  0.39999999673E+01  0.40000000000E+01  0.51109989000E-03 0.  1.
     -623   -1    0    0    0    0  0.00000000000E+00  0.00000000000E+00  0.12525980253E-10  0.17130000000E+03  0.17130000000E+03 0.  1.
       11    1    1    2    0    0  0.17195544781E-02 -0.10131743669E-01  0.52459105547E-01  0.53458657609E-01  0.51109989000E-03 0.  1.
     -623    1    1    2    0    0 -0.19825319250E-02  0.12163815240E-02  0.12123331844E-02  0.17130000002E+03  0.17130000000E+03 0.  1.
      622    1    1    2    0    0  0.26297744698E-03  0.89153621447E-02  0.39463285286E+01  0.39465413223E+01  0.40000000000E-01 0.  1.
</event>
<event>
 5   0  0.6200596E+07  0.9118800E+02  0.7818608E-02  0.1180000E+00
       11   -1    0    0    0    0  0.00000000000E+00  0.00000000000E+00  0.39999999673E+01  0.40000000000E+01  0.51109989000E-03 0.  1.
     -623   -1    0    0    0    0  0.00000000000E+00  0.00000000000E+00  0.12525980253E-10  0.17130000000E+03  0.17130000000E+03 0.  1.
       11    1    1    2    0    0  0.17433188968E-02  0.17430525326E-01  0.22309412465E+01  0.22310100782E+01  0.51109989000E-03 0.  1.
     -623    1    1    2    0    0 -0.81260977813E-02 -0.11290752213E-02  0.60793911089E-03  0.17130000020E+03  0.17130000000E+03 0.  1.
      622    1    1    2    0    0  0.63827788845E-02 -0.16301450105E-01  0.17684507817E+01  0.17689897243E+01  0.40000000000E-01 0.  1.
</event>
<event>
 5   0  0.6200596E+07  0.9118800E+02  0.7818608E-02  0.1180000E+00
       11   -1    0    0    0    0  0.00000000000E+00  0.00000000000E+00  0.39999999673E+01  0.40000000000E+01  0.51109989000E-03 0. -1.
     -623   -1    0    0    0    0  0.00000000000E+00  0.00000000000E+00  0.12525980253E-10  0.17130000000E+03  0.17130000000E+03 0. -1.
       11    1    1    2    0    0 -0.61168009558E-03  0.27942501415E-02  0.35800803455E-01  0.35918529133E-01  0.51109989000E-03 0. -1.
     -623    1    1    2    0    0 -0.84330456717E-04 -0.21098838268E-03  0.32041368685E-03  0.17130000000E+03  0.17130000000E+03 0. -1.
      622    1    1    2    0    0  0.69601055229E-03 -0.25832617588E-02  0.39638787502E+01  0.39640814704E+01  0.40000000000E-01 0. -1.
</event>
<event>
 5   0  0.6200596E+07  0.9118800E+02  0.7818608E-02  0.1180000E+00
       11   -1    0    0    0    0  0.00000000000E+00  0.00000000000E+00  0.39999999673E+01  0.40000000000E+01  0.51109989000E-03 0.  1.
     -623   -1    0    0    0    0  0.00000000000E+00  0.00000000000E+00  0.12525980253E-10  0.17130000000E+03  0.17130000000E+03 0. -1.
       11    1    1    2    0    0  0.18869240075E-02  0.35591587081E-03  0.32952519159E-01  0.33012374915E-01  0.51109989000E-03 0.  1.
     -623    1    1    2    0    0  0.76265586008E-03 -0.16622294347E-02  0.26260253637E-03  0.17130000001E+03  0.17130000000E+03 0. -1.
      622    1    1    2    0    0 -0.26495798676E-02  0.13063135639E-02  0.39667848457E+01  0.39669876151E+01  0.40000000000E-01 0.  1.
</event>
<event>
 5   0  0.6200596E+07  0.9118800E+02  0.7818608E-02  0.1180000E+00
       11   -1    0    0    0    0  0.00000000000E+00  0.00000000000E+00  0.39999999673E+01  0.40000000000E+01  0.51109989000E-03 0.  1.
     -623   -1    0    0    0    0  0.00000000000E+00  0.00000000000E+00  0.12525980253E-10  0.17130000000E+03  0.17130000000E+03 0.  1.
       11    1    1    2    0    0  0.27439774680E-01 -0.80745869211E-01  0.23091331014E+01  0.23107074194E+01  0.51109989000E-03 0.  1.
     -623    1    1    2    0    0 -0.65578775838E-02  0.40529856963E-02  0.39196725281E-02  0.17130000022E+03  0.17130000000E+03 0.  1.
      622    1    1    2    0    0 -0.20881897096E-01  0.76692883514E-01  0.16869471934E+01  0.16892923623E+01  0.40000000000E-01 0.  1.
</event>
<event>
 5   0  0.6200596E+07  0.9118800E+02  0.7818608E-02  0.1180000E+00
       11   -1    0    0    0    0  0.00000000000E+00  0.00000000000E+00  0.39999999673E+01  0.40000000000E+01  0.51109989000E-03 0. -1.
     -623   -1    0    0    0    0  0.00000000000E+00  0.00000000000E+00  0.12525980253E-10  0.17130000000E+03  0.17130000000E+03 0. -1.
       11    1    1    2    0    0  0.18751864455E-01  0.14466191651E-02  0.94199842599E+00  0.94218629841E+00  0.51109989000E-03 0. -1.
     -623    1    1    2    0    0 -0.52820558965E-02 -0.34693196935E-02  0.47993236068E-03  0.17130000012E+03  0.17130000000E+03 0. -1.
      622    1    1    2    0    0 -0.13469808559E-01  0.20227005283E-02  0.30575216090E+01  0.30578135843E+01  0.40000000000E-01 0. -1.
</event>
<event>
 5   0  0.6200596E+07  0.9118800E+02  0.7818608E-02  0.1180000E+00
       11   -1    0    0    0    0  0.00000000000E+00  0.00000000000E+00  0.39999999673E+01  0.40000000000E+01  0.51109989000E-03 0.  1.
     -623   -1    0    0    0    0  0.00000000000E+00  0.00000000000E+00  0.12525980253E-10  0.17130000000E+03  0.17130000000E+03 0. -1.
       11    1    1    2    0    0 -0.27054163440E-01  0.13827955196E-01  0.10462354738E+01  0.10466766779E+01  0.51109989000E-03 0.  1.
     -623    1    1    2    0    0  0.45947616626E-03 -0.61810083294E-02  0.84183669706E-03  0.17130000011E+03  0.17130000000E+03 0. -1.
      622    1    1    2    0    0  0.26594687274E-01 -0.76469468664E-02  0.29529226569E+01  0.29533232079E+01  0.40000000000E-01 0.  0.
</event>
<event>
 5   0  0.6200596E+07  0.9118800E+02  0.7818608E-02  0.1180000E+00
       11   -1    0    0    0    0  0.00000000000E+00  0.00000000000E+00  0.39999999673E+01  0.40000000000E+01  0.51109989000E-03 0. -1.
     -623   -1    0    0    0    0  0.00000000000E+00  0.00000000000E+00  0.12525980253E-10  0.17130000000E+03  0.17130000000E+03 0. -1.
       11    1    1    2    0    0  0.19199164313E-02 -0.13116504230E-02  0.78429254642E-02  0.81962922895E-02  0.51109989000E-03 0. -1.
     -623    1    1    2    0    0  0.44917367647E-03  0.14641834688E-02  0.55446358028E-03  0.17130000001E+03  0.17130000000E+03 0. -1.
      622    1    1    2    0    0 -0.23690901077E-02 -0.15253304586E-03  0.39916025783E+01  0.39918037000E+01  0.40000000000E-01 0. -1.
</event>
<event>
 5   0  0.6200596E+07  0.9118800E+02  0.7818608E-02  0.1180000E+00
       11   -1    0    0    0    0  0.00000000000E+00  0.00000000000E+00  0.39999999673E+01  0.40000000000E+01  0.51109989000E-03 0.  1.
     -623   -1    0    0    0    0  0.00000000000E+00  0.00000000000E+00  0.12525980253E-10  0.17130000000E+03  0.17130000000E+03 0. -1.
       11    1    1    2    0    0  0.47514136630E-02  0.19889097935E-02  0.73922331471E+00  0.73924143683E+00  0.51109989000E-03 0.  1.
     -623    1    1    2    0    0  0.79625127685E-02 -0.42911237102E-02  0.28928046281E-03  0.17130000024E+03  0.17130000000E+03 0. -1.
      622    1    1    2    0    0 -0.12713926432E-01  0.23022139167E-02  0.32604873722E+01  0.32607583241E+01  0.40000000000E-01 0.  1.
</event>
<event>
 5   0  0.6200596E+07  0.9118800E+02  0.7818608E-02  0.1180000E+00
       11   -1    0    0    0    0  0.00000000000E+00  0.00000000000E+00  0.39999999673E+01  0.40000000000E+01  0.51109989000E-03 0. -1.
     -623   -1    0    0    0    0  0.00000000000E+00  0.00000000000E+00  0.12525980253E-10  0.17130000000E+03  0.17130000000E+03 0. -1.
       11    1    1    2    0    0 -0.58165022411E-02 -0.10927790204E-01  0.20416273434E+01  0.20416649380E+01  0.51109989000E-03 0. -1.
     -623    1    1    2    0    0  0.95205559524E-03  0.79003295043E-02  0.45468373778E-03  0.17130000019E+03  0.17130000000E+03 0. -1.
      622    1    1    2    0    0  0.48644466459E-02  0.30274606994E-02  0.19579179402E+01  0.19583348766E+01  0.40000000000E-01 0. -1.
</event>
<event>
 5   0  0.6200596E+07  0.9118800E+02  0.7818608E-02  0.1180000E+00
       11   -1    0    0    0    0  0.00000000000E+00  0.00000000000E+00  0.39999999673E+01  0.40000000000E+01  0.51109989000E-03 0.  1.
     -623   -1    0    0    0    0  0.00000000000E+00  0.00000000000E+00  0.12525980253E-10  0.17130000000E+03  0.17130000000E+03 0. -1.
       11    1    1    2    0    0 -0.18530667422E-02  0.21516214250E-01  0.24950343475E+00  0.25043683137E+00  0.51109989000E-03 0.  1.
     -623    1    1    2    0    0  0.74912388617E-02 -0.11811474163E-01  0.11641023185E-02  0.17130000057E+03  0.17130000000E+03 0. -1.
      622    1    1    2    0    0 -0.56381721195E-02 -0.97047400871E-02  0.37493324303E+01  0.37495625937E+01  0.40000000000E-01 0.  1.
</event>
<event>
 5   0  0.6200596E+07  0.9118800E+02  0.7818608E-02  0.1180000E+00
       11   -1    0    0    0    0  0.00000000000E+00  0.00000000000E+00  0.39999999673E+01  0.40000000000E+01  0.51109989000E-03 0. -1.
     -623   -1    0    0    0    0  0.00000000000E+00  0.00000000000E+00  0.12525980253E-10  0.17130000000E+03  0.17130000000E+03 0.  1.
       11    1    1    2    0    0  0.63169662906E-03 -0.69537207895E-03  0.12966102786E-01  0.13010135478E-01  0.51109989000E-03 0. -1.
     -623    1    1    2    0    0 -0.19316733436E-03 -0.18620588928E-03  0.24477970399E-03  0.17130000000E+03  0.17130000000E+03 0.  1.
      622    1    1    2    0    0 -0.43852929469E-03  0.88157796823E-03  0.39867890849E+01  0.39869898641E+01  0.40000000000E-01 0. -1.
</event>
<event>
 5   0  0.6200596E+07  0.9118800E+02  0.7818608E-02  0.1180000E+00
       11   -1    0    0    0    0  0.00000000000E+00  0.00000000000E+00  0.39999999673E+01  0.40000000000E+01  0.51109989000E-03 0. -1.
     -623   -1    0    0    0    0  0.00000000000E+00  0.00000000000E+00  0.12525980253E-10  0.17130000000E+03  0.17130000000E+03 0. -1.
       11    1    1    2    0    0 -0.13704820497E-01 -0.29871692250E-01  0.26644075737E-01  0.42312032526E-01  0.51109989000E-03 0. -1.
     -623    1    1    2    0    0  0.73071394622E-02  0.27815033956E-01  0.15878923425E-01  0.17130000315E+03  0.17130000000E+03 0. -1.
      622    1    1    2    0    0  0.63976810351E-02  0.20566582938E-02  0.39574769682E+01  0.39576848174E+01  0.40000000000E-01 0. -1.
</event>
<event>
 5   0  0.6200596E+07  0.9118800E+02  0.7818608E-02  0.1180000E+00
       11   -1    0    0    0    0  0.00000000000E+00  0.00000000000E+00  0.39999999673E+01  0.40000000000E+01  0.51109989000E-03 0. -1.
     -623   -1    0    0    0    0  0.00000000000E+00  0.00000000000E+00  0.12525980253E-10  0.17130000000E+03  0.17130000000E+03 0.  1.
       11    1    1    2    0    0 -0.54455056492E-02 -0.85145696290E-02  0.75986532064E+00  0.75993270634E+00  0.51109989000E-03 0. -1.
     -623    1    1    2    0    0  0.17363056822E-01  0.10804349547E-02  0.34560320882E-03  0.17130000088E+03  0.17130000000E+03 0.  1.
      622    1    1    2    0    0 -0.11917551173E-01  0.74341346744E-02  0.32397890435E+01  0.32400664099E+01  0.40000000000E-01 0. -1.
</event>
<event>
 5   0  0.6200596E+07  0.9118800E+02  0.7818608E-02  0.1180000E+00
       11   -1    0    0    0    0  0.00000000000E+00  0.00000000000E+00  0.39999999673E+01  0.40000000000E+01  0.51109989000E-03 0. -1.
     -623   -1    0    0    0    0  0.00000000000E+00  0.00000000000E+00  0.12525980253E-10  0.17130000000E+03  0.17130000000E+03 0.  1.
       11    1    1    2    0    0 -0.48494758875E-02  0.69362171479E-02  0.73514263703E-01  0.74001599397E-01  0.51109989000E-03 0. -1.
     -623    1    1    2    0    0 -0.46397524026E-03 -0.10576435375E-02  0.69908065071E-03  0.17130000001E+03  0.17130000000E+03 0.  1.
      622    1    1    2    0    0  0.53134511277E-02 -0.58785736104E-02  0.39257866230E+01  0.39259983953E+01  0.40000000000E-01 0. -1.
</event>
<event>
 5   0  0.6200596E+07  0.9118800E+02  0.7818608E-02  0.1180000E+00
       11   -1    0    0    0    0  0.00000000000E+00  0.00000000000E+00  0.39999999673E+01  0.40000000000E+01  0.51109989000E-03 0.  1.
     -623   -1    0    0    0    0  0.00000000000E+00  0.00000000000E+00  0.12525980253E-10  0.17130000000E+03  0.17130000000E+03 0.  1.
       11    1    1    2    0    0 -0.82897968529E-03 -0.75311865171E-02  0.18446350455E+00  0.18461974897E+00  0.51109989000E-03 0.  1.
     -623    1    1    2    0    0  0.47110559432E-02  0.46056321513E-02  0.36911907103E-03  0.17130000013E+03  0.17130000000E+03 0.  1.
      622    1    1    2    0    0 -0.38820762579E-02  0.29255543657E-02  0.38151673437E+01  0.38153801239E+01  0.40000000000E-01 0.  1.
</event>
<event>
 5   0  0.6200596E+07  0.9118800E+02  0.7818608E-02  0.1180000E+00
       11   -1    0    0    0    0  0.00000000000E+00  0.00000000000E+00  0.39999999673E+01  0.40000000000E+01  0.51109989000E-03 0.  1.
     -623   -1    0    0    0    0  0.00000000000E+00  0.00000000000E+00  0.12525980253E-10  0.17130000000E+03  0.17130000000E+03 0.  1.
       11    1    1    2    0    0  0.20173065640E-03  0.90769503357E-02  0.60885515997E+00  0.60892306473E+00  0.51109989000E-03 0.  1.
     -623    1    1    2    0    0  0.48558260256E-02 -0.28302776775E-02  0.31341172979E-03  0.17130000009E+03  0.17130000000E+03 0.  1.
      622    1    1    2    0    0 -0.50575566820E-02 -0.62466726582E-02  0.33908313957E+01  0.33910768428E+01  0.40000000000E-01 0.  1.
</event>
<event>
 5   0  0.6200596E+07  0.9118800E+02  0.7818608E-02  0.1180000E+00
       11   -1    0    0    0    0  0.00000000000E+00  0.00000000000E+00  0.39999999673E+01  0.40000000000E+01  0.51109989000E-03 0.  1.
     -623   -1    0    0    0    0  0.00000000000E+00  0.00000000000E+00  0.12525980253E-10  0.17130000000E+03  0.17130000000E+03 0. -1.
       11    1    1    2    0    0 -0.39295372972E-02 -0.59526921048E-02  0.24114670151E+00  0.24125270709E+00  0.51109989000E-03 0.  1.
     -623    1    1    2    0    0  0.12729962800E-02 -0.19806128535E-02  0.32814375070E-03  0.17130000002E+03  0.17130000000E+03 0. -1.
      622    1    1    2    0    0  0.26565410172E-02  0.79333049583E-02  0.37585251221E+01  0.37587472764E+01  0.40000000000E-01 0.  1.
</event>
<event>
 5   0  0.6200596E+07  0.9118800E+02  0.7818608E-02  0.1180000E+00
       11   -1    0    0    0    0  0.00000000000E+00  0.00000000000E+00  0.39999999673E+01  0.40000000000E+01  0.51109989000E-03 0.  1.
     -623   -1    0    0    0    0  0.00000000000E+00  0.00000000000E+00  0.12525980253E-10  0.17130000000E+03  0.17130000000E+03 0.  1.
       11    1    1    2    0    0  0.55348180238E-02 -0.14459789503E-02  0.31402160987E-01  0.31923063812E-01  0.51109989000E-03 0.  1.
     -623    1    1    2    0    0 -0.88250443122E-02  0.10717091703E-02  0.72409832641E-03  0.17130000023E+03  0.17130000000E+03 0.  1.
      622    1    1    2    0    0  0.32902262884E-02  0.37426978000E-03  0.39678737080E+01  0.39680767040E+01  0.40000000000E-01 0.  1.
</event>
<event>
 5   0  0.6200596E+07  0.9118800E+02  0.7818608E-02  0.1180000E+00
       11   -1    0    0    0    0  0.00000000000E+00  0.00000000000E+00  0.39999999673E+01  0.40000000000E+01  0.51109989000E-03 0. -1.
     -623   -1    0    0    0    0  0.00000000000E+00  0.00000000000E+00  0.12525980253E-10  0.17130000000E+03  0.17130000000E+03 0.  1.
       11    1    1    2    0    0  0.22633149485E-01  0.19792533539E-01  0.17045677054E+01  0.17048329324E+01  0.51109989000E-03 0. -1.
     -623    1    1    2    0    0  0.19341905971E-02 -0.33613475045E-02  0.80416137273E-03  0.17130000005E+03  0.17130000000E+03 0.  1.
      622    1    1    2    0    0 -0.24567340083E-01 -0.16431186035E-01  0.22946281006E+01  0.22951670218E+01  0.40000000000E-01 0.  1.
</event>
<event>
 5   0  0.6200596E+07  0.9118800E+02  0.7818608E-02  0.1180000E+00
       11   -1    0    0    0    0  0.00000000000E+00  0.00000000000E+00  0.39999999673E+01  0.40000000000E+01  0.51109989000E-03 0.  1.
     -623   -1    0    0    0    0  0.00000000000E+00  0.00000000000E+00  0.12525980253E-10  0.17130000000E+03  0.17130000000E+03 0. -1.
       11    1    1    2    0    0  0.12936018253E-01  0.35885860181E-02  0.76278823699E+00  0.76290653047E+00  0.51109989000E-03 0.  1.
     -623    1    1    2    0    0  0.77020237571E-03  0.23126007555E-02  0.39982191572E-03  0.17130000002E+03  0.17130000000E+03 0. -1.
      622    1    1    2    0    0 -0.13706220628E-01 -0.59011867736E-02  0.32368119085E+01  0.32370934517E+01  0.40000000000E-01 0.  1.
</event>
<event>
 5   0  0.6200596E+07  0.9118800E+02  0.7818608E-02  0.1180000E+00
       11   -1    0    0    0    0  0.00000000000E+00  0.00000000000E+00  0.39999999673E+01  0.40000000000E+01  0.51109989000E-03 0. -1.
     -623   -1    0    0    0    0  0.00000000000E+00  0.00000000000E+00  0.12525980253E-10  0.17130000000E+03  0.17130000000E+03 0.  1.
       11    1    1    2    0    0 -0.24115970283E-01 -0.62579580623E-02  0.70833138118E+00  0.70876960209E+00  0.51109989000E-03 0. -1.
     -623    1    1    2    0    0  0.12017875337E-01  0.11959216620E-01  0.70928358769E-03  0.17130000084E+03  0.17130000000E+03 0.  1.
      622    1    1    2    0    0  0.12098094946E-01 -0.57012585575E-02  0.32909593026E+01  0.32912295574E+01  0.40000000000E-01 0. -1.
</event>
<event>
 5   0  0.6200596E+07  0.9118800E+02  0.7818608E-02  0.1180000E+00
       11   -1    0    0    0    0  0.00000000000E+00  0.00000000000E+00  0.39999999673E+01  0.40000000000E+01  0.51109989000E-03 0. -1.
     -623   -1    0    0    0    0  0.00000000000E+00  0.00000000000E+00  0.12525980253E-10  0.17130000000E+03  0.17130000000E+03 0. -1.
       11    1    1    2    0    0 -0.14859451820E-02 -0.14956413546E-02  0.16449085528E-01  0.16591522306E-01  0.51109989000E-03 0. -1.
     -623    1    1    2    0    0  0.65992744134E-04  0.57165007645E-03  0.34360381003E-03  0.17130000000E+03  0.17130000000E+03 0. -1.
      622    1    1    2    0    0  0.14199524379E-02  0.92399127816E-03  0.39832072780E+01  0.39834084764E+01  0.40000000000E-01 0. -1.
</event>
<event>
 5   0  0.6200596E+07  0.9118800E+02  0.7818608E-02  0.1180000E+00
       11   -1    0    0    0    0  0.00000000000E+00  0.00000000000E+00  0.39999999673E+01  0.40000000000E+01  0.51109989000E-03 0. -1.
     -623   -1    0    0    0    0  0.00000000000E+00  0.00000000000E+00  0.12525980253E-10  0.17130000000E+03  0.17130000000E+03 0.  1.
       11    1    1    2    0    0  0.28466933775E-02 -0.82531996013E-02  0.18747802056E+00  0.18768188080E+00  0.51109989000E-03 0. -1.
     -623    1    1    2    0    0  0.23922016019E-03  0.15274868330E-01  0.42207698963E-03  0.17130000068E+03  0.17130000000E+03 0.  1.
      622    1    1    2    0    0 -0.30859135377E-02 -0.70216687288E-02  0.38120998698E+01  0.38123174375E+01  0.40000000000E-01 0. -1.
</event>
<event>
 5   0  0.6200596E+07  0.9118800E+02  0.7818608E-02  0.1180000E+00
       11   -1    0    0    0    0  0.00000000000E+00  0.00000000000E+00  0.39999999673E+01  0.40000000000E+01  0.51109989000E-03 0.  1.
     -623   -1    0    0    0    0  0.00000000000E+00  0.00000000000E+00  0.12525980253E-10  0.17130000000E+03  0.17130000000E+03 0. -1.
       11    1    1    2    0    0  0.36535807387E-02  0.13367471993E-01  0.11480467398E+01  0.11481304873E+01  0.51109989000E-03 0.  1.
     -623    1    1    2    0    0 -0.76541639806E-03  0.31507997168E-03  0.39853765836E-03  0.17130000000E+03  0.17130000000E+03 0. -1.
      622    1    1    2    0    0 -0.28881643407E-02 -0.13682551965E-01  0.28515546899E+01  0.28518695102E+01  0.40000000000E-01 0.  1.
</event>
<event>
 5   0  0.6200596E+07  0.9118800E+02  0.7818608E-02  0.1180000E+00
       11   -1    0    0    0    0  0.00000000000E+00  0.00000000000E+00  0.39999999673E+01  0.40000000000E+01  0.51109989000E-03 0.  1.
     -623   -1    0    0    0    0  0.00000000000E+00  0.00000000000E+00  0.12525980253E-10  0.17130000000E+03  0.17130000000E+03 0.  1.
       11    1    1    2    0    0 -0.44221049858E-03 -0.11677669239E-01  0.13876083244E+01  0.13876576259E+01  0.51109989000E-03 0.  1.
     -623    1    1    2    0    0  0.12703522181E-01  0.14278632945E-01  0.38666549379E-03  0.17130000107E+03  0.17130000000E+03 0.  1.
      622    1    1    2    0    0 -0.12261311683E-01 -0.26009637055E-02  0.26120049775E+01  0.26123413076E+01  0.40000000000E-01 0.  1.
</event>
<event>
 5   0  0.6200596E+07  0.9118800E+02  0.7818608E-02  0.1180000E+00
       11   -1    0    0    0    0  0.00000000000E+00  0.00000000000E+00  0.39999999673E+01  0.40000000000E+01  0.51109989000E-03 0. -1.
     -623   -1    0    0    0    0  0.00000000000E+00  0.00000000000E+00  0.12525980253E-10  0.17130000000E+03  0.17130000000E+03 0. -1.
       11    1    1    2    0    0 -0.20859914296E-02  0.96537333611E-02  0.45607065749E+00  0.45617787295E+00  0.51109989000E-03 0. -1.
     -623    1    1    2    0    0 -0.25072696780E-03 -0.12126333689E-02  0.34376390895E-03  0.17130000000E+03  0.17130000000E+03 0. -1.
      622    1    1    2    0    0  0.23367183973E-02 -0.84410999922E-02  0.35435855460E+01  0.35438221222E+01  0.40000000000E-01 0. -1.
</event>
<event>
 5   0  0.6200596E+07  0.9118800E+02  0.7818608E-02  0.1180000E+00
       11   -1    0    0    0    0  0.00000000000E+00  0.00000000000E+00  0.39999999673E+01  0.40000000000E+01  0.51109989000E-03 0.  1.
     -623   -1    0    0    0    0  0.00000000000E+00  0.00000000000E+00  0.12525980253E-10  0.17130000000E+03  0.17130000000E+03 0.  1.
       11    1    1    2    0    0  0.10586795138E-01  0.78736933823E-03  0.10011090541E+00  0.10067350587E+00  0.51109989000E-03 0.  1.
     -623    1    1    2    0    0 -0.59051525097E-02 -0.63236340141E-02  0.77469813710E-03  0.17130000022E+03  0.17130000000E+03 0.  1.
      622    1    1    2    0    0 -0.46816426287E-02  0.55362646759E-02  0.38991143638E+01  0.38993262739E+01  0.40000000000E-01 0.  1.
</event>
<event>
 5   0  0.6200596E+07  0.9118800E+02  0.7818608E-02  0.1180000E+00
       11   -1    0    0    0    0  0.00000000000E+00  0.00000000000E+00  0.39999999673E+01  0.40000000000E+01  0.51109989000E-03 0. -1.
     -623   -1    0    0    0    0  0.00000000000E+00  0.00000000000E+00  0.12525980253E-10  0.17130000000E+03  0.17130000000E+03 0.  1.
       11    1    1    2    0    0  0.19886135156E-02  0.44384236473E-02  0.23590657840E-01  0.24092209232E-01  0.51109989000E-03 0. -1.
     -623    1    1    2    0    0  0.13336252518E-02 -0.15650849798E-02  0.70517595190E-03  0.17130000001E+03  0.17130000000E+03 0.  1.
      622    1    1    2    0    0 -0.33222387674E-02 -0.28733386675E-02  0.39757041336E+01  0.39759077770E+01  0.40000000000E-01 0. -1.
</event>
<event>
 5   0  0.6200596E+07  0.9118800E+02  0.7818608E-02  0.1180000E+00
       11   -1    0    0    0    0  0.00000000000E+00  0.00000000000E+00  0.39999999673E+01  0.40000000000E+01  0.51109989000E-03 0. -1.
     -623   -1    0    0    0    0  0.00000000000E+00  0.00000000000E+00  0.12525980253E-10  0.17130000000E+03  0.17130000000E+03 0.  1.
       11    1    1    2    0    0 -0.13163353002E-02 -0.22545633504E-02  0.16487835712E-01  0.16701070081E-01  0.51109989000E-03 0. -1.
     -623    1    1    2    0    0  0.31652761093E-02  0.25258353795E-02  0.41453209054E-03  0.17130000005E+03  0.17130000000E+03 0.  1.
      622    1    1    2    0    0 -0.18489408090E-02 -0.27127202910E-03  0.39830975996E+01  0.39832988816E+01  0.40000000000E-01 0. -1.
</event>
<event>
 5   0  0.6200596E+07  0.9118800E+02  0.7818608E-02  0.1180000E+00
       11   -1    0    0    0    0  0.00000000000E+00  0.00000000000E+00  0.39999999673E+01  0.40000000000E+01  0.51109989000E-03 0.  1.
     -623   -1    0    0    0    0  0.00000000000E+00  0.00000000000E+00  0.12525980253E-10  0.17130000000E+03  0.17130000000E+03 0.  1.
       11    1    1    2    0    0 -0.11791254449E-01 -0.20579236922E-01  0.72569628037E+00  0.72608394228E+00  0.51109989000E-03 0.  1.
     -623    1    1    2    0    0  0.13093290257E-01 -0.48569845113E-02  0.73164428816E-03  0.17130000057E+03  0.17130000000E+03 0.  1.
      622    1    1    2    0    0 -0.13020358080E-02  0.25436221433E-01  0.32735720427E+01  0.32739154869E+01  0.40000000000E-01 0.  1.
</event>
<event>
 5   0  0.6200596E+07  0.9118800E+02  0.7818608E-02  0.1180000E+00
       11   -1    0    0    0    0  0.00000000000E+00  0.00000000000E+00  0.39999999673E+01  0.40000000000E+01  0.51109989000E-03 0.  1.
     -623   -1    0    0    0    0  0.00000000000E+00  0.00000000000E+00  0.12525980253E-10  0.17130000000E+03  0.17130000000E+03 0. -1.
       11    1    1    2    0    0 -0.14344835882E-01  0.12557652553E-02  0.99161589392E+00  0.99172057232E+00  0.51109989000E-03 0.  1.
     -623    1    1    2    0    0  0.63868349485E-02  0.98482801390E-02  0.40201515717E-03  0.17130000040E+03  0.17130000000E+03 0. -1.
      622    1    1    2    0    0  0.79580009335E-02 -0.11104045394E-01  0.30079820583E+01  0.30082790250E+01  0.40000000000E-01 0.  1.
</event>
<event>
 5   0  0.6200596E+07  0.9118800E+02  0.7818608E-02  0.1180000E+00
       11   -1    0    0    0    0  0.00000000000E+00  0.00000000000E+00  0.39999999673E+01  0.40000000000E+01  0.51109989000E-03 0.  1.
     -623   -1    0    0    0    0  0.00000000000E+00  0.00000000000E+00  0.12525980253E-10  0.17130000000E+03  0.17130000000E+03 0. -1.
       11    1    1    2    0    0 -0.47770605456E-01  0.72760690012E-03  0.13204961346E+01  0.13213602320E+01  0.51109989000E-03 0.  1.
     -623    1    1    2    0    0 -0.71506235075E-02  0.68132373426E-02  0.17368100217E-02  0.17130000029E+03  0.17130000000E+03 0. -1.
      622    1    1    2    0    0  0.54921228963E-01 -0.75408442427E-02  0.26777670228E+01  0.26786394744E+01  0.40000000000E-01 0.  1.
</event>
<event>
 5   0  0.6200596E+07  0.9118800E+02  0.7818608E-02  0.1180000E+00
       11   -1    0    0    0    0  0.00000000000E+00  0.00000000000E+00  0.39999999673E+01  0.40000000000E+01  0.51109989000E-03 0. -1.
     -623   -1    0    0    0    0  0.00000000000E+00  0.00000000000E+00  0.12525980253E-10  0.17130000000E+03  0.17130000000E+03 0. -1.
       11    1    1    2    0    0  0.82077010278E-03 -0.51034893789E-02  0.14825040863E+01  0.14825131859E+01  0.51109989000E-03 0. -1.
     -623    1    1    2    0    0  0.12824567973E-02 -0.65290525786E-03  0.33433133400E-03  0.17130000001E+03  0.17130000000E+03 0. -1.
      622    1    1    2    0    0 -0.21032269000E-02  0.57563946367E-02  0.25171615497E+01  0.25174868077E+01  0.40000000000E-01 0. -1.
</event>
<event>
 5   0  0.6200596E+07  0.9118800E+02  0.7818608E-02  0.1180000E+00
       11   -1    0    0    0    0  0.00000000000E+00  0.00000000000E+00  0.39999999673E+01  0.40000000000E+01  0.51109989000E-03 0. -1.
     -623   -1    0    0    0    0  0.00000000000E+00  0.00000000000E+00  0.12525980253E-10  0.17130000000E+03  0.17130000000E+03 0. -1.
       11    1    1    2    0    0  0.13978230958E-01 -0.13676865249E-01  0.11117963231E+00  0.11288764081E+00  0.51109989000E-03 0.  1.
     -623    1    1    2    0    0 -0.12798976389E-01  0.56986087312E-02  0.19227403359E-02  0.17130000058E+03  0.17130000000E+03 0. -1.
      622    1    1    2    0    0 -0.11792545697E-02  0.79782565180E-02  0.38868975947E+01  0.38871117755E+01  0.40000000000E-01 0. -1.
</event>
<event>
 5   0  0.6200596E+07  0.9118800E+02  0.7818608E-02  0.1180000E+00
       11   -1    0    0    0    0  0.00000000000E+00  0.00000000000E+00  0.39999999673E+01  0.40000000000E+01  0.51109989000E-03 0. -1.
     -623   -1    0    0    0    0  0.00000000000E+00  0.00000000000E+00  0.12525980253E-10  0.17130000000E+03  0.17130000000E+03 0. -1.
       11    1    1    2    0    0 -0.15061538543E-02 -0.98890295517E-04  0.37582278200E-01  0.37616048882E-01  0.51109989000E-03 0. -1.
     -623    1    1    2    0    0 -0.63515298047E-03  0.83106701045E-03  0.23629146925E-03  0.17130000000E+03  0.17130000000E+03 0. -1.
      622    1    1    2    0    0  0.21413068347E-02 -0.73217671493E-03  0.39621813977E+01  0.39623839478E+01  0.40000000000E-01 0. -1.
</event>
<event>
 5   0  0.6200596E+07  0.9118800E+02  0.7818608E-02  0.1180000E+00
       11   -1    0    0    0    0  0.00000000000E+00  0.00000000000E+00  0.39999999673E+01  0.40000000000E+01  0.51109989000E-03 0.  1.
     -623   -1    0    0    0    0  0.00000000000E+00  0.00000000000E+00  0.12525980253E-10  0.17130000000E+03  0.17130000000E+03 0. -1.
       11    1    1    2    0    0 -0.79101812670E-02  0.10798747253E-02  0.65500472509E-01  0.65987197377E-01  0.51109989000E-03 0.  1.
     -623    1    1    2    0    0  0.89509486607E-02 -0.82211670076E-03  0.69043554215E-03  0.17130000024E+03  0.17130000000E+03 0. -1.
      622    1    1    2    0    0 -0.10407673936E-02 -0.25775802451E-03  0.39338090593E+01  0.39340125654E+01  0.40000000000E-01 0.  1.
</event>
<event>
 5   0  0.6200596E+07  0.9118800E+02  0.7818608E-02  0.1180000E+00
       11   -1    0    0    0    0  0.00000000000E+00  0.00000000000E+00  0.39999999673E+01  0.40000000000E+01  0.51109989000E-03 0.  1.
     -623   -1    0    0    0    0  0.00000000000E+00  0.00000000000E+00  0.12525980253E-10  0.17130000000E+03  0.17130000000E+03 0.  1.
       11    1    1    2    0    0  0.52933118634E-02 -0.86244865096E-03  0.42864755503E-01  0.43201984366E-01  0.51109989000E-03 0.  1.
     -623    1    1    2    0    0 -0.22020861285E-02 -0.32568880978E-02  0.54278300053E-03  0.17130000005E+03  0.17130000000E+03 0.  1.
      622    1    1    2    0    0 -0.30912257349E-02  0.41193367488E-02  0.39565924289E+01  0.39567979697E+01  0.40000000000E-01 0.  1.
</event>
<event>
 5   0  0.6200596E+07  0.9118800E+02  0.7818608E-02  0.1180000E+00
       11   -1    0    0    0    0  0.00000000000E+00  0.00000000000E+00  0.39999999673E+01  0.40000000000E+01  0.51109989000E-03 0.  1.
     -623   -1    0    0    0    0  0.00000000000E+00  0.00000000000E+00  0.12525980253E-10  0.17130000000E+03  0.17130000000E+03 0. -1.
       11    1    1    2    0    0 -0.23920784060E-02 -0.68190150533E-03  0.96421282912E-02  0.99709021049E-02  0.51109989000E-03 0.  1.
     -623    1    1    2    0    0 -0.23090279932E-03 -0.14033084106E-02  0.53065982283E-03  0.17130000001E+03  0.17130000000E+03 0. -1.
      622    1    1    2    0    0  0.26229812053E-02  0.20852099159E-02  0.39898271792E+01  0.39900290912E+01  0.40000000000E-01 0.  1.
</event>
<event>
 5   0  0.6200596E+07  0.9118800E+02  0.7818608E-02  0.1180000E+00
       11   -1    0    0    0    0  0.00000000000E+00  0.00000000000E+00  0.39999999673E+01  0.40000000000E+01  0.51109989000E-03 0.  1.
     -623   -1    0    0    0    0  0.00000000000E+00  0.00000000000E+00  0.12525980253E-10  0.17130000000E+03  0.17130000000E+03 0.  1.
       11    1    1    2    0    0 -0.29179925429E-02  0.12777424816E-02  0.11867078216E-01  0.12297807682E-01  0.51109989000E-03 0.  1.
     -623    1    1    2    0    0  0.39306575558E-02 -0.14749276602E-02  0.63150473513E-03  0.17130000005E+03  0.17130000000E+03 0.  1.
      622    1    1    2    0    0 -0.10126650129E-02  0.19718517868E-03  0.39875013844E+01  0.39877021397E+01  0.40000000000E-01 0.  1.
</event>
<event>
 5   0  0.6200596E+07  0.9118800E+02  0.7818608E-02  0.1180000E+00
       11   -1    0    0    0    0  0.00000000000E+00  0.00000000000E+00  0.39999999673E+01  0.40000000000E+01  0.51109989000E-03 0.  1.
     -623   -1    0    0    0    0  0.00000000000E+00  0.00000000000E+00  0.12525980253E-10  0.17130000000E+03  0.17130000000E+03 0.  1.
       11    1    1    2    0    0 -0.84949928649E-03 -0.11932900342E-02  0.21664610314E-02  0.26646510393E-02  0.51109989000E-03 0.  1.
     -623    1    1    2    0    0  0.17455057491E-02  0.37063571544E-03  0.69849149913E-03  0.17130000001E+03  0.17130000000E+03 0.  1.
      622    1    1    2    0    0 -0.89600646262E-03  0.82265431877E-03  0.39971350148E+01  0.39973353382E+01  0.40000000000E-01 0.  1.
</event>
<event>
 5   0  0.6200596E+07  0.9118800E+02  0.7818608E-02  0.1180000E+00
       11   -1    0    0    0    0  0.00000000000E+00  0.00000000000E+00  0.39999999673E+01  0.40000000000E+01  0.51109989000E-03 0. -1.
     -623   -1    0    0    0    0  0.00000000000E+00  0.00000000000E+00  0.12525980253E-10  0.17130000000E+03  0.17130000000E+03 0. -1.
       11    1    1    2    0    0  0.47213967643E-02  0.39464660387E-02  0.51790834662E-01  0.52157626086E-01  0.51109989000E-03 0. -1.
     -623    1    1    2    0    0 -0.30862869050E-02 -0.80780742373E-02  0.57212626739E-03  0.17130000022E+03  0.17130000000E+03 0. -1.
      622    1    1    2    0    0 -0.16351098593E-02  0.41316081985E-02  0.39476370064E+01  0.39478421547E+01  0.40000000000E-01 0. -1.
</event>
<event>
 5   0  0.6200596E+07  0.9118800E+02  0.7818608E-02  0.1180000E+00
       11   -1    0    0    0    0  0.00000000000E+00  0.00000000000E+00  0.39999999673E+01  0.40000000000E+01  0.51109989000E-03 0. -1.
     -623   -1    0    0    0    0  0.00000000000E+00  0.00000000000E+00  0.12525980253E-10  0.17130000000E+03  0.17130000000E+03 0. -1.
       11    1    1    2    0    0 -0.60191230530E-02  0.32189249235E-03 -0.58077825116E-03  0.60771688646E-02  0.51109989000E-03 0. -1.
     -623    1    1    2    0    0  0.87826090812E-02 -0.96981571980E-03  0.68595977365E-02  0.17130000037E+03  0.17130000000E+03 0. -1.
      622    1    1    2    0    0 -0.27634860282E-02  0.64792322745E-03  0.39937211479E+01  0.39939224659E+01  0.40000000000E-01 0. -1.
</event>
<event>
 5   0  0.6200596E+07  0.9118800E+02  0.7818608E-02  0.1180000E+00
       11   -1    0    0    0    0  0.00000000000E+00  0.00000000000E+00  0.39999999673E+01  0.40000000000E+01  0.51109989000E-03 0.  1.
     -623   -1    0    0    0    0  0.00000000000E+00  0.00000000000E+00  0.12525980253E-10  0.17130000000E+03  0.17130000000E+03 0.  1.
       11    1    1    2    0    0  0.14137043463E-01  0.10911114981E-01  0.30016886903E+01  0.30017418548E+01  0.51109989000E-03 0.  1.
     -623    1    1    2    0    0 -0.11522192142E-02 -0.50442603920E-04  0.99851220492E-03  0.17130000001E+03  0.17130000000E+03 0.  1.
      622    1    1    2    0    0 -0.12984824249E-01 -0.10860672377E-01  0.99731276485E+00  0.99825813836E+00  0.40000000000E-01 0.  1.
</event>
<event>
 5   0  0.6200596E+07  0.9118800E+02  0.7818608E-02  0.1180000E+00
       11   -1    0    0    0    0  0.00000000000E+00  0.00000000000E+00  0.39999999673E+01  0.40000000000E+01  0.51109989000E-03 0.  1.
     -623   -1    0    0    0    0  0.00000000000E+00  0.00000000000E+00  0.12525980253E-10  0.17130000000E+03  0.17130000000E+03 0. -1.
       11    1    1    2    0    0  0.18837167323E-01 -0.32528304640E-02  0.58829417862E+00  0.58860489430E+00  0.51109989000E-03 0.  1.
     -623    1    1    2    0    0  0.10979464581E-03  0.73147218469E-03  0.59875369796E-03  0.17130000000E+03  0.17130000000E+03 0. -1.
      622    1    1    2    0    0 -0.18946961968E-01  0.25213582794E-02  0.34111070350E+01  0.34113951031E+01  0.40000000000E-01 0.  1.
</event>
<event>
 5   0  0.6200596E+07  0.9118800E+02  0.7818608E-02  0.1180000E+00
       11   -1    0    0    0    0  0.00000000000E+00  0.00000000000E+00  0.39999999673E+01  0.40000000000E+01  0.51109989000E-03 0.  1.
     -623   -1    0    0    0    0  0.00000000000E+00  0.00000000000E+00  0.12525980253E-10  0.17130000000E+03  0.17130000000E+03 0. -1.
       11    1    1    2    0    0  0.10995229951E-01 -0.85801023802E-02  0.23110960121E+01  0.23111381507E+01  0.51109989000E-03 0.  1.
     -623    1    1    2    0    0 -0.18509124307E-02  0.12985050323E-04  0.56237397513E-03  0.17130000001E+03  0.17130000000E+03 0. -1.
      622    1    1    2    0    0 -0.91443175201E-02  0.85671173299E-02  0.16883415813E+01  0.16888618383E+01  0.40000000000E-01 0.  0.
</event>
<event>
 5   0  0.6200596E+07  0.9118800E+02  0.7818608E-02  0.1180000E+00
       11   -1    0    0    0    0  0.00000000000E+00  0.00000000000E+00  0.39999999673E+01  0.40000000000E+01  0.51109989000E-03 0. -1.
     -623   -1    0    0    0    0  0.00000000000E+00  0.00000000000E+00  0.12525980253E-10  0.17130000000E+03  0.17130000000E+03 0.  1.
       11    1    1    2    0    0 -0.70286064606E-02  0.10738234304E-02  0.11548938787E+01  0.11549158787E+01  0.51109989000E-03 0. -1.
     -623    1    1    2    0    0  0.59614032318E-04  0.19014866955E-03  0.31198521763E-03  0.17130000000E+03  0.17130000000E+03 0.  1.
      622    1    1    2    0    0  0.69689924283E-02 -0.12639720999E-02  0.28447941034E+01  0.28450841209E+01  0.40000000000E-01 0.  1.
</event>
<event>
 5   0  0.6200596E+07  0.9118800E+02  0.7818608E-02  0.1180000E+00
       11   -1    0    0    0    0  0.00000000000E+00  0.00000000000E+00  0.39999999673E+01  0.40000000000E+01  0.51109989000E-03 0. -1.
     -623   -1    0    0    0    0  0.00000000000E+00  0.00000000000E+00  0.12525980253E-10  0.17130000000E+03  0.17130000000E+03 0. -1.
       11    1    1    2    0    0 -0.55788642858E-02  0.45976731220E-02  0.57302575297E-01  0.57759057150E-01  0.51109989000E-03 0. -1.
     -623    1    1    2    0    0  0.69139581957E-02  0.10781204935E-02  0.66384104267E-03  0.17130000014E+03  0.17130000000E+03 0. -1.
      622    1    1    2    0    0 -0.13350939099E-02 -0.56757936156E-02  0.39420335510E+01  0.39422407986E+01  0.40000000000E-01 0. -1.
</event>
<event>
 5   0  0.6200596E+07  0.9118800E+02  0.7818608E-02  0.1180000E+00
       11   -1    0    0    0    0  0.00000000000E+00  0.00000000000E+00  0.39999999673E+01  0.40000000000E+01  0.51109989000E-03 0.  1.
     -623   -1    0    0    0    0  0.00000000000E+00  0.00000000000E+00  0.12525980253E-10  0.17130000000E+03  0.17130000000E+03 0. -1.
       11    1    1    2    0    0  0.44429274779E-01  0.12309244941E-01  0.16640052995E+01  0.16646439187E+01  0.51109989000E-03 0.  1.
     -623    1    1    2    0    0 -0.41547297470E-01 -0.37561734015E-02  0.10036986005E-02  0.17130000508E+03  0.17130000000E+03 0. -1.
      622    1    1    2    0    0 -0.28819773090E-02 -0.85530715398E-02  0.23349909692E+01  0.23353509987E+01  0.40000000000E-01 0.  0.
</event>
<event>
 5   0  0.6200596E+07  0.9118800E+02  0.7818608E-02  0.1180000E+00
       11   -1    0    0    0    0  0.00000000000E+00  0.00000000000E+00  0.39999999673E+01  0.40000000000E+01  0.51109989000E-03 0.  1.
     -623   -1    0    0    0    0  0.00000000000E+00  0.00000000000E+00  0.12525980253E-10  0.17130000000E+03  0.17130000000E+03 0.  1.
       11    1    1    2    0    0 -0.27104754397E-03  0.69886351158E-02  0.28815042089E+00  0.28823573819E+00  0.51109989000E-03 0.  1.
     -623    1    1    2    0    0  0.90030008299E-02 -0.10039481802E-01  0.31287842789E-03  0.17130000053E+03  0.17130000000E+03 0.  1.
      622    1    1    2    0    0 -0.87319532860E-02  0.30508466864E-02  0.37115366680E+01  0.37117637307E+01  0.40000000000E-01 0.  1.
</event>
<event>
 5   0  0.6200596E+07  0.9118800E+02  0.7818608E-02  0.1180000E+00
       11   -1    0    0    0    0  0.00000000000E+00  0.00000000000E+00  0.39999999673E+01  0.40000000000E+01  0.51109989000E-03 0.  1.
     -623   -1    0    0    0    0  0.00000000000E+00  0.00000000000E+00  0.12525980253E-10  0.17130000000E+03  0.17130000000E+03 0.  1.
       11    1    1    2    0    0 -0.28921706259E-02 -0.26358606029E-03  0.11145412953E-01  0.11528901988E-01  0.51109989000E-03 0.  1.
     -623    1    1    2    0    0  0.81630853102E-02 -0.35615181668E-02  0.58958944280E-03  0.17130000023E+03  0.17130000000E+03 0.  1.
      622    1    1    2    0    0 -0.52709146843E-02  0.38251042271E-02  0.39882649650E+01  0.39884708655E+01  0.40000000000E-01 0.  1.
</event>
<event>
 5   0  0.6200596E+07  0.9118800E+02  0.7818608E-02  0.1180000E+00
       11   -1    0    0    0    0  0.00000000000E+00  0.00000000000E+00  0.39999999673E+01  0.40000000000E+01  0.51109989000E-03 0. -1.
     -623   -1    0    0    0    0  0.00000000000E+00  0.00000000000E+00  0.12525980253E-10  0.17130000000E+03  0.17130000000E+03 0. -1.
       11    1    1    2    0    0 -0.13252495647E-01 -0.31781237579E-01  0.70611757262E+00  0.70695683269E+00  0.51109989000E-03 0. -1.
     -623    1    1    2    0    0  0.34201582983E-01  0.15998589077E-01  0.11908041423E-02  0.17130000417E+03  0.17130000000E+03 0. -1.
      622    1    1    2    0    0 -0.20949087336E-01  0.15782648502E-01  0.32926915906E+01  0.32930390017E+01  0.40000000000E-01 0. -1.
</event>
<event>
 5   0  0.6200596E+07  0.9118800E+02  0.7818608E-02  0.1180000E+00
       11   -1    0    0    0    0  0.00000000000E+00  0.00000000000E+00  0.39999999673E+01  0.40000000000E+01  0.51109989000E-03 0. -1.
     -623   -1    0    0    0    0  0.00000000000E+00  0.00000000000E+00  0.12525980253E-10  0.17130000000E+03  0.17130000000E+03 0.  1.
       11    1    1    2    0    0  0.98747520438E-02 -0.11965990195E-01  0.39271554321E+00  0.39302220643E+00  0.51109989000E-03 0. -1.
     -623    1    1    2    0    0  0.22769693241E-02 -0.18672597600E-03  0.56939053227E-03  0.17130000002E+03  0.17130000000E+03 0.  1.
      622    1    1    2    0    0 -0.12151721368E-01  0.12152716171E-01  0.36067150336E+01  0.36069777774E+01  0.40000000000E-01 0. -1.
</event>
<event>
 5   0  0.6200596E+07  0.9118800E+02  0.7818608E-02  0.1180000E+00
       11   -1    0    0    0    0  0.00000000000E+00  0.00000000000E+00  0.39999999673E+01  0.40000000000E+01  0.51109989000E-03 0. -1.
     -623   -1    0    0    0    0  0.00000000000E+00  0.00000000000E+00  0.12525980253E-10  0.17130000000E+03  0.17130000000E+03 0. -1.
       11    1    1    2    0    0 -0.11216708390E-01  0.12521206326E-01  0.41206616791E+00  0.41240924227E+00  0.51109989000E-03 0. -1.
     -623    1    1    2    0    0 -0.49496835503E-02 -0.10779811582E-01  0.60330090142E-03  0.17130000041E+03  0.17130000000E+03 0. -1.
      622    1    1    2    0    0  0.16166391940E-01 -0.17413947446E-02  0.35873304985E+01  0.35875903460E+01  0.40000000000E-01 0. -1.
</event>
<event>
 5   0  0.6200596E+07  0.9118800E+02  0.7818608E-02  0.1180000E+00
       11   -1    0    0    0    0  0.00000000000E+00  0.00000000000E+00  0.39999999673E+01  0.40000000000E+01  0.51109989000E-03 0. -1.
     -623   -1    0    0    0    0  0.00000000000E+00  0.00000000000E+00  0.12525980253E-10  0.17130000000E+03  0.17130000000E+03 0. -1.
       11    1    1    2    0    0  0.99429314639E-03  0.24102015071E-02  0.19936595160E+00  0.19938365422E+00  0.51109989000E-03 0. -1.
     -623    1    1    2    0    0  0.16032375796E-02 -0.56670449892E-02  0.23055258855E-03  0.17130000010E+03  0.17130000000E+03 0. -1.
      622    1    1    2    0    0 -0.25975307259E-02  0.32568434821E-02  0.38004034632E+01  0.38006162444E+01  0.40000000000E-01 0. -1.
</event>
<event>
 5   0  0.6200596E+07  0.9118800E+02  0.7818608E-02  0.1180000E+00
       11   -1    0    0    0    0  0.00000000000E+00  0.00000000000E+00  0.39999999673E+01  0.40000000000E+01  0.51109989000E-03 0.  1.
     -623   -1    0    0    0    0  0.00000000000E+00  0.00000000000E+00  0.12525980253E-10  0.17130000000E+03  0.17130000000E+03 0. -1.
       11    1    1    2    0    0 -0.23380349836E-01  0.55684440674E-02  0.18415129516E+01  0.18416698566E+01  0.51109989000E-03 0.  1.
     -623    1    1    2    0    0 -0.14535350828E-02 -0.46835260084E-02  0.67071342716E-03  0.17130000007E+03  0.17130000000E+03 0. -1.
      622    1    1    2    0    0  0.24833884919E-01 -0.88491805905E-03  0.21578163023E+01  0.21583300719E+01  0.40000000000E-01 0.  1.
</event>
<event>
 5   0  0.6200596E+07  0.9118800E+02  0.7818608E-02  0.1180000E+00
       11   -1    0    0    0    0  0.00000000000E+00  0.00000000000E+00  0.39999999673E+01  0.40000000000E+01  0.51109989000E-03 0.  1.
     -623   -1    0    0    0    0  0.00000000000E+00  0.00000000000E+00  0.12525980253E-10  0.17130000000E+03  0.17130000000E+03 0. -1.
       11    1    1    2    0    0  0.36441203465E-02  0.16010092578E-02  0.29181058474E+00  0.29183817679E+00  0.51109989000E-03 0.  1.
     -623    1    1    2    0    0 -0.37118637349E-02  0.10117451948E-02  0.24427052294E-03  0.17130000004E+03  0.17130000000E+03 0. -1.
      622    1    1    2    0    0  0.67743388418E-04 -0.26127544526E-02  0.37079451121E+01  0.37081617798E+01  0.40000000000E-01 0.  1.
</event>
<event>
 5   0  0.6200596E+07  0.9118800E+02  0.7818608E-02  0.1180000E+00
       11   -1    0    0    0    0  0.00000000000E+00  0.00000000000E+00  0.39999999673E+01  0.40000000000E+01  0.51109989000E-03 0. -1.
     -623   -1    0    0    0    0  0.00000000000E+00  0.00000000000E+00  0.12525980253E-10  0.17130000000E+03  0.17130000000E+03 0.  1.
       11    1    1    2    0    0 -0.67087262722E-03  0.26146145957E-02  0.31578196836E+00  0.31579391863E+00  0.51109989000E-03 0. -1.
     -623    1    1    2    0    0 -0.64915501497E-03 -0.23928512423E-02  0.22932841175E-03  0.17130000002E+03  0.17130000000E+03 0.  1.
      622    1    1    2    0    0  0.13200276422E-02 -0.22176335335E-03  0.36839886706E+01  0.36842060633E+01  0.40000000000E-01 0. -1.
</event>
<event>
 5   0  0.6200596E+07  0.9118800E+02  0.7818608E-02  0.1180000E+00
       11   -1    0    0    0    0  0.00000000000E+00  0.00000000000E+00  0.39999999673E+01  0.40000000000E+01  0.51109989000E-03 0. -1.
     -623   -1    0    0    0    0  0.00000000000E+00  0.00000000000E+00  0.12525980253E-10  0.17130000000E+03  0.17130000000E+03 0.  1.
       11    1    1    2    0    0 -0.45229439464E-02 -0.62551172902E-03  0.35713334510E-01  0.36007662663E-01  0.51109989000E-03 0. -1.
     -623    1    1    2    0    0 -0.19077259865E-02 -0.47000200109E-02  0.50498720369E-03  0.17130000008E+03  0.17130000000E+03 0.  1.
      622    1    1    2    0    0  0.64306699329E-02  0.53255317399E-02  0.39637816456E+01  0.39639922615E+01  0.40000000000E-01 0. -1.
</event>
<event>
 5   0  0.6200596E+07  0.9118800E+02  0.7818608E-02  0.1180000E+00
       11   -1    0    0    0    0  0.00000000000E+00  0.00000000000E+00  0.39999999673E+01  0.40000000000E+01  0.51109989000E-03 0.  1.
     -623   -1    0    0    0    0  0.00000000000E+00  0.00000000000E+00  0.12525980253E-10  0.17130000000E+03  0.17130000000E+03 0. -1.
       11    1    1    2    0    0  0.30520447853E-02  0.97704998354E-04  0.44899582518E-01  0.45006202412E-01  0.51109989000E-03 0.  1.
     -623    1    1    2    0    0 -0.49502857845E-03 -0.26238231257E-03  0.30969960348E-03  0.17130000000E+03  0.17130000000E+03 0. -1.
      622    1    1    2    0    0 -0.25570162068E-02  0.16467731421E-03  0.39547906852E+01  0.39549937964E+01  0.40000000000E-01 0.  1.
</event>
<event>
 5   0  0.6200596E+07  0.9118800E+02  0.7818608E-02  0.1180000E+00
       11   -1    0    0    0    0  0.00000000000E+00  0.00000000000E+00  0.39999999673E+01  0.40000000000E+01  0.51109989000E-03 0.  1.
     -623   -1    0    0    0    0  0.00000000000E+00  0.00000000000E+00  0.12525980253E-10  0.17130000000E+03  0.17130000000E+03 0.  1.
       11    1    1    2    0    0  0.15469437779E-01  0.78840109226E-02  0.22165603910E+01  0.22166284509E+01  0.51109989000E-03 0.  1.
     -623    1    1    2    0    0 -0.63594423075E-02 -0.14289577013E-01  0.55216856976E-03  0.17130000071E+03  0.17130000000E+03 0.  1.
      622    1    1    2    0    0 -0.91099954716E-02  0.64055660902E-02  0.17828874078E+01  0.17833708342E+01  0.40000000000E-01 0.  1.
</event>
<event>
 5   0  0.6200596E+07  0.9118800E+02  0.7818608E-02  0.1180000E+00
       11   -1    0    0    0    0  0.00000000000E+00  0.00000000000E+00  0.39999999673E+01  0.40000000000E+01  0.51109989000E-03 0. -1.
     -623   -1    0    0    0    0  0.00000000000E+00  0.00000000000E+00  0.12525980253E-10  0.17130000000E+03  0.17130000000E+03 0. -1.
       11    1    1    2    0    0  0.90820759886E-03  0.48587673340E-03  0.19886889309E+00  0.19887221721E+00  0.51109989000E-03 0. -1.
     -623    1    1    2    0    0 -0.16732076973E-02  0.12966772373E-02  0.21426935046E-03  0.17130000001E+03  0.17130000000E+03 0. -1.
      622    1    1    2    0    0  0.76500009845E-03 -0.17825539707E-02  0.38009168049E+01  0.38011277696E+01  0.40000000000E-01 0. -1.
</event>
<event>
 5   0  0.6200596E+07  0.9118800E+02  0.7818608E-02  0.1180000E+00
       11   -1    0    0    0    0  0.00000000000E+00  0.00000000000E+00  0.39999999673E+01  0.40000000000E+01  0.51109989000E-03 0. -1.
     -623   -1    0    0    0    0  0.00000000000E+00  0.00000000000E+00  0.12525980253E-10  0.17130000000E+03  0.17130000000E+03 0.  1.
       11    1    1    2    0    0 -0.34416566726E-02 -0.46522216749E-02  0.11886957229E+00  0.11901144737E+00  0.51109989000E-03 0. -1.
     -623    1    1    2    0    0 -0.32720330198E-03 -0.37715712304E-03  0.35307110904E-03  0.17130000000E+03  0.17130000000E+03 0.  1.
      622    1    1    2    0    0  0.37688599746E-02  0.50293787980E-02  0.38807773240E+01  0.38809885515E+01  0.40000000000E-01 0.  0.
</event>
<event>
 5   0  0.6200596E+07  0.9118800E+02  0.7818608E-02  0.1180000E+00
       11   -1    0    0    0    0  0.00000000000E+00  0.00000000000E+00  0.39999999673E+01  0.40000000000E+01  0.51109989000E-03 0. -1.
     -623   -1    0    0    0    0  0.00000000000E+00  0.00000000000E+00  0.12525980253E-10  0.17130000000E+03  0.17130000000E+03 0. -1.
       11    1    1    2    0    0  0.21203920196E-02  0.24627000567E-01  0.38100197343E+01  0.38100999492E+01  0.51109989000E-03 0. -1.
     -623    1    1    2    0    0 -0.13560763613E-01 -0.14030529551E-01  0.49980386627E-02  0.17130000118E+03  0.17130000000E+03 0. -1.
      622    1    1    2    0    0  0.11440371594E-01 -0.10596471016E-01  0.18498219435E+00  0.18989886658E+00  0.40000000000E-01 0. -1.
</event>
<event>
 5   0  0.6200596E+07  0.9118800E+02  0.7818608E-02  0.1180000E+00
       11   -1    0    0    0    0  0.00000000000E+00  0.00000000000E+00  0.39999999673E+01  0.40000000000E+01  0.51109989000E-03 0.  1.
     -623   -1    0    0    0    0  0.00000000000E+00  0.00000000000E+00  0.12525980253E-10  0.17130000000E+03  0.17130000000E+03 0. -1.
       11    1    1    2    0    0 -0.70824503388E-03  0.90176070569E-03  0.13991217083E-02  0.18797732425E-02  0.51109989000E-03 0.  1.
     -623    1    1    2    0    0 -0.32970707954E-03 -0.33318437857E-03  0.68089509805E-03  0.17130000000E+03  0.17130000000E+03 0. -1.
      622    1    1    2    0    0  0.10379521134E-02 -0.56857632712E-03  0.39979199506E+01  0.39981202248E+01  0.40000000000E-01 0.  1.
</event>
<event>
 5   0  0.6200596E+07  0.9118800E+02  0.7818608E-02  0.1180000E+00
       11   -1    0    0    0    0  0.00000000000E+00  0.00000000000E+00  0.39999999673E+01  0.40000000000E+01  0.51109989000E-03 0.  1.
     -623   -1    0    0    0    0  0.00000000000E+00  0.00000000000E+00  0.12525980253E-10  0.17130000000E+03  0.17130000000E+03 0. -1.
       11    1    1    2    0    0 -0.31726652924E-01 -0.42244707449E-01  0.13864718937E+00  0.14837284171E+00  0.51109989000E-03 0.  1.
     -623    1    1    2    0    0  0.11445625282E-01  0.66007863433E-02  0.10152482689E-01  0.17130000081E+03  0.17130000000E+03 0. -1.
      622    1    1    2    0    0  0.20281027642E-01  0.35643921106E-01  0.38512002953E+01  0.38516263479E+01  0.40000000000E-01 0.  1.
</event>
<event>
 5   0  0.6200596E+07  0.9118800E+02  0.7818608E-02  0.1180000E+00
       11   -1    0    0    0    0  0.00000000000E+00  0.00000000000E+00  0.39999999673E+01  0.40000000000E+01  0.51109989000E-03 0.  1.
     -623   -1    0    0    0    0  0.00000000000E+00  0.00000000000E+00  0.12525980253E-10  0.17130000000E+03  0.17130000000E+03 0.  1.
       11    1    1    2    0    0  0.70896706117E-02 -0.85487243103E-02  0.38505343359E+00  0.38521390429E+00  0.51109989000E-03 0.  1.
     -623    1    1    2    0    0  0.13645506102E-02  0.81562991971E-02  0.39186638166E-03  0.17130000020E+03  0.17130000000E+03 0.  1.
      622    1    1    2    0    0 -0.84542212219E-02  0.39242511317E-03  0.36145546674E+01  0.36147858956E+01  0.40000000000E-01 0.  1.
</event>
<event>
 5   0  0.6200596E+07  0.9118800E+02  0.7818608E-02  0.1180000E+00
       11   -1    0    0    0    0  0.00000000000E+00  0.00000000000E+00  0.39999999673E+01  0.40000000000E+01  0.51109989000E-03 0.  1.
     -623   -1    0    0    0    0  0.00000000000E+00  0.00000000000E+00  0.12525980253E-10  0.17130000000E+03  0.17130000000E+03 0.  1.
       11    1    1    2    0    0  0.32286301143E-02  0.11343324059E-02  0.37238455850E+00  0.37240063291E+00  0.51109989000E-03 0.  1.
     -623    1    1    2    0    0 -0.13665460710E-02 -0.17852765924E-03  0.23718957008E-03  0.17130000001E+03  0.17130000000E+03 0.  1.
      622    1    1    2    0    0 -0.18620840433E-02 -0.95580474666E-03  0.36273782193E+01  0.36275993614E+01  0.40000000000E-01 0.  1.
</event>
<event>
 5   0  0.6200596E+07  0.9118800E+02  0.7818608E-02  0.1180000E+00
       11   -1    0    0    0    0  0.00000000000E+00  0.00000000000E+00  0.39999999673E+01  0.40000000000E+01  0.51109989000E-03 0. -1.
     -623   -1    0    0    0    0  0.00000000000E+00  0.00000000000E+00  0.12525980253E-10  0.17130000000E+03  0.17130000000E+03 0. -1.
       11    1    1    2    0    0  0.83574274508E-01  0.75634274715E-01  0.94068811331E+00  0.94741732653E+00  0.51109989000E-03 0. -1.
     -623    1    1    2    0    0 -0.86443321351E-03 -0.98640994089E-02  0.88215310737E-02  0.17130000051E+03  0.17130000000E+03 0. -1.
      622    1    1    2    0    0 -0.82709841295E-01 -0.65770175307E-01  0.30504903230E+01  0.30525821601E+01  0.40000000000E-01 0. -1.
</event>
<event>
 5   0  0.6200596E+07  0.9118800E+02  0.7818608E-02  0.1180000E+00
       11   -1    0    0    0    0  0.00000000000E+00  0.00000000000E+00  0.39999999673E+01  0.40000000000E+01  0.51109989000E-03 0. -1.
     -623   -1    0    0    0    0  0.00000000000E+00  0.00000000000E+00  0.12525980253E-10  0.17130000000E+03  0.17130000000E+03 0.  1.
       11    1    1    2    0    0 -0.58002754098E-02  0.36943294282E-02  0.96275966438E-01  0.96522609779E-01  0.51109989000E-03 0. -1.
     -623    1    1    2    0    0 -0.11137462869E-02  0.25305280495E-02  0.46267168031E-03  0.17130000002E+03  0.17130000000E+03 0.  1.
      622    1    1    2    0    0  0.69140216967E-02 -0.62248574777E-02  0.39032613292E+01  0.39034773673E+01  0.40000000000E-01 0. -1.
</event>
<event>
 5   0  0.6200596E+07  0.9118800E+02  0.7818608E-02  0.1180000E+00
       11   -1    0    0    0    0  0.00000000000E+00  0.00000000000E+00  0.39999999673E+01  0.40000000000E+01  0.51109989000E-03 0.  1.
     -623   -1    0    0    0    0  0.00000000000E+00  0.00000000000E+00  0.12525980253E-10  0.17130000000E+03  0.17130000000E+03 0. -1.
       11    1    1    2    0    0 -0.93831309846E-02 -0.81834925248E-03  0.49456899219E+00  0.49465893513E+00  0.51109989000E-03 0.  1.
     -623    1    1    2    0    0 -0.54677111475E-04 -0.24180006456E-03  0.33100777289E-03  0.17130000000E+03  0.17130000000E+03 0. -1.
      622    1    1    2    0    0  0.94378080961E-02  0.10601493170E-02  0.35050999674E+01  0.35053410644E+01  0.40000000000E-01 0.  1.
</event>
<event>
 5   0  0.6200596E+07  0.9118800E+02  0.7818608E-02  0.1180000E+00
       11   -1    0    0    0    0  0.00000000000E+00  0.00000000000E+00  0.39999999673E+01  0.40000000000E+01  0.51109989000E-03 0.  1.
     -623   -1    0    0    0    0  0.00000000000E+00  0.00000000000E+00  0.12525980253E-10  0.17130000000E+03  0.17130000000E+03 0. -1.
       11    1    1    2    0    0 -0.60050355556E-02  0.48926423974E-02  0.10842804740E-01  0.13335142925E-01  0.51109989000E-03 0.  1.
     -623    1    1    2    0    0  0.14443674289E-02  0.73228314613E-02  0.27144881147E-02  0.17130000018E+03  0.17130000000E+03 0. -1.
      622    1    1    2    0    0  0.45606681267E-02 -0.12215473859E-01  0.39864426745E+01  0.39866646730E+01  0.40000000000E-01 0.  1.
</event>
<event>
 5   0  0.6200596E+07  0.9118800E+02  0.7818608E-02  0.1180000E+00
       11   -1    0    0    0    0  0.00000000000E+00  0.00000000000E+00  0.39999999673E+01  0.40000000000E+01  0.51109989000E-03 0.  1.
     -623   -1    0    0    0    0  0.00000000000E+00  0.00000000000E+00  0.12525980253E-10  0.17130000000E+03  0.17130000000E+03 0. -1.
       11    1    1    2    0    0 -0.17057069935E-01 -0.10714426542E-02  0.20894477290E+00  0.20964319919E+00  0.51109989000E-03 0. -1.
     -623    1    1    2    0    0  0.73888284688E-02  0.33312686554E-02  0.92266072119E-03  0.17130000019E+03  0.17130000000E+03 0. -1.
      622    1    1    2    0    0  0.96682414658E-02 -0.22598260012E-02  0.37901325337E+01  0.37903566066E+01  0.40000000000E-01 0.  1.
</event>
<event>
 5   0  0.6200596E+07  0.9118800E+02  0.7818608E-02  0.1180000E+00
       11   -1    0    0    0    0  0.00000000000E+00  0.00000000000E+00  0.39999999673E+01  0.40000000000E+01  0.51109989000E-03 0. -1.
     -623   -1    0    0    0    0  0.00000000000E+00  0.00000000000E+00  0.12525980253E-10  0.17130000000E+03  0.17130000000E+03 0.  1.
       11    1    1    2    0    0  0.72618929510E-03  0.13316511024E-02  0.40213973304E-02  0.43282216958E-02  0.51109989000E-03 0. -1.
     -623    1    1    2    0    0  0.24915704429E-03 -0.16054748959E-02  0.50715027371E-03  0.17130000001E+03  0.17130000000E+03 0.  1.
      622    1    1    2    0    0 -0.97534633939E-03  0.27382379356E-03  0.39954714198E+01  0.39956717698E+01  0.40000000000E-01 0. -1.
</event>
<event>
 5   0  0.6200596E+07  0.9118800E+02  0.7818608E-02  0.1180000E+00
       11   -1    0    0    0    0  0.00000000000E+00  0.00000000000E+00  0.39999999673E+01  0.40000000000E+01  0.51109989000E-03 0.  1.
     -623   -1    0    0    0    0  0.00000000000E+00  0.00000000000E+00  0.12525980253E-10  0.17130000000E+03  0.17130000000E+03 0.  1.
       11    1    1    2    0    0 -0.11419181642E-02 -0.23027980825E-02  0.40790125728E-02  0.48483421225E-02  0.51109989000E-03 0.  1.
     -623    1    1    2    0    0  0.32867782019E-02  0.20168953210E-02  0.97017680482E-03  0.17130000005E+03  0.17130000000E+03 0.  1.
      622    1    1    2    0    0 -0.21448600377E-02  0.28590276152E-03  0.39949507780E+01  0.39951516117E+01  0.40000000000E-01 0.  1.
</event>
<event>
 5   0  0.6200596E+07  0.9118800E+02  0.7818608E-02  0.1180000E+00
       11   -1    0    0    0    0  0.00000000000E+00  0.00000000000E+00  0.39999999673E+01  0.40000000000E+01  0.51109989000E-03 0. -1.
     -623   -1    0    0    0    0  0.00000000000E+00  0.00000000000E+00  0.12525980253E-10  0.17130000000E+03  0.17130000000E+03 0. -1.
       11    1    1    2    0    0 -0.10891550972E-01  0.15360646946E-03  0.95023037627E-01  0.95646685149E-01  0.51109989000E-03 0. -1.
     -623    1    1    2    0    0  0.18143396800E-03 -0.21103350024E-02  0.84371564918E-03  0.17130000002E+03  0.17130000000E+03 0. -1.
      622    1    1    2    0    0  0.10710117004E-01  0.19567285330E-02  0.39041332141E+01  0.39043532997E+01  0.40000000000E-01 0. -1.
</event>
<event>
 5   0  0.6200596E+07  0.9118800E+02  0.7818608E-02  0.1180000E+00
       11   -1    0    0    0    0  0.00000000000E+00  0.00000000000E+00  0.39999999673E+01  0.40000000000E+01  0.51109989000E-03 0.  1.
     -623   -1    0    0    0    0  0.00000000000E+00  0.00000000000E+00  0.12525980253E-10  0.17130000000E+03  0.17130000000E+03 0.  1.
       11    1    1    2    0    0  0.34246981857E-02 -0.80277871906E-02  0.34386567563E+00  0.34397679867E+00  0.51109989000E-03 0.  1.
     -623    1    1    2    0    0  0.44045778592E-02  0.41992442758E-03  0.34627118513E-03  0.17130000006E+03  0.17130000000E+03 0.  1.
      622    1    1    2    0    0 -0.78292760449E-02  0.76078627630E-02  0.36557880205E+01  0.36560231438E+01  0.40000000000E-01 0.  1.
</event>
<event>
 5   0  0.6200596E+07  0.9118800E+02  0.7818608E-02  0.1180000E+00
       11   -1    0    0    0    0  0.00000000000E+00  0.00000000000E+00  0.39999999673E+01  0.40000000000E+01  0.51109989000E-03 0.  1.
     -623   -1    0    0    0    0  0.00000000000E+00  0.00000000000E+00  0.12525980253E-10  0.17130000000E+03  0.17130000000E+03 0.  1.
       11    1    1    2    0    0  0.10879782296E-02  0.20335584609E-02  0.36948563367E+00  0.36949318501E+00  0.51109989000E-03 0.  1.
     -623    1    1    2    0    0 -0.23446678112E-02  0.22777185191E-03  0.22881845681E-03  0.17130000002E+03  0.17130000000E+03 0.  1.
      622    1    1    2    0    0  0.12566895816E-02 -0.22613303128E-02  0.36302855152E+01  0.36305067986E+01  0.40000000000E-01 0.  1.
</event>
<event>
 5   0  0.6200596E+07  0.9118800E+02  0.7818608E-02  0.1180000E+00
       11   -1    0    0    0    0  0.00000000000E+00  0.00000000000E+00  0.39999999673E+01  0.40000000000E+01  0.51109989000E-03 0. -1.
     -623   -1    0    0    0    0  0.00000000000E+00  0.00000000000E+00  0.12525980253E-10  0.17130000000E+03  0.17130000000E+03 0.  1.
       11    1    1    2    0    0 -0.71898029826E-02 -0.42981634712E-02  0.11218455769E+01  0.11218769662E+01  0.51109989000E-03 0. -1.
     -623    1    1    2    0    0 -0.92071782055E-02 -0.22676318900E-02  0.36379443654E-03  0.17130000026E+03  0.17130000000E+03 0.  1.
      622    1    1    2    0    0  0.16396981188E-01  0.65657953611E-02  0.28777905960E+01  0.28781227710E+01  0.40000000000E-01 0.  0.
</event>
<event>
 5   0  0.6200596E+07  0.9118800E+02  0.7818608E-02  0.1180000E+00
       11   -1    0    0    0    0  0.00000000000E+00  0.00000000000E+00  0.39999999673E+01  0.40000000000E+01  0.51109989000E-03 0. -1.
     -623   -1    0    0    0    0  0.00000000000E+00  0.00000000000E+00  0.12525980253E-10  0.17130000000E+03  0.17130000000E+03 0. -1.
       11    1    1    2    0    0 -0.50673161435E-02 -0.82168520862E-02  0.74889739411E+00  0.74895978695E+00  0.51109989000E-03 0. -1.
     -623    1    1    2    0    0 -0.67994257698E-03  0.32142920151E-02  0.31740602152E-03  0.17130000003E+03  0.17130000000E+03 0. -1.
      622    1    1    2    0    0  0.57472587205E-02  0.50025600711E-02  0.32507851672E+01  0.32510401812E+01  0.40000000000E-01 0. -1.
</event>
<event>
 5   0  0.6200596E+07  0.9118800E+02  0.7818608E-02  0.1180000E+00
       11   -1    0    0    0    0  0.00000000000E+00  0.00000000000E+00  0.39999999673E+01  0.40000000000E+01  0.51109989000E-03 0.  1.
     -623   -1    0    0    0    0  0.00000000000E+00  0.00000000000E+00  0.12525980253E-10  0.17130000000E+03  0.17130000000E+03 0. -1.
       11    1    1    2    0    0  0.10117754250E-02  0.24418705466E-02  0.13004141330E+00  0.13006927699E+00  0.51109989000E-03 0.  1.
     -623    1    1    2    0    0  0.17093126806E-02 -0.16278486704E-02  0.23561735966E-03  0.17130000002E+03  0.17130000000E+03 0. -1.
      622    1    1    2    0    0 -0.27210881055E-02 -0.81402187615E-03  0.38697229367E+01  0.38699307066E+01  0.40000000000E-01 0.  1.
</event>
<event>
 5   0  0.6200596E+07  0.9118800E+02  0.7818608E-02  0.1180000E+00
       11   -1    0    0    0    0  0.00000000000E+00  0.00000000000E+00  0.39999999673E+01  0.40000000000E+01  0.51109989000E-03 0. -1.
     -623   -1    0    0    0    0  0.00000000000E+00  0.00000000000E+00  0.12525980253E-10  0.17130000000E+03  0.17130000000E+03 0.  1.
       11    1    1    2    0    0  0.34507478773E-02  0.78809001484E-02  0.16546401508E-01  0.18656389611E-01  0.51109989000E-03 0. -1.
     -623    1    1    2    0    0 -0.14357896618E-02 -0.54487414987E-02  0.23122588490E-02  0.17130000011E+03  0.17130000000E+03 0.  1.
      622    1    1    2    0    0 -0.20149582155E-02 -0.24321586497E-02  0.39811413070E+01  0.39813435021E+01  0.40000000000E-01 0. -1.
</event>
<event>
 5   0  0.6200596E+07  0.9118800E+02  0.7818608E-02  0.1180000E+00
       11   -1    0    0    0    0  0.00000000000E+00  0.00000000000E+00  0.39999999673E+01  0.40000000000E+01  0.51109989000E-03 0.  1.
     -623   -1    0    0    0    0  0.00000000000E+00  0.00000000000E+00  0.12525980253E-10  0.17130000000E+03  0.17130000000E+03 0. -1.
       11    1    1    2    0    0 -0.78041573190E-02  0.68592828330E-03  0.51089049164E+00  0.51095081078E+00  0.51109989000E-03 0.  1.
     -623    1    1    2    0    0  0.20521241409E-01 -0.10414667974E-01  0.32787130129E-03  0.17130000155E+03  0.17130000000E+03 0. -1.
      622    1    1    2    0    0 -0.12717084090E-01  0.97287396912E-02  0.34887816044E+01  0.34890476431E+01  0.40000000000E-01 0.  1.
</event>
<event>
 5   0  0.6200596E+07  0.9118800E+02  0.7818608E-02  0.1180000E+00
       11   -1    0    0    0    0  0.00000000000E+00  0.00000000000E+00  0.39999999673E+01  0.40000000000E+01  0.51109989000E-03 0. -1.
     -623   -1    0    0    0    0  0.00000000000E+00  0.00000000000E+00  0.12525980253E-10  0.17130000000E+03  0.17130000000E+03 0. -1.
       11    1    1    2    0    0 -0.19109290539E-01  0.32583456284E-01  0.11286032492E+01  0.11292353173E+01  0.51109989000E-03 0. -1.
     -623    1    1    2    0    0  0.89274580896E-02  0.69403025371E-03  0.11219164133E-02  0.17130000024E+03  0.17130000000E+03 0. -1.
      622    1    1    2    0    0  0.10181832449E-01 -0.33277486538E-01  0.28702748017E+01  0.28707644449E+01  0.40000000000E-01 0. -1.
</event>
<event>
 5   0  0.6200596E+07  0.9118800E+02  0.7818608E-02  0.1180000E+00
       11   -1    0    0    0    0  0.00000000000E+00  0.00000000000E+00  0.39999999673E+01  0.40000000000E+01  0.51109989000E-03 0. -1.
     -623   -1    0    0    0    0  0.00000000000E+00  0.00000000000E+00  0.12525980253E-10  0.17130000000E+03  0.17130000000E+03 0. -1.
       11    1    1    2    0    0 -0.19379959417E-01 -0.40523436851E-02  0.48176503432E+00  0.48217197537E+00  0.51109989000E-03 0. -1.
     -623    1    1    2    0    0 -0.20640439472E-03 -0.16231010007E-02  0.69344647457E-03  0.17130000001E+03  0.17130000000E+03 0. -1.
      622    1    1    2    0    0  0.19586363812E-01  0.56754446858E-02  0.35175414866E+01  0.35178280154E+01  0.40000000000E-01 0.  1.
</event>
<event>
 5   0  0.6200596E+07  0.9118800E+02  0.7818608E-02  0.1180000E+00
       11   -1    0    0    0    0  0.00000000000E+00  0.00000000000E+00  0.39999999673E+01  0.40000000000E+01  0.51109989000E-03 0.  1.
     -623   -1    0    0    0    0  0.00000000000E+00  0.00000000000E+00  0.12525980253E-10  0.17130000000E+03  0.17130000000E+03 0.  1.
       11    1    1    2    0    0 -0.55450010056E-02  0.19603129092E-02  0.42326458397E-01  0.42736169294E-01  0.51109989000E-03 0.  1.
     -623    1    1    2    0    0  0.36623022454E-03 -0.67998115098E-03  0.61544211945E-03  0.17130000000E+03  0.17130000000E+03 0.  1.
      622    1    1    2    0    0  0.51787707811E-02 -0.12803317582E-02  0.39570580668E+01  0.39572638279E+01  0.40000000000E-01 0.  1.
</event>
<event>
 5   0  0.6200596E+07  0.9118800E+02  0.7818608E-02  0.1180000E+00
       11   -1    0    0    0    0  0.00000000000E+00  0.00000000000E+00  0.39999999673E+01  0.40000000000E+01  0.51109989000E-03 0.  1.
     -623   -1    0    0    0    0  0.00000000000E+00  0.00000000000E+00  0.12525980253E-10  0.17130000000E+03  0.17130000000E+03 0.  1.
       11    1    1    2    0    0 -0.15329992595E-01  0.54569672469E-02  0.10043307213E+01  0.10044626654E+01  0.51109989000E-03 0.  1.
     -623    1    1    2    0    0 -0.43422088928E-02  0.84240756979E-02  0.49601746710E-03  0.17130000026E+03  0.17130000000E+03 0.  1.
      622    1    1    2    0    0  0.19672201488E-01 -0.13881042945E-01  0.29951732286E+01  0.29955370717E+01  0.40000000000E-01 0.  1.
</event>
<event>
 5   0  0.6200596E+07  0.9118800E+02  0.7818608E-02  0.1180000E+00
       11   -1    0    0    0    0  0.00000000000E+00  0.00000000000E+00  0.39999999673E+01  0.40000000000E+01  0.51109989000E-03 0. -1.
     -623   -1    0    0    0    0  0.00000000000E+00  0.00000000000E+00  0.12525980253E-10  0.17130000000E+03  0.17130000000E+03 0. -1.
       11    1    1    2    0    0 -0.30830457136E-01  0.12797629981E-01  0.11020675854E+00  0.11515245229E+00  0.51109989000E-03 0. -1.
     -623    1    1    2    0    0  0.50743707087E-02 -0.16100607463E-01  0.52392964869E-02  0.17130000091E+03  0.17130000000E+03 0. -1.
      622    1    1    2    0    0  0.25756086427E-01  0.33029774820E-02  0.38845539123E+01  0.38848466358E+01  0.40000000000E-01 0. -1.
</event>
<event>
 5   0  0.6200596E+07  0.9118800E+02  0.7818608E-02  0.1180000E+00
       11   -1    0    0    0    0  0.00000000000E+00  0.00000000000E+00  0.39999999673E+01  0.40000000000E+01  0.51109989000E-03 0. -1.
     -623   -1    0    0    0    0  0.00000000000E+00  0.00000000000E+00  0.12525980253E-10  0.17130000000E+03  0.17130000000E+03 0. -1.
       11    1    1    2    0    0  0.10432732140E-02 -0.43415764258E-03  0.16781267967E-01  0.16827034422E-01  0.51109989000E-03 0. -1.
     -623    1    1    2    0    0 -0.13506257507E-02 -0.69449429714E-03  0.24676246651E-03  0.17130000001E+03  0.17130000000E+03 0. -1.
      622    1    1    2    0    0  0.30735253676E-03  0.11286519397E-02  0.39829719369E+01  0.39831729587E+01  0.40000000000E-01 0. -1.
</event>
<event>
 5   0  0.6200596E+07  0.9118800E+02  0.7818608E-02  0.1180000E+00
       11   -1    0    0    0    0  0.00000000000E+00  0.00000000000E+00  0.39999999673E+01  0.40000000000E+01  0.51109989000E-03 0.  1.
     -623   -1    0    0    0    0  0.00000000000E+00  0.00000000000E+00  0.12525980253E-10  0.17130000000E+03  0.17130000000E+03 0. -1.
       11    1    1    2    0    0  0.31144832951E-03  0.43494576396E-03  0.11492769859E-01  0.11516560158E-01  0.51109989000E-03 0.  1.
     -623    1    1    2    0    0 -0.99887803791E-04 -0.96229022991E-03  0.22438354796E-03  0.17130000000E+03  0.17130000000E+03 0. -1.
      622    1    1    2    0    0 -0.21156052572E-03  0.52734446595E-03  0.39882828140E+01  0.39884834370E+01  0.40000000000E-01 0.  1.
</event>
<event>
 5   0  0.6200596E+07  0.9118800E+02  0.7818608E-02  0.1180000E+00
       11   -1    0    0    0    0  0.00000000000E+00  0.00000000000E+00  0.39999999673E+01  0.40000000000E+01  0.51109989000E-03 0.  1.
     -623   -1    0    0    0    0  0.00000000000E+00  0.00000000000E+00  0.12525980253E-10  0.17130000000E+03  0.17130000000E+03 0.  1.
       11    1    1    2    0    0  0.41083845480E-03  0.11990852027E-02  0.44523400970E-01  0.44544371697E-01  0.51109989000E-03 0.  1.
     -623    1    1    2    0    0 -0.11684272429E-02 -0.36565372703E-02  0.22407469614E-03  0.17130000004E+03  0.17130000000E+03 0.  1.
      622    1    1    2    0    0  0.75758878809E-03  0.24574520676E-02  0.39552524917E+01  0.39554555851E+01  0.40000000000E-01 0.  1.
</event>
<event>
 5   0  0.6200596E+07  0.9118800E+02  0.7818608E-02  0.1180000E+00
       11   -1    0    0    0    0  0.00000000000E+00  0.00000000000E+00  0.39999999673E+01  0.40000000000E+01  0.51109989000E-03 0.  1.
     -623   -1    0    0    0    0  0.00000000000E+00  0.00000000000E+00  0.12525980253E-10  0.17130000000E+03  0.17130000000E+03 0. -1.
       11    1    1    2    0    0 -0.89486251974E-03 -0.29962704605E-02  0.12931909393E-01  0.13314425123E-01  0.51109989000E-03 0.  1.
     -623    1    1    2    0    0 -0.15949411193E-02  0.10119819335E-02  0.58443885883E-03  0.17130000001E+03  0.17130000000E+03 0. -1.
      622    1    1    2    0    0  0.24898036391E-02  0.19842885270E-02  0.39864836191E+01  0.39866855635E+01  0.40000000000E-01 0.  1.
</event>
<event>
 5   0  0.6200596E+07  0.9118800E+02  0.7818608E-02  0.1180000E+00
       11   -1    0    0    0    0  0.00000000000E+00  0.00000000000E+00  0.39999999673E+01  0.40000000000E+01  0.51109989000E-03 0. -1.
     -623   -1    0    0    0    0  0.00000000000E+00  0.00000000000E+00  0.12525980253E-10  0.17130000000E+03  0.17130000000E+03 0. -1.
       11    1    1    2    0    0  0.36556694103E-04 -0.60456437372E-02  0.23161790824E-01  0.23943285472E-01  0.51109989000E-03 0. -1.
     -623    1    1    2    0    0 -0.17203970880E-02  0.34086290468E-03  0.98713263437E-03  0.17130000001E+03  0.17130000000E+03 0. -1.
      622    1    1    2    0    0  0.16838403939E-02  0.57047808325E-02  0.39758510439E+01  0.39760567027E+01  0.40000000000E-01 0. -1.
</event>
<event>
 5   0  0.6200596E+07  0.9118800E+02  0.7818608E-02  0.1180000E+00
       11   -1    0    0    0    0  0.00000000000E+00  0.00000000000E+00  0.39999999673E+01  0.40000000000E+01  0.51109989000E-03 0. -1.
     -623   -1    0    0    0    0  0.00000000000E+00  0.00000000000E+00  0.12525980253E-10  0.17130000000E+03  0.17130000000E+03 0.  1.
       11    1    1    2    0    0 -0.40313775336E-02  0.20685915915E-01  0.16069870417E+01  0.16071253133E+01  0.51109989000E-03 0. -1.
     -623    1    1    2    0    0  0.10493991761E-01 -0.20886210493E-02  0.55393162763E-03  0.17130000034E+03  0.17130000000E+03 0.  1.
      622    1    1    2    0    0 -0.64626142276E-02 -0.18597294866E-01  0.23924589940E+01  0.23928743517E+01  0.40000000000E-01 0. -1.
</event>
<event>
 5   0  0.6200596E+07  0.9118800E+02  0.7818608E-02  0.1180000E+00
       11   -1    0    0    0    0  0.00000000000E+00  0.00000000000E+00  0.39999999673E+01  0.40000000000E+01  0.51109989000E-03 0.  1.
     -623   -1    0    0    0    0  0.00000000000E+00  0.00000000000E+00  0.12525980253E-10  0.17130000000E+03  0.17130000000E+03 0.  1.
       11    1    1    2    0    0 -0.11266654583E-01 -0.41561500897E-02  0.21980733009E+01  0.21981061641E+01  0.51109989000E-03 0.  1.
     -623    1    1    2    0    0 -0.25155658411E-03  0.18125121832E-03  0.51807227909E-03  0.17130000000E+03  0.17130000000E+03 0.  1.
      622    1    1    2    0    0  0.11518211167E-01  0.39748988714E-02  0.18014085941E+01  0.18018938348E+01  0.40000000000E-01 0.  1.
</event>
<event>
 5   0  0.6200596E+07  0.9118800E+02  0.7818608E-02  0.1180000E+00
       11   -1    0    0    0    0  0.00000000000E+00  0.00000000000E+00  0.39999999673E+01  0.40000000000E+01  0.51109989000E-03 0.  1.
     -623   -1    0    0    0    0  0.00000000000E+00  0.00000000000E+00  0.12525980253E-10  0.17130000000E+03  0.17130000000E+03 0. -1.
       11    1    1    2    0    0  0.38357244158E-03 -0.23082170062E-03  0.42171795379E+00  0.42171850110E+00  0.51109989000E-03 0.  1.
     -623    1    1    2    0    0  0.85520067107E-03  0.10780052527E-02  0.22441307911E-03  0.17130000001E+03  0.17130000000E+03 0. -1.
      622    1    1    2    0    0 -0.12387731126E-02 -0.84718355204E-03  0.35780576005E+01  0.35782814932E+01  0.40000000000E-01 0.  1.
</event>
<event>
 5   0  0.6200596E+07  0.9118800E+02  0.7818608E-02  0.1180000E+00
       11   -1    0    0    0    0  0.00000000000E+00  0.00000000000E+00  0.39999999673E+01  0.40000000000E+01  0.51109989000E-03 0.  1.
     -623   -1    0    0    0    0  0.00000000000E+00  0.00000000000E+00  0.12525980253E-10  0.17130000000E+03  0.17130000000E+03 0. -1.
       11    1    1    2    0    0 -0.43377894475E-02 -0.12399930222E-03  0.43762108576E-01  0.43979713073E-01  0.51109989000E-03 0.  1.
     -623    1    1    2    0    0 -0.53874372144E-03  0.53149961861E-03  0.42282941356E-03  0.17130000000E+03  0.17130000000E+03 0. -1.
      622    1    1    2    0    0  0.48765331690E-02 -0.40750031639E-03  0.39558150294E+01  0.39560202847E+01  0.40000000000E-01 0.  1.
</event>
<event>
 5   0  0.6200596E+07  0.9118800E+02  0.7818608E-02  0.1180000E+00
       11   -1    0    0    0    0  0.00000000000E+00  0.00000000000E+00  0.39999999673E+01  0.40000000000E+01  0.51109989000E-03 0. -1.
     -623   -1    0    0    0    0  0.00000000000E+00  0.00000000000E+00  0.12525980253E-10  0.17130000000E+03  0.17130000000E+03 0.  1.
       11    1    1    2    0    0 -0.37993811986E-02 -0.40324668683E-02  0.59255411741E-01  0.59516057725E-01  0.51109989000E-03 0. -1.
     -623    1    1    2    0    0  0.82595241468E-03  0.73107925307E-02  0.46628366268E-03  0.17130000016E+03  0.17130000000E+03 0.  1.
      622    1    1    2    0    0  0.29734287839E-02 -0.32783256624E-02  0.39402782720E+01  0.39404837836E+01  0.40000000000E-01 0. -1.
</event>
<event>
 5   0  0.6200596E+07  0.9118800E+02  0.7818608E-02  0.1180000E+00
       11   -1    0    0    0    0  0.00000000000E+00  0.00000000000E+00  0.39999999673E+01  0.40000000000E+01  0.51109989000E-03 0.  1.
     -623   -1    0    0    0    0  0.00000000000E+00  0.00000000000E+00  0.12525980253E-10  0.17130000000E+03  0.17130000000E+03 0. -1.
       11    1    1    2    0    0  0.25582040878E-01  0.15813871028E-02  0.30920761555E+00  0.31026851651E+00  0.51109989000E-03 0.  1.
     -623    1    1    2    0    0 -0.34118617264E-02 -0.82226605758E-03  0.13444225204E-02  0.17130000004E+03  0.17130000000E+03 0. -1.
      622    1    1    2    0    0 -0.22170179152E-01 -0.75912104523E-03  0.36894479293E+01  0.36897314423E+01  0.40000000000E-01 0.  1.
</event>
<event>
 5   0  0.6200596E+07  0.9118800E+02  0.7818608E-02  0.1180000E+00
       11   -1    0    0    0    0  0.00000000000E+00  0.00000000000E+00  0.39999999673E+01  0.40000000000E+01  0.51109989000E-03 0. -1.
     -623   -1    0    0    0    0  0.00000000000E+00  0.00000000000E+00  0.12525980253E-10  0.17130000000E+03  0.17130000000E+03 0. -1.
       11    1    1    2    0    0 -0.12473202703E-02 -0.50404609731E-02  0.23373302272E-01  0.23948581084E-01  0.51109989000E-03 0. -1.
     -623    1    1    2    0    0  0.37128125302E-02  0.53433782949E-02  0.77735723596E-03  0.17130000013E+03  0.17130000000E+03 0. -1.
      622    1    1    2    0    0 -0.24654922599E-02 -0.30291732183E-03  0.39758493079E+01  0.39760512936E+01  0.40000000000E-01 0. -1.
</event>
<event>
 5   0  0.6200596E+07  0.9118800E+02  0.7818608E-02  0.1180000E+00
       11   -1    0    0    0    0  0.00000000000E+00  0.00000000000E+00  0.39999999673E+01  0.40000000000E+01  0.51109989000E-03 0. -1.
     -623   -1    0    0    0    0  0.00000000000E+00  0.00000000000E+00  0.12525980253E-10  0.17130000000E+03  0.17130000000E+03 0. -1.
       11    1    1    2    0    0  0.42232336564E-02  0.24163225356E-01  0.22744381925E+01  0.22745705199E+01  0.51109989000E-03 0. -1.
     -623    1    1    2    0    0  0.17438411986E-02 -0.77793309849E-02  0.68432762240E-03  0.17130000019E+03  0.17130000000E+03 0. -1.
      622    1    1    2    0    0 -0.59670748550E-02 -0.16383894371E-01  0.17248774472E+01  0.17254292932E+01  0.40000000000E-01 0. -1.
</event>
<event>
 5   0  0.6200596E+07  0.9118800E+02  0.7818608E-02  0.1180000E+00
       11   -1    0    0    0    0  0.00000000000E+00  0.00000000000E+00  0.39999999673E+01  0.40000000000E+01  0.51109989000E-03 0. -1.
     -623   -1    0    0    0    0  0.00000000000E+00  0.00000000000E+00  0.12525980253E-10  0.17130000000E+03  0.17130000000E+03 0.  1.
       11    1    1    2    0    0 -0.62184132720E-02  0.66279074642E-02  0.14704220717E+00  0.14732369033E+00  0.51109989000E-03 0. -1.
     -623    1    1    2    0    0 -0.36472581582E-03 -0.51133204905E-03  0.49958618774E-03  0.17130000000E+03  0.17130000000E+03 0.  1.
      622    1    1    2    0    0  0.65831390878E-02 -0.61165754151E-02  0.38524581740E+01  0.38526763078E+01  0.40000000000E-01 0. -1.
</event>
<event>
 5   0  0.6200596E+07  0.9118800E+02  0.7818608E-02  0.1180000E+00
       11   -1    0    0    0    0  0.00000000000E+00  0.00000000000E+00  0.39999999673E+01  0.40000000000E+01  0.51109989000E-03 0.  1.
     -623   -1    0    0    0    0  0.00000000000E+00  0.00000000000E+00  0.12525980253E-10  0.17130000000E+03  0.17130000000E+03 0.  1.
       11    1    1    2    0    0 -0.14682579134E-02  0.86549494601E-03  0.24447158047E+00  0.24447805575E+00  0.51109989000E-03 0.  1.
     -623    1    1    2    0    0 -0.15476995473E-02  0.23648014824E-02  0.22209222540E-03  0.17130000002E+03  0.17130000000E+03 0.  1.
      622    1    1    2    0    0  0.30159574607E-02 -0.32302964284E-02  0.37553062947E+01  0.37555219208E+01  0.40000000000E-01 0.  1.
</event>
<event>
 5   0  0.6200596E+07  0.9118800E+02  0.7818608E-02  0.1180000E+00
       11   -1    0    0    0    0  0.00000000000E+00  0.00000000000E+00  0.39999999673E+01  0.40000000000E+01  0.51109989000E-03 0. -1.
     -623   -1    0    0    0    0  0.00000000000E+00  0.00000000000E+00  0.12525980253E-10  0.17130000000E+03  0.17130000000E+03 0. -1.
       11    1    1    2    0    0  0.17130212560E-01 -0.27880848500E-01  0.10942404987E+01  0.10947297914E+01  0.51109989000E-03 0. -1.
     -623    1    1    2    0    0 -0.20397204389E-01  0.23673053461E-03  0.89922351838E-03  0.17130000122E+03  0.17130000000E+03 0. -1.
      622    1    1    2    0    0  0.32669918295E-02  0.27644117965E-01  0.29048602451E+01  0.29052689917E+01  0.40000000000E-01 0. -1.
</event>
<event>
 5   0  0.6200596E+07  0.9118800E+02  0.7818608E-02  0.1180000E+00
       11   -1    0    0    0    0  0.00000000000E+00  0.00000000000E+00  0.39999999673E+01  0.40000000000E+01  0.51109989000E-03 0. -1.
     -623   -1    0    0    0    0  0.00000000000E+00  0.00000000000E+00  0.12525980253E-10  0.17130000000E+03  0.17130000000E+03 0.  1.
       11    1    1    2    0    0  0.61004697003E-03  0.34200503262E-05  0.87303813255E-02  0.87665813094E-02  0.51109989000E-03 0. -1.
     -623    1    1    2    0    0 -0.28293310834E-03 -0.52355936525E-03  0.23666016585E-03  0.17130000000E+03  0.17130000000E+03 0.  1.
      622    1    1    2    0    0 -0.32711386169E-03  0.52013931493E-03  0.39910329259E+01  0.39912334175E+01  0.40000000000E-01 0. -1.
</event>
<event>
 5   0  0.6200596E+07  0.9118800E+02  0.7818608E-02  0.1180000E+00
       11   -1    0    0    0    0  0.00000000000E+00  0.00000000000E+00  0.39999999673E+01  0.40000000000E+01  0.51109989000E-03 0.  1.
     -623   -1    0    0    0    0  0.00000000000E+00  0.00000000000E+00  0.12525980253E-10  0.17130000000E+03  0.17130000000E+03 0. -1.
       11    1    1    2    0    0 -0.32944312482E-01  0.89453842061E-02  0.86941377825E+00  0.87008386186E+00  0.51109989000E-03 0.  1.
     -623    1    1    2    0    0  0.29132861464E-01 -0.32237864493E-01  0.10201729810E-02  0.17130000551E+03  0.17130000000E+03 0. -1.
      622    1    1    2    0    0  0.38114510181E-02  0.23292480287E-01  0.31295660161E+01  0.31299106243E+01  0.40000000000E-01 0.  1.
</event>
<event>
 5   0  0.6200596E+07  0.9118800E+02  0.7818608E-02  0.1180000E+00
       11   -1    0    0    0    0  0.00000000000E+00  0.00000000000E+00  0.39999999673E+01  0.40000000000E+01  0.51109989000E-03 0.  1.
     -623   -1    0    0    0    0  0.00000000000E+00  0.00000000000E+00  0.12525980253E-10  0.17130000000E+03  0.17130000000E+03 0. -1.
       11    1    1    2    0    0 -0.14848929721E-03  0.39375620319E-02  0.82286027109E-01  0.82381902893E-01  0.51109989000E-03 0.  1.
     -623    1    1    2    0    0 -0.52846325916E-03 -0.57136211075E-02  0.30061165262E-03  0.17130000010E+03  0.17130000000E+03 0. -1.
      622    1    1    2    0    0  0.67695255637E-03  0.17760590756E-02  0.39174133286E+01  0.39176180007E+01  0.40000000000E-01 0.  1.
</event>
<event>
 5   0  0.6200596E+07  0.9118800E+02  0.7818608E-02  0.1180000E+00
       11   -1    0    0    0    0  0.00000000000E+00  0.00000000000E+00  0.39999999673E+01  0.40000000000E+01  0.51109989000E-03 0.  1.
     -623   -1    0    0    0    0  0.00000000000E+00  0.00000000000E+00  0.12525980253E-10  0.17130000000E+03  0.17130000000E+03 0.  1.
       11    1    1    2    0    0 -0.34544465479E-05  0.21964070801E-03  0.97139651048E-02  0.97298814753E-02  0.51109989000E-03 0.  1.
     -623    1    1    2    0    0  0.14297564681E-02 -0.35490538026E-03  0.21664013728E-03  0.17130000001E+03  0.17130000000E+03 0.  1.
      622    1    1    2    0    0 -0.14263020215E-02  0.13526467226E-03  0.39900693621E+01  0.39902701121E+01  0.40000000000E-01 0.  1.
</event>
<event>
 5   0  0.6200596E+07  0.9118800E+02  0.7818608E-02  0.1180000E+00
       11   -1    0    0    0    0  0.00000000000E+00  0.00000000000E+00  0.39999999673E+01  0.40000000000E+01  0.51109989000E-03 0.  1.
     -623   -1    0    0    0    0  0.00000000000E+00  0.00000000000E+00  0.12525980253E-10  0.17130000000E+03  0.17130000000E+03 0.  1.
       11    1    1    2    0    0  0.82803780882E-03  0.90564355504E-02  0.28722286644E-01  0.30131970441E-01  0.51109989000E-03 0.  1.
     -623    1    1    2    0    0  0.27560671133E-02 -0.17351462193E-02  0.16195822853E-02  0.17130000004E+03  0.17130000000E+03 0.  1.
      622    1    1    2    0    0 -0.35841049221E-02 -0.73212893312E-02  0.39696580984E+01  0.39698679909E+01  0.40000000000E-01 0.  1.
</event>
<event>
 5   0  0.6200596E+07  0.9118800E+02  0.7818608E-02  0.1180000E+00
       11   -1    0    0    0    0  0.00000000000E+00  0.00000000000E+00  0.39999999673E+01  0.40000000000E+01  0.51109989000E-03 0. -1.
     -623   -1    0    0    0    0  0.00000000000E+00  0.00000000000E+00  0.12525980253E-10  0.17130000000E+03  0.17130000000E+03 0.  1.
       11    1    1    2    0    0  0.33837500933E-02 -0.15074382528E-02  0.24023844054E-01  0.24313133068E-01  0.51109989000E-03 0. -1.
     -623    1    1    2    0    0 -0.31405131994E-02 -0.47486456027E-03  0.49101636901E-03  0.17130000003E+03  0.17130000000E+03 0.  1.
      622    1    1    2    0    0 -0.24323689397E-03  0.19823028130E-02  0.39754851069E+01  0.39756868368E+01  0.40000000000E-01 0. -1.
</event>
<event>
 5   0  0.6200596E+07  0.9118800E+02  0.7818608E-02  0.1180000E+00
       11   -1    0    0    0    0  0.00000000000E+00  0.00000000000E+00  0.39999999673E+01  0.40000000000E+01  0.51109989000E-03 0.  1.
     -623   -1    0    0    0    0  0.00000000000E+00  0.00000000000E+00  0.12525980253E-10  0.17130000000E+03  0.17130000000E+03 0.  1.
       11    1    1    2    0    0 -0.87065025162E-03 -0.52149397952E-03  0.57905394893E-02  0.59009793811E-02  0.51109989000E-03 0.  1.
     -623    1    1    2    0    0 -0.61621265927E-03  0.31001597643E-03  0.31099179662E-03  0.17130000000E+03  0.17130000000E+03 0.  1.
      622    1    1    2    0    0  0.14868629109E-02  0.21147800309E-03  0.39938984361E+01  0.39940990189E+01  0.40000000000E-01 0.  1.
</event>
<event>
 5   0  0.6200596E+07  0.9118800E+02  0.7818608E-02  0.1180000E+00
       11   -1    0    0    0    0  0.00000000000E+00  0.00000000000E+00  0.39999999673E+01  0.40000000000E+01  0.51109989000E-03 0. -1.
     -623   -1    0    0    0    0  0.00000000000E+00  0.00000000000E+00  0.12525980253E-10  0.17130000000E+03  0.17130000000E+03 0.  1.
       11    1    1    2    0    0 -0.76594699798E-02 -0.92204784778E-03  0.14348787603E+00  0.14369603141E+00  0.51109989000E-03 0. -1.
     -623    1    1    2    0    0  0.30199010421E-02 -0.32796205080E-02  0.42071959975E-03  0.17130000006E+03  0.17130000000E+03 0.  1.
      622    1    1    2    0    0  0.46395689377E-02  0.42016683558E-02  0.38560913717E+01  0.38563039101E+01  0.40000000000E-01 0. -1.
</event>
<event>
 5   0  0.6200596E+07  0.9118800E+02  0.7818608E-02  0.1180000E+00
       11   -1    0    0    0    0  0.00000000000E+00  0.00000000000E+00  0.39999999673E+01  0.40000000000E+01  0.51109989000E-03 0. -1.
     -623   -1    0    0    0    0  0.00000000000E+00  0.00000000000E+00  0.12525980253E-10  0.17130000000E+03  0.17130000000E+03 0. -1.
       11    1    1    2    0    0 -0.17475345246E-02 -0.57831423818E-02  0.10341922114E+01  0.10342099835E+01  0.51109989000E-03 0. -1.
     -623    1    1    2    0    0 -0.15106249048E-03  0.51322327106E-03  0.29278569595E-03  0.17130000000E+03  0.17130000000E+03 0. -1.
      622    1    1    2    0    0  0.18985970151E-02  0.52699191107E-02  0.29655149702E+01  0.29657900154E+01  0.40000000000E-01 0. -1.
</event>
<event>
 5   0  0.6200596E+07  0.9118800E+02  0.7818608E-02  0.1180000E+00
       11   -1    0    0    0    0  0.00000000000E+00  0.00000000000E+00  0.39999999673E+01  0.40000000000E+01  0.51109989000E-03 0. -1.
     -623   -1    0    0    0    0  0.00000000000E+00  0.00000000000E+00  0.12525980253E-10  0.17130000000E+03  0.17130000000E+03 0. -1.
       11    1    1    2    0    0  0.39190024016E-03  0.45964485800E-03  0.60178946291E-02  0.60696900012E-02  0.51109989000E-03 0. -1.
     -623    1    1    2    0    0  0.50387206212E-03 -0.41368262490E-03  0.25217385003E-03  0.17130000000E+03  0.17130000000E+03 0. -1.
      622    1    1    2    0    0 -0.89577230228E-03 -0.45962233098E-04  0.39937298989E+01  0.39939303086E+01  0.40000000000E-01 0. -1.
</event>
<event>
 5   0  0.6200596E+07  0.9118800E+02  0.7818608E-02  0.1180000E+00
       11   -1    0    0    0    0  0.00000000000E+00  0.00000000000E+00  0.39999999673E+01  0.40000000000E+01  0.51109989000E-03 0.  1.
     -623   -1    0    0    0    0  0.00000000000E+00  0.00000000000E+00  0.12525980253E-10  0.17130000000E+03  0.17130000000E+03 0.  1.
       11    1    1    2    0    0  0.58503853991E-02  0.57642656250E-02  0.81082836922E+00  0.81087012482E+00  0.51109989000E-03 0.  1.
     -623    1    1    2    0    0 -0.43171733728E-02  0.56358026212E-02  0.31347831982E-03  0.17130000015E+03  0.17130000000E+03 0.  1.
      622    1    1    2    0    0 -0.15332120263E-02 -0.11400068246E-01  0.31888581198E+01  0.31891297278E+01  0.40000000000E-01 0. -1.
</event>
<event>
 5   0  0.6200596E+07  0.9118800E+02  0.7818608E-02  0.1180000E+00
       11   -1    0    0    0    0  0.00000000000E+00  0.00000000000E+00  0.39999999673E+01  0.40000000000E+01  0.51109989000E-03 0. -1.
     -623   -1    0    0    0    0  0.00000000000E+00  0.00000000000E+00  0.12525980253E-10  0.17130000000E+03  0.17130000000E+03 0.  1.
       11    1    1    2    0    0 -0.15750015730E-03 -0.97263755736E-03  0.35463970685E-02  0.37160439970E-02  0.51109989000E-03 0. -1.
     -623    1    1    2    0    0  0.35902314105E-03 -0.47426791554E-03  0.37007373997E-03  0.17130000000E+03  0.17130000000E+03 0.  1.
      622    1    1    2    0    0 -0.20152298374E-03  0.14469054729E-02  0.39960834966E+01  0.39962839546E+01  0.40000000000E-01 0. -1.
</event>
<event>
 5   0  0.6200596E+07  0.9118800E+02  0.7818608E-02  0.1180000E+00
       11   -1    0    0    0    0  0.00000000000E+00  0.00000000000E+00  0.39999999673E+01  0.40000000000E+01  0.51109989000E-03 0.  1.
     -623   -1    0    0    0    0  0.00000000000E+00  0.00000000000E+00  0.12525980253E-10  0.17130000000E+03  0.17130000000E+03 0. -1.
       11    1    1    2    0    0  0.11267749151E-02 -0.19209249276E-02  0.11831923357E+00  0.11834129384E+00  0.51109989000E-03 0.  1.
     -623    1    1    2    0    0 -0.21160455048E-02 -0.55888066838E-03  0.22906292059E-03  0.17130000001E+03  0.17130000000E+03 0. -1.
      622    1    1    2    0    0  0.98927058966E-03  0.24798055960E-02  0.38814516709E+01  0.38816586920E+01  0.40000000000E-01 0.  1.
</event>
<event>
 5   0  0.6200596E+07  0.9118800E+02  0.7818608E-02  0.1180000E+00
       11   -1    0    0    0    0  0.00000000000E+00  0.00000000000E+00  0.39999999673E+01  0.40000000000E+01  0.51109989000E-03 0.  1.
     -623   -1    0    0    0    0  0.00000000000E+00  0.00000000000E+00  0.12525980253E-10  0.17130000000E+03  0.17130000000E+03 0.  1.
       11    1    1    2    0    0 -0.42918235819E-02  0.29514146040E-02  0.30479366575E-01  0.30925452391E-01  0.51109989000E-03 0.  1.
     -623    1    1    2    0    0 -0.11712559163E-02 -0.87021064589E-03  0.65192965873E-03  0.17130000001E+03  0.17130000000E+03 0.  1.
      622    1    1    2    0    0  0.54630794982E-02 -0.20812039581E-02  0.39688686711E+01  0.39690745402E+01  0.40000000000E-01 0.  1.
</event>
<event>
 5   0  0.6200596E+07  0.9118800E+02  0.7818608E-02  0.1180000E+00
       11   -1    0    0    0    0  0.00000000000E+00  0.00000000000E+00  0.39999999673E+01  0.40000000000E+01  0.51109989000E-03 0. -1.
     -623   -1    0    0    0    0  0.00000000000E+00  0.00000000000E+00  0.12525980253E-10  0.17130000000E+03  0.17130000000E+03 0.  1.
       11    1    1    2    0    0  0.63662747595E-02 -0.14114810287E-01  0.23887514372E+00  0.23937700983E+00  0.51109989000E-03 0. -1.
     -623    1    1    2    0    0 -0.77520119856E-02  0.20120455206E-02  0.73449056735E-03  0.17130000019E+03  0.17130000000E+03 0.  1.
      622    1    1    2    0    0  0.13857372262E-02  0.12102764766E-01  0.37603903331E+01  0.37606228014E+01  0.40000000000E-01 0. -1.
</event>
<event>
 5   0  0.6200596E+07  0.9118800E+02  0.7818608E-02  0.1180000E+00
       11   -1    0    0    0    0  0.00000000000E+00  0.00000000000E+00  0.39999999673E+01  0.40000000000E+01  0.51109989000E-03 0. -1.
     -623   -1    0    0    0    0  0.00000000000E+00  0.00000000000E+00  0.12525980253E-10  0.17130000000E+03  0.17130000000E+03 0.  1.
       11    1    1    2    0    0  0.21734297577E-02 -0.39405024908E-02  0.26353850027E+00  0.26357741500E+00  0.51109989000E-03 0. -1.
     -623    1    1    2    0    0  0.38449500686E-03 -0.36660754316E-03  0.25635603456E-03  0.17130000000E+03  0.17130000000E+03 0.  1.
      622    1    1    2    0    0 -0.25579247646E-02  0.43071100340E-02  0.37362051111E+01  0.37364225840E+01  0.40000000000E-01 0.  0.
</event>
<event>
 5   0  0.6200596E+07  0.9118800E+02  0.7818608E-02  0.1180000E+00
       11   -1    0    0    0    0  0.00000000000E+00  0.00000000000E+00  0.39999999673E+01  0.40000000000E+01  0.51109989000E-03 0. -1.
     -623   -1    0    0    0    0  0.00000000000E+00  0.00000000000E+00  0.12525980253E-10  0.17130000000E+03  0.17130000000E+03 0.  1.
       11    1    1    2    0    0 -0.18420027817E-03 -0.14379029863E-02  0.57964484431E-02  0.59967933724E-02  0.51109989000E-03 0. -1.
     -623    1    1    2    0    0  0.17775285427E-03 -0.51771399904E-04  0.40089599788E-03  0.17130000000E+03  0.17130000000E+03 0.  1.
      622    1    1    2    0    0  0.64474238962E-05  0.14896743862E-02  0.39938026229E+01  0.39940032061E+01  0.40000000000E-01 0. -1.
</event>
<event>
 5   0  0.6200596E+07  0.9118800E+02  0.7818608E-02  0.1180000E+00
       11   -1    0    0    0    0  0.00000000000E+00  0.00000000000E+00  0.39999999673E+01  0.40000000000E+01  0.51109989000E-03 0.  1.
     -623   -1    0    0    0    0  0.00000000000E+00  0.00000000000E+00  0.12525980253E-10  0.17130000000E+03  0.17130000000E+03 0. -1.
       11    1    1    2    0    0  0.21421042239E-03  0.86787616249E-02  0.62195265095E-01  0.62800310592E-01  0.51109989000E-03 0.  1.
     -623    1    1    2    0    0 -0.60202893428E-02 -0.53112369628E-02  0.81411974376E-03  0.17130000019E+03  0.17130000000E+03 0. -1.
      622    1    1    2    0    0  0.58060789204E-02 -0.33675246621E-02  0.39369905825E+01  0.39371994993E+01  0.40000000000E-01 0.  1.
</event>
<event>
 5   0  0.6200596E+07  0.9118800E+02  0.7818608E-02  0.1180000E+00
       11   -1    0    0    0    0  0.00000000000E+00  0.00000000000E+00  0.39999999673E+01  0.40000000000E+01  0.51109989000E-03 0. -1.
     -623   -1    0    0    0    0  0.00000000000E+00  0.00000000000E+00  0.12525980253E-10  0.17130000000E+03  0.17130000000E+03 0. -1.
       11    1    1    2    0    0 -0.27230630953E-02 -0.85753929531E-02  0.26087677892E+00  0.26103238771E+00  0.51109989000E-03 0. -1.
     -623    1    1    2    0    0 -0.60802678730E-02  0.78033962464E-03  0.38814558163E-03  0.17130000011E+03  0.17130000000E+03 0. -1.
      622    1    1    2    0    0  0.88033309684E-02  0.77950533285E-02  0.37387350429E+01  0.37389675022E+01  0.40000000000E-01 0. -1.
</event>
<event>
 5   0  0.6200596E+07  0.9118800E+02  0.7818608E-02  0.1180000E+00
       11   -1    0    0    0    0  0.00000000000E+00  0.00000000000E+00  0.39999999673E+01  0.40000000000E+01  0.51109989000E-03 0.  1.
     -623   -1    0    0    0    0  0.00000000000E+00  0.00000000000E+00  0.12525980253E-10  0.17130000000E+03  0.17130000000E+03 0. -1.
       11    1    1    2    0    0 -0.23875729184E-01  0.57248495411E-02  0.10459878366E+01  0.10462760820E+01  0.51109989000E-03 0.  1.
     -623    1    1    2    0    0  0.36221346953E-02  0.16924841013E-02  0.63787816795E-03  0.17130000005E+03  0.17130000000E+03 0. -1.
      622    1    1    2    0    0  0.20253594488E-01 -0.74173336424E-02  0.29533742526E+01  0.29537238701E+01  0.40000000000E-01 0.  1.
</event>
<event>
 5   0  0.6200596E+07  0.9118800E+02  0.7818608E-02  0.1180000E+00
       11   -1    0    0    0    0  0.00000000000E+00  0.00000000000E+00  0.39999999673E+01  0.40000000000E+01  0.51109989000E-03 0.  1.
     -623   -1    0    0    0    0  0.00000000000E+00  0.00000000000E+00  0.12525980253E-10  0.17130000000E+03  0.17130000000E+03 0. -1.
       11    1    1    2    0    0 -0.32737146860E-03  0.36395970919E-02  0.21040786066E-02  0.42476120408E-02  0.51109989000E-03 0.  1.
     -623    1    1    2    0    0 -0.48353254457E-02 -0.15390030443E-03  0.23486586776E-02  0.17130000008E+03  0.17130000000E+03 0. -1.
      622    1    1    2    0    0  0.51626969143E-02 -0.34856967875E-02  0.39955472301E+01  0.39957523035E+01  0.40000000000E-01 0.  1.
</event>
<event>
 5   0  0.6200596E+07  0.9118800E+02  0.7818608E-02  0.1180000E+00
       11   -1    0    0    0    0  0.00000000000E+00  0.00000000000E+00  0.39999999673E+01  0.40000000000E+01  0.51109989000E-03 0.  1.
     -623   -1    0    0    0    0  0.00000000000E+00  0.00000000000E+00  0.12525980253E-10  0.17130000000E+03  0.17130000000E+03 0. -1.
       11    1    1    2    0    0 -0.22344229627E-04  0.14311944091E-02  0.44209441853E-01  0.44235560210E-01  0.51109989000E-03 0.  1.
     -623    1    1    2    0    0 -0.41623187353E-02 -0.21936285735E-03  0.23077741189E-03  0.17130000005E+03  0.17130000000E+03 0. -1.
      622    1    1    2    0    0  0.41846629650E-02 -0.12118315518E-02  0.39555597481E+01  0.39557643889E+01  0.40000000000E-01 0.  1.
</event>
<event>
 5   0  0.6200596E+07  0.9118800E+02  0.7818608E-02  0.1180000E+00
       11   -1    0    0    0    0  0.00000000000E+00  0.00000000000E+00  0.39999999673E+01  0.40000000000E+01  0.51109989000E-03 0. -1.
     -623   -1    0    0    0    0  0.00000000000E+00  0.00000000000E+00  0.12525980253E-10  0.17130000000E+03  0.17130000000E+03 0.  1.
       11    1    1    2    0    0 -0.33637120995E-01  0.87533081465E-02  0.16478783159E+01  0.16482449094E+01  0.51109989000E-03 0. -1.
     -623    1    1    2    0    0 -0.95902162638E-02  0.20405447310E-01  0.12864449123E-02  0.17130000149E+03  0.17130000000E+03 0.  1.
      622    1    1    2    0    0  0.43227337259E-01 -0.29158755456E-01  0.23508352066E+01  0.23517536019E+01  0.40000000000E-01 0. -1.
</event>
<event>
 5   0  0.6200596E+07  0.9118800E+02  0.7818608E-02  0.1180000E+00
       11   -1    0    0    0    0  0.00000000000E+00  0.00000000000E+00  0.39999999673E+01  0.40000000000E+01  0.51109989000E-03 0. -1.
     -623   -1    0    0    0    0  0.00000000000E+00  0.00000000000E+00  0.12525980253E-10  0.17130000000E+03  0.17130000000E+03 0. -1.
       11    1    1    2    0    0 -0.21165235049E-01  0.40137010450E-02  0.77286417549E+00  0.77316451804E+00  0.51109989000E-03 0. -1.
     -623    1    1    2    0    0  0.48428275355E-02  0.68013722477E-02  0.60785603380E-03  0.17130000020E+03  0.17130000000E+03 0. -1.
      622    1    1    2    0    0  0.16322407514E-01 -0.10815073293E-01  0.32265279358E+01  0.32268352774E+01  0.40000000000E-01 0. -1.
</event>
<event>
 5   0  0.6200596E+07  0.9118800E+02  0.7818608E-02  0.1180000E+00
       11   -1    0    0    0    0  0.00000000000E+00  0.00000000000E+00  0.39999999673E+01  0.40000000000E+01  0.51109989000E-03 0. -1.
     -623   -1    0    0    0    0  0.00000000000E+00  0.00000000000E+00  0.12525980253E-10  0.17130000000E+03  0.17130000000E+03 0.  1.
       11    1    1    2    0    0 -0.49189016833E-02  0.21947799735E-01  0.92056420302E+00  0.92083908182E+00  0.51109989000E-03 0. -1.
     -623    1    1    2    0    0  0.12377435215E-02 -0.15990348077E-02  0.60412606942E-03  0.17130000001E+03  0.17130000000E+03 0.  1.
      622    1    1    2    0    0  0.36811581617E-02 -0.20348764928E-01  0.30788316383E+01  0.30791609052E+01  0.40000000000E-01 0. -1.
</event>
<event>
 5   0  0.6200596E+07  0.9118800E+02  0.7818608E-02  0.1180000E+00
       11   -1    0    0    0    0  0.00000000000E+00  0.00000000000E+00  0.39999999673E+01  0.40000000000E+01  0.51109989000E-03 0.  1.
     -623   -1    0    0    0    0  0.00000000000E+00  0.00000000000E+00  0.12525980253E-10  0.17130000000E+03  0.17130000000E+03 0.  1.
       11    1    1    2    0    0 -0.64516135994E-02 -0.12617294780E-01  0.12953741488E+00  0.13031125247E+00  0.51109989000E-03 0.  1.
     -623    1    1    2    0    0 -0.46376126159E-02  0.63203160770E-02  0.10017413366E-02  0.17130000018E+03  0.17130000000E+03 0.  1.
      622    1    1    2    0    0  0.11089226215E-01  0.62969787034E-02  0.38694608111E+01  0.38696885652E+01  0.40000000000E-01 0.  1.
</event>
<event>
 5   0  0.6200596E+07  0.9118800E+02  0.7818608E-02  0.1180000E+00
       11   -1    0    0    0    0  0.00000000000E+00  0.00000000000E+00  0.39999999673E+01  0.40000000000E+01  0.51109989000E-03 0.  1.
     -623   -1    0    0    0    0  0.00000000000E+00  0.00000000000E+00  0.12525980253E-10  0.17130000000E+03  0.17130000000E+03 0. -1.
       11    1    1    2    0    0  0.87920854150E-02 -0.45069523516E-02  0.23342517436E+00  0.23363472908E+00  0.51109989000E-03 0.  1.
     -623    1    1    2    0    0 -0.49747620756E-02  0.56251645405E-02  0.42420017512E-03  0.17130000017E+03  0.17130000000E+03 0. -1.
      622    1    1    2    0    0 -0.38173233393E-02 -0.11182121890E-02  0.37661505928E+01  0.37663651058E+01  0.40000000000E-01 0.  1.
</event>
<event>
 5   0  0.6200596E+07  0.9118800E+02  0.7818608E-02  0.1180000E+00
       11   -1    0    0    0    0  0.00000000000E+00  0.00000000000E+00  0.39999999673E+01  0.40000000000E+01  0.51109989000E-03 0. -1.
     -623   -1    0    0    0    0  0.00000000000E+00  0.00000000000E+00  0.12525980253E-10  0.17130000000E+03  0.17130000000E+03 0. -1.
       11    1    1    2    0    0 -0.17699052231E-01  0.22495521497E-01  0.20231952134E+01  0.20233977458E+01  0.51109989000E-03 0. -1.
     -623    1    1    2    0    0 -0.39094315980E-03 -0.81339480318E-03  0.80903234723E-03  0.17130000000E+03  0.17130000000E+03 0. -1.
      622    1    1    2    0    0  0.18089995390E-01 -0.21682126694E-01  0.19759957216E+01  0.19766022499E+01  0.40000000000E-01 0. -1.
</event>
<event>
 5   0  0.6200596E+07  0.9118800E+02  0.7818608E-02  0.1180000E+00
       11   -1    0    0    0    0  0.00000000000E+00  0.00000000000E+00  0.39999999673E+01  0.40000000000E+01  0.51109989000E-03 0.  1.
     -623   -1    0    0    0    0  0.00000000000E+00  0.00000000000E+00  0.12525980253E-10  0.17130000000E+03  0.17130000000E+03 0. -1.
       11    1    1    2    0    0 -0.27587544796E-03  0.77243647242E-04  0.42222695347E-01  0.42226760438E-01  0.51109989000E-03 0.  1.
     -623    1    1    2    0    0 -0.16493340771E-02  0.49552829368E-04  0.20664985142E-03  0.17130000001E+03  0.17130000000E+03 0. -1.
      622    1    1    2    0    0  0.19252095251E-02 -0.12679647661E-03  0.39575706222E+01  0.39577732315E+01  0.40000000000E-01 0.  1.
</event>
<event>
 5   0  0.6200596E+07  0.9118800E+02  0.7818608E-02  0.1180000E+00
       11   -1    0    0    0    0  0.00000000000E+00  0.00000000000E+00  0.39999999673E+01  0.40000000000E+01  0.51109989000E-03 0. -1.
     -623   -1    0    0    0    0  0.00000000000E+00  0.00000000000E+00  0.12525980253E-10  0.17130000000E+03  0.17130000000E+03 0. -1.
       11    1    1    2    0    0 -0.40260002061E-02  0.36720831883E-02  0.22599793114E-01  0.23253058781E-01  0.51109989000E-03 0. -1.
     -623    1    1    2    0    0  0.87038212362E-02 -0.61295145428E-02  0.85825122975E-03  0.17130000033E+03  0.17130000000E+03 0. -1.
      622    1    1    2    0    0 -0.46778210301E-02  0.24574313545E-02  0.39765419230E+01  0.39767466083E+01  0.40000000000E-01 0. -1.
</event>
<event>
 5   0  0.6200596E+07  0.9118800E+02  0.7818608E-02  0.1180000E+00
       11   -1    0    0    0    0  0.00000000000E+00  0.00000000000E+00  0.39999999673E+01  0.40000000000E+01  0.51109989000E-03 0.  1.
     -623   -1    0    0    0    0  0.00000000000E+00  0.00000000000E+00  0.12525980253E-10  0.17130000000E+03  0.17130000000E+03 0.  1.
       11    1    1    2    0    0  0.32703705587E-01 -0.62966101822E-02  0.13319736537E+01  0.13323900536E+01  0.51109989000E-03 0.  1.
     -623    1    1    2    0    0 -0.17046013913E-01  0.11984658311E-02  0.76796189105E-03  0.17130000085E+03  0.17130000000E+03 0.  1.
      622    1    1    2    0    0 -0.15657691675E-01  0.50981443512E-02  0.26672583518E+01  0.26676090924E+01  0.40000000000E-01 0.  0.
</event>
<event>
 5   0  0.6200596E+07  0.9118800E+02  0.7818608E-02  0.1180000E+00
       11   -1    0    0    0    0  0.00000000000E+00  0.00000000000E+00  0.39999999673E+01  0.40000000000E+01  0.51109989000E-03 0. -1.
     -623   -1    0    0    0    0  0.00000000000E+00  0.00000000000E+00  0.12525980253E-10  0.17130000000E+03  0.17130000000E+03 0. -1.
       11    1    1    2    0    0 -0.32157281527E-01 -0.34112267083E-01  0.35926541671E+00  0.36231152119E+00  0.51109989000E-03 0. -1.
     -623    1    1    2    0    0  0.20500545171E-01  0.24588783162E-01  0.33001667452E-02  0.17130000302E+03  0.17130000000E+03 0. -1.
      622    1    1    2    0    0  0.11656736356E-01  0.95234839209E-02  0.36374343839E+01  0.36376854555E+01  0.40000000000E-01 0. -1.
</event>
<event>
 5   0  0.6200596E+07  0.9118800E+02  0.7818608E-02  0.1180000E+00
       11   -1    0    0    0    0  0.00000000000E+00  0.00000000000E+00  0.39999999673E+01  0.40000000000E+01  0.51109989000E-03 0. -1.
     -623   -1    0    0    0    0  0.00000000000E+00  0.00000000000E+00  0.12525980253E-10  0.17130000000E+03  0.17130000000E+03 0.  1.
       11    1    1    2    0    0  0.18992420218E-02 -0.35662661650E-02  0.24693654709E-01  0.25027248719E-01  0.51109989000E-03 0. -1.
     -623    1    1    2    0    0  0.34180903040E-02  0.32917807981E-02  0.53845845135E-03  0.17130000007E+03  0.17130000000E+03 0.  1.
      622    1    1    2    0    0 -0.53173323259E-02  0.27448536684E-03  0.39747678542E+01  0.39749726847E+01  0.40000000000E-01 0. -1.
</event>
<event>
 5   0  0.6200596E+07  0.9118800E+02  0.7818608E-02  0.1180000E+00
       11   -1    0    0    0    0  0.00000000000E+00  0.00000000000E+00  0.39999999673E+01  0.40000000000E+01  0.51109989000E-03 0.  1.
     -623   -1    0    0    0    0  0.00000000000E+00  0.00000000000E+00  0.12525980253E-10  0.17130000000E+03  0.17130000000E+03 0.  1.
       11    1    1    2    0    0  0.42338531527E-02  0.78953562134E-02  0.31562173878E+00  0.31574927612E+00  0.51109989000E-03 0.  1.
     -623    1    1    2    0    0  0.45735826490E-03 -0.89868188362E-03  0.35428581274E-03  0.17130000000E+03  0.17130000000E+03 0.  1.
      622    1    1    2    0    0 -0.46912114176E-02 -0.69966743298E-02  0.36840239428E+01  0.36842507205E+01  0.40000000000E-01 0.  1.
</event>
<event>
 5   0  0.6200596E+07  0.9118800E+02  0.7818608E-02  0.1180000E+00
       11   -1    0    0    0    0  0.00000000000E+00  0.00000000000E+00  0.39999999673E+01  0.40000000000E+01  0.51109989000E-03 0. -1.
     -623   -1    0    0    0    0  0.00000000000E+00  0.00000000000E+00  0.12525980253E-10  0.17130000000E+03  0.17130000000E+03 0.  1.
       11    1    1    2    0    0  0.44358278189E-02 -0.16462009554E-01  0.33091884758E+00  0.33135814345E+00  0.51109989000E-03 0. -1.
     -623    1    1    2    0    0  0.28148603935E-02 -0.33797537127E-02  0.71821812982E-03  0.17130000006E+03  0.17130000000E+03 0.  1.
      622    1    1    2    0    0 -0.72506882125E-02  0.19841763266E-01  0.36683629017E+01  0.36686417986E+01  0.40000000000E-01 0.  0.
</event>
<event>
 5   0  0.6200596E+07  0.9118800E+02  0.7818608E-02  0.1180000E+00
       11   -1    0    0    0    0  0.00000000000E+00  0.00000000000E+00  0.39999999673E+01  0.40000000000E+01  0.51109989000E-03 0. -1.
     -623   -1    0    0    0    0  0.00000000000E+00  0.00000000000E+00  0.12525980253E-10  0.17130000000E+03  0.17130000000E+03 0. -1.
       11    1    1    2    0    0  0.70991111588E-01 -0.96985469583E-02  0.38493129309E+00  0.39154330714E+00  0.51109989000E-03 0. -1.
     -623    1    1    2    0    0 -0.14740959044E-02  0.67047866514E-02  0.75049607624E-02  0.17130000030E+03  0.17130000000E+03 0. -1.
      622    1    1    2    0    0 -0.69517015684E-01  0.29937603068E-02  0.36075637135E+01  0.36084563909E+01  0.40000000000E-01 0. -1.
</event>
<event>
 5   0  0.6200596E+07  0.9118800E+02  0.7818608E-02  0.1180000E+00
       11   -1    0    0    0    0  0.00000000000E+00  0.00000000000E+00  0.39999999673E+01  0.40000000000E+01  0.51109989000E-03 0. -1.
     -623   -1    0    0    0    0  0.00000000000E+00  0.00000000000E+00  0.12525980253E-10  0.17130000000E+03  0.17130000000E+03 0. -1.
       11    1    1    2    0    0  0.78991027439E-03  0.21604395294E-01  0.28402989526E+00  0.28485192026E+00  0.51109989000E-03 0. -1.
     -623    1    1    2    0    0 -0.19609007760E-02 -0.21643527344E-02  0.10884108300E-02  0.17130000003E+03  0.17130000000E+03 0. -1.
      622    1    1    2    0    0  0.11709905016E-02 -0.19440042559E-01  0.37148816613E+01  0.37151480514E+01  0.40000000000E-01 0. -1.
</event>
<event>
 5   0  0.6200596E+07  0.9118800E+02  0.7818608E-02  0.1180000E+00
       11   -1    0    0    0    0  0.00000000000E+00  0.00000000000E+00  0.39999999673E+01  0.40000000000E+01  0.51109989000E-03 0.  1.
     -623   -1    0    0    0    0  0.00000000000E+00  0.00000000000E+00  0.12525980253E-10  0.17130000000E+03  0.17130000000E+03 0.  1.
       11    1    1    2    0    0 -0.16569104822E-03 -0.13217691558E-01  0.52421985928E+00  0.52438674364E+00  0.51109989000E-03 0.  1.
     -623    1    1    2    0    0  0.42256501151E-02  0.54184747708E-02  0.40829554790E-03  0.17130000014E+03  0.17130000000E+03 0.  1.
      622    1    1    2    0    0 -0.40599590669E-02  0.77992167871E-02  0.34753718125E+01  0.34756131181E+01  0.40000000000E-01 0.  1.
</event>
<event>
 5   0  0.6200596E+07  0.9118800E+02  0.7818608E-02  0.1180000E+00
       11   -1    0    0    0    0  0.00000000000E+00  0.00000000000E+00  0.39999999673E+01  0.40000000000E+01  0.51109989000E-03 0. -1.
     -623   -1    0    0    0    0  0.00000000000E+00  0.00000000000E+00  0.12525980253E-10  0.17130000000E+03  0.17130000000E+03 0. -1.
       11    1    1    2    0    0  0.11452645984E-01 -0.10311555786E-01  0.14164696901E+01  0.14165536120E+01  0.51109989000E-03 0. -1.
     -623    1    1    2    0    0  0.37354326866E-02  0.13491825244E-02  0.45381746228E-03  0.17130000005E+03  0.17130000000E+03 0. -1.
      622    1    1    2    0    0 -0.15188078671E-01  0.89623732617E-02  0.25830764598E+01  0.25834463414E+01  0.40000000000E-01 0. -1.
</event>
<event>
 5   0  0.6200596E+07  0.9118800E+02  0.7818608E-02  0.1180000E+00
       11   -1    0    0    0    0  0.00000000000E+00  0.00000000000E+00  0.39999999673E+01  0.40000000000E+01  0.51109989000E-03 0.  1.
     -623   -1    0    0    0    0  0.00000000000E+00  0.00000000000E+00  0.12525980253E-10  0.17130000000E+03  0.17130000000E+03 0.  1.
       11    1    1    2    0    0 -0.31962616880E-02  0.84199432861E-02  0.60828679365E+00  0.60835367680E+00  0.51109989000E-03 0.  1.
     -623    1    1    2    0    0  0.14636688528E-02 -0.49527828706E-03  0.31244094084E-03  0.17130000001E+03  0.17130000000E+03 0.  1.
      622    1    1    2    0    0  0.17325928351E-02 -0.79246649991E-02  0.33914007328E+01  0.33916463159E+01  0.40000000000E-01 0.  1.
</event>
<event>
 5   0  0.6200596E+07  0.9118800E+02  0.7818608E-02  0.1180000E+00
       11   -1    0    0    0    0  0.00000000000E+00  0.00000000000E+00  0.39999999673E+01  0.40000000000E+01  0.51109989000E-03 0.  1.
     -623   -1    0    0    0    0  0.00000000000E+00  0.00000000000E+00  0.12525980253E-10  0.17130000000E+03  0.17130000000E+03 0.  1.
       11    1    1    2    0    0 -0.96290141474E-02 -0.12417760066E-01  0.29306686066E+00  0.29348827015E+00  0.51109989000E-03 0.  1.
     -623    1    1    2    0    0  0.55727943282E-02  0.13672510485E-02  0.65601032888E-03  0.17130000010E+03  0.17130000000E+03 0.  1.
      622    1    1    2    0    0  0.40562198192E-02  0.11050509017E-01  0.37062770964E+01  0.37065116325E+01  0.40000000000E-01 0.  1.
</event>
<event>
 5   0  0.6200596E+07  0.9118800E+02  0.7818608E-02  0.1180000E+00
       11   -1    0    0    0    0  0.00000000000E+00  0.00000000000E+00  0.39999999673E+01  0.40000000000E+01  0.51109989000E-03 0. -1.
     -623   -1    0    0    0    0  0.00000000000E+00  0.00000000000E+00  0.12525980253E-10  0.17130000000E+03  0.17130000000E+03 0.  1.
       11    1    1    2    0    0 -0.14588701908E-01  0.40008314909E-02  0.11562609600E+01  0.11563600243E+01  0.51109989000E-03 0. -1.
     -623    1    1    2    0    0  0.49311251544E-02  0.22670546945E-03  0.39999071391E-03  0.17130000007E+03  0.17130000000E+03 0.  1.
      622    1    1    2    0    0  0.96575767533E-02 -0.42275369603E-02  0.28433390166E+01  0.28436399041E+01  0.40000000000E-01 0.  0.
</event>
<event>
 5   0  0.6200596E+07  0.9118800E+02  0.7818608E-02  0.1180000E+00
       11   -1    0    0    0    0  0.00000000000E+00  0.00000000000E+00  0.39999999673E+01  0.40000000000E+01  0.51109989000E-03 0. -1.
     -623   -1    0    0    0    0  0.00000000000E+00  0.00000000000E+00  0.12525980253E-10  0.17130000000E+03  0.17130000000E+03 0. -1.
       11    1    1    2    0    0 -0.19077753542E-01 -0.11102314759E-03  0.16495695775E+01  0.16496799766E+01  0.51109989000E-03 0. -1.
     -623    1    1    2    0    0  0.26863695716E-03 -0.14962095606E-02  0.52660230761E-03  0.17130000001E+03  0.17130000000E+03 0. -1.
      622    1    1    2    0    0  0.18809116585E-01  0.16072327082E-02  0.23499037876E+01  0.23503200159E+01  0.40000000000E-01 0. -1.
</event>
<event>
 5   0  0.6200596E+07  0.9118800E+02  0.7818608E-02  0.1180000E+00
       11   -1    0    0    0    0  0.00000000000E+00  0.00000000000E+00  0.39999999673E+01  0.40000000000E+01  0.51109989000E-03 0.  1.
     -623   -1    0    0    0    0  0.00000000000E+00  0.00000000000E+00  0.12525980253E-10  0.17130000000E+03  0.17130000000E+03 0.  1.
       11    1    1    2    0    0  0.33596019795E-02  0.15701412431E-02  0.12596515572E+00  0.12602076791E+00  0.51109989000E-03 0.  1.
     -623    1    1    2    0    0 -0.64949938161E-03  0.32394482129E-03  0.26350386928E-03  0.17130000000E+03  0.17130000000E+03 0.  1.
      622    1    1    2    0    0 -0.27101025979E-02 -0.18940860644E-02  0.38737713078E+01  0.38739792303E+01  0.40000000000E-01 0.  1.
</event>
<event>
 5   0  0.6200596E+07  0.9118800E+02  0.7818608E-02  0.1180000E+00
       11   -1    0    0    0    0  0.00000000000E+00  0.00000000000E+00  0.39999999673E+01  0.40000000000E+01  0.51109989000E-03 0. -1.
     -623   -1    0    0    0    0  0.00000000000E+00  0.00000000000E+00  0.12525980253E-10  0.17130000000E+03  0.17130000000E+03 0. -1.
       11    1    1    2    0    0 -0.21401476023E-02 -0.67450271678E-02  0.16159239130E+00  0.16174806883E+00  0.51109989000E-03 0. -1.
     -623    1    1    2    0    0  0.95126737517E-02  0.40181800243E-02  0.37244010280E-03  0.17130000031E+03  0.17130000000E+03 0. -1.
      622    1    1    2    0    0 -0.73725261495E-02  0.27268471435E-02  0.38380351360E+01  0.38382516195E+01  0.40000000000E-01 0. -1.
</event>
<event>
 5   0  0.6200596E+07  0.9118800E+02  0.7818608E-02  0.1180000E+00
       11   -1    0    0    0    0  0.00000000000E+00  0.00000000000E+00  0.39999999673E+01  0.40000000000E+01  0.51109989000E-03 0.  1.
     -623   -1    0    0    0    0  0.00000000000E+00  0.00000000000E+00  0.12525980253E-10  0.17130000000E+03  0.17130000000E+03 0.  1.
       11    1    1    2    0    0  0.16423906149E-02  0.92648562918E-04  0.82346774868E-02  0.84129165191E-02  0.51109989000E-03 0.  1.
     -623    1    1    2    0    0 -0.90529758805E-03  0.22780399673E-03  0.37871684277E-03  0.17130000000E+03  0.17130000000E+03 0.  1.
      622    1    1    2    0    0 -0.73709302681E-03 -0.32045255965E-03  0.39913865730E+01  0.39915870805E+01  0.40000000000E-01 0.  1.
</event>
<event>
 5   0  0.6200596E+07  0.9118800E+02  0.7818608E-02  0.1180000E+00
       11   -1    0    0    0    0  0.00000000000E+00  0.00000000000E+00  0.39999999673E+01  0.40000000000E+01  0.51109989000E-03 0. -1.
     -623   -1    0    0    0    0  0.00000000000E+00  0.00000000000E+00  0.12525980253E-10  0.17130000000E+03  0.17130000000E+03 0. -1.
       11    1    1    2    0    0  0.48470852483E-01 -0.26018380648E-01  0.40138429931E+00  0.40513700969E+00  0.51109989000E-03 0. -1.
     -623    1    1    2    0    0 -0.30163256406E-01  0.12885294089E-02  0.41096237021E-02  0.17130000271E+03  0.17130000000E+03 0. -1.
      622    1    1    2    0    0 -0.18307596077E-01  0.24729851239E-01  0.35945060444E+01  0.35948602805E+01  0.40000000000E-01 0. -1.
</event>
<event>
 5   0  0.6200596E+07  0.9118800E+02  0.7818608E-02  0.1180000E+00
       11   -1    0    0    0    0  0.00000000000E+00  0.00000000000E+00  0.39999999673E+01  0.40000000000E+01  0.51109989000E-03 0.  1.
     -623   -1    0    0    0    0  0.00000000000E+00  0.00000000000E+00  0.12525980253E-10  0.17130000000E+03  0.17130000000E+03 0.  1.
       11    1    1    2    0    0 -0.53695747839E-03 -0.13886343071E-02  0.50698269614E-02  0.53085774741E-02  0.51109989000E-03 0.  1.
     -623    1    1    2    0    0 -0.12767012858E-02 -0.12448311213E-02  0.44027834636E-03  0.17130000001E+03  0.17130000000E+03 0.  1.
      622    1    1    2    0    0  0.18136587642E-02  0.26334654284E-02  0.39944898621E+01  0.39946914127E+01  0.40000000000E-01 0.  1.
</event>
<event>
 5   0  0.6200596E+07  0.9118800E+02  0.7818608E-02  0.1180000E+00
       11   -1    0    0    0    0  0.00000000000E+00  0.00000000000E+00  0.39999999673E+01  0.40000000000E+01  0.51109989000E-03 0. -1.
     -623   -1    0    0    0    0  0.00000000000E+00  0.00000000000E+00  0.12525980253E-10  0.17130000000E+03  0.17130000000E+03 0. -1.
       11    1    1    2    0    0 -0.22693339540E-03  0.67771925214E-02  0.54884251973E+00  0.54888464591E+00  0.51109989000E-03 0. -1.
     -623    1    1    2    0    0  0.67548948911E-02 -0.25372030532E-02  0.28284184783E-03  0.17130000015E+03  0.17130000000E+03 0. -1.
      622    1    1    2    0    0 -0.65279614957E-02 -0.42399894682E-02  0.34508746058E+01  0.34511152019E+01  0.40000000000E-01 0. -1.
</event>
<event>
 5   0  0.6200596E+07  0.9118800E+02  0.7818608E-02  0.1180000E+00
       11   -1    0    0    0    0  0.00000000000E+00  0.00000000000E+00  0.39999999673E+01  0.40000000000E+01  0.51109989000E-03 0. -1.
     -623   -1    0    0    0    0  0.00000000000E+00  0.00000000000E+00  0.12525980253E-10  0.17130000000E+03  0.17130000000E+03 0.  1.
       11    1    1    2    0    0 -0.25310698453E-01  0.20143757101E-01  0.14278619732E+01  0.14282284405E+01  0.51109989000E-03 0. -1.
     -623    1    1    2    0    0  0.56426268008E-01 -0.61183860381E-01  0.12135570497E-02  0.17130002022E+03  0.17130000000E+03 0.  1.
      622    1    1    2    0    0 -0.31115569555E-01  0.41040103281E-01  0.25709244371E+01  0.25717513351E+01  0.40000000000E-01 0.  0.
</event>
<event>
 5   0  0.6200596E+07  0.9118800E+02  0.7818608E-02  0.1180000E+00
       11   -1    0    0    0    0  0.00000000000E+00  0.00000000000E+00  0.39999999673E+01  0.40000000000E+01  0.51109989000E-03 0. -1.
     -623   -1    0    0    0    0  0.00000000000E+00  0.00000000000E+00  0.12525980253E-10  0.17130000000E+03  0.17130000000E+03 0. -1.
       11    1    1    2    0    0 -0.16741060949E-02 -0.32505151596E-02  0.20629974028E+00  0.20633277137E+00  0.51109989000E-03 0. -1.
     -623    1    1    2    0    0  0.47298474964E-03  0.88506209569E-04  0.24539090366E-03  0.17130000000E+03  0.17130000000E+03 0. -1.
      622    1    1    2    0    0  0.12011213453E-02  0.31620089500E-02  0.37934548362E+01  0.37936672278E+01  0.40000000000E-01 0. -1.
</event>
<event>
 5   0  0.6200596E+07  0.9118800E+02  0.7818608E-02  0.1180000E+00
       11   -1    0    0    0    0  0.00000000000E+00  0.00000000000E+00  0.39999999673E+01  0.40000000000E+01  0.51109989000E-03 0.  1.
     -623   -1    0    0    0    0  0.00000000000E+00  0.00000000000E+00  0.12525980253E-10  0.17130000000E+03  0.17130000000E+03 0. -1.
       11    1    1    2    0    0  0.59564785155E-02 -0.20641314785E-02  0.29694859610E-01  0.30360931870E-01  0.51109989000E-03 0. -1.
     -623    1    1    2    0    0 -0.97070730042E-03  0.36889514753E-03  0.87107291452E-03  0.17130000001E+03  0.17130000000E+03 0. -1.
      622    1    1    2    0    0 -0.49857712151E-02  0.16952363309E-02  0.39694340348E+01  0.39696390628E+01  0.40000000000E-01 0.  1.
</event>
<event>
 5   0  0.6200596E+07  0.9118800E+02  0.7818608E-02  0.1180000E+00
       11   -1    0    0    0    0  0.00000000000E+00  0.00000000000E+00  0.39999999673E+01  0.40000000000E+01  0.51109989000E-03 0.  1.
     -623   -1    0    0    0    0  0.00000000000E+00  0.00000000000E+00  0.12525980253E-10  0.17130000000E+03  0.17130000000E+03 0. -1.
       11    1    1    2    0    0 -0.39994557379E-03 -0.87714400121E-03  0.73549208495E-02  0.74354166496E-02  0.51109989000E-03 0.  1.
     -623    1    1    2    0    0  0.59758293603E-03 -0.10282476748E-02  0.28130458554E-03  0.17130000000E+03  0.17130000000E+03 0. -1.
      622    1    1    2    0    0 -0.19763736225E-03  0.19053916760E-02  0.39923637419E+01  0.39925645790E+01  0.40000000000E-01 0.  1.
</event>
<event>
 5   0  0.6200596E+07  0.9118800E+02  0.7818608E-02  0.1180000E+00
       11   -1    0    0    0    0  0.00000000000E+00  0.00000000000E+00  0.39999999673E+01  0.40000000000E+01  0.51109989000E-03 0.  1.
     -623   -1    0    0    0    0  0.00000000000E+00  0.00000000000E+00  0.12525980253E-10  0.17130000000E+03  0.17130000000E+03 0.  1.
       11    1    1    2    0    0 -0.22749682762E-02  0.59756178394E-03  0.46012846530E+00  0.46013476108E+00  0.51109989000E-03 0.  1.
     -623    1    1    2    0    0  0.19330260486E-03 -0.81004288345E-04  0.23291775838E-03  0.17130000000E+03  0.17130000000E+03 0.  1.
      622    1    1    2    0    0  0.20816656714E-02 -0.51655749560E-03  0.35396385843E+01  0.35398652386E+01  0.40000000000E-01 0.  1.
</event>
<event>
 5   0  0.6200596E+07  0.9118800E+02  0.7818608E-02  0.1180000E+00
       11   -1    0    0    0    0  0.00000000000E+00  0.00000000000E+00  0.39999999673E+01  0.40000000000E+01  0.51109989000E-03 0.  1.
     -623   -1    0    0    0    0  0.00000000000E+00  0.00000000000E+00  0.12525980253E-10  0.17130000000E+03  0.17130000000E+03 0. -1.
       11    1    1    2    0    0 -0.64248308089E-02  0.26356353125E-02  0.63136778281E+00  0.63140617943E+00  0.51109989000E-03 0.  1.
     -623    1    1    2    0    0  0.14771940452E-02 -0.17088374062E-02  0.27963648262E-03  0.17130000002E+03  0.17130000000E+03 0. -1.
      622    1    1    2    0    0  0.49476367637E-02 -0.92679790633E-03  0.33683525481E+01  0.33685938055E+01  0.40000000000E-01 0.  1.
</event>
<event>
 5   0  0.6200596E+07  0.9118800E+02  0.7818608E-02  0.1180000E+00
       11   -1    0    0    0    0  0.00000000000E+00  0.00000000000E+00  0.39999999673E+01  0.40000000000E+01  0.51109989000E-03 0.  1.
     -623   -1    0    0    0    0  0.00000000000E+00  0.00000000000E+00  0.12525980253E-10  0.17130000000E+03  0.17130000000E+03 0.  1.
       11    1    1    2    0    0 -0.14221146072E-01  0.56582568698E-02  0.87590093961E+00  0.87603480188E+00  0.51109989000E-03 0.  1.
     -623    1    1    2    0    0  0.12170026141E-02  0.20866100485E-03  0.42250807620E-03  0.17130000000E+03  0.17130000000E+03 0.  1.
      622    1    1    2    0    0  0.13004143457E-01 -0.58669178747E-02  0.31236765197E+01  0.31239651932E+01  0.40000000000E-01 0.  1.
</event>
<event>
 5   0  0.6200596E+07  0.9118800E+02  0.7818608E-02  0.1180000E+00
       11   -1    0    0    0    0  0.00000000000E+00  0.00000000000E+00  0.39999999673E+01  0.40000000000E+01  0.51109989000E-03 0. -1.
     -623   -1    0    0    0    0  0.00000000000E+00  0.00000000000E+00  0.12525980253E-10  0.17130000000E+03  0.17130000000E+03 0.  1.
       11    1    1    2    0    0 -0.87618681111E-02 -0.62935234112E-02  0.13097416054E+00  0.13141868482E+00  0.51109989000E-03 0. -1.
     -623    1    1    2    0    0  0.27011042233E-03 -0.69011032506E-03  0.66691852557E-03  0.17130000000E+03  0.17130000000E+03 0.  1.
      622    1    1    2    0    0  0.84917576888E-02  0.69836337362E-02  0.38683588883E+01  0.38685813123E+01  0.40000000000E-01 0. -1.
</event>
<event>
 5   0  0.6200596E+07  0.9118800E+02  0.7818608E-02  0.1180000E+00
       11   -1    0    0    0    0  0.00000000000E+00  0.00000000000E+00  0.39999999673E+01  0.40000000000E+01  0.51109989000E-03 0.  1.
     -623   -1    0    0    0    0  0.00000000000E+00  0.00000000000E+00  0.12525980253E-10  0.17130000000E+03  0.17130000000E+03 0. -1.
       11    1    1    2    0    0 -0.93226692746E-06 -0.18100209349E-03  0.81027474122E-02  0.81208681049E-02  0.51109989000E-03 0.  1.
     -623    1    1    2    0    0 -0.37971331009E-03 -0.18000068984E-03  0.21853508108E-03  0.17130000000E+03  0.17130000000E+03 0. -1.
      622    1    1    2    0    0  0.38064557702E-03  0.36100278332E-03  0.39916786849E+01  0.39918791312E+01  0.40000000000E-01 0.  1.
</event>
<event>
 5   0  0.6200596E+07  0.9118800E+02  0.7818608E-02  0.1180000E+00
       11   -1    0    0    0    0  0.00000000000E+00  0.00000000000E+00  0.39999999673E+01  0.40000000000E+01  0.51109989000E-03 0.  1.
     -623   -1    0    0    0    0  0.00000000000E+00  0.00000000000E+00  0.12525980253E-10  0.17130000000E+03  0.17130000000E+03 0.  1.
       11    1    1    2    0    0  0.11143508747E-01  0.24515042596E-02  0.60238626054E-01  0.61311833691E-01  0.51109989000E-03 0.  1.
     -623    1    1    2    0    0  0.50011375892E-04 -0.38962314784E-02  0.12925142390E-02  0.17130000005E+03  0.17130000000E+03 0.  1.
      622    1    1    2    0    0 -0.11193520123E-01  0.14447272188E-02  0.39384688271E+01  0.39386881171E+01  0.40000000000E-01 0.  1.
</event>
<event>
 5   0  0.6200596E+07  0.9118800E+02  0.7818608E-02  0.1180000E+00
       11   -1    0    0    0    0  0.00000000000E+00  0.00000000000E+00  0.39999999673E+01  0.40000000000E+01  0.51109989000E-03 0. -1.
     -623   -1    0    0    0    0  0.00000000000E+00  0.00000000000E+00  0.12525980253E-10  0.17130000000E+03  0.17130000000E+03 0. -1.
       11    1    1    2    0    0 -0.29513234732E-02 -0.38850930643E-02  0.65991267919E+00  0.65993091278E+00  0.51109989000E-03 0. -1.
     -623    1    1    2    0    0  0.39639723960E-03 -0.98428786461E-03  0.26225598148E-03  0.17130000000E+03  0.17130000000E+03 0. -1.
      622    1    1    2    0    0  0.25549262336E-02  0.48693809289E-02  0.33398250322E+01  0.33400690837E+01  0.40000000000E-01 0. -1.
</event>
<event>
 5   0  0.6200596E+07  0.9118800E+02  0.7818608E-02  0.1180000E+00
       11   -1    0    0    0    0  0.00000000000E+00  0.00000000000E+00  0.39999999673E+01  0.40000000000E+01  0.51109989000E-03 0. -1.
     -623   -1    0    0    0    0  0.00000000000E+00  0.00000000000E+00  0.12525980253E-10  0.17130000000E+03  0.17130000000E+03 0. -1.
       11    1    1    2    0    0 -0.72628444136E-03  0.22208280480E-02  0.25148527562E-01  0.25262011510E-01  0.51109989000E-03 0. -1.
     -623    1    1    2    0    0  0.43006702427E-03 -0.38565828036E-03  0.31516351357E-03  0.17130000000E+03  0.17130000000E+03 0. -1.
      622    1    1    2    0    0  0.29621741709E-03 -0.18351697676E-02  0.39745362763E+01  0.39747379872E+01  0.40000000000E-01 0. -1.
</event>
<event>
 5   0  0.6200596E+07  0.9118800E+02  0.7818608E-02  0.1180000E+00
       11   -1    0    0    0    0  0.00000000000E+00  0.00000000000E+00  0.39999999673E+01  0.40000000000E+01  0.51109989000E-03 0. -1.
     -623   -1    0    0    0    0  0.00000000000E+00  0.00000000000E+00  0.12525980253E-10  0.17130000000E+03  0.17130000000E+03 0. -1.
       11    1    1    2    0    0  0.17104062070E-01  0.48650348556E-01  0.46204275832E+00  0.46491201005E+00  0.51109989000E-03 0. -1.
     -623    1    1    2    0    0  0.15142046029E-01  0.10290382916E-01  0.37350781406E-02  0.17130000102E+03  0.17130000000E+03 0. -1.
      622    1    1    2    0    0 -0.32246108099E-01 -0.58940731472E-01  0.35342221309E+01  0.35350869709E+01  0.40000000000E-01 0. -1.
</event>
<event>
 5   0  0.6200596E+07  0.9118800E+02  0.7818608E-02  0.1180000E+00
       11   -1    0    0    0    0  0.00000000000E+00  0.00000000000E+00  0.39999999673E+01  0.40000000000E+01  0.51109989000E-03 0.  1.
     -623   -1    0    0    0    0  0.00000000000E+00  0.00000000000E+00  0.12525980253E-10  0.17130000000E+03  0.17130000000E+03 0.  1.
       11    1    1    2    0    0  0.14094492139E-02  0.57239753545E-02  0.24568451517E+00  0.24575575814E+00  0.51109989000E-03 0.  1.
     -623    1    1    2    0    0  0.11499768996E-03  0.20342453626E-03  0.28929797513E-03  0.17130000000E+03  0.17130000000E+03 0.  1.
      622    1    1    2    0    0 -0.15244469039E-02 -0.59273998908E-02  0.37540261542E+01  0.37542442415E+01  0.40000000000E-01 0.  0.
</event>
<event>
 5   0  0.6200596E+07  0.9118800E+02  0.7818608E-02  0.1180000E+00
       11   -1    0    0    0    0  0.00000000000E+00  0.00000000000E+00  0.39999999673E+01  0.40000000000E+01  0.51109989000E-03 0. -1.
     -623   -1    0    0    0    0  0.00000000000E+00  0.00000000000E+00  0.12525980253E-10  0.17130000000E+03  0.17130000000E+03 0. -1.
       11    1    1    2    0    0  0.32767714245E-02  0.22910484268E-02  0.64064223075E+00  0.64065491115E+00  0.51109989000E-03 0. -1.
     -623    1    1    2    0    0 -0.18589648981E-02 -0.34300099266E-03  0.25167254605E-03  0.17130000001E+03  0.17130000000E+03 0. -1.
      622    1    1    2    0    0 -0.14178065265E-02 -0.19480474341E-02  0.33591060641E+01  0.33593450782E+01  0.40000000000E-01 0. -1.
</event>
<event>
 5   0  0.6200596E+07  0.9118800E+02  0.7818608E-02  0.1180000E+00
       11   -1    0    0    0    0  0.00000000000E+00  0.00000000000E+00  0.39999999673E+01  0.40000000000E+01  0.51109989000E-03 0. -1.
     -623   -1    0    0    0    0  0.00000000000E+00  0.00000000000E+00  0.12525980253E-10  0.17130000000E+03  0.17130000000E+03 0. -1.
       11    1    1    2    0    0 -0.25170181259E-02  0.10107639034E-02  0.31011123638E-01  0.31133712180E-01  0.51109989000E-03 0. -1.
     -623    1    1    2    0    0  0.23479526755E-02  0.30211716732E-03  0.32436734212E-03  0.17130000002E+03  0.17130000000E+03 0. -1.
      622    1    1    2    0    0  0.16906545038E-03 -0.13128810707E-02  0.39686644764E+01  0.39688662712E+01  0.40000000000E-01 0. -1.
</event>
<event>
 5   0  0.6200596E+07  0.9118800E+02  0.7818608E-02  0.1180000E+00
       11   -1    0    0    0    0  0.00000000000E+00  0.00000000000E+00  0.39999999673E+01  0.40000000000E+01  0.51109989000E-03 0. -1.
     -623   -1    0    0    0    0  0.00000000000E+00  0.00000000000E+00  0.12525980253E-10  0.17130000000E+03  0.17130000000E+03 0. -1.
       11    1    1    2    0    0 -0.49865284100E-02  0.10732704931E-01  0.61412857559E+00  0.61424280623E+00  0.51109989000E-03 0. -1.
     -623    1    1    2    0    0 -0.98074159867E-03 -0.73467010135E-02  0.35760306172E-03  0.17130000016E+03  0.17130000000E+03 0. -1.
      622    1    1    2    0    0  0.59672700087E-02 -0.33860039174E-02  0.33855137887E+01  0.33857570330E+01  0.40000000000E-01 0.  0.
</event>
<event>
 5   0  0.6200596E+07  0.9118800E+02  0.7818608E-02  0.1180000E+00
       11   -1    0    0    0    0  0.00000000000E+00  0.00000000000E+00  0.39999999673E+01  0.40000000000E+01  0.51109989000E-03 0. -1.
     -623   -1    0    0    0    0  0.00000000000E+00  0.00000000000E+00  0.12525980253E-10  0.17130000000E+03  0.17130000000E+03 0. -1.
       11    1    1    2    0    0  0.79135516151E-05  0.15638788904E-02  0.53300146602E-01  0.53325534496E-01  0.51109989000E-03 0. -1.
     -623    1    1    2    0    0 -0.85031320591E-03 -0.91706974466E-04  0.22842954258E-03  0.17130000000E+03  0.17130000000E+03 0. -1.
      622    1    1    2    0    0  0.84239965429E-03 -0.14721719159E-02  0.39464713912E+01  0.39466744632E+01  0.40000000000E-01 0. -1.
</event>
<event>
 5   0  0.6200596E+07  0.9118800E+02  0.7818608E-02  0.1180000E+00
       11   -1    0    0    0    0  0.00000000000E+00  0.00000000000E+00  0.39999999673E+01  0.40000000000E+01  0.51109989000E-03 0. -1.
     -623   -1    0    0    0    0  0.00000000000E+00  0.00000000000E+00  0.12525980253E-10  0.17130000000E+03  0.17130000000E+03 0. -1.
       11    1    1    2    0    0 -0.10075582884E-01  0.17372087086E-01  0.18132534976E+01  0.18133647770E+01  0.51109989000E-03 0. -1.
     -623    1    1    2    0    0 -0.16777727256E-02  0.16962318644E-02  0.59190544845E-03  0.17130000002E+03  0.17130000000E+03 0. -1.
      622    1    1    2    0    0  0.11753355609E-01 -0.19068318950E-01  0.21861545643E+01  0.21866352053E+01  0.40000000000E-01 0.  0.
</event>
<event>
 5   0  0.6200596E+07  0.9118800E+02  0.7818608E-02  0.1180000E+00
       11   -1    0    0    0    0  0.00000000000E+00  0.00000000000E+00  0.39999999673E+01  0.40000000000E+01  0.51109989000E-03 0. -1.
     -623   -1    0    0    0    0  0.00000000000E+00  0.00000000000E+00  0.12525980253E-10  0.17130000000E+03  0.17130000000E+03 0.  1.
       11    1    1    2    0    0 -0.37604681115E-02 -0.57662827861E-02  0.24240748597E+01  0.24240846887E+01  0.51109989000E-03 0. -1.
     -623    1    1    2    0    0  0.49455719578E-02 -0.13785616263E-02  0.53424500852E-03  0.17130000008E+03  0.17130000000E+03 0.  1.
      622    1    1    2    0    0 -0.11851038463E-02  0.71448444124E-02  0.15753908626E+01  0.15759152336E+01  0.40000000000E-01 0. -1.
</event>
<event>
 5   0  0.6200596E+07  0.9118800E+02  0.7818608E-02  0.1180000E+00
       11   -1    0    0    0    0  0.00000000000E+00  0.00000000000E+00  0.39999999673E+01  0.40000000000E+01  0.51109989000E-03 0.  1.
     -623   -1    0    0    0    0  0.00000000000E+00  0.00000000000E+00  0.12525980253E-10  0.17130000000E+03  0.17130000000E+03 0.  1.
       11    1    1    2    0    0  0.45398134670E-01  0.72979702216E-02  0.74171412490E+00  0.74313818049E+00  0.51109989000E-03 0.  1.
     -623    1    1    2    0    0  0.72060919287E-02  0.67922315689E-02  0.21253392514E-02  0.17130000030E+03  0.17130000000E+03 0.  1.
      622    1    1    2    0    0 -0.52604226599E-01 -0.14090201790E-01  0.32561605032E+01  0.32568615201E+01  0.40000000000E-01 0.  1.
</event>
<event>
 5   0  0.6200596E+07  0.9118800E+02  0.7818608E-02  0.1180000E+00
       11   -1    0    0    0    0  0.00000000000E+00  0.00000000000E+00  0.39999999673E+01  0.40000000000E+01  0.51109989000E-03 0.  1.
     -623   -1    0    0    0    0  0.00000000000E+00  0.00000000000E+00  0.12525980253E-10  0.17130000000E+03  0.17130000000E+03 0.  1.
       11    1    1    2    0    0  0.50168040981E-02  0.19952025634E-02  0.41029461128E-02  0.68003341693E-02  0.51109989000E-03 0.  1.
     -623    1    1    2    0    0 -0.46339954304E-02 -0.44788009838E-04  0.28982829441E-02  0.17130000009E+03  0.17130000000E+03 0.  1.
      622    1    1    2    0    0 -0.38280866770E-03 -0.19504145535E-02  0.39929987383E+01  0.39931995786E+01  0.40000000000E-01 0.  1.
</event>
<event>
 5   0  0.6200596E+07  0.9118800E+02  0.7818608E-02  0.1180000E+00
       11   -1    0    0    0    0  0.00000000000E+00  0.00000000000E+00  0.39999999673E+01  0.40000000000E+01  0.51109989000E-03 0. -1.
     -623   -1    0    0    0    0  0.00000000000E+00  0.00000000000E+00  0.12525980253E-10  0.17130000000E+03  0.17130000000E+03 0. -1.
       11    1    1    2    0    0 -0.21762105899E-03 -0.11770612283E-03  0.96142975463E-02  0.96310514692E-02  0.51109989000E-03 0. -1.
     -623    1    1    2    0    0  0.30602442099E-04  0.10596003867E-02  0.21732800379E-03  0.17130000000E+03  0.17130000000E+03 0. -1.
      622    1    1    2    0    0  0.18701861689E-03 -0.94189426383E-03  0.39901683418E+01  0.39903689451E+01  0.40000000000E-01 0. -1.
</event>
<event>
 5   0  0.6200596E+07  0.9118800E+02  0.7818608E-02  0.1180000E+00
       11   -1    0    0    0    0  0.00000000000E+00  0.00000000000E+00  0.39999999673E+01  0.40000000000E+01  0.51109989000E-03 0. -1.
     -623   -1    0    0    0    0  0.00000000000E+00  0.00000000000E+00  0.12525980253E-10  0.17130000000E+03  0.17130000000E+03 0.  1.
       11    1    1    2    0    0 -0.10051785887E-01  0.36852361554E-02  0.23034778116E+01  0.23035027478E+01  0.51109989000E-03 0. -1.
     -623    1    1    2    0    0 -0.87450442566E-03  0.11840166065E-02  0.53872159833E-03  0.17130000001E+03  0.17130000000E+03 0.  1.
      622    1    1    2    0    0  0.10926290313E-01 -0.48692527619E-02  0.16959834341E+01  0.16964972450E+01  0.40000000000E-01 0.  1.
</event>
<event>
 5   0  0.6200596E+07  0.9118800E+02  0.7818608E-02  0.1180000E+00
       11   -1    0    0    0    0  0.00000000000E+00  0.00000000000E+00  0.39999999673E+01  0.40000000000E+01  0.51109989000E-03 0.  1.
     -623   -1    0    0    0    0  0.00000000000E+00  0.00000000000E+00  0.12525980253E-10  0.17130000000E+03  0.17130000000E+03 0. -1.
       11    1    1    2    0    0 -0.85475276020E-03  0.14366915362E-02  0.61928777990E-01  0.61953445826E-01  0.51109989000E-03 0.  1.
     -623    1    1    2    0    0  0.43000346153E-02 -0.78375256753E-03  0.22940405972E-03  0.17130000006E+03  0.17130000000E+03 0. -1.
      622    1    1    2    0    0 -0.34452818551E-02 -0.65293896865E-03  0.39378417853E+01  0.39380464983E+01  0.40000000000E-01 0.  1.
</event>
<event>
 5   0  0.6200596E+07  0.9118800E+02  0.7818608E-02  0.1180000E+00
       11   -1    0    0    0    0  0.00000000000E+00  0.00000000000E+00  0.39999999673E+01  0.40000000000E+01  0.51109989000E-03 0.  1.
     -623   -1    0    0    0    0  0.00000000000E+00  0.00000000000E+00  0.12525980253E-10  0.17130000000E+03  0.17130000000E+03 0. -1.
       11    1    1    2    0    0  0.47806473414E-02 -0.47858620859E-02  0.31901389602E+00  0.31908601683E+00  0.51109989000E-03 0.  1.
     -623    1    1    2    0    0  0.27156090685E-03  0.21971567401E-03  0.29573222532E-03  0.17130000000E+03  0.17130000000E+03 0. -1.
      622    1    1    2    0    0 -0.50522082482E-02  0.45661464119E-02  0.36806903391E+01  0.36809139826E+01  0.40000000000E-01 0.  1.
</event>
<event>
 5   0  0.6200596E+07  0.9118800E+02  0.7818608E-02  0.1180000E+00
       11   -1    0    0    0    0  0.00000000000E+00  0.00000000000E+00  0.39999999673E+01  0.40000000000E+01  0.51109989000E-03 0. -1.
     -623   -1    0    0    0    0  0.00000000000E+00  0.00000000000E+00  0.12525980253E-10  0.17130000000E+03  0.17130000000E+03 0. -1.
       11    1    1    2    0    0  0.74684943463E-03 -0.11730776102E-02  0.46728434368E-01  0.46751916489E-01  0.51109989000E-03 0. -1.
     -623    1    1    2    0    0  0.21466683954E-02  0.23496382410E-02  0.22708369860E-03  0.17130000003E+03  0.17130000000E+03 0. -1.
      622    1    1    2    0    0 -0.28935178300E-02 -0.11765606308E-02  0.39530444493E+01  0.39532480538E+01  0.40000000000E-01 0. -1.
</event>
<event>
 5   0  0.6200596E+07  0.9118800E+02  0.7818608E-02  0.1180000E+00
       11   -1    0    0    0    0  0.00000000000E+00  0.00000000000E+00  0.39999999673E+01  0.40000000000E+01  0.51109989000E-03 0. -1.
     -623   -1    0    0    0    0  0.00000000000E+00  0.00000000000E+00  0.12525980253E-10  0.17130000000E+03  0.17130000000E+03 0.  1.
       11    1    1    2    0    0  0.35700102290E-02 -0.50235337345E-02  0.13894297194E+00  0.13908052177E+00  0.51109989000E-03 0. -1.
     -623    1    1    2    0    0  0.38379872086E-01  0.14518720916E-01  0.58923786696E-03  0.17130000492E+03  0.17130000000E+03 0.  1.
      622    1    1    2    0    0 -0.41949882315E-01 -0.94951871819E-02  0.38604677576E+01  0.38609145624E+01  0.40000000000E-01 0. -1.
</event>
<event>
 5   0  0.6200596E+07  0.9118800E+02  0.7818608E-02  0.1180000E+00
       11   -1    0    0    0    0  0.00000000000E+00  0.00000000000E+00  0.39999999673E+01  0.40000000000E+01  0.51109989000E-03 0.  1.
     -623   -1    0    0    0    0  0.00000000000E+00  0.00000000000E+00  0.12525980253E-10  0.17130000000E+03  0.17130000000E+03 0. -1.
       11    1    1    2    0    0 -0.10857927351E-02  0.61274321234E-02  0.67928938978E-01  0.68215294057E-01  0.51109989000E-03 0.  1.
     -623    1    1    2    0    0  0.12676707856E-01 -0.10516655200E-02  0.51063315250E-03  0.17130000047E+03  0.17130000000E+03 0. -1.
      622    1    1    2    0    0 -0.11590915121E-01 -0.50757666034E-02  0.39315603952E+01  0.39317842329E+01  0.40000000000E-01 0.  1.
</event>
<event>
 5   0  0.6200596E+07  0.9118800E+02  0.7818608E-02  0.1180000E+00
       11   -1    0    0    0    0  0.00000000000E+00  0.00000000000E+00  0.39999999673E+01  0.40000000000E+01  0.51109989000E-03 0.  1.
     -623   -1    0    0    0    0  0.00000000000E+00  0.00000000000E+00  0.12525980253E-10  0.17130000000E+03  0.17130000000E+03 0. -1.
       11    1    1    2    0    0 -0.12366876791E-02 -0.89345279462E-02  0.96605310028E-01  0.97026812437E-01  0.51109989000E-03 0.  1.
     -623    1    1    2    0    0  0.50796699131E-02  0.90881619314E-03  0.63667017592E-03  0.17130000008E+03  0.17130000000E+03 0. -1.
      622    1    1    2    0    0 -0.38429822340E-02  0.80257117530E-02  0.39027579872E+01  0.39029731087E+01  0.40000000000E-01 0.  1.
</event>
<event>
 5   0  0.6200596E+07  0.9118800E+02  0.7818608E-02  0.1180000E+00
       11   -1    0    0    0    0  0.00000000000E+00  0.00000000000E+00  0.39999999673E+01  0.40000000000E+01  0.51109989000E-03 0.  1.
     -623   -1    0    0    0    0  0.00000000000E+00  0.00000000000E+00  0.12525980253E-10  0.17130000000E+03  0.17130000000E+03 0.  1.
       11    1    1    2    0    0  0.91973154932E-03  0.53508494324E-03  0.48441149243E-02  0.49858693780E-02  0.51109989000E-03 0.  1.
     -623    1    1    2    0    0 -0.28347695811E-02 -0.22904898840E-03  0.34247112841E-03  0.17130000002E+03  0.17130000000E+03 0.  1.
      622    1    1    2    0    0  0.19150380318E-02 -0.30603595484E-03  0.39948133813E+01  0.39950141067E+01  0.40000000000E-01 0.  1.
</event>
<event>
 5   0  0.6200596E+07  0.9118800E+02  0.7818608E-02  0.1180000E+00
       11   -1    0    0    0    0  0.00000000000E+00  0.00000000000E+00  0.39999999673E+01  0.40000000000E+01  0.51109989000E-03 0. -1.
     -623   -1    0    0    0    0  0.00000000000E+00  0.00000000000E+00  0.12525980253E-10  0.17130000000E+03  0.17130000000E+03 0. -1.
       11    1    1    2    0    0 -0.49559922395E-02  0.84739913432E-01  0.25678712024E+00  0.27045387986E+00  0.51109989000E-03 0. -1.
     -623    1    1    2    0    0 -0.31875912624E-03 -0.31837143079E-01  0.14263767802E-01  0.17130000355E+03  0.17130000000E+03 0. -1.
      622    1    1    2    0    0  0.52747513658E-02 -0.52902770353E-01  0.37289490793E+01  0.37295425674E+01  0.40000000000E-01 0. -1.
</event>
<event>
 5   0  0.6200596E+07  0.9118800E+02  0.7818608E-02  0.1180000E+00
       11   -1    0    0    0    0  0.00000000000E+00  0.00000000000E+00  0.39999999673E+01  0.40000000000E+01  0.51109989000E-03 0.  1.
     -623   -1    0    0    0    0  0.00000000000E+00  0.00000000000E+00  0.12525980253E-10  0.17130000000E+03  0.17130000000E+03 0. -1.
       11    1    1    2    0    0 -0.15005937370E-03 -0.10111318095E-01  0.11629754039E+01  0.11630194807E+01  0.51109989000E-03 0.  1.
     -623    1    1    2    0    0 -0.48144328301E-02  0.18186350304E-02  0.34259127567E-03  0.17130000008E+03  0.17130000000E+03 0. -1.
      622    1    1    2    0    0  0.49644922038E-02  0.82926830648E-02  0.28366819722E+01  0.28369804416E+01  0.40000000000E-01 0.  1.
</event>
<event>
 5   0  0.6200596E+07  0.9118800E+02  0.7818608E-02  0.1180000E+00
       11   -1    0    0    0    0  0.00000000000E+00  0.00000000000E+00  0.39999999673E+01  0.40000000000E+01  0.51109989000E-03 0. -1.
     -623   -1    0    0    0    0  0.00000000000E+00  0.00000000000E+00  0.12525980253E-10  0.17130000000E+03  0.17130000000E+03 0. -1.
       11    1    1    2    0    0  0.12913923036E-02 -0.61442683527E-02  0.37420549105E+00  0.37425850756E+00  0.51109989000E-03 0. -1.
     -623    1    1    2    0    0 -0.10183362502E-01  0.17644767293E-01  0.30399160232E-03  0.17130000121E+03  0.17130000000E+03 0. -1.
      622    1    1    2    0    0  0.88919701981E-02 -0.11500498941E-01  0.36254904847E+01  0.36257402807E+01  0.40000000000E-01 0. -1.
</event>
<event>
 5   0  0.6200596E+07  0.9118800E+02  0.7818608E-02  0.1180000E+00
       11   -1    0    0    0    0  0.00000000000E+00  0.00000000000E+00  0.39999999673E+01  0.40000000000E+01  0.51109989000E-03 0. -1.
     -623   -1    0    0    0    0  0.00000000000E+00  0.00000000000E+00  0.12525980253E-10  0.17130000000E+03  0.17130000000E+03 0.  1.
       11    1    1    2    0    0 -0.45352212856E-02  0.43395316783E-01  0.36613891574E+00  0.36872983144E+00  0.51109989000E-03 0. -1.
     -623    1    1    2    0    0 -0.11708619601E-01  0.12414849565E-01  0.32773521311E-02  0.17130000088E+03  0.17130000000E+03 0.  1.
      622    1    1    2    0    0  0.16243840887E-01 -0.55810166348E-01  0.36305836995E+01  0.36312692872E+01  0.40000000000E-01 0. -1.
</event>
<event>
 5   0  0.6200596E+07  0.9118800E+02  0.7818608E-02  0.1180000E+00
       11   -1    0    0    0    0  0.00000000000E+00  0.00000000000E+00  0.39999999673E+01  0.40000000000E+01  0.51109989000E-03 0. -1.
     -623   -1    0    0    0    0  0.00000000000E+00  0.00000000000E+00  0.12525980253E-10  0.17130000000E+03  0.17130000000E+03 0. -1.
       11    1    1    2    0    0 -0.54277686741E-02  0.24033852359E-02  0.30874254634E+00  0.30880002927E+00  0.51109989000E-03 0. -1.
     -623    1    1    2    0    0 -0.14875688623E-02 -0.19893609133E-02  0.28070801216E-03  0.17130000002E+03  0.17130000000E+03 0. -1.
      622    1    1    2    0    0  0.69153375364E-02 -0.41402432260E-03  0.36909767130E+01  0.36911999525E+01  0.40000000000E-01 0. -1.
</event>
<event>
 5   0  0.6200596E+07  0.9118800E+02  0.7818608E-02  0.1180000E+00
       11   -1    0    0    0    0  0.00000000000E+00  0.00000000000E+00  0.39999999673E+01  0.40000000000E+01  0.51109989000E-03 0. -1.
     -623   -1    0    0    0    0  0.00000000000E+00  0.00000000000E+00  0.12525980253E-10  0.17130000000E+03  0.17130000000E+03 0. -1.
       11    1    1    2    0    0 -0.22274793918E-01  0.13584130595E-01  0.26825972089E+00  0.26952594332E+00  0.51109989000E-03 0. -1.
     -623    1    1    2    0    0  0.86550336805E-02  0.21657791000E-02  0.15389992221E-02  0.17130000024E+03  0.17130000000E+03 0. -1.
      622    1    1    2    0    0  0.13619760238E-01 -0.15749909695E-01  0.37302012473E+01  0.37304738174E+01  0.40000000000E-01 0. -1.
</event>
<event>
 5   0  0.6200596E+07  0.9118800E+02  0.7818608E-02  0.1180000E+00
       11   -1    0    0    0    0  0.00000000000E+00  0.00000000000E+00  0.39999999673E+01  0.40000000000E+01  0.51109989000E-03 0.  1.
     -623   -1    0    0    0    0  0.00000000000E+00  0.00000000000E+00  0.12525980253E-10  0.17130000000E+03  0.17130000000E+03 0.  1.
       11    1    1    2    0    0  0.72578577314E-03  0.14485079825E-02  0.34360669175E-01  0.34402641585E-01  0.51109989000E-03 0.  1.
     -623    1    1    2    0    0 -0.95580775999E-03  0.48949664934E-03  0.24416374715E-03  0.17130000000E+03  0.17130000000E+03 0.  1.
      622    1    1    2    0    0  0.23002198686E-03 -0.19380046319E-02  0.39653951344E+01  0.39655973549E+01  0.40000000000E-01 0.  1.
</event>
<event>
 5   0  0.6200596E+07  0.9118800E+02  0.7818608E-02  0.1180000E+00
       11   -1    0    0    0    0  0.00000000000E+00  0.00000000000E+00  0.39999999673E+01  0.40000000000E+01  0.51109989000E-03 0.  1.
     -623   -1    0    0    0    0  0.00000000000E+00  0.00000000000E+00  0.12525980253E-10  0.17130000000E+03  0.17130000000E+03 0. -1.
       11    1    1    2    0    0  0.86362166684E-02  0.98869608229E-02  0.25376083776E+01  0.25376423852E+01  0.51109989000E-03 0.  1.
     -623    1    1    2    0    0 -0.61164011528E-03  0.27471205587E-03  0.63848727803E-03  0.17130000000E+03  0.17130000000E+03 0. -1.
      622    1    1    2    0    0 -0.80245765532E-02 -0.10161672879E-01  0.14617531025E+01  0.14623576123E+01  0.40000000000E-01 0.  1.
</event>
<event>
 5   0  0.6200596E+07  0.9118800E+02  0.7818608E-02  0.1180000E+00
       11   -1    0    0    0    0  0.00000000000E+00  0.00000000000E+00  0.39999999673E+01  0.40000000000E+01  0.51109989000E-03 0. -1.
     -623   -1    0    0    0    0  0.00000000000E+00  0.00000000000E+00  0.12525980253E-10  0.17130000000E+03  0.17130000000E+03 0.  1.
       11    1    1    2    0    0 -0.16732056718E-01 -0.19108708871E-01  0.12735224732E+00  0.12986131293E+00  0.51109989000E-03 0. -1.
     -623    1    1    2    0    0 -0.66306588125E-02  0.39926024379E-01  0.28470676995E-02  0.17130000480E+03  0.17130000000E+03 0.  1.
      622    1    1    2    0    0  0.23362715530E-01 -0.20817315508E-01  0.38698006523E+01  0.38701338822E+01  0.40000000000E-01 0. -1.
</event>
<event>
 5   0  0.6200596E+07  0.9118800E+02  0.7818608E-02  0.1180000E+00
       11   -1    0    0    0    0  0.00000000000E+00  0.00000000000E+00  0.39999999673E+01  0.40000000000E+01  0.51109989000E-03 0.  1.
     -623   -1    0    0    0    0  0.00000000000E+00  0.00000000000E+00  0.12525980253E-10  0.17130000000E+03  0.17130000000E+03 0. -1.
       11    1    1    2    0    0  0.21886130541E-02  0.86021904198E-03  0.12437038577E-02  0.27088785963E-02  0.51109989000E-03 0. -1.
     -623    1    1    2    0    0 -0.19897966409E-02 -0.21157508780E-02  0.16655174989E-02  0.17130000003E+03  0.17130000000E+03 0. -1.
      622    1    1    2    0    0 -0.19881641318E-03  0.12555318361E-02  0.39970907460E+01  0.39972910887E+01  0.40000000000E-01 0.  1.
</event>
<event>
 5   0  0.6200596E+07  0.9118800E+02  0.7818608E-02  0.1180000E+00
       11   -1    0    0    0    0  0.00000000000E+00  0.00000000000E+00  0.39999999673E+01  0.40000000000E+01  0.51109989000E-03 0.  1.
     -623   -1    0    0    0    0  0.00000000000E+00  0.00000000000E+00  0.12525980253E-10  0.17130000000E+03  0.17130000000E+03 0. -1.
       11    1    1    2    0    0  0.34477841607E-01  0.54145484991E-03  0.29506512130E+01  0.29508527338E+01  0.51109989000E-03 0.  1.
     -623    1    1    2    0    0 -0.91040466992E-02 -0.62036554441E-02  0.12870468965E-02  0.17130000036E+03  0.17130000000E+03 0. -1.
      622    1    1    2    0    0 -0.25373794908E-01  0.56622005942E-02  0.10480617075E+01  0.10491469071E+01  0.40000000000E-01 0.  1.
</event>
<event>
 5   0  0.6200596E+07  0.9118800E+02  0.7818608E-02  0.1180000E+00
       11   -1    0    0    0    0  0.00000000000E+00  0.00000000000E+00  0.39999999673E+01  0.40000000000E+01  0.51109989000E-03 0. -1.
     -623   -1    0    0    0    0  0.00000000000E+00  0.00000000000E+00  0.12525980253E-10  0.17130000000E+03  0.17130000000E+03 0. -1.
       11    1    1    2    0    0 -0.28473958253E-02  0.13283858162E-01  0.11161572107E+00  0.11244064640E+00  0.51109989000E-03 0. -1.
     -623    1    1    2    0    0 -0.22390590183E-02 -0.11274193462E-01  0.10349187586E-02  0.17130000039E+03  0.17130000000E+03 0. -1.
      622    1    1    2    0    0  0.50864548436E-02 -0.20096647002E-02  0.38873493275E+01  0.38875589648E+01  0.40000000000E-01 0. -1.
</event>
<event>
 5   0  0.6200596E+07  0.9118800E+02  0.7818608E-02  0.1180000E+00
       11   -1    0    0    0    0  0.00000000000E+00  0.00000000000E+00  0.39999999673E+01  0.40000000000E+01  0.51109989000E-03 0. -1.
     -623   -1    0    0    0    0  0.00000000000E+00  0.00000000000E+00  0.12525980253E-10  0.17130000000E+03  0.17130000000E+03 0.  1.
       11    1    1    2    0    0 -0.48002767763E-04 -0.75770642846E-02  0.93165157565E+00  0.93168252846E+00  0.51109989000E-03 0. -1.
     -623    1    1    2    0    0 -0.44745952768E-02 -0.19081240939E-03  0.30488624917E-03  0.17130000006E+03  0.17130000000E+03 0.  1.
      622    1    1    2    0    0  0.45225980446E-02  0.77678766940E-02  0.30680435055E+01  0.30683174127E+01  0.40000000000E-01 0. -1.
</event>
<event>
 5   0  0.6200596E+07  0.9118800E+02  0.7818608E-02  0.1180000E+00
       11   -1    0    0    0    0  0.00000000000E+00  0.00000000000E+00  0.39999999673E+01  0.40000000000E+01  0.51109989000E-03 0. -1.
     -623   -1    0    0    0    0  0.00000000000E+00  0.00000000000E+00  0.12525980253E-10  0.17130000000E+03  0.17130000000E+03 0.  1.
       11    1    1    2    0    0 -0.23231848501E-02 -0.18240966181E-02  0.15487099210E-01  0.15774535793E-01  0.51109989000E-03 0. -1.
     -623    1    1    2    0    0 -0.78211189034E-04  0.30758138252E-02  0.48914954739E-03  0.17130000003E+03  0.17130000000E+03 0.  1.
      622    1    1    2    0    0  0.24013960391E-02 -0.12517172071E-02  0.39840237186E+01  0.39842254359E+01  0.40000000000E-01 0. -1.
</event>
<event>
 5   0  0.6200596E+07  0.9118800E+02  0.7818608E-02  0.1180000E+00
       11   -1    0    0    0    0  0.00000000000E+00  0.00000000000E+00  0.39999999673E+01  0.40000000000E+01  0.51109989000E-03 0.  1.
     -623   -1    0    0    0    0  0.00000000000E+00  0.00000000000E+00  0.12525980253E-10  0.17130000000E+03  0.17130000000E+03 0.  1.
       11    1    1    2    0    0  0.72236019879E-02 -0.29563753627E-02  0.64222902590E+00  0.64227665652E+00  0.51109989000E-03 0.  1.
     -623    1    1    2    0    0 -0.29011382912E-02 -0.94576967248E-03  0.29094051469E-03  0.17130000003E+03  0.17130000000E+03 0.  1.
      622    1    1    2    0    0 -0.43224636966E-02  0.39021450351E-02  0.33574800009E+01  0.33577233161E+01  0.40000000000E-01 0.  1.
</event>
<event>
 5   0  0.6200596E+07  0.9118800E+02  0.7818608E-02  0.1180000E+00
       11   -1    0    0    0    0  0.00000000000E+00  0.00000000000E+00  0.39999999673E+01  0.40000000000E+01  0.51109989000E-03 0. -1.
     -623   -1    0    0    0    0  0.00000000000E+00  0.00000000000E+00  0.12525980253E-10  0.17130000000E+03  0.17130000000E+03 0. -1.
       11    1    1    2    0    0  0.41847072497E-02 -0.24522654786E-02  0.43273010488E-01  0.43546986551E-01  0.51109989000E-03 0. -1.
     -623    1    1    2    0    0 -0.10291045775E-03  0.25908759327E-03  0.47886436804E-03  0.17130000000E+03  0.17130000000E+03 0. -1.
      622    1    1    2    0    0 -0.40817967919E-02  0.21931778854E-02  0.39562480925E+01  0.39564530126E+01  0.40000000000E-01 0. -1.
</event>
<event>
 5   0  0.6200596E+07  0.9118800E+02  0.7818608E-02  0.1180000E+00
       11   -1    0    0    0    0  0.00000000000E+00  0.00000000000E+00  0.39999999673E+01  0.40000000000E+01  0.51109989000E-03 0.  1.
     -623   -1    0    0    0    0  0.00000000000E+00  0.00000000000E+00  0.12525980253E-10  0.17130000000E+03  0.17130000000E+03 0. -1.
       11    1    1    2    0    0  0.20992633599E-02  0.16320677009E-02  0.22389505981E-01  0.22552644003E-01  0.51109989000E-03 0.  1.
     -623    1    1    2    0    0 -0.11098236091E-02 -0.41971789245E-02  0.36525015480E-03  0.17130000006E+03  0.17130000000E+03 0. -1.
      622    1    1    2    0    0 -0.98943975083E-03  0.25651112236E-02  0.39772452112E+01  0.39774473006E+01  0.40000000000E-01 0.  1.
</event>
<event>
 5   0  0.6200596E+07  0.9118800E+02  0.7818608E-02  0.1180000E+00
       11   -1    0    0    0    0  0.00000000000E+00  0.00000000000E+00  0.39999999673E+01  0.40000000000E+01  0.51109989000E-03 0.  1.
     -623   -1    0    0    0    0  0.00000000000E+00  0.00000000000E+00  0.12525980253E-10  0.17130000000E+03  0.17130000000E+03 0. -1.
       11    1    1    2    0    0 -0.93143534782E-02  0.11855570405E-03  0.87257643062E-01  0.87754935651E-01  0.51109989000E-03 0.  1.
     -623    1    1    2    0    0  0.21767293863E-03  0.34963286478E-02  0.71403520995E-03  0.17130000004E+03  0.17130000000E+03 0. -1.
      622    1    1    2    0    0  0.90966805396E-02 -0.36148843519E-02  0.39120282891E+01  0.39122450270E+01  0.40000000000E-01 0.  1.
</event>
<event>
 5   0  0.6200596E+07  0.9118800E+02  0.7818608E-02  0.1180000E+00
       11   -1    0    0    0    0  0.00000000000E+00  0.00000000000E+00  0.39999999673E+01  0.40000000000E+01  0.51109989000E-03 0.  1.
     -623   -1    0    0    0    0  0.00000000000E+00  0.00000000000E+00  0.12525980253E-10  0.17130000000E+03  0.17130000000E+03 0.  1.
       11    1    1    2    0    0 -0.78329379105E-02  0.11427191586E-01  0.26517441880E+00  0.26553656853E+00  0.51109989000E-03 0.  1.
     -623    1    1    2    0    0 -0.11028501029E-02 -0.19273148789E-02  0.59913474485E-03  0.17130000002E+03  0.17130000000E+03 0.  1.
      622    1    1    2    0    0  0.89357880134E-02 -0.94998767073E-02  0.37342264138E+01  0.37344634160E+01  0.40000000000E-01 0.  1.
</event>
<event>
 5   0  0.6200596E+07  0.9118800E+02  0.7818608E-02  0.1180000E+00
       11   -1    0    0    0    0  0.00000000000E+00  0.00000000000E+00  0.39999999673E+01  0.40000000000E+01  0.51109989000E-03 0. -1.
     -623   -1    0    0    0    0  0.00000000000E+00  0.00000000000E+00  0.12525980253E-10  0.17130000000E+03  0.17130000000E+03 0. -1.
       11    1    1    2    0    0 -0.34320401636E-02  0.33969071684E-02  0.37917224635E-01  0.38226888726E-01  0.51109989000E-03 0. -1.
     -623    1    1    2    0    0 -0.58994012165E-03 -0.35382959254E-03  0.51477896500E-03  0.17130000000E+03  0.17130000000E+03 0. -1.
      622    1    1    2    0    0  0.40219802852E-02 -0.30430775759E-02  0.39615679638E+01  0.39617731091E+01  0.40000000000E-01 0. -1.
</event>
<event>
 5   0  0.6200596E+07  0.9118800E+02  0.7818608E-02  0.1180000E+00
       11   -1    0    0    0    0  0.00000000000E+00  0.00000000000E+00  0.39999999673E+01  0.40000000000E+01  0.51109989000E-03 0. -1.
     -623   -1    0    0    0    0  0.00000000000E+00  0.00000000000E+00  0.12525980253E-10  0.17130000000E+03  0.17130000000E+03 0.  1.
       11    1    1    2    0    0  0.55840345645E-03 -0.98019507213E-03  0.10633329831E-01  0.10705210020E-01  0.51109989000E-03 0. -1.
     -623    1    1    2    0    0 -0.43265857594E-04  0.50186432583E-03  0.27245218418E-03  0.17130000000E+03  0.17130000000E+03 0.  1.
      622    1    1    2    0    0 -0.51513759886E-03  0.47833074630E-03  0.39890941853E+01  0.39892947890E+01  0.40000000000E-01 0. -1.
</event>
<event>
 5   0  0.6200596E+07  0.9118800E+02  0.7818608E-02  0.1180000E+00
       11   -1    0    0    0    0  0.00000000000E+00  0.00000000000E+00  0.39999999673E+01  0.40000000000E+01  0.51109989000E-03 0.  1.
     -623   -1    0    0    0    0  0.00000000000E+00  0.00000000000E+00  0.12525980253E-10  0.17130000000E+03  0.17130000000E+03 0. -1.
       11    1    1    2    0    0  0.17052060550E-01  0.36947258451E-01  0.19109898448E+01  0.19114231141E+01  0.51109989000E-03 0.  1.
     -623    1    1    2    0    0 -0.25839240515E-02 -0.19260661606E-01  0.94243912001E-03  0.17130000110E+03  0.17130000000E+03 0. -1.
      622    1    1    2    0    0 -0.14468136499E-01 -0.17686596845E-01  0.20880676834E+01  0.20885757810E+01  0.40000000000E-01 0.  1.
</event>
<event>
 5   0  0.6200596E+07  0.9118800E+02  0.7818608E-02  0.1180000E+00
       11   -1    0    0    0    0  0.00000000000E+00  0.00000000000E+00  0.39999999673E+01  0.40000000000E+01  0.51109989000E-03 0.  1.
     -623   -1    0    0    0    0  0.00000000000E+00  0.00000000000E+00  0.12525980253E-10  0.17130000000E+03  0.17130000000E+03 0.  1.
       11    1    1    2    0    0 -0.85240189826E-03 -0.37963523912E-03  0.29414952720E-01  0.29434187220E-01  0.51109989000E-03 0.  1.
     -623    1    1    2    0    0  0.10126175828E-02 -0.15743715624E-02  0.22118402584E-03  0.17130000001E+03  0.17130000000E+03 0.  1.
      622    1    1    2    0    0 -0.16021568451E-03  0.19540068015E-02  0.39703638306E+01  0.39705658024E+01  0.40000000000E-01 0.  1.
</event>
<event>
 5   0  0.6200596E+07  0.9118800E+02  0.7818608E-02  0.1180000E+00
       11   -1    0    0    0    0  0.00000000000E+00  0.00000000000E+00  0.39999999673E+01  0.40000000000E+01  0.51109989000E-03 0. -1.
     -623   -1    0    0    0    0  0.00000000000E+00  0.00000000000E+00  0.12525980253E-10  0.17130000000E+03  0.17130000000E+03 0.  1.
       11    1    1    2    0    0  0.84356110884E-01 -0.40351071057E-01  0.14906516241E+01  0.14935818317E+01  0.51109989000E-03 0. -1.
     -623    1    1    2    0    0 -0.17589399412E-02  0.24276333756E-02  0.48980898122E-02  0.17130000010E+03  0.17130000000E+03 0.  1.
      622    1    1    2    0    0 -0.82597170943E-01  0.37923437681E-01  0.25044502535E+01  0.25064180720E+01  0.40000000000E-01 0. -1.
</event>
<event>
 5   0  0.6200596E+07  0.9118800E+02  0.7818608E-02  0.1180000E+00
       11   -1    0    0    0    0  0.00000000000E+00  0.00000000000E+00  0.39999999673E+01  0.40000000000E+01  0.51109989000E-03 0.  1.
     -623   -1    0    0    0    0  0.00000000000E+00  0.00000000000E+00  0.12525980253E-10  0.17130000000E+03  0.17130000000E+03 0.  1.
       11    1    1    2    0    0  0.20926434838E-02 -0.13473562112E-02  0.67715968846E-02  0.72325840768E-02  0.51109989000E-03 0.  1.
     -623    1    1    2    0    0  0.42213009779E-02 -0.67816998854E-02  0.67477756571E-03  0.17130000019E+03  0.17130000000E+03 0.  1.
      622    1    1    2    0    0 -0.63139444616E-02  0.81290560966E-02  0.39925535929E+01  0.39927672283E+01  0.40000000000E-01 0.  1.
</event>
<event>
 5   0  0.6200596E+07  0.9118800E+02  0.7818608E-02  0.1180000E+00
       11   -1    0    0    0    0  0.00000000000E+00  0.00000000000E+00  0.39999999673E+01  0.40000000000E+01  0.51109989000E-03 0. -1.
     -623   -1    0    0    0    0  0.00000000000E+00  0.00000000000E+00  0.12525980253E-10  0.17130000000E+03  0.17130000000E+03 0.  1.
       11    1    1    2    0    0 -0.65091905726E-02 -0.83768933412E-02  0.17976614492E+01  0.17976928238E+01  0.51109989000E-03 0. -1.
     -623    1    1    2    0    0  0.45083912006E-02 -0.99373313742E-02  0.47204851203E-03  0.17130000035E+03  0.17130000000E+03 0.  1.
      622    1    1    2    0    0  0.20007993720E-02  0.18314224715E-01  0.22018664697E+01  0.22023068279E+01  0.40000000000E-01 0. -1.
</event>
<event>
 5   0  0.6200596E+07  0.9118800E+02  0.7818608E-02  0.1180000E+00
       11   -1    0    0    0    0  0.00000000000E+00  0.00000000000E+00  0.39999999673E+01  0.40000000000E+01  0.51109989000E-03 0.  1.
     -623   -1    0    0    0    0  0.00000000000E+00  0.00000000000E+00  0.12525980253E-10  0.17130000000E+03  0.17130000000E+03 0.  1.
       11    1    1    2    0    0  0.10703793493E-01 -0.23991552554E-02  0.83978333366E+00  0.83985512790E+00  0.51109989000E-03 0.  1.
     -623    1    1    2    0    0  0.18609318182E-01 -0.30562822443E-01  0.63656128142E-03  0.17130000374E+03  0.17130000000E+03 0.  1.
      622    1    1    2    0    0 -0.29313111675E-01  0.32961977699E-01  0.31595800724E+01  0.31601411336E+01  0.40000000000E-01 0.  0.
</event>
<event>
 5   0  0.6200596E+07  0.9118800E+02  0.7818608E-02  0.1180000E+00
       11   -1    0    0    0    0  0.00000000000E+00  0.00000000000E+00  0.39999999673E+01  0.40000000000E+01  0.51109989000E-03 0.  1.
     -623   -1    0    0    0    0  0.00000000000E+00  0.00000000000E+00  0.12525980253E-10  0.17130000000E+03  0.17130000000E+03 0. -1.
       11    1    1    2    0    0 -0.26046279404E-01  0.43824095417E-04  0.80070377908E+00  0.80112746404E+00  0.51109989000E-03 0.  1.
     -623    1    1    2    0    0  0.17549777006E-01 -0.16950208895E-01  0.73145419414E-03  0.17130000174E+03  0.17130000000E+03 0. -1.
      622    1    1    2    0    0  0.84965023985E-02  0.16906384799E-01  0.31985647341E+01  0.31988707968E+01  0.40000000000E-01 0.  1.
</event>
<event>
 5   0  0.6200596E+07  0.9118800E+02  0.7818608E-02  0.1180000E+00
       11   -1    0    0    0    0  0.00000000000E+00  0.00000000000E+00  0.39999999673E+01  0.40000000000E+01  0.51109989000E-03 0. -1.
     -623   -1    0    0    0    0  0.00000000000E+00  0.00000000000E+00  0.12525980253E-10  0.17130000000E+03  0.17130000000E+03 0.  1.
       11    1    1    2    0    0 -0.25961322256E-02  0.12455288645E-01  0.17514914720E+00  0.17561138660E+00  0.51109989000E-03 0. -1.
     -623    1    1    2    0    0 -0.46034684029E-02 -0.87832599827E-02  0.68022479277E-03  0.17130000029E+03  0.17130000000E+03 0.  1.
      622    1    1    2    0    0  0.71996006285E-02 -0.36720286619E-02  0.38241705954E+01  0.38243883250E+01  0.40000000000E-01 0. -1.
</event>
<event>
 5   0  0.6200596E+07  0.9118800E+02  0.7818608E-02  0.1180000E+00
       11   -1    0    0    0    0  0.00000000000E+00  0.00000000000E+00  0.39999999673E+01  0.40000000000E+01  0.51109989000E-03 0.  1.
     -623   -1    0    0    0    0  0.00000000000E+00  0.00000000000E+00  0.12525980253E-10  0.17130000000E+03  0.17130000000E+03 0.  1.
       11    1    1    2    0    0 -0.12498471589E-01  0.38578108725E-02  0.14707214005E+01  0.14707796551E+01  0.51109989000E-03 0.  1.
     -623    1    1    2    0    0 -0.30854612510E-02 -0.47032838969E-02  0.42279598583E-03  0.17130000009E+03  0.17130000000E+03 0.  1.
      622    1    1    2    0    0  0.15583932840E-01  0.84547302439E-03  0.25288557708E+01  0.25292202521E+01  0.40000000000E-01 0.  1.
</event>
<event>
 5   0  0.6200596E+07  0.9118800E+02  0.7818608E-02  0.1180000E+00
       11   -1    0    0    0    0  0.00000000000E+00  0.00000000000E+00  0.39999999673E+01  0.40000000000E+01  0.51109989000E-03 0.  1.
     -623   -1    0    0    0    0  0.00000000000E+00  0.00000000000E+00  0.12525980253E-10  0.17130000000E+03  0.17130000000E+03 0.  1.
       11    1    1    2    0    0 -0.10242073824E-02  0.12568241128E-02  0.37117319876E-01  0.37156227781E-01  0.51109989000E-03 0.  1.
     -623    1    1    2    0    0  0.38845991429E-03  0.12508475149E-02  0.24160527592E-03  0.17130000001E+03  0.17130000000E+03 0.  1.
      622    1    1    2    0    0  0.63574746811E-03 -0.25076716277E-02  0.39626410422E+01  0.39628437670E+01  0.40000000000E-01 0.  1.
</event>
<event>
 5   0  0.6200596E+07  0.9118800E+02  0.7818608E-02  0.1180000E+00
       11   -1    0    0    0    0  0.00000000000E+00  0.00000000000E+00  0.39999999673E+01  0.40000000000E+01  0.51109989000E-03 0.  1.
     -623   -1    0    0    0    0  0.00000000000E+00  0.00000000000E+00  0.12525980253E-10  0.17130000000E+03  0.17130000000E+03 0.  1.
       11    1    1    2    0    0 -0.46312026520E-02 -0.10375387811E-02  0.11287184662E+00  0.11297273788E+00  0.51109989000E-03 0.  1.
     -623    1    1    2    0    0  0.73533409747E-03  0.26901462677E-02  0.30900366192E-03  0.17130000002E+03  0.17130000000E+03 0.  1.
      622    1    1    2    0    0  0.38958685546E-02 -0.16526074866E-02  0.38868191171E+01  0.38870272391E+01  0.40000000000E-01 0.  1.
</event>
<event>
 5   0  0.6200596E+07  0.9118800E+02  0.7818608E-02  0.1180000E+00
       11   -1    0    0    0    0  0.00000000000E+00  0.00000000000E+00  0.39999999673E+01  0.40000000000E+01  0.51109989000E-03 0. -1.
     -623   -1    0    0    0    0  0.00000000000E+00  0.00000000000E+00  0.12525980253E-10  0.17130000000E+03  0.17130000000E+03 0. -1.
       11    1    1    2    0    0  0.20386335039E-02 -0.59007431379E-03  0.90281314282E-02  0.92883041023E-02  0.51109989000E-03 0. -1.
     -623    1    1    2    0    0  0.84040089037E-03 -0.18537727369E-02  0.46241017493E-03  0.17130000001E+03  0.17130000000E+03 0. -1.
      622    1    1    2    0    0 -0.28790343943E-02  0.24438470507E-02  0.39905094258E+01  0.39907116832E+01  0.40000000000E-01 0. -1.
</event>
<event>
 5   0  0.6200596E+07  0.9118800E+02  0.7818608E-02  0.1180000E+00
       11   -1    0    0    0    0  0.00000000000E+00  0.00000000000E+00  0.39999999673E+01  0.40000000000E+01  0.51109989000E-03 0.  1.
     -623   -1    0    0    0    0  0.00000000000E+00  0.00000000000E+00  0.12525980253E-10  0.17130000000E+03  0.17130000000E+03 0. -1.
       11    1    1    2    0    0  0.19199720562E-01 -0.71140050342E-02  0.51904943018E+00  0.51945337667E+00  0.51109989000E-03 0.  1.
     -623    1    1    2    0    0  0.28509952382E-02  0.15095699752E-02  0.70817036183E-03  0.17130000003E+03  0.17130000000E+03 0. -1.
      622    1    1    2    0    0 -0.22050715800E-01  0.56044350590E-02  0.34802423668E+01  0.34805465915E+01  0.40000000000E-01 0.  1.
</event>
<event>
 5   0  0.6200596E+07  0.9118800E+02  0.7818608E-02  0.1180000E+00
       11   -1    0    0    0    0  0.00000000000E+00  0.00000000000E+00  0.39999999673E+01  0.40000000000E+01  0.51109989000E-03 0.  1.
     -623   -1    0    0    0    0  0.00000000000E+00  0.00000000000E+00  0.12525980253E-10  0.17130000000E+03  0.17130000000E+03 0.  1.
       11    1    1    2    0    0 -0.39000379088E-02  0.29404622469E-02  0.20140411792E-01  0.20730509493E-01  0.51109989000E-03 0.  1.
     -623    1    1    2    0    0  0.34533828617E-02 -0.88292843214E-02  0.79575893229E-03  0.17130000026E+03  0.17130000000E+03 0.  1.
      622    1    1    2    0    0  0.44665504709E-03  0.58888220745E-02  0.39790637966E+01  0.39792692263E+01  0.40000000000E-01 0.  1.
</event>
<event>
 5   0  0.6200596E+07  0.9118800E+02  0.7818608E-02  0.1180000E+00
       11   -1    0    0    0    0  0.00000000000E+00  0.00000000000E+00  0.39999999673E+01  0.40000000000E+01  0.51109989000E-03 0.  1.
     -623   -1    0    0    0    0  0.00000000000E+00  0.00000000000E+00  0.12525980253E-10  0.17130000000E+03  0.17130000000E+03 0. -1.
       11    1    1    2    0    0  0.12730384657E-02  0.11677339308E-02  0.17810728497E-01  0.17901606107E-01  0.51109989000E-03 0.  1.
     -623    1    1    2    0    0  0.22735936256E-03 -0.18415149571E-02  0.29209912504E-03  0.17130000001E+03  0.17130000000E+03 0. -1.
      622    1    1    2    0    0 -0.15003978283E-02  0.67378102634E-03  0.39818971397E+01  0.39820983836E+01  0.40000000000E-01 0.  1.
</event>
<event>
 5   0  0.6200596E+07  0.9118800E+02  0.7818608E-02  0.1180000E+00
       11   -1    0    0    0    0  0.00000000000E+00  0.00000000000E+00  0.39999999673E+01  0.40000000000E+01  0.51109989000E-03 0. -1.
     -623   -1    0    0    0    0  0.00000000000E+00  0.00000000000E+00  0.12525980253E-10  0.17130000000E+03  0.17130000000E+03 0.  1.
       11    1    1    2    0    0  0.71135895244E-01 -0.43756082573E-01  0.73119583479E+00  0.73595008009E+00  0.51109989000E-03 0. -1.
     -623    1    1    2    0    0 -0.25632818946E-01 -0.24427843155E-02  0.56455747118E-02  0.17130000203E+03  0.17130000000E+03 0.  1.
      622    1    1    2    0    0 -0.45503076299E-01  0.46198866888E-01  0.32631585579E+01  0.32640478916E+01  0.40000000000E-01 0. -1.
</event>
<event>
 5   0  0.6200596E+07  0.9118800E+02  0.7818608E-02  0.1180000E+00
       11   -1    0    0    0    0  0.00000000000E+00  0.00000000000E+00  0.39999999673E+01  0.40000000000E+01  0.51109989000E-03 0.  1.
     -623   -1    0    0    0    0  0.00000000000E+00  0.00000000000E+00  0.12525980253E-10  0.17130000000E+03  0.17130000000E+03 0. -1.
       11    1    1    2    0    0 -0.34585440893E-02  0.10077734004E-02  0.10097976388E+00  0.10104529217E+00  0.51109989000E-03 0.  1.
     -623    1    1    2    0    0 -0.54280835239E-03  0.14021619771E-02  0.27348922478E-03  0.17130000001E+03  0.17130000000E+03 0. -1.
      622    1    1    2    0    0  0.40013524417E-02 -0.24099353774E-02  0.38987467143E+01  0.38989547010E+01  0.40000000000E-01 0.  1.
</event>
<event>
 5   0  0.6200596E+07  0.9118800E+02  0.7818608E-02  0.1180000E+00
       11   -1    0    0    0    0  0.00000000000E+00  0.00000000000E+00  0.39999999673E+01  0.40000000000E+01  0.51109989000E-03 0. -1.
     -623   -1    0    0    0    0  0.00000000000E+00  0.00000000000E+00  0.12525980253E-10  0.17130000000E+03  0.17130000000E+03 0.  1.
       11    1    1    2    0    0 -0.14131637477E-02  0.12882245162E-02  0.47774634134E+00  0.47775044159E+00  0.51109989000E-03 0. -1.
     -623    1    1    2    0    0 -0.20089663167E-02 -0.19807329332E-02  0.23295651869E-03  0.17130000002E+03  0.17130000000E+03 0.  1.
      622    1    1    2    0    0  0.34221300644E-02  0.69250841695E-03  0.35220206695E+01  0.35222495350E+01  0.40000000000E-01 0. -1.
</event>
<event>
 5   0  0.6200596E+07  0.9118800E+02  0.7818608E-02  0.1180000E+00
       11   -1    0    0    0    0  0.00000000000E+00  0.00000000000E+00  0.39999999673E+01  0.40000000000E+01  0.51109989000E-03 0.  1.
     -623   -1    0    0    0    0  0.00000000000E+00  0.00000000000E+00  0.12525980253E-10  0.17130000000E+03  0.17130000000E+03 0. -1.
       11    1    1    2    0    0 -0.12753683678E-01 -0.34760924157E-04  0.33837013583E-01  0.36164379794E-01  0.51109989000E-03 0.  1.
     -623    1    1    2    0    0  0.18369061528E-01  0.41901430344E-02  0.25363743232E-02  0.17130000105E+03  0.17130000000E+03 0. -1.
      622    1    1    2    0    0 -0.56153778500E-02 -0.41553821103E-02  0.39636265795E+01  0.39638345653E+01  0.40000000000E-01 0.  1.
</event>
<event>
 5   0  0.6200596E+07  0.9118800E+02  0.7818608E-02  0.1180000E+00
       11   -1    0    0    0    0  0.00000000000E+00  0.00000000000E+00  0.39999999673E+01  0.40000000000E+01  0.51109989000E-03 0.  1.
     -623   -1    0    0    0    0  0.00000000000E+00  0.00000000000E+00  0.12525980253E-10  0.17130000000E+03  0.17130000000E+03 0. -1.
       11    1    1    2    0    0 -0.12985150762E-02  0.90753192918E-03  0.71857411886E-01  0.71876690379E-01  0.51109989000E-03 0.  1.
     -623    1    1    2    0    0 -0.23856110501E-04 -0.26438627437E-02  0.22353764398E-03  0.17130000002E+03  0.17130000000E+03 0. -1.
      622    1    1    2    0    0  0.13223711867E-02  0.17363308146E-02  0.39279190178E+01  0.39281232891E+01  0.40000000000E-01 0.  1.
</event>
<event>
 5   0  0.6200596E+07  0.9118800E+02  0.7818608E-02  0.1180000E+00
       11   -1    0    0    0    0  0.00000000000E+00  0.00000000000E+00  0.39999999673E+01  0.40000000000E+01  0.51109989000E-03 0. -1.
     -623   -1    0    0    0    0  0.00000000000E+00  0.00000000000E+00  0.12525980253E-10  0.17130000000E+03  0.17130000000E+03 0. -1.
       11    1    1    2    0    0 -0.10830789757E-01 -0.29317458974E-01  0.85824694566E+00  0.85881598749E+00  0.51109989000E-03 0. -1.
     -623    1    1    2    0    0  0.98973108198E-03  0.63552478183E-02  0.92317647345E-03  0.17130000012E+03  0.17130000000E+03 0. -1.
      622    1    1    2    0    0  0.98410586746E-02  0.22962211156E-01  0.31408298452E+01  0.31411838893E+01  0.40000000000E-01 0. -1.
</event>
<event>
 5   0  0.6200596E+07  0.9118800E+02  0.7818608E-02  0.1180000E+00
       11   -1    0    0    0    0  0.00000000000E+00  0.00000000000E+00  0.39999999673E+01  0.40000000000E+01  0.51109989000E-03 0.  1.
     -623   -1    0    0    0    0  0.00000000000E+00  0.00000000000E+00  0.12525980253E-10  0.17130000000E+03  0.17130000000E+03 0. -1.
       11    1    1    2    0    0 -0.11971582574E-03 -0.32924936217E-02  0.22089797920E-01  0.22339991919E-01  0.51109989000E-03 0.  1.
     -623    1    1    2    0    0 -0.12188380962E-02  0.64858114884E-02  0.45292456096E-03  0.17130000013E+03  0.17130000000E+03 0. -1.
      622    1    1    2    0    0  0.13385539219E-02 -0.31933178667E-02  0.39774572449E+01  0.39776598804E+01  0.40000000000E-01 0.  1.
</event>
<event>
 5   0  0.6200596E+07  0.9118800E+02  0.7818608E-02  0.1180000E+00
       11   -1    0    0    0    0  0.00000000000E+00  0.00000000000E+00  0.39999999673E+01  0.40000000000E+01  0.51109989000E-03 0.  1.
     -623   -1    0    0    0    0  0.00000000000E+00  0.00000000000E+00  0.12525980253E-10  0.17130000000E+03  0.17130000000E+03 0. -1.
       11    1    1    2    0    0  0.47233229696E-03 -0.10277803338E-02  0.22658329298E-01  0.22692301301E-01  0.51109989000E-03 0.  1.
     -623    1    1    2    0    0  0.71158603477E-03  0.59773092888E-03  0.23528768788E-03  0.17130000000E+03  0.17130000000E+03 0. -1.
      622    1    1    2    0    0 -0.11839183317E-02  0.43004940489E-03  0.39771063504E+01  0.39773076960E+01  0.40000000000E-01 0.  1.
</event>
<event>
 5   0  0.6200596E+07  0.9118800E+02  0.7818608E-02  0.1180000E+00
       11   -1    0    0    0    0  0.00000000000E+00  0.00000000000E+00  0.39999999673E+01  0.40000000000E+01  0.51109989000E-03 0. -1.
     -623   -1    0    0    0    0  0.00000000000E+00  0.00000000000E+00  0.12525980253E-10  0.17130000000E+03  0.17130000000E+03 0.  1.
       11    1    1    2    0    0  0.12837681499E-01  0.12102696840E-02  0.20630652109E+01  0.20631055709E+01  0.51109989000E-03 0. -1.
     -623    1    1    2    0    0  0.12238781186E-01 -0.37199272397E-01  0.95473540371E-03  0.17130000448E+03  0.17130000000E+03 0.  1.
      622    1    1    2    0    0 -0.25076462684E-01  0.35989002713E-01  0.19359800210E+01  0.19368899502E+01  0.40000000000E-01 0.  0.
</event>
<event>
 5   0  0.6200596E+07  0.9118800E+02  0.7818608E-02  0.1180000E+00
       11   -1    0    0    0    0  0.00000000000E+00  0.00000000000E+00  0.39999999673E+01  0.40000000000E+01  0.51109989000E-03 0.  1.
     -623   -1    0    0    0    0  0.00000000000E+00  0.00000000000E+00  0.12525980253E-10  0.17130000000E+03  0.17130000000E+03 0.  1.
       11    1    1    2    0    0 -0.85336242916E-02  0.19371966499E-02  0.59757367247E+00  0.59763795957E+00  0.51109989000E-03 0.  1.
     -623    1    1    2    0    0  0.12525796165E-02 -0.91281644419E-03  0.30734612076E-03  0.17130000001E+03  0.17130000000E+03 0.  1.
      622    1    1    2    0    0  0.72810446751E-02 -0.10243802057E-02  0.34021189488E+01  0.34023620331E+01  0.40000000000E-01 0.  1.
</event>
<event>
 5   0  0.6200596E+07  0.9118800E+02  0.7818608E-02  0.1180000E+00
       11   -1    0    0    0    0  0.00000000000E+00  0.00000000000E+00  0.39999999673E+01  0.40000000000E+01  0.51109989000E-03 0.  1.
     -623   -1    0    0    0    0  0.00000000000E+00  0.00000000000E+00  0.12525980253E-10  0.17130000000E+03  0.17130000000E+03 0. -1.
       11    1    1    2    0    0 -0.66272988549E-02  0.25886101449E-02  0.27435240676E-01  0.28347409827E-01  0.51109989000E-03 0.  1.
     -623    1    1    2    0    0  0.82501686546E-02 -0.31578034579E-02  0.11141728880E-02  0.17130000023E+03  0.17130000000E+03 0. -1.
      622    1    1    2    0    0 -0.16228697997E-02  0.56919331292E-03  0.39714505538E+01  0.39716523588E+01  0.40000000000E-01 0.  1.
</event>
<event>
 5   0  0.6200596E+07  0.9118800E+02  0.7818608E-02  0.1180000E+00
       11   -1    0    0    0    0  0.00000000000E+00  0.00000000000E+00  0.39999999673E+01  0.40000000000E+01  0.51109989000E-03 0. -1.
     -623   -1    0    0    0    0  0.00000000000E+00  0.00000000000E+00  0.12525980253E-10  0.17130000000E+03  0.17130000000E+03 0. -1.
       11    1    1    2    0    0 -0.69486139149E-03 -0.18494181844E-05  0.16479600139E-01  0.16502159776E-01  0.51109989000E-03 0. -1.
     -623    1    1    2    0    0 -0.37553443376E-03  0.16015449408E-02  0.22383366838E-03  0.17130000001E+03  0.17130000000E+03 0. -1.
      622    1    1    2    0    0  0.10703958253E-02 -0.15996955227E-02  0.39832965336E+01  0.39834978322E+01  0.40000000000E-01 0. -1.
</event>
<event>
 5   0  0.6200596E+07  0.9118800E+02  0.7818608E-02  0.1180000E+00
       11   -1    0    0    0    0  0.00000000000E+00  0.00000000000E+00  0.39999999673E+01  0.40000000000E+01  0.51109989000E-03 0. -1.
     -623   -1    0    0    0    0  0.00000000000E+00  0.00000000000E+00  0.12525980253E-10  0.17130000000E+03  0.17130000000E+03 0.  1.
       11    1    1    2    0    0  0.46754664088E-03 -0.19856188357E-02  0.10583063861E+00  0.10585153080E+00  0.51109989000E-03 0. -1.
     -623    1    1    2    0    0  0.42485004663E-04  0.82670715948E-04  0.22679996589E-03  0.17130000000E+03  0.17130000000E+03 0.  1.
      622    1    1    2    0    0 -0.51003164555E-03  0.19029481197E-02  0.38939425288E+01  0.38941484690E+01  0.40000000000E-01 0. -1.
</event>
<event>
 5   0  0.6200596E+07  0.9118800E+02  0.7818608E-02  0.1180000E+00
       11   -1    0    0    0    0  0.00000000000E+00  0.00000000000E+00  0.39999999673E+01  0.40000000000E+01  0.51109989000E-03 0.  1.
     -623   -1    0    0    0    0  0.00000000000E+00  0.00000000000E+00  0.12525980253E-10  0.17130000000E+03  0.17130000000E+03 0.  1.
       11    1    1    2    0    0 -0.11752146535E-02  0.19361302643E-01  0.81768394504E+00  0.81791413753E+00  0.51109989000E-03 0.  1.
     -623    1    1    2    0    0  0.16729303835E-02 -0.34675659670E-02  0.52135622851E-03  0.17130000004E+03  0.17130000000E+03 0.  1.
      622    1    1    2    0    0 -0.49771572997E-03 -0.15893736676E-01  0.31817946661E+01  0.31820858184E+01  0.40000000000E-01 0.  0.
</event>
<event>
 5   0  0.6200596E+07  0.9118800E+02  0.7818608E-02  0.1180000E+00
       11   -1    0    0    0    0  0.00000000000E+00  0.00000000000E+00  0.39999999673E+01  0.40000000000E+01  0.51109989000E-03 0. -1.
     -623   -1    0    0    0    0  0.00000000000E+00  0.00000000000E+00  0.12525980253E-10  0.17130000000E+03  0.17130000000E+03 0. -1.
       11    1    1    2    0    0 -0.45864967771E-02 -0.22119700791E-02  0.46999042196E-01  0.47276843727E-01  0.51109989000E-03 0. -1.
     -623    1    1    2    0    0  0.49388878927E-03 -0.21802794801E-03  0.48303352874E-03  0.17130000000E+03  0.17130000000E+03 0. -1.
      622    1    1    2    0    0  0.40926079878E-02  0.24299980271E-02  0.39525178916E+01  0.39527231547E+01  0.40000000000E-01 0. -1.
</event>
<event>
 5   0  0.6200596E+07  0.9118800E+02  0.7818608E-02  0.1180000E+00
       11   -1    0    0    0    0  0.00000000000E+00  0.00000000000E+00  0.39999999673E+01  0.40000000000E+01  0.51109989000E-03 0.  1.
     -623   -1    0    0    0    0  0.00000000000E+00  0.00000000000E+00  0.12525980253E-10  0.17130000000E+03  0.17130000000E+03 0. -1.
       11    1    1    2    0    0  0.14356854688E-02  0.14256311570E-03  0.11614723778E+01  0.11614733863E+01  0.51109989000E-03 0.  1.
     -623    1    1    2    0    0  0.54617168575E-02 -0.65363120751E-02  0.29862088046E-03  0.17130000021E+03  0.17130000000E+03 0. -1.
      622    1    1    2    0    0 -0.68974023263E-02  0.63937489594E-02  0.28382289687E+01  0.28385264016E+01  0.40000000000E-01 0.  1.
</event>
<event>
 5   0  0.6200596E+07  0.9118800E+02  0.7818608E-02  0.1180000E+00
       11   -1    0    0    0    0  0.00000000000E+00  0.00000000000E+00  0.39999999673E+01  0.40000000000E+01  0.51109989000E-03 0.  1.
     -623   -1    0    0    0    0  0.00000000000E+00  0.00000000000E+00  0.12525980253E-10  0.17130000000E+03  0.17130000000E+03 0.  1.
       11    1    1    2    0    0 -0.10599997900E-03  0.11652129961E-02  0.28007495206E-01  0.28036582662E-01  0.51109989000E-03 0.  1.
     -623    1    1    2    0    0 -0.76183204684E-03  0.34387330923E-03  0.23085534392E-03  0.17130000000E+03  0.17130000000E+03 0.  1.
      622    1    1    2    0    0  0.86783202584E-03 -0.15090863053E-02  0.39717616168E+01  0.39719634151E+01  0.40000000000E-01 0.  1.
</event>
<event>
 5   0  0.6200596E+07  0.9118800E+02  0.7818608E-02  0.1180000E+00
       11   -1    0    0    0    0  0.00000000000E+00  0.00000000000E+00  0.39999999673E+01  0.40000000000E+01  0.51109989000E-03 0. -1.
     -623   -1    0    0    0    0  0.00000000000E+00  0.00000000000E+00  0.12525980253E-10  0.17130000000E+03  0.17130000000E+03 0. -1.
       11    1    1    2    0    0  0.11214747020E-02  0.37757956972E-02  0.79000234595E+00  0.79001233039E+00  0.51109989000E-03 0. -1.
     -623    1    1    2    0    0  0.80073913950E-02 -0.72724025422E-02  0.27441175301E-03  0.17130000034E+03  0.17130000000E+03 0. -1.
      622    1    1    2    0    0 -0.91288660970E-02  0.34966068449E-02  0.32097232097E+01  0.32099873279E+01  0.40000000000E-01 0. -1.
</event>
<event>
 5   0  0.6200596E+07  0.9118800E+02  0.7818608E-02  0.1180000E+00
       11   -1    0    0    0    0  0.00000000000E+00  0.00000000000E+00  0.39999999673E+01  0.40000000000E+01  0.51109989000E-03 0. -1.
     -623   -1    0    0    0    0  0.00000000000E+00  0.00000000000E+00  0.12525980253E-10  0.17130000000E+03  0.17130000000E+03 0. -1.
       11    1    1    2    0    0  0.22670074921E-02  0.14092534794E-01  0.10139927868E+01  0.10140933743E+01  0.51109989000E-03 0. -1.
     -623    1    1    2    0    0 -0.19285336158E-02 -0.93630073808E-02  0.37252454980E-03  0.17130000027E+03  0.17130000000E+03 0. -1.
      622    1    1    2    0    0 -0.33847387639E-03 -0.47295274136E-02  0.29856346560E+01  0.29859063586E+01  0.40000000000E-01 0.  0.
</event>
<event>
 5   0  0.6200596E+07  0.9118800E+02  0.7818608E-02  0.1180000E+00
       11   -1    0    0    0    0  0.00000000000E+00  0.00000000000E+00  0.39999999673E+01  0.40000000000E+01  0.51109989000E-03 0.  1.
     -623   -1    0    0    0    0  0.00000000000E+00  0.00000000000E+00  0.12525980253E-10  0.17130000000E+03  0.17130000000E+03 0.  1.
       11    1    1    2    0    0  0.13243082256E-02  0.10042607181E-01  0.38719431161E+00  0.38732712778E+00  0.51109989000E-03 0.  1.
     -623    1    1    2    0    0 -0.34506794060E-02 -0.25336185164E-02  0.36271696027E-03  0.17130000005E+03  0.17130000000E+03 0.  1.
      622    1    1    2    0    0  0.21263711804E-02 -0.75089886647E-02  0.36124429388E+01  0.36126728183E+01  0.40000000000E-01 0.  1.
</event>
<event>
 5   0  0.6200596E+07  0.9118800E+02  0.7818608E-02  0.1180000E+00
       11   -1    0    0    0    0  0.00000000000E+00  0.00000000000E+00  0.39999999673E+01  0.40000000000E+01  0.51109989000E-03 0.  1.
     -623   -1    0    0    0    0  0.00000000000E+00  0.00000000000E+00  0.12525980253E-10  0.17130000000E+03  0.17130000000E+03 0.  1.
       11    1    1    2    0    0 -0.18661054798E-03  0.35933994261E-02  0.11067919996E+00  0.11073885437E+00  0.51109989000E-03 0.  1.
     -623    1    1    2    0    0 -0.70408705981E-02 -0.29904897751E-02  0.27225540550E-03  0.17130000017E+03  0.17130000000E+03 0.  1.
      622    1    1    2    0    0  0.72274811461E-02 -0.60290965096E-03  0.38890485120E+01  0.38892609746E+01  0.40000000000E-01 0.  1.
</event>
<event>
 5   0  0.6200596E+07  0.9118800E+02  0.7818608E-02  0.1180000E+00
       11   -1    0    0    0    0  0.00000000000E+00  0.00000000000E+00  0.39999999673E+01  0.40000000000E+01  0.51109989000E-03 0. -1.
     -623   -1    0    0    0    0  0.00000000000E+00  0.00000000000E+00  0.12525980253E-10  0.17130000000E+03  0.17130000000E+03 0. -1.
       11    1    1    2    0    0 -0.27892234915E-01 -0.29839016157E-01  0.16510433238E+01  0.16515485648E+01  0.51109989000E-03 0. -1.
     -623    1    1    2    0    0  0.60932889662E-03  0.32396515119E-03  0.11899127518E-02  0.17130000001E+03  0.17130000000E+03 0. -1.
      622    1    1    2    0    0  0.27282906018E-01  0.29515051006E-01  0.23477667308E+01  0.23484514297E+01  0.40000000000E-01 0. -1.
</event>
<event>
 5   0  0.6200596E+07  0.9118800E+02  0.7818608E-02  0.1180000E+00
       11   -1    0    0    0    0  0.00000000000E+00  0.00000000000E+00  0.39999999673E+01  0.40000000000E+01  0.51109989000E-03 0.  1.
     -623   -1    0    0    0    0  0.00000000000E+00  0.00000000000E+00  0.12525980253E-10  0.17130000000E+03  0.17130000000E+03 0. -1.
       11    1    1    2    0    0  0.27911018717E-01 -0.52810404359E-02  0.14474708835E+00  0.14750896638E+00  0.51109989000E-03 0.  1.
     -623    1    1    2    0    0 -0.24156742695E-01  0.11524437208E-02  0.29752836819E-02  0.17130000173E+03  0.17130000000E+03 0. -1.
      622    1    1    2    0    0 -0.37542760227E-02  0.41285967151E-02  0.38522775953E+01  0.38524893006E+01  0.40000000000E-01 0.  1.
</event>
<event>
 5   0  0.6200596E+07  0.9118800E+02  0.7818608E-02  0.1180000E+00
       11   -1    0    0    0    0  0.00000000000E+00  0.00000000000E+00  0.39999999673E+01  0.40000000000E+01  0.51109989000E-03 0.  1.
     -623   -1    0    0    0    0  0.00000000000E+00  0.00000000000E+00  0.12525980253E-10  0.17130000000E+03  0.17130000000E+03 0.  1.
       11    1    1    2    0    0 -0.23787963798E-02  0.70547970797E-02  0.16963133257E-01  0.18532078864E-01  0.51109989000E-03 0.  1.
     -623    1    1    2    0    0  0.14341793590E-03 -0.68139686549E-02  0.17706285333E-02  0.17130000014E+03  0.17130000000E+03 0.  1.
      622    1    1    2    0    0  0.22353784439E-02 -0.24082842487E-03  0.39812662056E+01  0.39814677764E+01  0.40000000000E-01 0.  1.
</event>
<event>
 5   0  0.6200596E+07  0.9118800E+02  0.7818608E-02  0.1180000E+00
       11   -1    0    0    0    0  0.00000000000E+00  0.00000000000E+00  0.39999999673E+01  0.40000000000E+01  0.51109989000E-03 0.  1.
     -623   -1    0    0    0    0  0.00000000000E+00  0.00000000000E+00  0.12525980253E-10  0.17130000000E+03  0.17130000000E+03 0. -1.
       11    1    1    2    0    0  0.10263873562E-01 -0.56509888391E-03  0.17951245961E+00  0.17980726018E+00  0.51109989000E-03 0.  1.
     -623    1    1    2    0    0 -0.97196968761E-03  0.37587146447E-03  0.51549686218E-03  0.17130000000E+03  0.17130000000E+03 0. -1.
      622    1    1    2    0    0 -0.92919038745E-02  0.18922741943E-03  0.38199720109E+01  0.38201927359E+01  0.40000000000E-01 0.  0.
</event>
<event>
 5   0  0.6200596E+07  0.9118800E+02  0.7818608E-02  0.1180000E+00
       11   -1    0    0    0    0  0.00000000000E+00  0.00000000000E+00  0.39999999673E+01  0.40000000000E+01  0.51109989000E-03 0. -1.
     -623   -1    0    0    0    0  0.00000000000E+00  0.00000000000E+00  0.12525980253E-10  0.17130000000E+03  0.17130000000E+03 0.  1.
       11    1    1    2    0    0 -0.41520620834E-02  0.70191680389E-03  0.25692709886E-01  0.26040523576E-01  0.51109989000E-03 0. -1.
     -623    1    1    2    0    0  0.73337867760E-04 -0.13212985000E-02  0.55124420869E-03  0.17130000001E+03  0.17130000000E+03 0.  1.
      622    1    1    2    0    0  0.40787242157E-02  0.61938169610E-03  0.39737560133E+01  0.39739594704E+01  0.40000000000E-01 0. -1.
</event>
<event>
 5   0  0.6200596E+07  0.9118800E+02  0.7818608E-02  0.1180000E+00
       11   -1    0    0    0    0  0.00000000000E+00  0.00000000000E+00  0.39999999673E+01  0.40000000000E+01  0.51109989000E-03 0.  1.
     -623   -1    0    0    0    0  0.00000000000E+00  0.00000000000E+00  0.12525980253E-10  0.17130000000E+03  0.17130000000E+03 0.  1.
       11    1    1    2    0    0  0.23869931233E-03 -0.39264596073E-01  0.95078588353E+00  0.95159646018E+00  0.51109989000E-03 0.  1.
     -623    1    1    2    0    0 -0.13739464725E-03  0.92379286296E-02  0.12211400983E-02  0.17130000025E+03  0.17130000000E+03 0.  1.
      622    1    1    2    0    0 -0.10130466509E-03  0.30026667443E-01  0.30479929437E+01  0.30484032863E+01  0.40000000000E-01 0.  0.
</event>
<event>
 5   0  0.6200596E+07  0.9118800E+02  0.7818608E-02  0.1180000E+00
       11   -1    0    0    0    0  0.00000000000E+00  0.00000000000E+00  0.39999999673E+01  0.40000000000E+01  0.51109989000E-03 0. -1.
     -623   -1    0    0    0    0  0.00000000000E+00  0.00000000000E+00  0.12525980253E-10  0.17130000000E+03  0.17130000000E+03 0. -1.
       11    1    1    2    0    0  0.16508608364E-02 -0.13017141289E-03  0.76991336379E-02  0.78917783290E-02  0.51109989000E-03 0. -1.
     -623    1    1    2    0    0  0.75788753933E-03  0.12428211469E-02  0.39390087967E-03  0.17130000001E+03  0.17130000000E+03 0. -1.
      622    1    1    2    0    0 -0.24087483758E-02 -0.11126497340E-02  0.39919069328E+01  0.39921082150E+01  0.40000000000E-01 0. -1.
</event>
<event>
 5   0  0.6200596E+07  0.9118800E+02  0.7818608E-02  0.1180000E+00
       11   -1    0    0    0    0  0.00000000000E+00  0.00000000000E+00  0.39999999673E+01  0.40000000000E+01  0.51109989000E-03 0.  1.
     -623   -1    0    0    0    0  0.00000000000E+00  0.00000000000E+00  0.12525980253E-10  0.17130000000E+03  0.17130000000E+03 0.  1.
       11    1    1    2    0    0  0.66565362198E-04 -0.13380106365E-02  0.38696547384E-01  0.38723102986E-01  0.51109989000E-03 0.  1.
     -623    1    1    2    0    0  0.18227567593E-03  0.25428527628E-02  0.22869337236E-03  0.17130000002E+03  0.17130000000E+03 0.  1.
      622    1    1    2    0    0 -0.24884103813E-03 -0.12048421264E-02  0.39610747266E+01  0.39612768779E+01  0.40000000000E-01 0.  1.
</event>
<event>
 5   0  0.6200596E+07  0.9118800E+02  0.7818608E-02  0.1180000E+00
       11   -1    0    0    0    0  0.00000000000E+00  0.00000000000E+00  0.39999999673E+01  0.40000000000E+01  0.51109989000E-03 0.  1.
     -623   -1    0    0    0    0  0.00000000000E+00  0.00000000000E+00  0.12525980253E-10  0.17130000000E+03  0.17130000000E+03 0.  1.
       11    1    1    2    0    0  0.36512019727E-02 -0.25005101208E-02  0.10495309042E+01  0.10495403584E+01  0.51109989000E-03 0.  1.
     -623    1    1    2    0    0  0.62101024566E-03  0.44346722615E-02  0.28436434193E-03  0.17130000006E+03  0.17130000000E+03 0.  1.
      622    1    1    2    0    0 -0.42722122183E-02 -0.19341621407E-02  0.29501846989E+01  0.29504595829E+01  0.40000000000E-01 0.  1.
</event>
<event>
 5   0  0.6200596E+07  0.9118800E+02  0.7818608E-02  0.1180000E+00
       11   -1    0    0    0    0  0.00000000000E+00  0.00000000000E+00  0.39999999673E+01  0.40000000000E+01  0.51109989000E-03 0. -1.
     -623   -1    0    0    0    0  0.00000000000E+00  0.00000000000E+00  0.12525980253E-10  0.17130000000E+03  0.17130000000E+03 0.  1.
       11    1    1    2    0    0  0.84914379214E-02  0.30740262778E-02  0.41642612063E+00  0.41652434421E+00  0.51109989000E-03 0. -1.
     -623    1    1    2    0    0  0.51048718953E-03 -0.64999647470E-03  0.33357451214E-03  0.17130000000E+03  0.17130000000E+03 0.  1.
      622    1    1    2    0    0 -0.90019251109E-02 -0.24240298031E-02  0.35832402722E+01  0.35834756535E+01  0.40000000000E-01 0. -1.
</event>
<event>
 5   0  0.6200596E+07  0.9118800E+02  0.7818608E-02  0.1180000E+00
       11   -1    0    0    0    0  0.00000000000E+00  0.00000000000E+00  0.39999999673E+01  0.40000000000E+01  0.51109989000E-03 0.  1.
     -623   -1    0    0    0    0  0.00000000000E+00  0.00000000000E+00  0.12525980253E-10  0.17130000000E+03  0.17130000000E+03 0.  1.
       11    1    1    2    0    0  0.46885808621E-02  0.40788632910E-02  0.19626785315E-01  0.20593490226E-01  0.51109989000E-03 0.  1.
     -623    1    1    2    0    0 -0.20529906562E-02 -0.37039476238E-03  0.11703299603E-02  0.17130000002E+03  0.17130000000E+03 0.  1.
      622    1    1    2    0    0 -0.26355902059E-02 -0.37084685286E-02  0.39792028521E+01  0.39794064931E+01  0.40000000000E-01 0.  1.
</event>
<event>
 5   0  0.6200596E+07  0.9118800E+02  0.7818608E-02  0.1180000E+00
       11   -1    0    0    0    0  0.00000000000E+00  0.00000000000E+00  0.39999999673E+01  0.40000000000E+01  0.51109989000E-03 0. -1.
     -623   -1    0    0    0    0  0.00000000000E+00  0.00000000000E+00  0.12525980253E-10  0.17130000000E+03  0.17130000000E+03 0.  1.
       11    1    1    2    0    0  0.38023582948E-02 -0.13538829559E-02  0.35222795619E-01  0.35456980709E-01  0.51109989000E-03 0. -1.
     -623    1    1    2    0    0  0.49547660210E-03  0.37975843144E-03  0.43839736339E-03  0.17130000000E+03  0.17130000000E+03 0.  1.
      622    1    1    2    0    0 -0.42978348969E-02  0.97412452450E-03  0.39643387744E+01  0.39645430176E+01  0.40000000000E-01 0. -1.
</event>
<event>
 5   0  0.6200596E+07  0.9118800E+02  0.7818608E-02  0.1180000E+00
       11   -1    0    0    0    0  0.00000000000E+00  0.00000000000E+00  0.39999999673E+01  0.40000000000E+01  0.51109989000E-03 0.  1.
     -623   -1    0    0    0    0  0.00000000000E+00  0.00000000000E+00  0.12525980253E-10  0.17130000000E+03  0.17130000000E+03 0.  1.
       11    1    1    2    0    0 -0.54761297958E-02  0.11014991820E-01  0.11154991357E+01  0.11155670760E+01  0.51109989000E-03 0.  1.
     -623    1    1    2    0    0 -0.67513464987E-02 -0.56324003268E-02  0.37644016438E-03  0.17130000023E+03  0.17130000000E+03 0.  1.
      622    1    1    2    0    0  0.12227476295E-01 -0.53825914935E-02  0.28841243915E+01  0.28844326979E+01  0.40000000000E-01 0.  1.
</event>
<event>
 5   0  0.6200596E+07  0.9118800E+02  0.7818608E-02  0.1180000E+00
       11   -1    0    0    0    0  0.00000000000E+00  0.00000000000E+00  0.39999999673E+01  0.40000000000E+01  0.51109989000E-03 0. -1.
     -623   -1    0    0    0    0  0.00000000000E+00  0.00000000000E+00  0.12525980253E-10  0.17130000000E+03  0.17130000000E+03 0.  1.
       11    1    1    2    0    0 -0.46037393680E-03  0.13043575089E-02  0.38705396543E-01  0.38733476936E-01  0.51109989000E-03 0. -1.
     -623    1    1    2    0    0 -0.78155265606E-03 -0.11930677982E-02  0.23021086099E-03  0.17130000001E+03  0.17130000000E+03 0.  1.
      622    1    1    2    0    0  0.12419265929E-02 -0.11128971069E-03  0.39610643600E+01  0.39612665170E+01  0.40000000000E-01 0. -1.
</event>
<event>
 5   0  0.6200596E+07  0.9118800E+02  0.7818608E-02  0.1180000E+00
       11   -1    0    0    0    0  0.00000000000E+00  0.00000000000E+00  0.39999999673E+01  0.40000000000E+01  0.51109989000E-03 0.  1.
     -623   -1    0    0    0    0  0.00000000000E+00  0.00000000000E+00  0.12525980253E-10  0.17130000000E+03  0.17130000000E+03 0.  1.
       11    1    1    2    0    0 -0.13345600126E-02  0.65636409086E-02  0.49524371254E+00  0.49528926747E+00  0.51109989000E-03 0.  1.
     -623    1    1    2    0    0  0.10483353550E-01 -0.15649168096E-01  0.29854916355E-03  0.17130000104E+03  0.17130000000E+03 0.  1.
      622    1    1    2    0    0 -0.91487935378E-02  0.90855271871E-02  0.35044577057E+01  0.35047096967E+01  0.40000000000E-01 0.  1.
</event>
<event>
 5   0  0.6200596E+07  0.9118800E+02  0.7818608E-02  0.1180000E+00
       11   -1    0    0    0    0  0.00000000000E+00  0.00000000000E+00  0.39999999673E+01  0.40000000000E+01  0.51109989000E-03 0.  1.
     -623   -1    0    0    0    0  0.00000000000E+00  0.00000000000E+00  0.12525980253E-10  0.17130000000E+03  0.17130000000E+03 0.  1.
       11    1    1    2    0    0  0.57765632776E-02 -0.25471022957E-02  0.69889847189E-01  0.70176266460E-01  0.51109989000E-03 0.  1.
     -623    1    1    2    0    0 -0.17167537656E-02  0.67293626927E-02  0.49442760728E-03  0.17130000014E+03  0.17130000000E+03 0.  1.
      622    1    1    2    0    0 -0.40598095120E-02 -0.41822603970E-02  0.39296156926E+01  0.39298235920E+01  0.40000000000E-01 0.  1.
</event>
<event>
 5   0  0.6200596E+07  0.9118800E+02  0.7818608E-02  0.1180000E+00
       11   -1    0    0    0    0  0.00000000000E+00  0.00000000000E+00  0.39999999673E+01  0.40000000000E+01  0.51109989000E-03 0. -1.
     -623   -1    0    0    0    0  0.00000000000E+00  0.00000000000E+00  0.12525980253E-10  0.17130000000E+03  0.17130000000E+03 0. -1.
       11    1    1    2    0    0  0.24892569203E-02  0.59583769401E-02  0.74505321724E-01  0.74786381401E-01  0.51109989000E-03 0. -1.
     -623    1    1    2    0    0 -0.21961914952E-02  0.42418533843E-03  0.49005856870E-03  0.17130000002E+03  0.17130000000E+03 0. -1.
      622    1    1    2    0    0 -0.29306542509E-03 -0.63825622785E-02  0.39250045871E+01  0.39252136033E+01  0.40000000000E-01 0. -1.
</event>
<event>
 5   0  0.6200596E+07  0.9118800E+02  0.7818608E-02  0.1180000E+00
       11   -1    0    0    0    0  0.00000000000E+00  0.00000000000E+00  0.39999999673E+01  0.40000000000E+01  0.51109989000E-03 0. -1.
     -623   -1    0    0    0    0  0.00000000000E+00  0.00000000000E+00  0.12525980253E-10  0.17130000000E+03  0.17130000000E+03 0.  1.
       11    1    1    2    0    0  0.13891496411E-01 -0.57756925188E-02  0.13684519703E+01  0.13685347597E+01  0.51109989000E-03 0. -1.
     -623    1    1    2    0    0 -0.45346009802E-02  0.56732514992E-03  0.40864140375E-03  0.17130000006E+03  0.17130000000E+03 0.  1.
      622    1    1    2    0    0 -0.93568954310E-02  0.52083673689E-02  0.26311393556E+01  0.26314651788E+01  0.40000000000E-01 0. -1.
</event>
<event>
 5   0  0.6200596E+07  0.9118800E+02  0.7818608E-02  0.1180000E+00
       11   -1    0    0    0    0  0.00000000000E+00  0.00000000000E+00  0.39999999673E+01  0.40000000000E+01  0.51109989000E-03 0.  1.
     -623   -1    0    0    0    0  0.00000000000E+00  0.00000000000E+00  0.12525980253E-10  0.17130000000E+03  0.17130000000E+03 0. -1.
       11    1    1    2    0    0  0.24976314392E-02 -0.20563341991E-02  0.50574896580E-02  0.60254540784E-02  0.51109989000E-03 0.  1.
     -623    1    1    2    0    0 -0.63846540011E-03  0.40928874197E-02  0.11692445970E-02  0.17130000005E+03  0.17130000000E+03 0. -1.
      622    1    1    2    0    0 -0.18591660391E-02 -0.20365532205E-02  0.39937732331E+01  0.39939744918E+01  0.40000000000E-01 0.  1.
</event>
<event>
 5   0  0.6200596E+07  0.9118800E+02  0.7818608E-02  0.1180000E+00
       11   -1    0    0    0    0  0.00000000000E+00  0.00000000000E+00  0.39999999673E+01  0.40000000000E+01  0.51109989000E-03 0. -1.
     -623   -1    0    0    0    0  0.00000000000E+00  0.00000000000E+00  0.12525980253E-10  0.17130000000E+03  0.17130000000E+03 0. -1.
       11    1    1    2    0    0  0.88242126385E-03 -0.15103758106E-03  0.89128377721E-02  0.89722559775E-02  0.51109989000E-03 0. -1.
     -623    1    1    2    0    0  0.23674131836E-03 -0.12194474176E-02  0.26023716649E-03  0.17130000000E+03  0.17130000000E+03 0. -1.
      622    1    1    2    0    0 -0.11191625822E-02  0.13704849986E-02  0.39908268924E+01  0.39910277393E+01  0.40000000000E-01 0. -1.
</event>
<event>
 5   0  0.6200596E+07  0.9118800E+02  0.7818608E-02  0.1180000E+00
       11   -1    0    0    0    0  0.00000000000E+00  0.00000000000E+00  0.39999999673E+01  0.40000000000E+01  0.51109989000E-03 0.  1.
     -623   -1    0    0    0    0  0.00000000000E+00  0.00000000000E+00  0.12525980253E-10  0.17130000000E+03  0.17130000000E+03 0.  1.
       11    1    1    2    0    0 -0.11664562789E-01  0.10932597967E-01  0.45319283226E+00  0.45347501382E+00  0.51109989000E-03 0.  1.
     -623    1    1    2    0    0  0.60314486621E-03  0.72949746395E-04  0.54205944132E-03  0.17130000000E+03  0.17130000000E+03 0.  1.
      622    1    1    2    0    0  0.11061417923E-01 -0.11005547713E-01  0.35462650757E+01  0.35465249842E+01  0.40000000000E-01 0.  1.
</event>
<event>
 5   0  0.6200596E+07  0.9118800E+02  0.7818608E-02  0.1180000E+00
       11   -1    0    0    0    0  0.00000000000E+00  0.00000000000E+00  0.39999999673E+01  0.40000000000E+01  0.51109989000E-03 0.  1.
     -623   -1    0    0    0    0  0.00000000000E+00  0.00000000000E+00  0.12525980253E-10  0.17130000000E+03  0.17130000000E+03 0. -1.
       11    1    1    2    0    0  0.47641501205E-02  0.23802145829E-02  0.18388559540E+00  0.18396340931E+00  0.51109989000E-03 0.  1.
     -623    1    1    2    0    0  0.12782320401E-02 -0.82086268469E-03  0.29253830349E-03  0.17130000001E+03  0.17130000000E+03 0. -1.
      622    1    1    2    0    0 -0.60423821606E-02 -0.15593518982E-02  0.38158218337E+01  0.38160365837E+01  0.40000000000E-01 0.  1.
</event>
<event>
 5   0  0.6200596E+07  0.9118800E+02  0.7818608E-02  0.1180000E+00
       11   -1    0    0    0    0  0.00000000000E+00  0.00000000000E+00  0.39999999673E+01  0.40000000000E+01  0.51109989000E-03 0.  1.
     -623   -1    0    0    0    0  0.00000000000E+00  0.00000000000E+00  0.12525980253E-10  0.17130000000E+03  0.17130000000E+03 0.  1.
       11    1    1    2    0    0  0.21340753237E-02  0.28278411425E-02  0.60622248929E+00  0.60623305643E+00  0.51109989000E-03 0.  1.
     -623    1    1    2    0    0 -0.68259089020E-02 -0.37845690652E-02  0.24982523496E-03  0.17130000018E+03  0.17130000000E+03 0.  1.
      622    1    1    2    0    0  0.46918335782E-02  0.95672792266E-03  0.33935276528E+01  0.33937667656E+01  0.40000000000E-01 0.  1.
</event>
<event>
 5   0  0.6200596E+07  0.9118800E+02  0.7818608E-02  0.1180000E+00
       11   -1    0    0    0    0  0.00000000000E+00  0.00000000000E+00  0.39999999673E+01  0.40000000000E+01  0.51109989000E-03 0. -1.
     -623   -1    0    0    0    0  0.00000000000E+00  0.00000000000E+00  0.12525980253E-10  0.17130000000E+03  0.17130000000E+03 0. -1.
       11    1    1    2    0    0  0.10278375451E-02 -0.38606875693E-03  0.37943522625E-02  0.39829421941E-02  0.51109989000E-03 0. -1.
     -623    1    1    2    0    0  0.80604892335E-03  0.11886497527E-02  0.38926954917E-03  0.17130000001E+03  0.17130000000E+03 0. -1.
      622    1    1    2    0    0 -0.18338864684E-02 -0.80258099573E-03  0.39958163455E+01  0.39960170513E+01  0.40000000000E-01 0. -1.
</event>
<event>
 5   0  0.6200596E+07  0.9118800E+02  0.7818608E-02  0.1180000E+00
       11   -1    0    0    0    0  0.00000000000E+00  0.00000000000E+00  0.39999999673E+01  0.40000000000E+01  0.51109989000E-03 0. -1.
     -623   -1    0    0    0    0  0.00000000000E+00  0.00000000000E+00  0.12525980253E-10  0.17130000000E+03  0.17130000000E+03 0. -1.
       11    1    1    2    0    0 -0.19340075624E-01  0.83359634632E-04  0.17738234537E+01  0.17739289590E+01  0.51109989000E-03 0. -1.
     -623    1    1    2    0    0 -0.26058333153E-02 -0.17889549646E-02  0.57376081296E-03  0.17130000003E+03  0.17130000000E+03 0. -1.
      622    1    1    2    0    0  0.21945908939E-01  0.17055953300E-02  0.22256027528E+01  0.22260710108E+01  0.40000000000E-01 0.  0.
</event>
<event>
 5   0  0.6200596E+07  0.9118800E+02  0.7818608E-02  0.1180000E+00
       11   -1    0    0    0    0  0.00000000000E+00  0.00000000000E+00  0.39999999673E+01  0.40000000000E+01  0.51109989000E-03 0. -1.
     -623   -1    0    0    0    0  0.00000000000E+00  0.00000000000E+00  0.12525980253E-10  0.17130000000E+03  0.17130000000E+03 0. -1.
       11    1    1    2    0    0  0.96515244751E-02  0.73965524003E-02  0.13164729486E+01  0.13165292046E+01  0.51109989000E-03 0. -1.
     -623    1    1    2    0    0 -0.70608191753E-02  0.12800894648E-02  0.36979169299E-03  0.17130000015E+03  0.17130000000E+03 0. -1.
      622    1    1    2    0    0 -0.25907052999E-02 -0.86766418651E-02  0.26831572270E+01  0.26834706447E+01  0.40000000000E-01 0. -1.
</event>
<event>
 5   0  0.6200596E+07  0.9118800E+02  0.7818608E-02  0.1180000E+00
       11   -1    0    0    0    0  0.00000000000E+00  0.00000000000E+00  0.39999999673E+01  0.40000000000E+01  0.51109989000E-03 0. -1.
     -623   -1    0    0    0    0  0.00000000000E+00  0.00000000000E+00  0.12525980253E-10  0.17130000000E+03  0.17130000000E+03 0.  1.
       11    1    1    2    0    0  0.35372101251E-02 -0.60193161329E-02  0.17786399055E+01  0.17786536814E+01  0.51109989000E-03 0. -1.
     -623    1    1    2    0    0 -0.98454304843E-02 -0.12238479829E-01  0.45864036415E-03  0.17130000072E+03  0.17130000000E+03 0.  1.
      622    1    1    2    0    0  0.63082203592E-02  0.18257795961E-01  0.22209014215E+01  0.22213455978E+01  0.40000000000E-01 0. -1.
</event>
<event>
 5   0  0.6200596E+07  0.9118800E+02  0.7818608E-02  0.1180000E+00
       11   -1    0    0    0    0  0.00000000000E+00  0.00000000000E+00  0.39999999673E+01  0.40000000000E+01  0.51109989000E-03 0.  1.
     -623   -1    0    0    0    0  0.00000000000E+00  0.00000000000E+00  0.12525980253E-10  0.17130000000E+03  0.17130000000E+03 0. -1.
       11    1    1    2    0    0  0.58359884363E-02  0.11495084920E-02  0.31537296990E-01  0.32097390134E-01  0.51109989000E-03 0.  1.
     -623    1    1    2    0    0 -0.84677545016E-02 -0.32232312196E-02  0.76333954517E-03  0.17130000024E+03  0.17130000000E+03 0. -1.
      622    1    1    2    0    0  0.26317660653E-02  0.20737227276E-02  0.39676993308E+01  0.39679023686E+01  0.40000000000E-01 0.  1.
</event>
<event>
 5   0  0.6200596E+07  0.9118800E+02  0.7818608E-02  0.1180000E+00
       11   -1    0    0    0    0  0.00000000000E+00  0.00000000000E+00  0.39999999673E+01  0.40000000000E+01  0.51109989000E-03 0.  1.
     -623   -1    0    0    0    0  0.00000000000E+00  0.00000000000E+00  0.12525980253E-10  0.17130000000E+03  0.17130000000E+03 0. -1.
       11    1    1    2    0    0  0.50401420006E-02  0.97729756163E-02  0.20179680243E+01  0.20179980481E+01  0.51109989000E-03 0.  1.
     -623    1    1    2    0    0 -0.55701186559E-03  0.18208291223E-02  0.47266366088E-03  0.17130000001E+03  0.17130000000E+03 0. -1.
      622    1    1    2    0    0 -0.44831301350E-02 -0.11593804739E-01  0.19815592794E+01  0.19820019406E+01  0.40000000000E-01 0.  0.
</event>
<event>
 5   0  0.6200596E+07  0.9118800E+02  0.7818608E-02  0.1180000E+00
       11   -1    0    0    0    0  0.00000000000E+00  0.00000000000E+00  0.39999999673E+01  0.40000000000E+01  0.51109989000E-03 0.  1.
     -623   -1    0    0    0    0  0.00000000000E+00  0.00000000000E+00  0.12525980253E-10  0.17130000000E+03  0.17130000000E+03 0.  1.
       11    1    1    2    0    0  0.63856423235E-02  0.10828721860E-03  0.48962995041E-01  0.49380403587E-01  0.51109989000E-03 0.  1.
     -623    1    1    2    0    0 -0.39845488751E-02  0.14340551103E-02  0.62096523633E-03  0.17130000005E+03  0.17130000000E+03 0.  1.
      622    1    1    2    0    0 -0.24010934483E-02 -0.15423423289E-02  0.39504160071E+01  0.39506195429E+01  0.40000000000E-01 0.  1.
</event>
<event>
 5   0  0.6200596E+07  0.9118800E+02  0.7818608E-02  0.1180000E+00
       11   -1    0    0    0    0  0.00000000000E+00  0.00000000000E+00  0.39999999673E+01  0.40000000000E+01  0.51109989000E-03 0. -1.
     -623   -1    0    0    0    0  0.00000000000E+00  0.00000000000E+00  0.12525980253E-10  0.17130000000E+03  0.17130000000E+03 0. -1.
       11    1    1    2    0    0 -0.49591375838E-02 -0.19818042750E-02  0.92959061712E-02  0.10732925298E-01  0.51109989000E-03 0. -1.
     -623    1    1    2    0    0 -0.70433787887E-03 -0.37023614609E-02  0.16456491359E-02  0.17130000005E+03  0.17130000000E+03 0. -1.
      622    1    1    2    0    0  0.56634754627E-02  0.56841657359E-02  0.39890584121E+01  0.39892670253E+01  0.40000000000E-01 0. -1.
</event>
<event>
 5   0  0.6200596E+07  0.9118800E+02  0.7818608E-02  0.1180000E+00
       11   -1    0    0    0    0  0.00000000000E+00  0.00000000000E+00  0.39999999673E+01  0.40000000000E+01  0.51109989000E-03 0.  1.
     -623   -1    0    0    0    0  0.00000000000E+00  0.00000000000E+00  0.12525980253E-10  0.17130000000E+03  0.17130000000E+03 0.  1.
       11    1    1    2    0    0  0.19245070103E-01 -0.14694233862E-02  0.82549844641E+00  0.82572421435E+00  0.51109989000E-03 0.  1.
     -623    1    1    2    0    0 -0.15077780160E-01 -0.54099586090E-02  0.48871195910E-03  0.17130000075E+03  0.17130000000E+03 0.  1.
      622    1    1    2    0    0 -0.41672899429E-02  0.68793819952E-02  0.31740128090E+01  0.31742750360E+01  0.40000000000E-01 0.  1.
</event>
<event>
 5   0  0.6200596E+07  0.9118800E+02  0.7818608E-02  0.1180000E+00
       11   -1    0    0    0    0  0.00000000000E+00  0.00000000000E+00  0.39999999673E+01  0.40000000000E+01  0.51109989000E-03 0.  1.
     -623   -1    0    0    0    0  0.00000000000E+00  0.00000000000E+00  0.12525980253E-10  0.17130000000E+03  0.17130000000E+03 0.  1.
       11    1    1    2    0    0 -0.82251360092E-02 -0.43868507107E-02  0.30190444016E+01  0.30190588364E+01  0.51109989000E-03 0.  1.
     -623    1    1    2    0    0  0.51989547638E-03  0.56498749122E-03  0.86802810199E-03  0.17130000000E+03  0.17130000000E+03 0.  1.
      622    1    1    2    0    0  0.77052405328E-02  0.38218632195E-02  0.98008753763E+00  0.98094115970E+00  0.40000000000E-01 0.  1.
</event>
<event>
 5   0  0.6200596E+07  0.9118800E+02  0.7818608E-02  0.1180000E+00
       11   -1    0    0    0    0  0.00000000000E+00  0.00000000000E+00  0.39999999673E+01  0.40000000000E+01  0.51109989000E-03 0. -1.
     -623   -1    0    0    0    0  0.00000000000E+00  0.00000000000E+00  0.12525980253E-10  0.17130000000E+03  0.17130000000E+03 0.  1.
       11    1    1    2    0    0 -0.28043626931E-02 -0.16317164480E-02  0.34432693684E+00  0.34434260207E+00  0.51109989000E-03 0. -1.
     -623    1    1    2    0    0  0.59284500494E-03  0.97322851858E-03  0.23521027357E-03  0.17130000000E+03  0.17130000000E+03 0.  1.
      622    1    1    2    0    0  0.22115176881E-02  0.65848792944E-03  0.36554378203E+01  0.36556573940E+01  0.40000000000E-01 0. -1.
</event>
<event>
 5   0  0.6200596E+07  0.9118800E+02  0.7818608E-02  0.1180000E+00
       11   -1    0    0    0    0  0.00000000000E+00  0.00000000000E+00  0.39999999673E+01  0.40000000000E+01  0.51109989000E-03 0. -1.
     -623   -1    0    0    0    0  0.00000000000E+00  0.00000000000E+00  0.12525980253E-10  0.17130000000E+03  0.17130000000E+03 0. -1.
       11    1    1    2    0    0  0.23703380837E-03 -0.11561509784E-02  0.70633637716E-01  0.70645345697E-01  0.51109989000E-03 0. -1.
     -623    1    1    2    0    0  0.48636307070E-03  0.30579084753E-02  0.21583134019E-03  0.17130000003E+03  0.17130000000E+03 0. -1.
      622    1    1    2    0    0 -0.72339687907E-03 -0.19017574969E-02  0.39291504983E+01  0.39293546262E+01  0.40000000000E-01 0. -1.
</event>
<event>
 5   0  0.6200596E+07  0.9118800E+02  0.7818608E-02  0.1180000E+00
       11   -1    0    0    0    0  0.00000000000E+00  0.00000000000E+00  0.39999999673E+01  0.40000000000E+01  0.51109989000E-03 0. -1.
     -623   -1    0    0    0    0  0.00000000000E+00  0.00000000000E+00  0.12525980253E-10  0.17130000000E+03  0.17130000000E+03 0.  1.
       11    1    1    2    0    0 -0.31427110611E-01 -0.32598498484E-02  0.62500040491E+00  0.62579873542E+00  0.51109989000E-03 0. -1.
     -623    1    1    2    0    0  0.84042908946E-02 -0.19034666084E-01  0.11888798172E-02  0.17130000127E+03  0.17130000000E+03 0.  1.
      622    1    1    2    0    0  0.23022819716E-01  0.22294515932E-01  0.33738106826E+01  0.33741999967E+01  0.40000000000E-01 0. -1.
</event>
<event>
 5   0  0.6200596E+07  0.9118800E+02  0.7818608E-02  0.1180000E+00
       11   -1    0    0    0    0  0.00000000000E+00  0.00000000000E+00  0.39999999673E+01  0.40000000000E+01  0.51109989000E-03 0. -1.
     -623   -1    0    0    0    0  0.00000000000E+00  0.00000000000E+00  0.12525980253E-10  0.17130000000E+03  0.17130000000E+03 0.  1.
       11    1    1    2    0    0 -0.24048111135E-02  0.68607733857E-02  0.13647980460E+00  0.13667425366E+00  0.51109989000E-03 0. -1.
     -623    1    1    2    0    0  0.21357715412E-01 -0.64501485507E-02  0.44946567068E-03  0.17130000145E+03  0.17130000000E+03 0.  1.
      622    1    1    2    0    0 -0.18952904299E-01 -0.41062483492E-03  0.38630706971E+01  0.38633242929E+01  0.40000000000E-01 0. -1.
</event>
<event>
 5   0  0.6200596E+07  0.9118800E+02  0.7818608E-02  0.1180000E+00
       11   -1    0    0    0    0  0.00000000000E+00  0.00000000000E+00  0.39999999673E+01  0.40000000000E+01  0.51109989000E-03 0. -1.
     -623   -1    0    0    0    0  0.00000000000E+00  0.00000000000E+00  0.12525980253E-10  0.17130000000E+03  0.17130000000E+03 0.  1.
       11    1    1    2    0    0 -0.43444535452E-02  0.79978565266E-03  0.11796942555E+01  0.11797026370E+01  0.51109989000E-03 0. -1.
     -623    1    1    2    0    0 -0.45972990976E-02 -0.15407042533E-01  0.34478464107E-03  0.17130000075E+03  0.17130000000E+03 0.  1.
      622    1    1    2    0    0  0.89417526428E-02  0.14607256881E-01  0.28199609272E+01  0.28202966081E+01  0.40000000000E-01 0. -1.
</event>
<event>
 5   0  0.6200596E+07  0.9118800E+02  0.7818608E-02  0.1180000E+00
       11   -1    0    0    0    0  0.00000000000E+00  0.00000000000E+00  0.39999999673E+01  0.40000000000E+01  0.51109989000E-03 0. -1.
     -623   -1    0    0    0    0  0.00000000000E+00  0.00000000000E+00  0.12525980253E-10  0.17130000000E+03  0.17130000000E+03 0.  1.
       11    1    1    2    0    0  0.80486535448E-02  0.37607870761E-02  0.15880532510E-01  0.18203759992E-01  0.51109989000E-03 0. -1.
     -623    1    1    2    0    0 -0.13970485910E-01 -0.40332711549E-02  0.25291632331E-02  0.17130000064E+03  0.17130000000E+03 0.  1.
      622    1    1    2    0    0  0.59218323652E-02  0.27248407882E-03  0.39815902716E+01  0.39817956042E+01  0.40000000000E-01 0. -1.
</event>
<event>
 5   0  0.6200596E+07  0.9118800E+02  0.7818608E-02  0.1180000E+00
       11   -1    0    0    0    0  0.00000000000E+00  0.00000000000E+00  0.39999999673E+01  0.40000000000E+01  0.51109989000E-03 0. -1.
     -623   -1    0    0    0    0  0.00000000000E+00  0.00000000000E+00  0.12525980253E-10  0.17130000000E+03  0.17130000000E+03 0.  1.
       11    1    1    2    0    0  0.15970966344E-02 -0.12292679770E-02  0.14304732651E-02  0.25237457210E-02  0.51109989000E-03 0. -1.
     -623    1    1    2    0    0 -0.22204466626E-02 -0.16899795450E-02  0.12945132930E-02  0.17130000003E+03  0.17130000000E+03 0.  1.
      622    1    1    2    0    0  0.62335002822E-03  0.29192475221E-02  0.39972749808E+01  0.39974762267E+01  0.40000000000E-01 0. -1.
</event>
<event>
 5   0  0.6200596E+07  0.9118800E+02  0.7818608E-02  0.1180000E+00
       11   -1    0    0    0    0  0.00000000000E+00  0.00000000000E+00  0.39999999673E+01  0.40000000000E+01  0.51109989000E-03 0. -1.
     -623   -1    0    0    0    0  0.00000000000E+00  0.00000000000E+00  0.12525980253E-10  0.17130000000E+03  0.17130000000E+03 0. -1.
       11    1    1    2    0    0 -0.88726978929E-02  0.10513013265E-02  0.24466523862E+00  0.24482885902E+00  0.51109989000E-03 0. -1.
     -623    1    1    2    0    0  0.13952118682E-03 -0.10264114884E-01  0.39839901377E-03  0.17130000031E+03  0.17130000000E+03 0. -1.
      622    1    1    2    0    0  0.87331767061E-02  0.92128135570E-02  0.37549363297E+01  0.37551708329E+01  0.40000000000E-01 0. -1.
</event>
<event>
 5   0  0.6200596E+07  0.9118800E+02  0.7818608E-02  0.1180000E+00
       11   -1    0    0    0    0  0.00000000000E+00  0.00000000000E+00  0.39999999673E+01  0.40000000000E+01  0.51109989000E-03 0. -1.
     -623   -1    0    0    0    0  0.00000000000E+00  0.00000000000E+00  0.12525980253E-10  0.17130000000E+03  0.17130000000E+03 0.  1.
       11    1    1    2    0    0 -0.20534010511E-02  0.16244463789E-02  0.15835330152E-01  0.16058461480E-01  0.51109989000E-03 0. -1.
     -623    1    1    2    0    0 -0.61098586600E-02 -0.12074770895E-02  0.43240935615E-03  0.17130000011E+03  0.17130000000E+03 0.  1.
      622    1    1    2    0    0  0.81632597112E-02 -0.41696928933E-03  0.39837322279E+01  0.39839414248E+01  0.40000000000E-01 0. -1.
</event>
<event>
 5   0  0.6200596E+07  0.9118800E+02  0.7818608E-02  0.1180000E+00
       11   -1    0    0    0    0  0.00000000000E+00  0.00000000000E+00  0.39999999673E+01  0.40000000000E+01  0.51109989000E-03 0.  1.
     -623   -1    0    0    0    0  0.00000000000E+00  0.00000000000E+00  0.12525980253E-10  0.17130000000E+03  0.17130000000E+03 0. -1.
       11    1    1    2    0    0 -0.73841073440E-02 -0.12691038494E-01  0.15643750844E+00  0.15712588192E+00  0.51109989000E-03 0.  1.
     -623    1    1    2    0    0  0.46817151661E-03 -0.79550485656E-03  0.92641942003E-03  0.17130000000E+03  0.17130000000E+03 0. -1.
      622    1    1    2    0    0  0.69159358274E-02  0.13486543351E-01  0.38426360395E+01  0.38428741131E+01  0.40000000000E-01 0.  1.
</event>
<event>
 5   0  0.6200596E+07  0.9118800E+02  0.7818608E-02  0.1180000E+00
       11   -1    0    0    0    0  0.00000000000E+00  0.00000000000E+00  0.39999999673E+01  0.40000000000E+01  0.51109989000E-03 0.  1.
     -623   -1    0    0    0    0  0.00000000000E+00  0.00000000000E+00  0.12525980253E-10  0.17130000000E+03  0.17130000000E+03 0.  1.
       11    1    1    2    0    0  0.12671421952E-01 -0.12944286019E-01  0.27144491479E+00  0.27204911773E+00  0.51109989000E-03 0.  1.
     -623    1    1    2    0    0  0.38790515924E-02 -0.16039134360E-01  0.96898685405E-03  0.17130000080E+03  0.17130000000E+03 0.  1.
      622    1    1    2    0    0 -0.16550473545E-01  0.28983420379E-01  0.37275860657E+01  0.37279500847E+01  0.40000000000E-01 0.  1.
</event>
<event>
 5   0  0.6200596E+07  0.9118800E+02  0.7818608E-02  0.1180000E+00
       11   -1    0    0    0    0  0.00000000000E+00  0.00000000000E+00  0.39999999673E+01  0.40000000000E+01  0.51109989000E-03 0.  1.
     -623   -1    0    0    0    0  0.00000000000E+00  0.00000000000E+00  0.12525980253E-10  0.17130000000E+03  0.17130000000E+03 0. -1.
       11    1    1    2    0    0  0.78287954181E-03  0.24757078506E-01  0.19233012364E+01  0.19234607958E+01  0.51109989000E-03 0.  1.
     -623    1    1    2    0    0 -0.12377858543E-01 -0.72898359383E-02  0.65128163238E-03  0.17130000060E+03  0.17130000000E+03 0. -1.
      622    1    1    2    0    0  0.11594979001E-01 -0.17467242568E-01  0.20760474493E+01  0.20765386007E+01  0.40000000000E-01 0.  1.
</event>
<event>
 5   0  0.6200596E+07  0.9118800E+02  0.7818608E-02  0.1180000E+00
       11   -1    0    0    0    0  0.00000000000E+00  0.00000000000E+00  0.39999999673E+01  0.40000000000E+01  0.51109989000E-03 0.  1.
     -623   -1    0    0    0    0  0.00000000000E+00  0.00000000000E+00  0.12525980253E-10  0.17130000000E+03  0.17130000000E+03 0. -1.
       11    1    1    2    0    0 -0.17781515437E-02 -0.23866552178E-02  0.23341329996E-01  0.23535863160E-01  0.51109989000E-03 0.  1.
     -623    1    1    2    0    0 -0.98793382463E-03  0.25939517438E-02  0.39667983696E-03  0.17130000002E+03  0.17130000000E+03 0. -1.
      622    1    1    2    0    0  0.27660853683E-02 -0.20729652600E-03  0.39762619575E+01  0.39764641139E+01  0.40000000000E-01 0.  1.
</event>
<event>
 5   0  0.6200596E+07  0.9118800E+02  0.7818608E-02  0.1180000E+00
       11   -1    0    0    0    0  0.00000000000E+00  0.00000000000E+00  0.39999999673E+01  0.40000000000E+01  0.51109989000E-03 0. -1.
     -623   -1    0    0    0    0  0.00000000000E+00  0.00000000000E+00  0.12525980253E-10  0.17130000000E+03  0.17130000000E+03 0. -1.
       11    1    1    2    0    0 -0.70122800657E-02  0.10355686044E-01  0.37243538851E+00  0.37264566567E+00  0.51109989000E-03 0. -1.
     -623    1    1    2    0    0 -0.10080340418E-02 -0.10744034029E-02  0.45154657861E-03  0.17130000001E+03  0.17130000000E+03 0. -1.
      622    1    1    2    0    0  0.80203141076E-02 -0.92812826408E-02  0.36271130323E+01  0.36273543274E+01  0.40000000000E-01 0. -1.
</event>
<event>
 5   0  0.6200596E+07  0.9118800E+02  0.7818608E-02  0.1180000E+00
       11   -1    0    0    0    0  0.00000000000E+00  0.00000000000E+00  0.39999999673E+01  0.40000000000E+01  0.51109989000E-03 0.  1.
     -623   -1    0    0    0    0  0.00000000000E+00  0.00000000000E+00  0.12525980253E-10  0.17130000000E+03  0.17130000000E+03 0. -1.
       11    1    1    2    0    0  0.54144057041E-03  0.30313671475E-02  0.57687896616E-02  0.65591539308E-02  0.51109989000E-03 0.  1.
     -623    1    1    2    0    0 -0.29908319750E-02 -0.47267296051E-02  0.99187044839E-03  0.17130000009E+03  0.17130000000E+03 0. -1.
      622    1    1    2    0    0  0.24493914046E-02  0.16953624576E-02  0.39932393072E+01  0.39934407519E+01  0.40000000000E-01 0.  1.
</event>
<event>
 5   0  0.6200596E+07  0.9118800E+02  0.7818608E-02  0.1180000E+00
       11   -1    0    0    0    0  0.00000000000E+00  0.00000000000E+00  0.39999999673E+01  0.40000000000E+01  0.51109989000E-03 0.  1.
     -623   -1    0    0    0    0  0.00000000000E+00  0.00000000000E+00  0.12525980253E-10  0.17130000000E+03  0.17130000000E+03 0.  1.
       11    1    1    2    0    0  0.14970767562E-02 -0.40852626907E-03  0.44365318560E-01  0.44395392149E-01  0.51109989000E-03 0.  1.
     -623    1    1    2    0    0 -0.87443023907E-04 -0.30488022523E-04  0.23256653241E-03  0.17130000000E+03  0.17130000000E+03 0.  1.
      622    1    1    2    0    0 -0.14096337323E-02  0.43901429160E-03  0.39554020823E+01  0.39556046077E+01  0.40000000000E-01 0.  1.
</event>
<event>
 5   0  0.6200596E+07  0.9118800E+02  0.7818608E-02  0.1180000E+00
       11   -1    0    0    0    0  0.00000000000E+00  0.00000000000E+00  0.39999999673E+01  0.40000000000E+01  0.51109989000E-03 0. -1.
     -623   -1    0    0    0    0  0.00000000000E+00  0.00000000000E+00  0.12525980253E-10  0.17130000000E+03  0.17130000000E+03 0. -1.
       11    1    1    2    0    0  0.10571982106E-02  0.54259135840E-03  0.46952031773E-01  0.46969847595E-01  0.51109989000E-03 0. -1.
     -623    1    1    2    0    0  0.51696301765E-03  0.18694791017E-03  0.22054655094E-03  0.17130000000E+03  0.17130000000E+03 0. -1.
      622    1    1    2    0    0 -0.15741612282E-02 -0.72953926857E-03  0.39528273890E+01  0.39530301514E+01  0.40000000000E-01 0. -1.
</event>
<event>
 5   0  0.6200596E+07  0.9118800E+02  0.7818608E-02  0.1180000E+00
       11   -1    0    0    0    0  0.00000000000E+00  0.00000000000E+00  0.39999999673E+01  0.40000000000E+01  0.51109989000E-03 0. -1.
     -623   -1    0    0    0    0  0.00000000000E+00  0.00000000000E+00  0.12525980253E-10  0.17130000000E+03  0.17130000000E+03 0. -1.
       11    1    1    2    0    0 -0.70670358656E-02  0.14521725957E-01  0.18251693467E+01  0.18252408687E+01  0.51109989000E-03 0. -1.
     -623    1    1    2    0    0 -0.89150011756E-02 -0.51841796922E-03  0.54343982717E-03  0.17130000023E+03  0.17130000000E+03 0. -1.
      622    1    1    2    0    0  0.15982037041E-01 -0.14003307988E-01  0.21742871808E+01  0.21747588976E+01  0.40000000000E-01 0.  0.
</event>
<event>
 5   0  0.6200596E+07  0.9118800E+02  0.7818608E-02  0.1180000E+00
       11   -1    0    0    0    0  0.00000000000E+00  0.00000000000E+00  0.39999999673E+01  0.40000000000E+01  0.51109989000E-03 0. -1.
     -623   -1    0    0    0    0  0.00000000000E+00  0.00000000000E+00  0.12525980253E-10  0.17130000000E+03  0.17130000000E+03 0.  1.
       11    1    1    2    0    0  0.23361277253E-02  0.15863950068E-04  0.83347042788E-01  0.83381343878E-01  0.51109989000E-03 0. -1.
     -623    1    1    2    0    0 -0.89726157504E-03 -0.34587050860E-03  0.23881268371E-03  0.17130000000E+03  0.17130000000E+03 0.  1.
      622    1    1    2    0    0 -0.14388661503E-02  0.33000655853E-03  0.39164141119E+01  0.39166186533E+01  0.40000000000E-01 0. -1.
</event>
<event>
 5   0  0.6200596E+07  0.9118800E+02  0.7818608E-02  0.1180000E+00
       11   -1    0    0    0    0  0.00000000000E+00  0.00000000000E+00  0.39999999673E+01  0.40000000000E+01  0.51109989000E-03 0.  1.
     -623   -1    0    0    0    0  0.00000000000E+00  0.00000000000E+00  0.12525980253E-10  0.17130000000E+03  0.17130000000E+03 0. -1.
       11    1    1    2    0    0 -0.26884055299E-02 -0.77833557059E-02  0.17315272284E+00  0.17334917017E+00  0.51109989000E-03 0.  1.
     -623    1    1    2    0    0 -0.99399955140E-03  0.23643064696E-03  0.41469838522E-03  0.17130000000E+03  0.17130000000E+03 0. -1.
      622    1    1    2    0    0  0.36824050813E-02  0.75469250589E-02  0.38264325461E+01  0.38266508263E+01  0.40000000000E-01 0.  1.
</event>
<event>
 5   0  0.6200596E+07  0.9118800E+02  0.7818608E-02  0.1180000E+00
       11   -1    0    0    0    0  0.00000000000E+00  0.00000000000E+00  0.39999999673E+01  0.40000000000E+01  0.51109989000E-03 0.  1.
     -623   -1    0    0    0    0  0.00000000000E+00  0.00000000000E+00  0.12525980253E-10  0.17130000000E+03  0.17130000000E+03 0.  1.
       11    1    1    2    0    0 -0.23181294487E-01 -0.11856471780E-01  0.41009433417E+00  0.41092039676E+00  0.51109989000E-03 0.  1.
     -623    1    1    2    0    0  0.16704814596E-02  0.76981231379E-02  0.11159952726E-02  0.17130000018E+03  0.17130000000E+03 0.  1.
      622    1    1    2    0    0  0.21510813027E-01  0.41583486417E-02  0.35887896379E+01  0.35890794185E+01  0.40000000000E-01 0.  1.
</event>
<event>
 5   0  0.6200596E+07  0.9118800E+02  0.7818608E-02  0.1180000E+00
       11   -1    0    0    0    0  0.00000000000E+00  0.00000000000E+00  0.39999999673E+01  0.40000000000E+01  0.51109989000E-03 0. -1.
     -623   -1    0    0    0    0  0.00000000000E+00  0.00000000000E+00  0.12525980253E-10  0.17130000000E+03  0.17130000000E+03 0. -1.
       11    1    1    2    0    0 -0.15168602707E-01 -0.72265178512E-02  0.13816158812E+01  0.13817181382E+01  0.51109989000E-03 0. -1.
     -623    1    1    2    0    0  0.87556872621E-02 -0.59914648182E-02  0.44933837454E-03  0.17130000033E+03  0.17130000000E+03 0. -1.
      622    1    1    2    0    0  0.64129154450E-02  0.13217982669E-01  0.26179347478E+01  0.26182815327E+01  0.40000000000E-01 0. -1.
</event>
<event>
 5   0  0.6200596E+07  0.9118800E+02  0.7818608E-02  0.1180000E+00
       11   -1    0    0    0    0  0.00000000000E+00  0.00000000000E+00  0.39999999673E+01  0.40000000000E+01  0.51109989000E-03 0.  1.
     -623   -1    0    0    0    0  0.00000000000E+00  0.00000000000E+00  0.12525980253E-10  0.17130000000E+03  0.17130000000E+03 0. -1.
       11    1    1    2    0    0 -0.21897999000E-01  0.16124827433E-01  0.76281978275E+00  0.76330453595E+00  0.51109989000E-03 0.  1.
     -623    1    1    2    0    0  0.13243112727E-01  0.77770998281E-02  0.83242082816E-03  0.17130000069E+03  0.17130000000E+03 0. -1.
      622    1    1    2    0    0  0.86548862730E-02 -0.23901927261E-01  0.32363477638E+01  0.32366947736E+01  0.40000000000E-01 0.  1.
</event>
<event>
 5   0  0.6200596E+07  0.9118800E+02  0.7818608E-02  0.1180000E+00
       11   -1    0    0    0    0  0.00000000000E+00  0.00000000000E+00  0.39999999673E+01  0.40000000000E+01  0.51109989000E-03 0. -1.
     -623   -1    0    0    0    0  0.00000000000E+00  0.00000000000E+00  0.12525980253E-10  0.17130000000E+03  0.17130000000E+03 0. -1.
       11    1    1    2    0    0 -0.18892809398E-02  0.10615772816E-02  0.95798822585E-01  0.95824693897E-01  0.51109989000E-03 0. -1.
     -623    1    1    2    0    0  0.31833692389E-02 -0.12141565173E-02  0.23100438356E-03  0.17130000003E+03  0.17130000000E+03 0. -1.
      622    1    1    2    0    0 -0.12940882991E-02  0.15257923571E-03  0.39039701404E+01  0.39041752721E+01  0.40000000000E-01 0. -1.
</event>
<event>
 5   0  0.6200596E+07  0.9118800E+02  0.7818608E-02  0.1180000E+00
       11   -1    0    0    0    0  0.00000000000E+00  0.00000000000E+00  0.39999999673E+01  0.40000000000E+01  0.51109989000E-03 0. -1.
     -623   -1    0    0    0    0  0.00000000000E+00  0.00000000000E+00  0.12525980253E-10  0.17130000000E+03  0.17130000000E+03 0. -1.
       11    1    1    2    0    0  0.49047756073E-03  0.23758363450E-02  0.23437832854E+00  0.23439144028E+00  0.51109989000E-03 0. -1.
     -623    1    1    2    0    0 -0.28703366272E-03  0.73309414739E-04  0.22633656062E-03  0.17130000000E+03  0.17130000000E+03 0. -1.
      622    1    1    2    0    0 -0.20344389801E-03 -0.24491457598E-02  0.37653953023E+01  0.37656085593E+01  0.40000000000E-01 0. -1.
</event>
<event>
 5   0  0.6200596E+07  0.9118800E+02  0.7818608E-02  0.1180000E+00
       11   -1    0    0    0    0  0.00000000000E+00  0.00000000000E+00  0.39999999673E+01  0.40000000000E+01  0.51109989000E-03 0. -1.
     -623   -1    0    0    0    0  0.00000000000E+00  0.00000000000E+00  0.12525980253E-10  0.17130000000E+03  0.17130000000E+03 0. -1.
       11    1    1    2    0    0  0.10711616035E-02 -0.19556626776E-02  0.52795665412E-01  0.52845203306E-01  0.51109989000E-03 0. -1.
     -623    1    1    2    0    0  0.11127090099E-02  0.31981499151E-03  0.25313536146E-03  0.17130000000E+03  0.17130000000E+03 0. -1.
      622    1    1    2    0    0 -0.21838706134E-02  0.16358476861E-02  0.39469511666E+01  0.39471547926E+01  0.40000000000E-01 0. -1.
</event>
<event>
 5   0  0.6200596E+07  0.9118800E+02  0.7818608E-02  0.1180000E+00
       11   -1    0    0    0    0  0.00000000000E+00  0.00000000000E+00  0.39999999673E+01  0.40000000000E+01  0.51109989000E-03 0.  1.
     -623   -1    0    0    0    0  0.00000000000E+00  0.00000000000E+00  0.12525980253E-10  0.17130000000E+03  0.17130000000E+03 0. -1.
       11    1    1    2    0    0 -0.14832036851E-01  0.14627754788E-01  0.84723375621E+00  0.84748997599E+00  0.51109989000E-03 0.  1.
     -623    1    1    2    0    0 -0.37044457963E-02 -0.16025500102E-01  0.56556527902E-03  0.17130000079E+03  0.17130000000E+03 0. -1.
      622    1    1    2    0    0  0.18536482647E-01  0.13977453136E-02  0.31522006459E+01  0.31525092334E+01  0.40000000000E-01 0.  1.
</event>
<event>
 5   0  0.6200596E+07  0.9118800E+02  0.7818608E-02  0.1180000E+00
       11   -1    0    0    0    0  0.00000000000E+00  0.00000000000E+00  0.39999999673E+01  0.40000000000E+01  0.51109989000E-03 0. -1.
     -623   -1    0    0    0    0  0.00000000000E+00  0.00000000000E+00  0.12525980253E-10  0.17130000000E+03  0.17130000000E+03 0. -1.
       11    1    1    2    0    0  0.23773991281E-01 -0.20967654591E-01  0.43128836597E+00  0.43245203323E+00  0.51109989000E-03 0. -1.
     -623    1    1    2    0    0 -0.16055645040E-01  0.41874926186E-02  0.14365108394E-02  0.17130000081E+03  0.17130000000E+03 0. -1.
      622    1    1    2    0    0 -0.77183462411E-02  0.16780161972E-01  0.35672750905E+01  0.35675471571E+01  0.40000000000E-01 0.  0.
</event>
<event>
 5   0  0.6200596E+07  0.9118800E+02  0.7818608E-02  0.1180000E+00
       11   -1    0    0    0    0  0.00000000000E+00  0.00000000000E+00  0.39999999673E+01  0.40000000000E+01  0.51109989000E-03 0.  1.
     -623   -1    0    0    0    0  0.00000000000E+00  0.00000000000E+00  0.12525980253E-10  0.17130000000E+03  0.17130000000E+03 0. -1.
       11    1    1    2    0    0 -0.15967245841E-01 -0.13040589380E-01  0.86918351214E+00  0.86942811601E+00  0.51109989000E-03 0.  1.
     -623    1    1    2    0    0 -0.30236167428E-03 -0.16473129626E-02  0.57687511185E-03  0.17130000001E+03  0.17130000000E+03 0. -1.
      622    1    1    2    0    0  0.16269607515E-01  0.14687902343E-01  0.31302395801E+01  0.31305718748E+01  0.40000000000E-01 0.  1.
</event>
<event>
 5   0  0.6200596E+07  0.9118800E+02  0.7818608E-02  0.1180000E+00
       11   -1    0    0    0    0  0.00000000000E+00  0.00000000000E+00  0.39999999673E+01  0.40000000000E+01  0.51109989000E-03 0. -1.
     -623   -1    0    0    0    0  0.00000000000E+00  0.00000000000E+00  0.12525980253E-10  0.17130000000E+03  0.17130000000E+03 0.  1.
       11    1    1    2    0    0  0.10278614351E-02  0.24679294265E-02  0.10402890748E+00  0.10406450878E+00  0.51109989000E-03 0. -1.
     -623    1    1    2    0    0 -0.66396277105E-04 -0.35064672638E-03  0.24161082502E-03  0.17130000000E+03  0.17130000000E+03 0.  1.
      622    1    1    2    0    0 -0.96146515799E-03 -0.21172827001E-02  0.38957294491E+01  0.38959354907E+01  0.40000000000E-01 0. -1.
</event>
<event>
 5   0  0.6200596E+07  0.9118800E+02  0.7818608E-02  0.1180000E+00
       11   -1    0    0    0    0  0.00000000000E+00  0.00000000000E+00  0.39999999673E+01  0.40000000000E+01  0.51109989000E-03 0.  1.
     -623   -1    0    0    0    0  0.00000000000E+00  0.00000000000E+00  0.12525980253E-10  0.17130000000E+03  0.17130000000E+03 0.  1.
       11    1    1    2    0    0 -0.22135854714E-03  0.44146257748E-03  0.10278173540E-02  0.12496073851E-02  0.51109989000E-03 0.  1.
     -623    1    1    2    0    0 -0.61612330550E-03 -0.19736891416E-02  0.42221916995E-03  0.17130000001E+03  0.17130000000E+03 0.  1.
      622    1    1    2    0    0  0.83748185264E-03  0.15322265641E-02  0.39985499308E+01  0.39987503796E+01  0.40000000000E-01 0.  1.
</event>
<event>
 5   0  0.6200596E+07  0.9118800E+02  0.7818608E-02  0.1180000E+00
       11   -1    0    0    0    0  0.00000000000E+00  0.00000000000E+00  0.39999999673E+01  0.40000000000E+01  0.51109989000E-03 0.  1.
     -623   -1    0    0    0    0  0.00000000000E+00  0.00000000000E+00  0.12525980253E-10  0.17130000000E+03  0.17130000000E+03 0. -1.
       11    1    1    2    0    0 -0.52796658258E-03 -0.38693301448E-03  0.52654461013E-02  0.53305357506E-02  0.51109989000E-03 0.  1.
     -623    1    1    2    0    0  0.18150860879E-02  0.93260943735E-04  0.26555692660E-03  0.17130000001E+03  0.17130000000E+03 0. -1.
      622    1    1    2    0    0 -0.12871195053E-02  0.29367207075E-03  0.39944689643E+01  0.39946694544E+01  0.40000000000E-01 0.  1.
</event>
<event>
 5   0  0.6200596E+07  0.9118800E+02  0.7818608E-02  0.1180000E+00
       11   -1    0    0    0    0  0.00000000000E+00  0.00000000000E+00  0.39999999673E+01  0.40000000000E+01  0.51109989000E-03 0. -1.
     -623   -1    0    0    0    0  0.00000000000E+00  0.00000000000E+00  0.12525980253E-10  0.17130000000E+03  0.17130000000E+03 0.  1.
       11    1    1    2    0    0 -0.74788815849E-02 -0.38105772705E-02  0.12981166904E+00  0.13008376075E+00  0.51109989000E-03 0. -1.
     -623    1    1    2    0    0  0.75490200980E-02  0.72417274523E-02  0.48062929304E-03  0.17130000032E+03  0.17130000000E+03 0.  1.
      622    1    1    2    0    0 -0.70138513172E-04 -0.34311501817E-02  0.38697076690E+01  0.38699159192E+01  0.40000000000E-01 0. -1.
</event>
<event>
 5   0  0.6200596E+07  0.9118800E+02  0.7818608E-02  0.1180000E+00
       11   -1    0    0    0    0  0.00000000000E+00  0.00000000000E+00  0.39999999673E+01  0.40000000000E+01  0.51109989000E-03 0.  1.
     -623   -1    0    0    0    0  0.00000000000E+00  0.00000000000E+00  0.12525980253E-10  0.17130000000E+03  0.17130000000E+03 0. -1.
       11    1    1    2    0    0  0.15146351787E-01 -0.13635779348E-01  0.42337104189E+00  0.42386158918E+00  0.51109989000E-03 0.  1.
     -623    1    1    2    0    0  0.51296312223E-03  0.18845989100E-01  0.75334865749E-03  0.17130000104E+03  0.17130000000E+03 0. -1.
      622    1    1    2    0    0 -0.15659314909E-01 -0.52102097513E-02  0.35758755768E+01  0.35761373717E+01  0.40000000000E-01 0.  1.
</event>
<event>
 5   0  0.6200596E+07  0.9118800E+02  0.7818608E-02  0.1180000E+00
       11   -1    0    0    0    0  0.00000000000E+00  0.00000000000E+00  0.39999999673E+01  0.40000000000E+01  0.51109989000E-03 0.  1.
     -623   -1    0    0    0    0  0.00000000000E+00  0.00000000000E+00  0.12525980253E-10  0.17130000000E+03  0.17130000000E+03 0.  1.
       11    1    1    2    0    0  0.26020352340E-04  0.71431907801E-02  0.11254435819E+00  0.11277198071E+00  0.51109989000E-03 0.  1.
     -623    1    1    2    0    0  0.74194643799E-02 -0.10825435400E-01  0.44277579461E-03  0.17130000050E+03  0.17130000000E+03 0.  1.
      622    1    1    2    0    0 -0.74454847322E-02  0.36822446203E-02  0.38870128334E+01  0.38872275160E+01  0.40000000000E-01 0.  1.
</event>
<event>
 5   0  0.6200596E+07  0.9118800E+02  0.7818608E-02  0.1180000E+00
       11   -1    0    0    0    0  0.00000000000E+00  0.00000000000E+00  0.39999999673E+01  0.40000000000E+01  0.51109989000E-03 0. -1.
     -623   -1    0    0    0    0  0.00000000000E+00  0.00000000000E+00  0.12525980253E-10  0.17130000000E+03  0.17130000000E+03 0.  1.
       11    1    1    2    0    0  0.10034347005E-01 -0.18185256345E-01  0.56887078423E+00  0.56925005230E+00  0.51109989000E-03 0. -1.
     -623    1    1    2    0    0  0.15267693677E-02  0.57264746304E-02  0.65463709539E-03  0.17130000010E+03  0.17130000000E+03 0.  1.
      622    1    1    2    0    0 -0.11561116372E-01  0.12458781715E-01  0.34304745460E+01  0.34307498439E+01  0.40000000000E-01 0. -1.
</event>
<event>
 5   0  0.6200596E+07  0.9118800E+02  0.7818608E-02  0.1180000E+00
       11   -1    0    0    0    0  0.00000000000E+00  0.00000000000E+00  0.39999999673E+01  0.40000000000E+01  0.51109989000E-03 0. -1.
     -623   -1    0    0    0    0  0.00000000000E+00  0.00000000000E+00  0.12525980253E-10  0.17130000000E+03  0.17130000000E+03 0.  1.
       11    1    1    2    0    0 -0.11349598734E-01  0.67782387760E-02  0.21023947508E+00  0.21065530142E+00  0.51109989000E-03 0. -1.
     -623    1    1    2    0    0  0.21573743651E-02 -0.54635499795E-02  0.63839778781E-03  0.17130000010E+03  0.17130000000E+03 0.  1.
      622    1    1    2    0    0  0.91922243685E-02 -0.13146887964E-02  0.37891220945E+01  0.37893445967E+01  0.40000000000E-01 0. -1.
</event>
<event>
 5   0  0.6200596E+07  0.9118800E+02  0.7818608E-02  0.1180000E+00
       11   -1    0    0    0    0  0.00000000000E+00  0.00000000000E+00  0.39999999673E+01  0.40000000000E+01  0.51109989000E-03 0. -1.
     -623   -1    0    0    0    0  0.00000000000E+00  0.00000000000E+00  0.12525980253E-10  0.17130000000E+03  0.17130000000E+03 0. -1.
       11    1    1    2    0    0  0.96502224463E-03 -0.41558336897E-03  0.22245387275E-01  0.22276051130E-01  0.51109989000E-03 0. -1.
     -623    1    1    2    0    0  0.12519215960E-03  0.21151949235E-03  0.23191131761E-03  0.17130000000E+03  0.17130000000E+03 0. -1.
      622    1    1    2    0    0 -0.10902144042E-02  0.20406387661E-03  0.39775226688E+01  0.39777239485E+01  0.40000000000E-01 0. -1.
</event>
<event>
 5   0  0.6200596E+07  0.9118800E+02  0.7818608E-02  0.1180000E+00
       11   -1    0    0    0    0  0.00000000000E+00  0.00000000000E+00  0.39999999673E+01  0.40000000000E+01  0.51109989000E-03 0.  1.
     -623   -1    0    0    0    0  0.00000000000E+00  0.00000000000E+00  0.12525980253E-10  0.17130000000E+03  0.17130000000E+03 0.  1.
       11    1    1    2    0    0 -0.20911498784E-01  0.31309684558E-01  0.85091583191E+00  0.85174855524E+00  0.51109989000E-03 0.  1.
     -623    1    1    2    0    0  0.48645573324E-02  0.59661644604E-03  0.12894834624E-02  0.17130000007E+03  0.17130000000E+03 0.  1.
      622    1    1    2    0    0  0.16046941451E-01 -0.31906301004E-01  0.31477946520E+01  0.31482513698E+01  0.40000000000E-01 0.  1.
</event>
<event>
 5   0  0.6200596E+07  0.9118800E+02  0.7818608E-02  0.1180000E+00
       11   -1    0    0    0    0  0.00000000000E+00  0.00000000000E+00  0.39999999673E+01  0.40000000000E+01  0.51109989000E-03 0.  1.
     -623   -1    0    0    0    0  0.00000000000E+00  0.00000000000E+00  0.12525980253E-10  0.17130000000E+03  0.17130000000E+03 0.  1.
       11    1    1    2    0    0  0.17282923949E-02 -0.27147714160E-02  0.17810386392E-01  0.18106022825E-01  0.51109989000E-03 0.  1.
     -623    1    1    2    0    0  0.16375838899E-02  0.79191593303E-03  0.49841561073E-03  0.17130000001E+03  0.17130000000E+03 0.  1.
      622    1    1    2    0    0 -0.33658762847E-02  0.19228554830E-02  0.39816911654E+01  0.39818939668E+01  0.40000000000E-01 0.  1.
</event>
<event>
 5   0  0.6200596E+07  0.9118800E+02  0.7818608E-02  0.1180000E+00
       11   -1    0    0    0    0  0.00000000000E+00  0.00000000000E+00  0.39999999673E+01  0.40000000000E+01  0.51109989000E-03 0.  1.
     -623   -1    0    0    0    0  0.00000000000E+00  0.00000000000E+00  0.12525980253E-10  0.17130000000E+03  0.17130000000E+03 0. -1.
       11    1    1    2    0    0 -0.68539611205E-02 -0.67887446818E-02  0.13270597266E+00  0.13305713148E+00  0.51109989000E-03 0.  1.
     -623    1    1    2    0    0  0.25442443832E-02 -0.35852609484E-02  0.57438875433E-03  0.17130000006E+03  0.17130000000E+03 0. -1.
      622    1    1    2    0    0  0.43097167374E-02  0.10374005630E-01  0.38667196059E+01  0.38669428111E+01  0.40000000000E-01 0.  1.
</event>
<event>
 5   0  0.6200596E+07  0.9118800E+02  0.7818608E-02  0.1180000E+00
       11   -1    0    0    0    0  0.00000000000E+00  0.00000000000E+00  0.39999999673E+01  0.40000000000E+01  0.51109989000E-03 0.  1.
     -623   -1    0    0    0    0  0.00000000000E+00  0.00000000000E+00  0.12525980253E-10  0.17130000000E+03  0.17130000000E+03 0.  1.
       11    1    1    2    0    0  0.37521715132E-02  0.81751095872E-02  0.68866822530E+00  0.68872715713E+00  0.51109989000E-03 0.  1.
     -623    1    1    2    0    0 -0.15128720726E-01  0.29543861808E-02  0.33945074251E-03  0.17130000069E+03  0.17130000000E+03 0.  1.
      622    1    1    2    0    0  0.11376549213E-01 -0.11129495768E-01  0.33109922913E+01  0.33112721490E+01  0.40000000000E-01 0.  1.
</event>
<event>
 5   0  0.6200596E+07  0.9118800E+02  0.7818608E-02  0.1180000E+00
       11   -1    0    0    0    0  0.00000000000E+00  0.00000000000E+00  0.39999999673E+01  0.40000000000E+01  0.51109989000E-03 0.  1.
     -623   -1    0    0    0    0  0.00000000000E+00  0.00000000000E+00  0.12525980253E-10  0.17130000000E+03  0.17130000000E+03 0. -1.
       11    1    1    2    0    0 -0.13015726698E-02  0.12523023527E-01  0.72644436389E-01  0.73729204318E-01  0.51109989000E-03 0.  1.
     -623    1    1    2    0    0  0.71593721408E-02 -0.20187689925E-02  0.13070849560E-02  0.17130000017E+03  0.17130000000E+03 0. -1.
      622    1    1    2    0    0 -0.58577994710E-02 -0.10504254535E-01  0.39260484460E+01  0.39262706292E+01  0.40000000000E-01 0.  1.
</event>
<event>
 5   0  0.6200596E+07  0.9118800E+02  0.7818608E-02  0.1180000E+00
       11   -1    0    0    0    0  0.00000000000E+00  0.00000000000E+00  0.39999999673E+01  0.40000000000E+01  0.51109989000E-03 0. -1.
     -623   -1    0    0    0    0  0.00000000000E+00  0.00000000000E+00  0.12525980253E-10  0.17130000000E+03  0.17130000000E+03 0. -1.
       11    1    1    2    0    0 -0.72535953399E-03  0.41650302690E-02  0.63963914582E-01  0.64105516263E-01  0.51109989000E-03 0. -1.
     -623    1    1    2    0    0  0.10383719464E-02 -0.73478716667E-03  0.34634414536E-03  0.17130000001E+03  0.17130000000E+03 0. -1.
      622    1    1    2    0    0 -0.31301241240E-03 -0.34302431023E-02  0.39356897086E+01  0.39358944787E+01  0.40000000000E-01 0.  0.
</event>
<event>
 5   0  0.6200596E+07  0.9118800E+02  0.7818608E-02  0.1180000E+00
       11   -1    0    0    0    0  0.00000000000E+00  0.00000000000E+00  0.39999999673E+01  0.40000000000E+01  0.51109989000E-03 0.  1.
     -623   -1    0    0    0    0  0.00000000000E+00  0.00000000000E+00  0.12525980253E-10  0.17130000000E+03  0.17130000000E+03 0. -1.
       11    1    1    2    0    0 -0.73394785230E-03 -0.17645458039E-01  0.12132739775E+00  0.12260709414E+00  0.51109989000E-03 0.  1.
     -623    1    1    2    0    0  0.18943775172E-02 -0.11501520132E-01  0.15961297812E-02  0.17130000040E+03  0.17130000000E+03 0. -1.
      622    1    1    2    0    0 -0.11604296649E-02  0.29146978171E-01  0.38770764398E+01  0.38773925018E+01  0.40000000000E-01 0.  1.
</event>
<event>
 5   0  0.6200596E+07  0.9118800E+02  0.7818608E-02  0.1180000E+00
       11   -1    0    0    0    0  0.00000000000E+00  0.00000000000E+00  0.39999999673E+01  0.40000000000E+01  0.51109989000E-03 0.  1.
     -623   -1    0    0    0    0  0.00000000000E+00  0.00000000000E+00  0.12525980253E-10  0.17130000000E+03  0.17130000000E+03 0. -1.
       11    1    1    2    0    0 -0.13857004657E-01  0.18390565728E-01  0.54885840546E+00  0.54934146025E+00  0.51109989000E-03 0.  1.
     -623    1    1    2    0    0  0.25538784985E-02  0.75227455632E-03  0.78650861935E-03  0.17130000002E+03  0.17130000000E+03 0. -1.
      622    1    1    2    0    0  0.11303126158E-01 -0.19142840284E-01  0.34503550533E+01  0.34506585173E+01  0.40000000000E-01 0.  1.
</event>
<event>
 5   0  0.6200596E+07  0.9118800E+02  0.7818608E-02  0.1180000E+00
       11   -1    0    0    0    0  0.00000000000E+00  0.00000000000E+00  0.39999999673E+01  0.40000000000E+01  0.51109989000E-03 0. -1.
     -623   -1    0    0    0    0  0.00000000000E+00  0.00000000000E+00  0.12525980253E-10  0.17130000000E+03  0.17130000000E+03 0.  1.
       11    1    1    2    0    0 -0.99567597771E-02 -0.57098402574E-03  0.17677088237E+00  0.17705272990E+00  0.51109989000E-03 0. -1.
     -623    1    1    2    0    0 -0.62851559451E-03 -0.45882234912E-02  0.50928358355E-03  0.17130000006E+03  0.17130000000E+03 0.  1.
      622    1    1    2    0    0  0.10585275372E-01  0.51592075170E-02  0.38227198014E+01  0.38229472067E+01  0.40000000000E-01 0. -1.
</event>
<event>
 5   0  0.6200596E+07  0.9118800E+02  0.7818608E-02  0.1180000E+00
       11   -1    0    0    0    0  0.00000000000E+00  0.00000000000E+00  0.39999999673E+01  0.40000000000E+01  0.51109989000E-03 0.  1.
     -623   -1    0    0    0    0  0.00000000000E+00  0.00000000000E+00  0.12525980253E-10  0.17130000000E+03  0.17130000000E+03 0. -1.
       11    1    1    2    0    0 -0.40809197752E-02 -0.33633018506E-02  0.40456817964E-01  0.40804179259E-01  0.51109989000E-03 0.  1.
     -623    1    1    2    0    0  0.77820361957E-02  0.32684674866E-02  0.55133504760E-03  0.17130000021E+03  0.17130000000E+03 0. -1.
      622    1    1    2    0    0 -0.37011164205E-02  0.94834364011E-04  0.39589918143E+01  0.39591956119E+01  0.40000000000E-01 0.  1.
</event>
<event>
 5   0  0.6200596E+07  0.9118800E+02  0.7818608E-02  0.1180000E+00
       11   -1    0    0    0    0  0.00000000000E+00  0.00000000000E+00  0.39999999673E+01  0.40000000000E+01  0.51109989000E-03 0. -1.
     -623   -1    0    0    0    0  0.00000000000E+00  0.00000000000E+00  0.12525980253E-10  0.17130000000E+03  0.17130000000E+03 0. -1.
       11    1    1    2    0    0  0.50940116099E-03  0.40216717103E-03  0.12522350223E-01  0.12549569905E-01  0.51109989000E-03 0. -1.
     -623    1    1    2    0    0  0.19653183882E-03 -0.39872504585E-03  0.22788476500E-03  0.17130000000E+03  0.17130000000E+03 0. -1.
      622    1    1    2    0    0 -0.70593299981E-03 -0.34421251775E-05  0.39872497324E+01  0.39874504294E+01  0.40000000000E-01 0. -1.
</event>
<event>
 5   0  0.6200596E+07  0.9118800E+02  0.7818608E-02  0.1180000E+00
       11   -1    0    0    0    0  0.00000000000E+00  0.00000000000E+00  0.39999999673E+01  0.40000000000E+01  0.51109989000E-03 0.  1.
     -623   -1    0    0    0    0  0.00000000000E+00  0.00000000000E+00  0.12525980253E-10  0.17130000000E+03  0.17130000000E+03 0. -1.
       11    1    1    2    0    0 -0.28167047641E-03 -0.44195970360E-02  0.68622589596E+00  0.68624037602E+00  0.51109989000E-03 0.  1.
     -623    1    1    2    0    0  0.33438971973E-02  0.43494655913E-03  0.25971809521E-03  0.17130000003E+03  0.17130000000E+03 0. -1.
      622    1    1    2    0    0 -0.30622267209E-02  0.39846504768E-02  0.33135143533E+01  0.33137595906E+01  0.40000000000E-01 0.  1.
</event>
<event>
 5   0  0.6200596E+07  0.9118800E+02  0.7818608E-02  0.1180000E+00
       11   -1    0    0    0    0  0.00000000000E+00  0.00000000000E+00  0.39999999673E+01  0.40000000000E+01  0.51109989000E-03 0. -1.
     -623   -1    0    0    0    0  0.00000000000E+00  0.00000000000E+00  0.12525980253E-10  0.17130000000E+03  0.17130000000E+03 0. -1.
       11    1    1    2    0    0 -0.72191735629E-02  0.22766410711E-01  0.67195770394E+00  0.67238221498E+00  0.51109989000E-03 0. -1.
     -623    1    1    2    0    0 -0.21182545581E-02 -0.22626018971E-01  0.67951267811E-03  0.17130000151E+03  0.17130000000E+03 0. -1.
      622    1    1    2    0    0  0.93374281209E-02 -0.14039174020E-03  0.33273627507E+01  0.33276162763E+01  0.40000000000E-01 0. -1.
</event>
<event>
 5   0  0.6200596E+07  0.9118800E+02  0.7818608E-02  0.1180000E+00
       11   -1    0    0    0    0  0.00000000000E+00  0.00000000000E+00  0.39999999673E+01  0.40000000000E+01  0.51109989000E-03 0.  1.
     -623   -1    0    0    0    0  0.00000000000E+00  0.00000000000E+00  0.12525980253E-10  0.17130000000E+03  0.17130000000E+03 0.  1.
       11    1    1    2    0    0  0.22659486391E-02 -0.69474303414E-02  0.47060100433E-01  0.47626836825E-01  0.51109989000E-03 0.  1.
     -623    1    1    2    0    0  0.12982405261E-02  0.16477505623E-02  0.77429403253E-03  0.17130000001E+03  0.17130000000E+03 0.  1.
      622    1    1    2    0    0 -0.35641891652E-02  0.52996797791E-02  0.39521655729E+01  0.39523731486E+01  0.40000000000E-01 0.  1.
</event>
<event>
 5   0  0.6200596E+07  0.9118800E+02  0.7818608E-02  0.1180000E+00
       11   -1    0    0    0    0  0.00000000000E+00  0.00000000000E+00  0.39999999673E+01  0.40000000000E+01  0.51109989000E-03 0. -1.
     -623   -1    0    0    0    0  0.00000000000E+00  0.00000000000E+00  0.12525980253E-10  0.17130000000E+03  0.17130000000E+03 0. -1.
       11    1    1    2    0    0 -0.11434861636E-02  0.50212757292E-03  0.62580417927E-02  0.64018748454E-02  0.51109989000E-03 0. -1.
     -623    1    1    2    0    0  0.14060109450E-02 -0.14414141105E-02  0.34425731889E-03  0.17130000001E+03  0.17130000000E+03 0. -1.
      622    1    1    2    0    0 -0.26252478138E-03  0.93928653754E-03  0.39933976682E+01  0.39935981130E+01  0.40000000000E-01 0. -1.
</event>
<event>
 5   0  0.6200596E+07  0.9118800E+02  0.7818608E-02  0.1180000E+00
       11   -1    0    0    0    0  0.00000000000E+00  0.00000000000E+00  0.39999999673E+01  0.40000000000E+01  0.51109989000E-03 0. -1.
     -623   -1    0    0    0    0  0.00000000000E+00  0.00000000000E+00  0.12525980253E-10  0.17130000000E+03  0.17130000000E+03 0. -1.
       11    1    1    2    0    0  0.18134666834E-01 -0.60326936843E-02  0.26343421659E+00  0.26412706644E+00  0.51109989000E-03 0. -1.
     -623    1    1    2    0    0 -0.16495931992E-01 -0.21654742921E-01  0.10120953664E-02  0.17130000217E+03  0.17130000000E+03 0. -1.
      622    1    1    2    0    0 -0.16387348419E-02  0.27687436606E-01  0.37355536554E+01  0.37358707676E+01  0.40000000000E-01 0. -1.
</event>
<event>
 5   0  0.6200596E+07  0.9118800E+02  0.7818608E-02  0.1180000E+00
       11   -1    0    0    0    0  0.00000000000E+00  0.00000000000E+00  0.39999999673E+01  0.40000000000E+01  0.51109989000E-03 0. -1.
     -623   -1    0    0    0    0  0.00000000000E+00  0.00000000000E+00  0.12525980253E-10  0.17130000000E+03  0.17130000000E+03 0.  1.
       11    1    1    2    0    0  0.96744582940E-02  0.22034033194E-01  0.16418725666E+01  0.16420489883E+01  0.51109989000E-03 0. -1.
     -623    1    1    2    0    0  0.32893455090E-02  0.34421932280E-02  0.68905443067E-03  0.17130000007E+03  0.17130000000E+03 0.  1.
      622    1    1    2    0    0 -0.12963803803E-01 -0.25476226422E-01  0.23574383463E+01  0.23579509441E+01  0.40000000000E-01 0.  0.
</event>
<event>
 5   0  0.6200596E+07  0.9118800E+02  0.7818608E-02  0.1180000E+00
       11   -1    0    0    0    0  0.00000000000E+00  0.00000000000E+00  0.39999999673E+01  0.40000000000E+01  0.51109989000E-03 0. -1.
     -623   -1    0    0    0    0  0.00000000000E+00  0.00000000000E+00  0.12525980253E-10  0.17130000000E+03  0.17130000000E+03 0.  1.
       11    1    1    2    0    0 -0.66401924481E-02 -0.54484709549E-02  0.19398008550E+00  0.19417083402E+00  0.51109989000E-03 0. -1.
     -623    1    1    2    0    0 -0.37320146976E-02 -0.10072704491E-02  0.42058011601E-03  0.17130000004E+03  0.17130000000E+03 0.  1.
      622    1    1    2    0    0  0.10372207146E-01  0.64557414040E-02  0.38055993017E+01  0.38058291218E+01  0.40000000000E-01 0.  0.
</event>
<event>
 5   0  0.6200596E+07  0.9118800E+02  0.7818608E-02  0.1180000E+00
       11   -1    0    0    0    0  0.00000000000E+00  0.00000000000E+00  0.39999999673E+01  0.40000000000E+01  0.51109989000E-03 0.  1.
     -623   -1    0    0    0    0  0.00000000000E+00  0.00000000000E+00  0.12525980253E-10  0.17130000000E+03  0.17130000000E+03 0. -1.
       11    1    1    2    0    0 -0.61460242834E-02  0.38651772092E-02  0.30553568354E-01  0.31408517460E-01  0.51109989000E-03 0.  1.
     -623    1    1    2    0    0  0.12112626704E-02 -0.26064521760E-03  0.10612174598E-02  0.17130000001E+03  0.17130000000E+03 0. -1.
      622    1    1    2    0    0  0.49347616130E-02 -0.36045319916E-02  0.39683851815E+01  0.39685914748E+01  0.40000000000E-01 0.  0.
</event>
<event>
 5   0  0.6200596E+07  0.9118800E+02  0.7818608E-02  0.1180000E+00
       11   -1    0    0    0    0  0.00000000000E+00  0.00000000000E+00  0.39999999673E+01  0.40000000000E+01  0.51109989000E-03 0.  1.
     -623   -1    0    0    0    0  0.00000000000E+00  0.00000000000E+00  0.12525980253E-10  0.17130000000E+03  0.17130000000E+03 0.  1.
       11    1    1    2    0    0  0.46123672669E-02  0.66761778381E-02  0.36067283036E-01  0.36972360084E-01  0.51109989000E-03 0.  1.
     -623    1    1    2    0    0 -0.12849368167E-02 -0.14158714655E-02  0.11118179532E-02  0.17130000001E+03  0.17130000000E+03 0.  1.
      622    1    1    2    0    0 -0.33274304502E-02 -0.52603063725E-02  0.39628208664E+01  0.39630276256E+01  0.40000000000E-01 0.  1.
</event>
<event>
 5   0  0.6200596E+07  0.9118800E+02  0.7818608E-02  0.1180000E+00
       11   -1    0    0    0    0  0.00000000000E+00  0.00000000000E+00  0.39999999673E+01  0.40000000000E+01  0.51109989000E-03 0.  1.
     -623   -1    0    0    0    0  0.00000000000E+00  0.00000000000E+00  0.12525980253E-10  0.17130000000E+03  0.17130000000E+03 0.  1.
       11    1    1    2    0    0  0.40341887729E-03  0.36188075286E-02  0.56435743918E-01  0.56555396988E-01  0.51109989000E-03 0.  1.
     -623    1    1    2    0    0 -0.38841358091E-02 -0.46302613212E-02  0.32426684262E-03  0.17130000011E+03  0.17130000000E+03 0.  1.
      622    1    1    2    0    0  0.34807169318E-02  0.10114537927E-02  0.39432399566E+01  0.39434444961E+01  0.40000000000E-01 0.  1.
</event>
<event>
 5   0  0.6200596E+07  0.9118800E+02  0.7818608E-02  0.1180000E+00
       11   -1    0    0    0    0  0.00000000000E+00  0.00000000000E+00  0.39999999673E+01  0.40000000000E+01  0.51109989000E-03 0. -1.
     -623   -1    0    0    0    0  0.00000000000E+00  0.00000000000E+00  0.12525980253E-10  0.17130000000E+03  0.17130000000E+03 0.  1.
       11    1    1    2    0    0 -0.14837080913E-02 -0.57022564918E-02  0.10280906995E+00  0.10297904255E+00  0.51109989000E-03 0. -1.
     -623    1    1    2    0    0 -0.11940202816E-02 -0.19695630498E-02  0.38371822974E-03  0.17130000002E+03  0.17130000000E+03 0.  1.
      622    1    1    2    0    0  0.26777283729E-02  0.76718195416E-02  0.38968071792E+01  0.38970209415E+01  0.40000000000E-01 0.  0.
</event>
<event>
 5   0  0.6200596E+07  0.9118800E+02  0.7818608E-02  0.1180000E+00
       11   -1    0    0    0    0  0.00000000000E+00  0.00000000000E+00  0.39999999673E+01  0.40000000000E+01  0.51109989000E-03 0.  1.
     -623   -1    0    0    0    0  0.00000000000E+00  0.00000000000E+00  0.12525980253E-10  0.17130000000E+03  0.17130000000E+03 0.  1.
       11    1    1    2    0    0  0.47321092287E-02  0.59475883931E-02  0.11101766606E+00  0.11127870444E+00  0.51109989000E-03 0.  1.
     -623    1    1    2    0    0  0.25389709369E-02 -0.86150575413E-02  0.47468343572E-03  0.17130000024E+03  0.17130000000E+03 0.  1.
      622    1    1    2    0    0 -0.72710801656E-02  0.26674691482E-02  0.38885076179E+01  0.38887210594E+01  0.40000000000E-01 0.  1.
</event>
<event>
 5   0  0.6200596E+07  0.9118800E+02  0.7818608E-02  0.1180000E+00
       11   -1    0    0    0    0  0.00000000000E+00  0.00000000000E+00  0.39999999673E+01  0.40000000000E+01  0.51109989000E-03 0. -1.
     -623   -1    0    0    0    0  0.00000000000E+00  0.00000000000E+00  0.12525980253E-10  0.17130000000E+03  0.17130000000E+03 0. -1.
       11    1    1    2    0    0  0.40205767402E-02 -0.85764600916E-03  0.14099701534E+00  0.14105786100E+00  0.51109989000E-03 0. -1.
     -623    1    1    2    0    0 -0.21634137119E-03  0.10011228288E-02  0.27001048364E-03  0.17130000000E+03  0.17130000000E+03 0. -1.
      622    1    1    2    0    0 -0.38042353690E-02 -0.14347681966E-03  0.38587329415E+01  0.38589421357E+01  0.40000000000E-01 0. -1.
</event>
<event>
 5   0  0.6200596E+07  0.9118800E+02  0.7818608E-02  0.1180000E+00
       11   -1    0    0    0    0  0.00000000000E+00  0.00000000000E+00  0.39999999673E+01  0.40000000000E+01  0.51109989000E-03 0.  1.
     -623   -1    0    0    0    0  0.00000000000E+00  0.00000000000E+00  0.12525980253E-10  0.17130000000E+03  0.17130000000E+03 0.  1.
       11    1    1    2    0    0 -0.11646860544E-02 -0.15944389231E-02  0.56605140180E-01  0.56641873598E-01  0.51109989000E-03 0.  1.
     -623    1    1    2    0    0 -0.40861848477E-03  0.13063852785E-02  0.23990880019E-03  0.17130000001E+03  0.17130000000E+03 0.  1.
      622    1    1    2    0    0  0.15733045391E-02  0.28805364460E-03  0.39431549184E+01  0.39433581208E+01  0.40000000000E-01 0.  1.
</event>
<event>
 5   0  0.6200596E+07  0.9118800E+02  0.7818608E-02  0.1180000E+00
       11   -1    0    0    0    0  0.00000000000E+00  0.00000000000E+00  0.39999999673E+01  0.40000000000E+01  0.51109989000E-03 0. -1.
     -623   -1    0    0    0    0  0.00000000000E+00  0.00000000000E+00  0.12525980253E-10  0.17130000000E+03  0.17130000000E+03 0.  1.
       11    1    1    2    0    0 -0.24978427409E-01 -0.10138527595E-01  0.24606535242E+01  0.24608012392E+01  0.51109989000E-03 0. -1.
     -623    1    1    2    0    0 -0.62540987801E-02 -0.16133402079E-01  0.12097662617E-02  0.17130000088E+03  0.17130000000E+03 0.  1.
      622    1    1    2    0    0  0.31232526189E-01  0.26271929673E-01  0.15381366769E+01  0.15391978826E+01  0.40000000000E-01 0.  1.
</event>
<event>
 5   0  0.6200596E+07  0.9118800E+02  0.7818608E-02  0.1180000E+00
       11   -1    0    0    0    0  0.00000000000E+00  0.00000000000E+00  0.39999999673E+01  0.40000000000E+01  0.51109989000E-03 0. -1.
     -623   -1    0    0    0    0  0.00000000000E+00  0.00000000000E+00  0.12525980253E-10  0.17130000000E+03  0.17130000000E+03 0. -1.
       11    1    1    2    0    0 -0.25717092303E-02  0.19347771206E-02  0.18990609066E-01  0.19268147442E-01  0.51109989000E-03 0. -1.
     -623    1    1    2    0    0  0.46003526023E-02  0.29769348375E-02  0.48211450865E-03  0.17130000009E+03  0.17130000000E+03 0. -1.
      622    1    1    2    0    0 -0.20286433720E-02 -0.49117119580E-02  0.39805272438E+01  0.39807317642E+01  0.40000000000E-01 0. -1.
</event>
<event>
 5   0  0.6200596E+07  0.9118800E+02  0.7818608E-02  0.1180000E+00
       11   -1    0    0    0    0  0.00000000000E+00  0.00000000000E+00  0.39999999673E+01  0.40000000000E+01  0.51109989000E-03 0.  1.
     -623   -1    0    0    0    0  0.00000000000E+00  0.00000000000E+00  0.12525980253E-10  0.17130000000E+03  0.17130000000E+03 0. -1.
       11    1    1    2    0    0  0.19868627987E-02  0.38354798015E-03  0.24877215444E-01  0.24964611025E-01  0.51109989000E-03 0.  1.
     -623    1    1    2    0    0 -0.28606294736E-03 -0.17136364020E-03  0.28899421758E-03  0.17130000000E+03  0.17130000000E+03 0. -1.
      622    1    1    2    0    0 -0.17007998514E-02 -0.21218433995E-03  0.39748337577E+01  0.39750353884E+01  0.40000000000E-01 0.  1.
</event>
<event>
 5   0  0.6200596E+07  0.9118800E+02  0.7818608E-02  0.1180000E+00
       11   -1    0    0    0    0  0.00000000000E+00  0.00000000000E+00  0.39999999673E+01  0.40000000000E+01  0.51109989000E-03 0. -1.
     -623   -1    0    0    0    0  0.00000000000E+00  0.00000000000E+00  0.12525980253E-10  0.17130000000E+03  0.17130000000E+03 0. -1.
       11    1    1    2    0    0 -0.39401861572E-02 -0.17422062374E-01  0.15548074480E+00  0.15650423812E+00  0.51109989000E-03 0. -1.
     -623    1    1    2    0    0 -0.31178232610E-02  0.35158975092E-02  0.12633185875E-02  0.17130000007E+03  0.17130000000E+03 0. -1.
      622    1    1    2    0    0  0.70580094182E-02  0.13906164865E-01  0.38432559040E+01  0.38434956928E+01  0.40000000000E-01 0. -1.
</event>
<event>
 5   0  0.6200596E+07  0.9118800E+02  0.7818608E-02  0.1180000E+00
       11   -1    0    0    0    0  0.00000000000E+00  0.00000000000E+00  0.39999999673E+01  0.40000000000E+01  0.51109989000E-03 0. -1.
     -623   -1    0    0    0    0  0.00000000000E+00  0.00000000000E+00  0.12525980253E-10  0.17130000000E+03  0.17130000000E+03 0. -1.
       11    1    1    2    0    0 -0.39120836702E-02  0.82362096337E-03  0.70418080386E-02  0.81136325259E-02  0.51109989000E-03 0. -1.
     -623    1    1    2    0    0  0.13596919792E-02  0.23751510522E-02  0.12743277044E-02  0.17130000003E+03  0.17130000000E+03 0. -1.
      622    1    1    2    0    0  0.25523916910E-02 -0.31987720156E-02  0.39916838316E+01  0.39918863409E+01  0.40000000000E-01 0. -1.
</event>
<event>
 5   0  0.6200596E+07  0.9118800E+02  0.7818608E-02  0.1180000E+00
       11   -1    0    0    0    0  0.00000000000E+00  0.00000000000E+00  0.39999999673E+01  0.40000000000E+01  0.51109989000E-03 0. -1.
     -623   -1    0    0    0    0  0.00000000000E+00  0.00000000000E+00  0.12525980253E-10  0.17130000000E+03  0.17130000000E+03 0.  1.
       11    1    1    2    0    0 -0.17298502989E-01  0.11186314866E-01  0.18220091141E+01  0.18221256392E+01  0.51109989000E-03 0. -1.
     -623    1    1    2    0    0 -0.25641663756E-02 -0.14942303093E-02  0.59604456861E-03  0.17130000003E+03  0.17130000000E+03 0.  1.
      622    1    1    2    0    0  0.19862669365E-01 -0.96920845564E-02  0.21773948087E+01  0.21778743341E+01  0.40000000000E-01 0.  0.
</event>
<event>
 5   0  0.6200596E+07  0.9118800E+02  0.7818608E-02  0.1180000E+00
       11   -1    0    0    0    0  0.00000000000E+00  0.00000000000E+00  0.39999999673E+01  0.40000000000E+01  0.51109989000E-03 0.  1.
     -623   -1    0    0    0    0  0.00000000000E+00  0.00000000000E+00  0.12525980253E-10  0.17130000000E+03  0.17130000000E+03 0.  1.
       11    1    1    2    0    0 -0.64216915903E-01 -0.68053874228E-02  0.65345720353E-01  0.91871921581E-01  0.51109989000E-03 0.  1.
     -623    1    1    2    0    0  0.48523664884E-01 -0.33937141593E-01  0.26987137883E-01  0.17130001236E+03  0.17130000000E+03 0.  1.
      622    1    1    2    0    0  0.15693251019E-01  0.40742529016E-01  0.39076671091E+01  0.39081157183E+01  0.40000000000E-01 0.  1.
</event>
<event>
 5   0  0.6200596E+07  0.9118800E+02  0.7818608E-02  0.1180000E+00
       11   -1    0    0    0    0  0.00000000000E+00  0.00000000000E+00  0.39999999673E+01  0.40000000000E+01  0.51109989000E-03 0.  1.
     -623   -1    0    0    0    0  0.00000000000E+00  0.00000000000E+00  0.12525980253E-10  0.17130000000E+03  0.17130000000E+03 0.  1.
       11    1    1    2    0    0  0.80979395258E-01 -0.44648248561E-01  0.98721404498E+00  0.99153565764E+00  0.51109989000E-03 0.  1.
     -623    1    1    2    0    0 -0.13840233914E-01  0.40383074470E-02  0.56117236852E-02  0.17130000070E+03  0.17130000000E+03 0.  1.
      622    1    1    2    0    0 -0.67139161344E-01  0.40609941114E-01  0.30071741987E+01  0.30084636437E+01  0.40000000000E-01 0.  1.
</event>
<event>
 5   0  0.6200596E+07  0.9118800E+02  0.7818608E-02  0.1180000E+00
       11   -1    0    0    0    0  0.00000000000E+00  0.00000000000E+00  0.39999999673E+01  0.40000000000E+01  0.51109989000E-03 0. -1.
     -623   -1    0    0    0    0  0.00000000000E+00  0.00000000000E+00  0.12525980253E-10  0.17130000000E+03  0.17130000000E+03 0. -1.
       11    1    1    2    0    0 -0.10768140370E-01  0.15046130980E-02  0.11556540391E+01  0.11557052980E+01  0.51109989000E-03 0. -1.
     -623    1    1    2    0    0  0.49083685827E-02  0.13254182337E-02  0.34002562322E-03  0.17130000008E+03  0.17130000000E+03 0. -1.
      622    1    1    2    0    0  0.58597717868E-02 -0.28300313318E-02  0.28440059027E+01  0.28442946262E+01  0.40000000000E-01 0. -1.
</event>
<event>
 5   0  0.6200596E+07  0.9118800E+02  0.7818608E-02  0.1180000E+00
       11   -1    0    0    0    0  0.00000000000E+00  0.00000000000E+00  0.39999999673E+01  0.40000000000E+01  0.51109989000E-03 0.  1.
     -623   -1    0    0    0    0  0.00000000000E+00  0.00000000000E+00  0.12525980253E-10  0.17130000000E+03  0.17130000000E+03 0.  1.
       11    1    1    2    0    0 -0.70241633340E-03  0.26741967101E-02  0.17940773287E-01  0.18159771029E-01  0.51109989000E-03 0.  1.
     -623    1    1    2    0    0  0.12141218611E-02 -0.19504148701E-03  0.42069193077E-03  0.17130000000E+03  0.17130000000E+03 0.  1.
      622    1    1    2    0    0 -0.51170552774E-03 -0.24791552231E-02  0.39816385021E+01  0.39818402240E+01  0.40000000000E-01 0.  1.
</event>
<event>
 5   0  0.6200596E+07  0.9118800E+02  0.7818608E-02  0.1180000E+00
       11   -1    0    0    0    0  0.00000000000E+00  0.00000000000E+00  0.39999999673E+01  0.40000000000E+01  0.51109989000E-03 0. -1.
     -623   -1    0    0    0    0  0.00000000000E+00  0.00000000000E+00  0.12525980253E-10  0.17130000000E+03  0.17130000000E+03 0. -1.
       11    1    1    2    0    0  0.27615379407E-02  0.11222872819E-01  0.44482499886E+00  0.44497541482E+00  0.51109989000E-03 0. -1.
     -623    1    1    2    0    0  0.16803703371E-02  0.20787228511E-03  0.39658638438E-03  0.17130000001E+03  0.17130000000E+03 0. -1.
      622    1    1    2    0    0 -0.44419082778E-02 -0.11430745104E-01  0.35547783821E+01  0.35550245763E+01  0.40000000000E-01 0. -1.
</event>
<event>
 5   0  0.6200596E+07  0.9118800E+02  0.7818608E-02  0.1180000E+00
       11   -1    0    0    0    0  0.00000000000E+00  0.00000000000E+00  0.39999999673E+01  0.40000000000E+01  0.51109989000E-03 0. -1.
     -623   -1    0    0    0    0  0.00000000000E+00  0.00000000000E+00  0.12525980253E-10  0.17130000000E+03  0.17130000000E+03 0. -1.
       11    1    1    2    0    0 -0.20594275835E-02 -0.27402071523E-02  0.25062620239E+00  0.25065016362E+00  0.51109989000E-03 0. -1.
     -623    1    1    2    0    0  0.50425257136E-02  0.38531857017E-03  0.23930617084E-03  0.17130000007E+03  0.17130000000E+03 0. -1.
      622    1    1    2    0    0 -0.29830981302E-02  0.23548885821E-02  0.37491344588E+01  0.37493497616E+01  0.40000000000E-01 0. -1.
</event>
<event>
 5   0  0.6200596E+07  0.9118800E+02  0.7818608E-02  0.1180000E+00
       11   -1    0    0    0    0  0.00000000000E+00  0.00000000000E+00  0.39999999673E+01  0.40000000000E+01  0.51109989000E-03 0.  1.
     -623   -1    0    0    0    0  0.00000000000E+00  0.00000000000E+00  0.12525980253E-10  0.17130000000E+03  0.17130000000E+03 0.  1.
       11    1    1    2    0    0  0.52157188111E-02 -0.12751640749E-01  0.49535330873E+00  0.49554512383E+00  0.51109989000E-03 0.  1.
     -623    1    1    2    0    0 -0.36119424387E-02  0.42739999511E-03  0.44214898040E-03  0.17130000004E+03  0.17130000000E+03 0.  1.
      622    1    1    2    0    0 -0.16037763723E-02  0.12324240754E-01  0.35042045096E+01  0.35044548370E+01  0.40000000000E-01 0.  1.
</event>
<event>
 5   0  0.6200596E+07  0.9118800E+02  0.7818608E-02  0.1180000E+00
       11   -1    0    0    0    0  0.00000000000E+00  0.00000000000E+00  0.39999999673E+01  0.40000000000E+01  0.51109989000E-03 0.  1.
     -623   -1    0    0    0    0  0.00000000000E+00  0.00000000000E+00  0.12525980253E-10  0.17130000000E+03  0.17130000000E+03 0. -1.
       11    1    1    2    0    0 -0.10966625444E-01 -0.14237911350E-01  0.73901693794E-01  0.76057258438E-01  0.51109989000E-03 0.  1.
     -623    1    1    2    0    0 -0.57970373713E-02  0.83285885013E-02  0.23999916017E-02  0.17130000032E+03  0.17130000000E+03 0. -1.
      622    1    1    2    0    0  0.16763662816E-01  0.59093228487E-02  0.39236982820E+01  0.39239424242E+01  0.40000000000E-01 0.  1.
</event>
<event>
 5   0  0.6200596E+07  0.9118800E+02  0.7818608E-02  0.1180000E+00
       11   -1    0    0    0    0  0.00000000000E+00  0.00000000000E+00  0.39999999673E+01  0.40000000000E+01  0.51109989000E-03 0.  1.
     -623   -1    0    0    0    0  0.00000000000E+00  0.00000000000E+00  0.12525980253E-10  0.17130000000E+03  0.17130000000E+03 0.  1.
       11    1    1    2    0    0 -0.67842152279E-02  0.95347573338E-02  0.56171717193E-01  0.57379963454E-01  0.51109989000E-03 0.  1.
     -623    1    1    2    0    0 -0.26633301133E-02 -0.13398793718E-02  0.14309986553E-02  0.17130000003E+03  0.17130000000E+03 0.  1.
      622    1    1    2    0    0  0.94475453412E-02 -0.81948779620E-02  0.39423972515E+01  0.39426200046E+01  0.40000000000E-01 0.  1.
</event>
<event>
 5   0  0.6200596E+07  0.9118800E+02  0.7818608E-02  0.1180000E+00
       11   -1    0    0    0    0  0.00000000000E+00  0.00000000000E+00  0.39999999673E+01  0.40000000000E+01  0.51109989000E-03 0.  1.
     -623   -1    0    0    0    0  0.00000000000E+00  0.00000000000E+00  0.12525980253E-10  0.17130000000E+03  0.17130000000E+03 0.  1.
       11    1    1    2    0    0  0.35800222855E-03 -0.12128398297E-02  0.48334655049E-01  0.48353895875E-01  0.51109989000E-03 0.  1.
     -623    1    1    2    0    0 -0.15189469975E-02 -0.15012929320E-03  0.22207320327E-03  0.17130000001E+03  0.17130000000E+03 0.  1.
      622    1    1    2    0    0  0.11609447689E-02  0.13629691229E-02  0.39514432391E+01  0.39516460972E+01  0.40000000000E-01 0.  1.
</event>
<event>
 5   0  0.6200596E+07  0.9118800E+02  0.7818608E-02  0.1180000E+00
       11   -1    0    0    0    0  0.00000000000E+00  0.00000000000E+00  0.39999999673E+01  0.40000000000E+01  0.51109989000E-03 0.  1.
     -623   -1    0    0    0    0  0.00000000000E+00  0.00000000000E+00  0.12525980253E-10  0.17130000000E+03  0.17130000000E+03 0.  1.
       11    1    1    2    0    0 -0.88652858112E-03  0.38282138343E-02  0.21398846035E-01  0.21762651210E-01  0.51109989000E-03 0.  1.
     -623    1    1    2    0    0  0.96229501017E-03 -0.11816529149E-02  0.56576050656E-03  0.17130000001E+03  0.17130000000E+03 0.  1.
      622    1    1    2    0    0 -0.75766429053E-04 -0.26465609194E-02  0.39780353608E+01  0.39782373411E+01  0.40000000000E-01 0.  1.
</event>
<event>
 5   0  0.6200596E+07  0.9118800E+02  0.7818608E-02  0.1180000E+00
       11   -1    0    0    0    0  0.00000000000E+00  0.00000000000E+00  0.39999999673E+01  0.40000000000E+01  0.51109989000E-03 0. -1.
     -623   -1    0    0    0    0  0.00000000000E+00  0.00000000000E+00  0.12525980253E-10  0.17130000000E+03  0.17130000000E+03 0. -1.
       11    1    1    2    0    0 -0.96648607115E-03  0.64661490333E-02  0.16690159948E+00  0.16703038738E+00  0.51109989000E-03 0. -1.
     -623    1    1    2    0    0  0.57205380094E-03 -0.12184643172E-01  0.34219737832E-03  0.17130000043E+03  0.17130000000E+03 0. -1.
      622    1    1    2    0    0  0.39443227021E-03  0.57184941382E-02  0.38327561705E+01  0.38329691780E+01  0.40000000000E-01 0. -1.
</event>
<event>
 5   0  0.6200596E+07  0.9118800E+02  0.7818608E-02  0.1180000E+00
       11   -1    0    0    0    0  0.00000000000E+00  0.00000000000E+00  0.39999999673E+01  0.40000000000E+01  0.51109989000E-03 0. -1.
     -623   -1    0    0    0    0  0.00000000000E+00  0.00000000000E+00  0.12525980253E-10  0.17130000000E+03  0.17130000000E+03 0. -1.
       11    1    1    2    0    0 -0.16011292063E-01  0.29232504576E-02  0.65436080898E+00  0.65456339373E+00  0.51109989000E-03 0. -1.
     -623    1    1    2    0    0 -0.24565317207E-03 -0.11703895387E-02  0.48165935333E-03  0.17130000000E+03  0.17130000000E+03 0. -1.
      622    1    1    2    0    0  0.16256945235E-01 -0.17528609188E-02  0.33451574990E+01  0.33454366014E+01  0.40000000000E-01 0. -1.
</event>
<event>
 5   0  0.6200596E+07  0.9118800E+02  0.7818608E-02  0.1180000E+00
       11   -1    0    0    0    0  0.00000000000E+00  0.00000000000E+00  0.39999999673E+01  0.40000000000E+01  0.51109989000E-03 0.  1.
     -623   -1    0    0    0    0  0.00000000000E+00  0.00000000000E+00  0.12525980253E-10  0.17130000000E+03  0.17130000000E+03 0.  1.
       11    1    1    2    0    0 -0.92980080578E-02 -0.12244207434E-01  0.23721195777E+00  0.23771021791E+00  0.51109989000E-03 0.  1.
     -623    1    1    2    0    0  0.19323235474E-01  0.59372224375E-02  0.73070879696E-03  0.17130000119E+03  0.17130000000E+03 0.  1.
      622    1    1    2    0    0 -0.10025227416E-01  0.63069849961E-02  0.37620573008E+01  0.37622885878E+01  0.40000000000E-01 0.  1.
</event>
<event>
 5   0  0.6200596E+07  0.9118800E+02  0.7818608E-02  0.1180000E+00
       11   -1    0    0    0    0  0.00000000000E+00  0.00000000000E+00  0.39999999673E+01  0.40000000000E+01  0.51109989000E-03 0.  1.
     -623   -1    0    0    0    0  0.00000000000E+00  0.00000000000E+00  0.12525980253E-10  0.17130000000E+03  0.17130000000E+03 0.  1.
       11    1    1    2    0    0 -0.23601246775E-02 -0.54433622833E-03  0.22835430136E-01  0.22969209429E-01  0.51109989000E-03 0.  1.
     -623    1    1    2    0    0  0.51667990558E-03  0.43358825038E-03  0.33533729260E-03  0.17130000000E+03  0.17130000000E+03 0.  1.
      622    1    1    2    0    0  0.18434447719E-02  0.11074797795E-03  0.39768291999E+01  0.39770307889E+01  0.40000000000E-01 0.  1.
</event>
<event>
 5   0  0.6200596E+07  0.9118800E+02  0.7818608E-02  0.1180000E+00
       11   -1    0    0    0    0  0.00000000000E+00  0.00000000000E+00  0.39999999673E+01  0.40000000000E+01  0.51109989000E-03 0.  1.
     -623   -1    0    0    0    0  0.00000000000E+00  0.00000000000E+00  0.12525980253E-10  0.17130000000E+03  0.17130000000E+03 0.  1.
       11    1    1    2    0    0  0.86743851399E-02  0.31015342954E-03  0.23149204065E+00  0.23165527678E+00  0.51109989000E-03 0.  1.
     -623    1    1    2    0    0 -0.30623571134E-02 -0.32721573630E-02  0.38090660005E-03  0.17130000006E+03  0.17130000000E+03 0.  1.
      622    1    1    2    0    0 -0.56120280265E-02  0.29620039334E-02  0.37681270201E+01  0.37683446642E+01  0.40000000000E-01 0.  1.
</event>
<event>
 5   0  0.6200596E+07  0.9118800E+02  0.7818608E-02  0.1180000E+00
       11   -1    0    0    0    0  0.00000000000E+00  0.00000000000E+00  0.39999999673E+01  0.40000000000E+01  0.51109989000E-03 0.  1.
     -623   -1    0    0    0    0  0.00000000000E+00  0.00000000000E+00  0.12525980253E-10  0.17130000000E+03  0.17130000000E+03 0. -1.
       11    1    1    2    0    0  0.16268984138E-03  0.11818854202E-02  0.71651973316E-01  0.71663727384E-01  0.51109989000E-03 0.  1.
     -623    1    1    2    0    0  0.27457736601E-02 -0.64474367797E-03  0.21651208353E-03  0.17130000002E+03  0.17130000000E+03 0. -1.
      622    1    1    2    0    0 -0.29084635015E-02 -0.53714174225E-03  0.39281314820E+01  0.39283362493E+01  0.40000000000E-01 0.  1.
</event>
<event>
 5   0  0.6200596E+07  0.9118800E+02  0.7818608E-02  0.1180000E+00
       11   -1    0    0    0    0  0.00000000000E+00  0.00000000000E+00  0.39999999673E+01  0.40000000000E+01  0.51109989000E-03 0. -1.
     -623   -1    0    0    0    0  0.00000000000E+00  0.00000000000E+00  0.12525980253E-10  0.17130000000E+03  0.17130000000E+03 0. -1.
       11    1    1    2    0    0  0.52538590693E-02  0.45268621220E-03  0.58643670612E+00  0.58646063761E+00  0.51109989000E-03 0. -1.
     -623    1    1    2    0    0  0.13720923104E-02  0.41962914279E-02  0.26792205222E-03  0.17130000006E+03  0.17130000000E+03 0. -1.
      622    1    1    2    0    0 -0.66259513797E-02 -0.46489776401E-02  0.34132953392E+01  0.34135393053E+01  0.40000000000E-01 0. -1.
</event>
<event>
 5   0  0.6200596E+07  0.9118800E+02  0.7818608E-02  0.1180000E+00
       11   -1    0    0    0    0  0.00000000000E+00  0.00000000000E+00  0.39999999673E+01  0.40000000000E+01  0.51109989000E-03 0.  1.
     -623   -1    0    0    0    0  0.00000000000E+00  0.00000000000E+00  0.12525980253E-10  0.17130000000E+03  0.17130000000E+03 0. -1.
       11    1    1    2    0    0 -0.22763563675E-01  0.18098050101E-02  0.23859715015E+01  0.23860808289E+01  0.51109989000E-03 0.  1.
     -623    1    1    2    0    0 -0.20551566847E-02 -0.30142091997E-02  0.79644914520E-03  0.17130000004E+03  0.17130000000E+03 0. -1.
      622    1    1    2    0    0  0.24818720359E-01  0.12044041896E-02  0.16132320168E+01  0.16139191304E+01  0.40000000000E-01 0.  1.
</event>
<event>
 5   0  0.6200596E+07  0.9118800E+02  0.7818608E-02  0.1180000E+00
       11   -1    0    0    0    0  0.00000000000E+00  0.00000000000E+00  0.39999999673E+01  0.40000000000E+01  0.51109989000E-03 0. -1.
     -623   -1    0    0    0    0  0.00000000000E+00  0.00000000000E+00  0.12525980253E-10  0.17130000000E+03  0.17130000000E+03 0. -1.
       11    1    1    2    0    0  0.44786573710E-02  0.23043012479E-01  0.70090672416E+00  0.70129989020E+00  0.51109989000E-03 0. -1.
     -623    1    1    2    0    0  0.77778997770E-02 -0.27675709486E-01  0.66410098679E-03  0.17130000241E+03  0.17130000000E+03 0. -1.
      622    1    1    2    0    0 -0.12256557148E-01  0.46326970066E-02  0.32984291422E+01  0.32986976963E+01  0.40000000000E-01 0. -1.
</event>
<event>
 5   0  0.6200596E+07  0.9118800E+02  0.7818608E-02  0.1180000E+00
       11   -1    0    0    0    0  0.00000000000E+00  0.00000000000E+00  0.39999999673E+01  0.40000000000E+01  0.51109989000E-03 0.  1.
     -623   -1    0    0    0    0  0.00000000000E+00  0.00000000000E+00  0.12525980253E-10  0.17130000000E+03  0.17130000000E+03 0. -1.
       11    1    1    2    0    0  0.10159063480E-01 -0.14378554149E-01  0.11773929143E+01  0.11775246432E+01  0.51109989000E-03 0.  1.
     -623    1    1    2    0    0  0.18626601379E-02 -0.14349018097E-02  0.48507522858E-03  0.17130000002E+03  0.17130000000E+03 0. -1.
      622    1    1    2    0    0 -0.12021723618E-01  0.15813455958E-01  0.28221219778E+01  0.28224753400E+01  0.40000000000E-01 0.  0.
</event>
<event>
 5   0  0.6200596E+07  0.9118800E+02  0.7818608E-02  0.1180000E+00
       11   -1    0    0    0    0  0.00000000000E+00  0.00000000000E+00  0.39999999673E+01  0.40000000000E+01  0.51109989000E-03 0.  1.
     -623   -1    0    0    0    0  0.00000000000E+00  0.00000000000E+00  0.12525980253E-10  0.17130000000E+03  0.17130000000E+03 0.  1.
       11    1    1    2    0    0 -0.37295744653E-02 -0.13341697527E-01  0.74020286354E+00  0.74033266241E+00  0.51109989000E-03 0.  1.
     -623    1    1    2    0    0 -0.35602046261E-03 -0.15253871737E-03  0.40569448344E-03  0.17130000000E+03  0.17130000000E+03 0.  1.
      622    1    1    2    0    0  0.40855949279E-02  0.13494236244E-01  0.32593914093E+01  0.32596673367E+01  0.40000000000E-01 0.  0.
</event>
<event>
 5   0  0.6200596E+07  0.9118800E+02  0.7818608E-02  0.1180000E+00
       11   -1    0    0    0    0  0.00000000000E+00  0.00000000000E+00  0.39999999673E+01  0.40000000000E+01  0.51109989000E-03 0. -1.
     -623   -1    0    0    0    0  0.00000000000E+00  0.00000000000E+00  0.12525980253E-10  0.17130000000E+03  0.17130000000E+03 0. -1.
       11    1    1    2    0    0  0.33705649357E-02  0.21019724710E-02  0.23298010288E-01  0.23639744084E-01  0.51109989000E-03 0. -1.
     -623    1    1    2    0    0 -0.77539161935E-02 -0.77235588913E-02  0.54963586269E-03  0.17130000035E+03  0.17130000000E+03 0. -1.
      622    1    1    2    0    0  0.43833512577E-02  0.56215864203E-02  0.39761523212E+01  0.39763599054E+01  0.40000000000E-01 0. -1.
</event>
<event>
 5   0  0.6200596E+07  0.9118800E+02  0.7818608E-02  0.1180000E+00
       11   -1    0    0    0    0  0.00000000000E+00  0.00000000000E+00  0.39999999673E+01  0.40000000000E+01  0.51109989000E-03 0. -1.
     -623   -1    0    0    0    0  0.00000000000E+00  0.00000000000E+00  0.12525980253E-10  0.17130000000E+03  0.17130000000E+03 0.  1.
       11    1    1    2    0    0 -0.30402637913E-01 -0.12113171767E-01  0.30621198450E+00  0.30795631183E+00  0.51109989000E-03 0. -1.
     -623    1    1    2    0    0  0.14556842240E-02  0.38898672996E-02  0.20836906495E-02  0.17130000006E+03  0.17130000000E+03 0.  1.
      622    1    1    2    0    0  0.28946953689E-01  0.82233044672E-02  0.36917042922E+01  0.36920436251E+01  0.40000000000E-01 0. -1.
</event>
<event>
 5   0  0.6200596E+07  0.9118800E+02  0.7818608E-02  0.1180000E+00
       11   -1    0    0    0    0  0.00000000000E+00  0.00000000000E+00  0.39999999673E+01  0.40000000000E+01  0.51109989000E-03 0. -1.
     -623   -1    0    0    0    0  0.00000000000E+00  0.00000000000E+00  0.12525980253E-10  0.17130000000E+03  0.17130000000E+03 0.  1.
       11    1    1    2    0    0  0.28152336885E-01  0.36766918466E-03  0.43107104495E+00  0.43198981038E+00  0.51109989000E-03 0. -1.
     -623    1    1    2    0    0 -0.80964706798E-02 -0.10020071128E-01  0.12128715831E-02  0.17130000049E+03  0.17130000000E+03 0.  1.
      622    1    1    2    0    0 -0.20055866206E-01  0.96524019436E-02  0.35677160508E+01  0.35680097009E+01  0.40000000000E-01 0. -1.
</event>
<event>
 5   0  0.6200596E+07  0.9118800E+02  0.7818608E-02  0.1180000E+00
       11   -1    0    0    0    0  0.00000000000E+00  0.00000000000E+00  0.39999999673E+01  0.40000000000E+01  0.51109989000E-03 0.  1.
     -623   -1    0    0    0    0  0.00000000000E+00  0.00000000000E+00  0.12525980253E-10  0.17130000000E+03  0.17130000000E+03 0. -1.
       11    1    1    2    0    0 -0.87382537802E-02  0.24970438741E-02  0.27225520407E-01  0.28706837004E-01  0.51109989000E-03 0.  1.
     -623    1    1    2    0    0 -0.23973376750E-02  0.47665316473E-03  0.16994871057E-02  0.17130000003E+03  0.17130000000E+03 0. -1.
      622    1    1    2    0    0  0.11135591455E-01 -0.29736970388E-02  0.39710749598E+01  0.39712931371E+01  0.40000000000E-01 0.  1.
</event>
<event>
 5   0  0.6200596E+07  0.9118800E+02  0.7818608E-02  0.1180000E+00
       11   -1    0    0    0    0  0.00000000000E+00  0.00000000000E+00  0.39999999673E+01  0.40000000000E+01  0.51109989000E-03 0.  1.
     -623   -1    0    0    0    0  0.00000000000E+00  0.00000000000E+00  0.12525980253E-10  0.17130000000E+03  0.17130000000E+03 0.  1.
       11    1    1    2    0    0  0.33276903149E-02 -0.51143261346E-02  0.11497814907E-01  0.13026543075E-01  0.51109989000E-03 0.  1.
     -623    1    1    2    0    0  0.51142762717E-03  0.23052302048E-02  0.17322171833E-02  0.17130000003E+03  0.17130000000E+03 0.  1.
      622    1    1    2    0    0 -0.38391179420E-02  0.28090959298E-02  0.39867699353E+01  0.39869734319E+01  0.40000000000E-01 0.  1.
</event>
<event>
 5   0  0.6200596E+07  0.9118800E+02  0.7818608E-02  0.1180000E+00
       11   -1    0    0    0    0  0.00000000000E+00  0.00000000000E+00  0.39999999673E+01  0.40000000000E+01  0.51109989000E-03 0. -1.
     -623   -1    0    0    0    0  0.00000000000E+00  0.00000000000E+00  0.12525980253E-10  0.17130000000E+03  0.17130000000E+03 0.  1.
       11    1    1    2    0    0 -0.41660452522E-02  0.43578436166E-02  0.42896315991E+00  0.42900582806E+00  0.51109989000E-03 0. -1.
     -623    1    1    2    0    0 -0.35611064686E-03 -0.46010021588E-02  0.26960396160E-03  0.17130000006E+03  0.17130000000E+03 0.  1.
      622    1    1    2    0    0  0.45221558991E-02  0.24315854220E-03  0.35707672035E+01  0.35709941096E+01  0.40000000000E-01 0. -1.
</event>
<event>
 5   0  0.6200596E+07  0.9118800E+02  0.7818608E-02  0.1180000E+00
       11   -1    0    0    0    0  0.00000000000E+00  0.00000000000E+00  0.39999999673E+01  0.40000000000E+01  0.51109989000E-03 0.  1.
     -623   -1    0    0    0    0  0.00000000000E+00  0.00000000000E+00  0.12525980253E-10  0.17130000000E+03  0.17130000000E+03 0. -1.
       11    1    1    2    0    0  0.78035133760E-02  0.15099173186E-02  0.26612816248E+00  0.26624731878E+00  0.51109989000E-03 0.  1.
     -623    1    1    2    0    0 -0.94003323281E-03 -0.41785800060E-03  0.33986327555E-03  0.17130000000E+03  0.17130000000E+03 0. -1.
      622    1    1    2    0    0 -0.68634801432E-02 -0.10920593180E-02  0.37335319416E+01  0.37337526778E+01  0.40000000000E-01 0.  1.
</event>
<event>
 5   0  0.6200596E+07  0.9118800E+02  0.7818608E-02  0.1180000E+00
       11   -1    0    0    0    0  0.00000000000E+00  0.00000000000E+00  0.39999999673E+01  0.40000000000E+01  0.51109989000E-03 0.  1.
     -623   -1    0    0    0    0  0.00000000000E+00  0.00000000000E+00  0.12525980253E-10  0.17130000000E+03  0.17130000000E+03 0. -1.
       11    1    1    2    0    0 -0.83200106671E-03 -0.12908262136E-03  0.19246079080E-02  0.21619958059E-02  0.51109989000E-03 0.  1.
     -623    1    1    2    0    0 -0.28000890746E-03 -0.21016948559E-02  0.43825918334E-03  0.17130000001E+03  0.17130000000E+03 0. -1.
      622    1    1    2    0    0  0.11120099742E-02  0.22307774773E-02  0.39976371003E+01  0.39978379905E+01  0.40000000000E-01 0.  1.
</event>
<event>
 5   0  0.6200596E+07  0.9118800E+02  0.7818608E-02  0.1180000E+00
       11   -1    0    0    0    0  0.00000000000E+00  0.00000000000E+00  0.39999999673E+01  0.40000000000E+01  0.51109989000E-03 0. -1.
     -623   -1    0    0    0    0  0.00000000000E+00  0.00000000000E+00  0.12525980253E-10  0.17130000000E+03  0.17130000000E+03 0.  1.
       11    1    1    2    0    0 -0.37599991736E-02  0.35717211166E-04  0.28518823620E+00  0.28521348173E+00  0.51109989000E-03 0. -1.
     -623    1    1    2    0    0 -0.73557330411E-03 -0.11912403955E-02  0.24348072020E-03  0.17130000001E+03  0.17130000000E+03 0.  1.
      622    1    1    2    0    0  0.44955724777E-02  0.11555231843E-02  0.37145682504E+01  0.37147865124E+01  0.40000000000E-01 0. -1.
</event>
<event>
 5   0  0.6200596E+07  0.9118800E+02  0.7818608E-02  0.1180000E+00
       11   -1    0    0    0    0  0.00000000000E+00  0.00000000000E+00  0.39999999673E+01  0.40000000000E+01  0.51109989000E-03 0.  1.
     -623   -1    0    0    0    0  0.00000000000E+00  0.00000000000E+00  0.12525980253E-10  0.17130000000E+03  0.17130000000E+03 0. -1.
       11    1    1    2    0    0  0.45102492952E-01 -0.34372030774E-01  0.12876061841E+01  0.12888543820E+01  0.51109989000E-03 0.  1.
     -623    1    1    2    0    0 -0.20905543041E-01 -0.11221520148E-01  0.20363672925E-02  0.17130000166E+03  0.17130000000E+03 0. -1.
      622    1    1    2    0    0 -0.24196949911E-01  0.45593550922E-01  0.27103574160E+01  0.27111439627E+01  0.40000000000E-01 0.  1.
</event>
<event>
 5   0  0.6200596E+07  0.9118800E+02  0.7818608E-02  0.1180000E+00
       11   -1    0    0    0    0  0.00000000000E+00  0.00000000000E+00  0.39999999673E+01  0.40000000000E+01  0.51109989000E-03 0. -1.
     -623   -1    0    0    0    0  0.00000000000E+00  0.00000000000E+00  0.12525980253E-10  0.17130000000E+03  0.17130000000E+03 0. -1.
       11    1    1    2    0    0 -0.18479994564E-02 -0.30719130104E-02  0.10157828386E-01  0.10783990537E-01  0.51109989000E-03 0. -1.
     -623    1    1    2    0    0 -0.15775725023E-03  0.36668553121E-02  0.82726516166E-03  0.17130000004E+03  0.17130000000E+03 0. -1.
      622    1    1    2    0    0  0.20057567066E-02 -0.59494230170E-03  0.39890148738E+01  0.39892159681E+01  0.40000000000E-01 0. -1.
</event>
<event>
 5   0  0.6200596E+07  0.9118800E+02  0.7818608E-02  0.1180000E+00
       11   -1    0    0    0    0  0.00000000000E+00  0.00000000000E+00  0.39999999673E+01  0.40000000000E+01  0.51109989000E-03 0.  1.
     -623   -1    0    0    0    0  0.00000000000E+00  0.00000000000E+00  0.12525980253E-10  0.17130000000E+03  0.17130000000E+03 0. -1.
       11    1    1    2    0    0  0.17124892503E-02 -0.89009980211E-03  0.37400695801E-01  0.37453947255E-01  0.51109989000E-03 0.  1.
     -623    1    1    2    0    0 -0.53418117739E-03 -0.43927702720E-03  0.25551414697E-03  0.17130000000E+03  0.17130000000E+03 0. -1.
      622    1    1    2    0    0 -0.11783080729E-02  0.13293768293E-02  0.39623437574E+01  0.39625460512E+01  0.40000000000E-01 0.  1.
</event>
<event>
 5   0  0.6200596E+07  0.9118800E+02  0.7818608E-02  0.1180000E+00
       11   -1    0    0    0    0  0.00000000000E+00  0.00000000000E+00  0.39999999673E+01  0.40000000000E+01  0.51109989000E-03 0. -1.
     -623   -1    0    0    0    0  0.00000000000E+00  0.00000000000E+00  0.12525980253E-10  0.17130000000E+03  0.17130000000E+03 0.  1.
       11    1    1    2    0    0 -0.86909307852E-03  0.97057003454E-03  0.34177508573E-01  0.34206149187E-01  0.51109989000E-03 0. -1.
     -623    1    1    2    0    0  0.65199410071E-03  0.98120034260E-03  0.23082862064E-03  0.17130000000E+03  0.17130000000E+03 0.  1.
      622    1    1    2    0    0  0.21709897781E-03 -0.19517703771E-02  0.39655916302E+01  0.39657938466E+01  0.40000000000E-01 0. -1.
</event>
<event>
 5   0  0.6200596E+07  0.9118800E+02  0.7818608E-02  0.1180000E+00
       11   -1    0    0    0    0  0.00000000000E+00  0.00000000000E+00  0.39999999673E+01  0.40000000000E+01  0.51109989000E-03 0.  1.
     -623   -1    0    0    0    0  0.00000000000E+00  0.00000000000E+00  0.12525980253E-10  0.17130000000E+03  0.17130000000E+03 0.  1.
       11    1    1    2    0    0  0.19534146271E-01  0.73345712012E-02  0.36449808474E+00  0.36509518459E+00  0.51109989000E-03 0.  1.
     -623    1    1    2    0    0  0.30024051785E-02 -0.11488823911E-02  0.89232696731E-03  0.17130000003E+03  0.17130000000E+03 0.  1.
      622    1    1    2    0    0 -0.22536551450E-01 -0.61856888101E-02  0.36346095557E+01  0.36349047829E+01  0.40000000000E-01 0.  0.
</event>
<event>
 5   0  0.6200596E+07  0.9118800E+02  0.7818608E-02  0.1180000E+00
       11   -1    0    0    0    0  0.00000000000E+00  0.00000000000E+00  0.39999999673E+01  0.40000000000E+01  0.51109989000E-03 0.  1.
     -623   -1    0    0    0    0  0.00000000000E+00  0.00000000000E+00  0.12525980253E-10  0.17130000000E+03  0.17130000000E+03 0.  1.
       11    1    1    2    0    0  0.74472032683E-02 -0.35565789788E-02  0.91045332524E-01  0.91420040940E-01  0.51109989000E-03 0.  1.
     -623    1    1    2    0    0 -0.62043880222E-02  0.47439280408E-02  0.57991604630E-03  0.17130000018E+03  0.17130000000E+03 0.  1.
      622    1    1    2    0    0 -0.12428152461E-02 -0.11873490620E-02  0.39083747188E+01  0.39085797800E+01  0.40000000000E-01 0.  1.
</event>
<event>
 5   0  0.6200596E+07  0.9118800E+02  0.7818608E-02  0.1180000E+00
       11   -1    0    0    0    0  0.00000000000E+00  0.00000000000E+00  0.39999999673E+01  0.40000000000E+01  0.51109989000E-03 0. -1.
     -623   -1    0    0    0    0  0.00000000000E+00  0.00000000000E+00  0.12525980253E-10  0.17130000000E+03  0.17130000000E+03 0.  1.
       11    1    1    2    0    0  0.34532040276E-01 -0.36083301143E-01  0.58323991603E+00  0.58537468966E+00  0.51109989000E-03 0. -1.
     -623    1    1    2    0    0 -0.12431670787E-01 -0.25052110784E-01  0.29902471889E-02  0.17130000231E+03  0.17130000000E+03 0.  1.
      622    1    1    2    0    0 -0.22100369489E-01  0.61135411927E-01  0.34137698041E+01  0.34146230012E+01  0.40000000000E-01 0. -1.
</event>
<event>
 5   0  0.6200596E+07  0.9118800E+02  0.7818608E-02  0.1180000E+00
       11   -1    0    0    0    0  0.00000000000E+00  0.00000000000E+00  0.39999999673E+01  0.40000000000E+01  0.51109989000E-03 0. -1.
     -623   -1    0    0    0    0  0.00000000000E+00  0.00000000000E+00  0.12525980253E-10  0.17130000000E+03  0.17130000000E+03 0. -1.
       11    1    1    2    0    0  0.91149130967E-02 -0.12502930864E-01  0.66038053238E-01  0.67828390935E-01  0.51109989000E-03 0. -1.
     -623    1    1    2    0    0 -0.27812556249E-02 -0.30658196131E-02  0.20297460860E-02  0.17130000006E+03  0.17130000000E+03 0. -1.
      622    1    1    2    0    0 -0.63336574718E-02  0.15568750477E-01  0.39319321680E+01  0.39321715470E+01  0.40000000000E-01 0. -1.
</event>
<event>
 5   0  0.6200596E+07  0.9118800E+02  0.7818608E-02  0.1180000E+00
       11   -1    0    0    0    0  0.00000000000E+00  0.00000000000E+00  0.39999999673E+01  0.40000000000E+01  0.51109989000E-03 0.  1.
     -623   -1    0    0    0    0  0.00000000000E+00  0.00000000000E+00  0.12525980253E-10  0.17130000000E+03  0.17130000000E+03 0. -1.
       11    1    1    2    0    0  0.99363518528E-03  0.87325464309E-02  0.37875561257E-01  0.38885267662E-01  0.51109989000E-03 0.  1.
     -623    1    1    2    0    0  0.41804861416E-02 -0.53411676929E-02  0.12166122082E-02  0.17130000014E+03  0.17130000000E+03 0. -1.
      622    1    1    2    0    0 -0.51741213269E-02 -0.33913787380E-02  0.39609077939E+01  0.39611145937E+01  0.40000000000E-01 0.  1.
</event>
<event>
 5   0  0.6200596E+07  0.9118800E+02  0.7818608E-02  0.1180000E+00
       11   -1    0    0    0    0  0.00000000000E+00  0.00000000000E+00  0.39999999673E+01  0.40000000000E+01  0.51109989000E-03 0.  1.
     -623   -1    0    0    0    0  0.00000000000E+00  0.00000000000E+00  0.12525980253E-10  0.17130000000E+03  0.17130000000E+03 0. -1.
       11    1    1    2    0    0  0.10987648498E-01 -0.12698193563E-02  0.84513792415E-01  0.85236043967E-01  0.51109989000E-03 0.  1.
     -623    1    1    2    0    0 -0.74625282612E-02  0.64960110081E-02  0.93194297835E-03  0.17130000029E+03  0.17130000000E+03 0. -1.
      622    1    1    2    0    0 -0.35251202373E-02 -0.52261916517E-02  0.39145542320E+01  0.39147636678E+01  0.40000000000E-01 0.  1.
</event>
<event>
 5   0  0.6200596E+07  0.9118800E+02  0.7818608E-02  0.1180000E+00
       11   -1    0    0    0    0  0.00000000000E+00  0.00000000000E+00  0.39999999673E+01  0.40000000000E+01  0.51109989000E-03 0. -1.
     -623   -1    0    0    0    0  0.00000000000E+00  0.00000000000E+00  0.12525980253E-10  0.17130000000E+03  0.17130000000E+03 0.  1.
       11    1    1    2    0    0 -0.44999596874E-01  0.10476860814E-01  0.36003066477E+01  0.36006031365E+01  0.51109989000E-03 0. -1.
     -623    1    1    2    0    0 -0.39144376899E-02  0.21243567920E-02  0.55279183842E-02  0.17130000015E+03  0.17130000000E+03 0.  1.
      622    1    1    2    0    0  0.48914034564E-01 -0.12601217606E-01  0.39416540129E+00  0.39939671636E+00  0.40000000000E-01 0.  0.
</event>
<event>
 5   0  0.6200596E+07  0.9118800E+02  0.7818608E-02  0.1180000E+00
       11   -1    0    0    0    0  0.00000000000E+00  0.00000000000E+00  0.39999999673E+01  0.40000000000E+01  0.51109989000E-03 0. -1.
     -623   -1    0    0    0    0  0.00000000000E+00  0.00000000000E+00  0.12525980253E-10  0.17130000000E+03  0.17130000000E+03 0. -1.
       11    1    1    2    0    0  0.35378906364E-02  0.24761483066E-01  0.15744991753E+01  0.15746979272E+01  0.51109989000E-03 0. -1.
     -623    1    1    2    0    0  0.12563311656E-02 -0.13076692901E-01  0.56199334137E-03  0.17130000050E+03  0.17130000000E+03 0. -1.
      622    1    1    2    0    0 -0.47942218020E-02 -0.11684790165E-01  0.24249387988E+01  0.24253015682E+01  0.40000000000E-01 0.  0.
</event>
<event>
 5   0  0.6200596E+07  0.9118800E+02  0.7818608E-02  0.1180000E+00
       11   -1    0    0    0    0  0.00000000000E+00  0.00000000000E+00  0.39999999673E+01  0.40000000000E+01  0.51109989000E-03 0.  1.
     -623   -1    0    0    0    0  0.00000000000E+00  0.00000000000E+00  0.12525980253E-10  0.17130000000E+03  0.17130000000E+03 0. -1.
       11    1    1    2    0    0 -0.26571274594E-01 -0.50948346525E-01  0.11680377445E+00  0.13017353646E+00  0.51109989000E-03 0.  1.
     -623    1    1    2    0    0  0.27503601455E-01  0.35031619544E-01  0.13615641258E-01  0.17130000633E+03  0.17130000000E+03 0. -1.
      622    1    1    2    0    0 -0.93232686102E-03  0.15916726981E-01  0.38695805517E+01  0.38698201324E+01  0.40000000000E-01 0.  1.
</event>
<event>
 5   0  0.6200596E+07  0.9118800E+02  0.7818608E-02  0.1180000E+00
       11   -1    0    0    0    0  0.00000000000E+00  0.00000000000E+00  0.39999999673E+01  0.40000000000E+01  0.51109989000E-03 0. -1.
     -623   -1    0    0    0    0  0.00000000000E+00  0.00000000000E+00  0.12525980253E-10  0.17130000000E+03  0.17130000000E+03 0.  1.
       11    1    1    2    0    0  0.42316589435E-02 -0.11251946160E-02  0.29937201714E+00  0.29940447370E+00  0.51109989000E-03 0. -1.
     -623    1    1    2    0    0 -0.15692660304E-02  0.23320583874E-02  0.24978948808E-03  0.17130000002E+03  0.17130000000E+03 0.  1.
      622    1    1    2    0    0 -0.26623929131E-02 -0.12068637714E-02  0.37003781607E+01  0.37005955031E+01  0.40000000000E-01 0. -1.
</event>
<event>
 5   0  0.6200596E+07  0.9118800E+02  0.7818608E-02  0.1180000E+00
       11   -1    0    0    0    0  0.00000000000E+00  0.00000000000E+00  0.39999999673E+01  0.40000000000E+01  0.51109989000E-03 0.  1.
     -623   -1    0    0    0    0  0.00000000000E+00  0.00000000000E+00  0.12525980253E-10  0.17130000000E+03  0.17130000000E+03 0. -1.
       11    1    1    2    0    0 -0.20019937153E-02 -0.20432341785E-02  0.50821614608E-02  0.58542610208E-02  0.51109989000E-03 0.  1.
     -623    1    1    2    0    0  0.31562179468E-02  0.49376926249E-03  0.97286497851E-03  0.17130000003E+03  0.17130000000E+03 0. -1.
      622    1    1    2    0    0 -0.11542242315E-02  0.15494649160E-02  0.39939449409E+01  0.39941457064E+01  0.40000000000E-01 0.  1.
</event>
<event>
 5   0  0.6200596E+07  0.9118800E+02  0.7818608E-02  0.1180000E+00
       11   -1    0    0    0    0  0.00000000000E+00  0.00000000000E+00  0.39999999673E+01  0.40000000000E+01  0.51109989000E-03 0.  1.
     -623   -1    0    0    0    0  0.00000000000E+00  0.00000000000E+00  0.12525980253E-10  0.17130000000E+03  0.17130000000E+03 0. -1.
       11    1    1    2    0    0  0.26534473722E-01  0.28612541407E-01  0.31035781236E+00  0.31280183621E+00  0.51109989000E-03 0.  1.
     -623    1    1    2    0    0 -0.12429545583E-01 -0.76360404279E-02  0.27482599485E-02  0.17130000064E+03  0.17130000000E+03 0. -1.
      622    1    1    2    0    0 -0.14104928140E-01 -0.20976500980E-01  0.36868938950E+01  0.36871975206E+01  0.40000000000E-01 0.  1.
</event>
<event>
 5   0  0.6200596E+07  0.9118800E+02  0.7818608E-02  0.1180000E+00
       11   -1    0    0    0    0  0.00000000000E+00  0.00000000000E+00  0.39999999673E+01  0.40000000000E+01  0.51109989000E-03 0.  1.
     -623   -1    0    0    0    0  0.00000000000E+00  0.00000000000E+00  0.12525980253E-10  0.17130000000E+03  0.17130000000E+03 0.  1.
       11    1    1    2    0    0  0.16856705731E-02 -0.80918314406E-03  0.31416522345E-01  0.31476266617E-01  0.51109989000E-03 0.  1.
     -623    1    1    2    0    0 -0.29658906854E-03 -0.24984454135E-03  0.26168811731E-03  0.17130000000E+03  0.17130000000E+03 0.  1.
      622    1    1    2    0    0 -0.13890815046E-02  0.10590276854E-02  0.39683217569E+01  0.39685237327E+01  0.40000000000E-01 0.  1.
</event>
<event>
 5   0  0.6200596E+07  0.9118800E+02  0.7818608E-02  0.1180000E+00
       11   -1    0    0    0    0  0.00000000000E+00  0.00000000000E+00  0.39999999673E+01  0.40000000000E+01  0.51109989000E-03 0. -1.
     -623   -1    0    0    0    0  0.00000000000E+00  0.00000000000E+00  0.12525980253E-10  0.17130000000E+03  0.17130000000E+03 0.  1.
       11    1    1    2    0    0 -0.76646427162E-03  0.34437719330E-02  0.88504827020E-02  0.95414515205E-02  0.51109989000E-03 0. -1.
     -623    1    1    2    0    0  0.77300916073E-03 -0.14017428642E-02  0.89195174355E-03  0.17130000001E+03  0.17130000000E+03 0.  1.
      622    1    1    2    0    0 -0.65448891117E-05 -0.20420290688E-02  0.39902575329E+01  0.39904585387E+01  0.40000000000E-01 0. -1.
</event>
<event>
 5   0  0.6200596E+07  0.9118800E+02  0.7818608E-02  0.1180000E+00
       11   -1    0    0    0    0  0.00000000000E+00  0.00000000000E+00  0.39999999673E+01  0.40000000000E+01  0.51109989000E-03 0.  1.
     -623   -1    0    0    0    0  0.00000000000E+00  0.00000000000E+00  0.12525980253E-10  0.17130000000E+03  0.17130000000E+03 0. -1.
       11    1    1    2    0    0 -0.15464800467E-01 -0.10656255946E-01  0.20891027011E+00  0.20975337428E+00  0.51109989000E-03 0.  1.
     -623    1    1    2    0    0 -0.12323689820E-03  0.11922844820E-01  0.10868317125E-02  0.17130000042E+03  0.17130000000E+03 0. -1.
      622    1    1    2    0    0  0.15588037366E-01 -0.12665888737E-02  0.37900028655E+01  0.37902462073E+01  0.40000000000E-01 0.  1.
</event>
<event>
 5   0  0.6200596E+07  0.9118800E+02  0.7818608E-02  0.1180000E+00
       11   -1    0    0    0    0  0.00000000000E+00  0.00000000000E+00  0.39999999673E+01  0.40000000000E+01  0.51109989000E-03 0. -1.
     -623   -1    0    0    0    0  0.00000000000E+00  0.00000000000E+00  0.12525980253E-10  0.17130000000E+03  0.17130000000E+03 0.  1.
       11    1    1    2    0    0  0.67279266872E-01  0.27820823107E-01  0.69535330765E+00  0.69915447622E+00  0.51109989000E-03 0. -1.
     -623    1    1    2    0    0  0.77555431506E-02 -0.65675418082E-02  0.49653445089E-02  0.17130000037E+03  0.17130000000E+03 0.  1.
      622    1    1    2    0    0 -0.75034810023E-01 -0.21253281299E-01  0.32996813152E+01  0.33008451504E+01  0.40000000000E-01 0. -1.
</event>
<event>
 5   0  0.6200596E+07  0.9118800E+02  0.7818608E-02  0.1180000E+00
       11   -1    0    0    0    0  0.00000000000E+00  0.00000000000E+00  0.39999999673E+01  0.40000000000E+01  0.51109989000E-03 0. -1.
     -623   -1    0    0    0    0  0.00000000000E+00  0.00000000000E+00  0.12525980253E-10  0.17130000000E+03  0.17130000000E+03 0.  1.
       11    1    1    2    0    0 -0.63637567392E-03  0.55138591439E-03  0.12177792158E-01  0.12217562886E-01  0.51109989000E-03 0. -1.
     -623    1    1    2    0    0  0.11098660302E-02  0.45980219467E-03  0.24051658836E-03  0.17130000000E+03  0.17130000000E+03 0.  1.
      622    1    1    2    0    0 -0.47349035628E-03 -0.10111881091E-02  0.39875816586E+01  0.39877824327E+01  0.40000000000E-01 0. -1.
</event>
<event>
 5   0  0.6200596E+07  0.9118800E+02  0.7818608E-02  0.1180000E+00
       11   -1    0    0    0    0  0.00000000000E+00  0.00000000000E+00  0.39999999673E+01  0.40000000000E+01  0.51109989000E-03 0. -1.
     -623   -1    0    0    0    0  0.00000000000E+00  0.00000000000E+00  0.12525980253E-10  0.17130000000E+03  0.17130000000E+03 0.  1.
       11    1    1    2    0    0 -0.13074920416E-02  0.14627593856E-02  0.46442515703E-01  0.46486747420E-01  0.51109989000E-03 0. -1.
     -623    1    1    2    0    0  0.22796065009E-03  0.14987464267E-02  0.24781946777E-03  0.17130000001E+03  0.17130000000E+03 0.  1.
      622    1    1    2    0    0  0.10795313915E-02 -0.29615058123E-02  0.39533096322E+01  0.39535132457E+01  0.40000000000E-01 0. -1.
</event>
<event>
 5   0  0.6200596E+07  0.9118800E+02  0.7818608E-02  0.1180000E+00
       11   -1    0    0    0    0  0.00000000000E+00  0.00000000000E+00  0.39999999673E+01  0.40000000000E+01  0.51109989000E-03 0.  1.
     -623   -1    0    0    0    0  0.00000000000E+00  0.00000000000E+00  0.12525980253E-10  0.17130000000E+03  0.17130000000E+03 0. -1.
       11    1    1    2    0    0  0.32338913789E-02  0.50190931645E-02  0.36552558188E+00  0.36557470041E+00  0.51109989000E-03 0.  1.
     -623    1    1    2    0    0  0.59613140727E-02  0.66377999815E-03  0.28539116447E-03  0.17130000011E+03  0.17130000000E+03 0. -1.
      622    1    1    2    0    0 -0.91952054516E-02 -0.56828731626E-02  0.36341889943E+01  0.36344251943E+01  0.40000000000E-01 0.  1.
</event>
<event>
 5   0  0.6200596E+07  0.9118800E+02  0.7818608E-02  0.1180000E+00
       11   -1    0    0    0    0  0.00000000000E+00  0.00000000000E+00  0.39999999673E+01  0.40000000000E+01  0.51109989000E-03 0.  1.
     -623   -1    0    0    0    0  0.00000000000E+00  0.00000000000E+00  0.12525980253E-10  0.17130000000E+03  0.17130000000E+03 0.  1.
       11    1    1    2    0    0 -0.10925961701E-01  0.74706773706E-02  0.18473636047E+00  0.18521061460E+00  0.51109989000E-03 0.  1.
     -623    1    1    2    0    0  0.70228987513E-03 -0.45133133432E-03  0.70409972475E-03  0.17130000000E+03  0.17130000000E+03 0.  1.
      622    1    1    2    0    0  0.10223671826E-01 -0.70193460363E-02  0.38145595072E+01  0.38147893819E+01  0.40000000000E-01 0.  1.
</event>
<event>
 5   0  0.6200596E+07  0.9118800E+02  0.7818608E-02  0.1180000E+00
       11   -1    0    0    0    0  0.00000000000E+00  0.00000000000E+00  0.39999999673E+01  0.40000000000E+01  0.51109989000E-03 0. -1.
     -623   -1    0    0    0    0  0.00000000000E+00  0.00000000000E+00  0.12525980253E-10  0.17130000000E+03  0.17130000000E+03 0. -1.
       11    1    1    2    0    0  0.93613829191E-03 -0.13121481433E-02  0.28266228293E-01  0.28316761298E-01  0.51109989000E-03 0. -1.
     -623    1    1    2    0    0 -0.33089558457E-03 -0.49864882137E-03  0.25239157150E-03  0.17130000000E+03  0.17130000000E+03 0. -1.
      622    1    1    2    0    0 -0.60524270735E-03  0.18107969646E-02  0.39714813475E+01  0.39716832375E+01  0.40000000000E-01 0. -1.
</event>
<event>
 5   0  0.6200596E+07  0.9118800E+02  0.7818608E-02  0.1180000E+00
       11   -1    0    0    0    0  0.00000000000E+00  0.00000000000E+00  0.39999999673E+01  0.40000000000E+01  0.51109989000E-03 0.  1.
     -623   -1    0    0    0    0  0.00000000000E+00  0.00000000000E+00  0.12525980253E-10  0.17130000000E+03  0.17130000000E+03 0.  1.
       11    1    1    2    0    0 -0.73217225200E-02  0.16825382078E-02  0.11141103343E+01  0.11141357803E+01  0.51109989000E-03 0.  1.
     -623    1    1    2    0    0 -0.15871780663E-02 -0.18572264098E-03  0.31678849021E-03  0.17130000001E+03  0.17130000000E+03 0.  1.
      622    1    1    2    0    0  0.89089005863E-02 -0.14968155669E-02  0.28855728445E+01  0.28858642120E+01  0.40000000000E-01 0.  1.
</event>
<event>
 5   0  0.6200596E+07  0.9118800E+02  0.7818608E-02  0.1180000E+00
       11   -1    0    0    0    0  0.00000000000E+00  0.00000000000E+00  0.39999999673E+01  0.40000000000E+01  0.51109989000E-03 0.  1.
     -623   -1    0    0    0    0  0.00000000000E+00  0.00000000000E+00  0.12525980253E-10  0.17130000000E+03  0.17130000000E+03 0.  1.
       11    1    1    2    0    0 -0.59127872161E-02  0.42457331878E-02  0.14142695026E+00  0.14161507965E+00  0.51109989000E-03 0.  1.
     -623    1    1    2    0    0  0.14072250409E-02  0.53527271352E-03  0.40104312240E-03  0.17130000001E+03  0.17130000000E+03 0.  1.
      622    1    1    2    0    0  0.45055621752E-02 -0.47810059013E-02  0.38581719740E+01  0.38583849133E+01  0.40000000000E-01 0.  1.
</event>
<event>
 5   0  0.6200596E+07  0.9118800E+02  0.7818608E-02  0.1180000E+00
       11   -1    0    0    0    0  0.00000000000E+00  0.00000000000E+00  0.39999999673E+01  0.40000000000E+01  0.51109989000E-03 0.  1.
     -623   -1    0    0    0    0  0.00000000000E+00  0.00000000000E+00  0.12525980253E-10  0.17130000000E+03  0.17130000000E+03 0.  1.
       11    1    1    2    0    0 -0.27139755013E-03  0.82401369199E-03  0.10602943863E-01  0.10650647596E-01  0.51109989000E-03 0.  1.
     -623    1    1    2    0    0  0.15388412958E-02 -0.12907238429E-02  0.24845069211E-03  0.17130000001E+03  0.17130000000E+03 0.  1.
      622    1    1    2    0    0 -0.12674437457E-02  0.46671015090E-03  0.39891485728E+01  0.39893493404E+01  0.40000000000E-01 0.  1.
</event>
<event>
 5   0  0.6200596E+07  0.9118800E+02  0.7818608E-02  0.1180000E+00
       11   -1    0    0    0    0  0.00000000000E+00  0.00000000000E+00  0.39999999673E+01  0.40000000000E+01  0.51109989000E-03 0.  1.
     -623   -1    0    0    0    0  0.00000000000E+00  0.00000000000E+00  0.12525980253E-10  0.17130000000E+03  0.17130000000E+03 0.  1.
       11    1    1    2    0    0  0.31621371533E-01 -0.48242300436E-02  0.70697407752E-01  0.77598769436E-01  0.51109989000E-03 0.  1.
     -623    1    1    2    0    0 -0.23996568367E-01 -0.11770965817E-01  0.71500451375E-02  0.17130000223E+03  0.17130000000E+03 0.  1.
      622    1    1    2    0    0 -0.76248031655E-02  0.16595195861E-01  0.39221525145E+01  0.39223989961E+01  0.40000000000E-01 0.  1.
</event>
<event>
 5   0  0.6200596E+07  0.9118800E+02  0.7818608E-02  0.1180000E+00
       11   -1    0    0    0    0  0.00000000000E+00  0.00000000000E+00  0.39999999673E+01  0.40000000000E+01  0.51109989000E-03 0.  1.
     -623   -1    0    0    0    0  0.00000000000E+00  0.00000000000E+00  0.12525980253E-10  0.17130000000E+03  0.17130000000E+03 0.  1.
       11    1    1    2    0    0 -0.22819984100E-01  0.15915451895E-01  0.60111849358E+00  0.60176221037E+00  0.51109989000E-03 0.  1.
     -623    1    1    2    0    0  0.80486923318E-02 -0.19397496960E-01  0.91428835934E-03  0.17130000129E+03  0.17130000000E+03 0.  1.
      622    1    1    2    0    0  0.14771291768E-01  0.34820450644E-02  0.33979671854E+01  0.33982364998E+01  0.40000000000E-01 0.  1.
</event>
<event>
 5   0  0.6200596E+07  0.9118800E+02  0.7818608E-02  0.1180000E+00
       11   -1    0    0    0    0  0.00000000000E+00  0.00000000000E+00  0.39999999673E+01  0.40000000000E+01  0.51109989000E-03 0.  1.
     -623   -1    0    0    0    0  0.00000000000E+00  0.00000000000E+00  0.12525980253E-10  0.17130000000E+03  0.17130000000E+03 0. -1.
       11    1    1    2    0    0 -0.17772046651E-03  0.25640974792E-03  0.13982858427E-01  0.13995673694E-01  0.51109989000E-03 0.  1.
     -623    1    1    2    0    0  0.46180474809E-03  0.82782618328E-03  0.21365027023E-03  0.17130000000E+03  0.17130000000E+03 0. -1.
      622    1    1    2    0    0 -0.28408428159E-03 -0.10842359312E-02  0.39858034587E+01  0.39860043235E+01  0.40000000000E-01 0.  1.
</event>
<event>
 5   0  0.6200596E+07  0.9118800E+02  0.7818608E-02  0.1180000E+00
       11   -1    0    0    0    0  0.00000000000E+00  0.00000000000E+00  0.39999999673E+01  0.40000000000E+01  0.51109989000E-03 0. -1.
     -623   -1    0    0    0    0  0.00000000000E+00  0.00000000000E+00  0.12525980253E-10  0.17130000000E+03  0.17130000000E+03 0. -1.
       11    1    1    2    0    0 -0.82149335625E-02  0.16861003054E-02  0.10631278984E+00  0.10664426179E+00  0.51109989000E-03 0. -1.
     -623    1    1    2    0    0  0.94970859877E-03  0.75810192687E-03  0.54447446785E-03  0.17130000001E+03  0.17130000000E+03 0. -1.
      622    1    1    2    0    0  0.72652249638E-02 -0.24442022323E-02  0.38931427031E+01  0.38933557330E+01  0.40000000000E-01 0. -1.
</event>
<event>
 5   0  0.6200596E+07  0.9118800E+02  0.7818608E-02  0.1180000E+00
       11   -1    0    0    0    0  0.00000000000E+00  0.00000000000E+00  0.39999999673E+01  0.40000000000E+01  0.51109989000E-03 0. -1.
     -623   -1    0    0    0    0  0.00000000000E+00  0.00000000000E+00  0.12525980253E-10  0.17130000000E+03  0.17130000000E+03 0. -1.
       11    1    1    2    0    0 -0.14077466751E+00 -0.21924862929E-01  0.15013893766E+01  0.15081341213E+01  0.51109989000E-03 0. -1.
     -623    1    1    2    0    0 -0.13511284275E-01  0.21507495773E-01  0.11849685307E-01  0.17130000229E+03  0.17130000000E+03 0. -1.
      622    1    1    2    0    0  0.15428595179E+00  0.41736715530E-03  0.24867609055E+01  0.24918635858E+01  0.40000000000E-01 0. -1.
</event>
<event>
 5   0  0.6200596E+07  0.9118800E+02  0.7818608E-02  0.1180000E+00
       11   -1    0    0    0    0  0.00000000000E+00  0.00000000000E+00  0.39999999673E+01  0.40000000000E+01  0.51109989000E-03 0. -1.
     -623   -1    0    0    0    0  0.00000000000E+00  0.00000000000E+00  0.12525980253E-10  0.17130000000E+03  0.17130000000E+03 0. -1.
       11    1    1    2    0    0 -0.58177895692E-02 -0.12918704535E-02  0.69846368086E-01  0.70102011102E-01  0.51109989000E-03 0. -1.
     -623    1    1    2    0    0  0.18191215911E-02 -0.41896172700E-03  0.46160090760E-03  0.17130000001E+03  0.17130000000E+03 0. -1.
      622    1    1    2    0    0  0.39986679782E-02  0.17108321805E-02  0.39296919984E+01  0.39298979781E+01  0.40000000000E-01 0. -1.
</event>
<event>
 5   0  0.6200596E+07  0.9118800E+02  0.7818608E-02  0.1180000E+00
       11   -1    0    0    0    0  0.00000000000E+00  0.00000000000E+00  0.39999999673E+01  0.40000000000E+01  0.51109989000E-03 0.  1.
     -623   -1    0    0    0    0  0.00000000000E+00  0.00000000000E+00  0.12525980253E-10  0.17130000000E+03  0.17130000000E+03 0. -1.
       11    1    1    2    0    0  0.48455731343E-03  0.16663504840E-02  0.23773605929E-01  0.23842337966E-01  0.51109989000E-03 0.  1.
     -623    1    1    2    0    0  0.36509224737E-04 -0.28603307167E-02  0.27014127152E-03  0.17130000002E+03  0.17130000000E+03 0. -1.
      622    1    1    2    0    0 -0.52106653817E-03  0.11939802327E-02  0.39759562202E+01  0.39761576379E+01  0.40000000000E-01 0.  1.
</event>
<event>
 5   0  0.6200596E+07  0.9118800E+02  0.7818608E-02  0.1180000E+00
       11   -1    0    0    0    0  0.00000000000E+00  0.00000000000E+00  0.39999999673E+01  0.40000000000E+01  0.51109989000E-03 0.  1.
     -623   -1    0    0    0    0  0.00000000000E+00  0.00000000000E+00  0.12525980253E-10  0.17130000000E+03  0.17130000000E+03 0. -1.
       11    1    1    2    0    0  0.77845468467E-04  0.12614424637E-02  0.15818981761E-02  0.20882814074E-02  0.51109989000E-03 0.  1.
     -623    1    1    2    0    0 -0.22599582256E-04  0.70142938370E-03  0.70694523021E-03  0.17130000000E+03  0.17130000000E+03 0. -1.
      622    1    1    2    0    0 -0.55245886211E-04 -0.19628718474E-02  0.39977111240E+01  0.39979117157E+01  0.40000000000E-01 0.  1.
</event>
<event>
 5   0  0.6200596E+07  0.9118800E+02  0.7818608E-02  0.1180000E+00
       11   -1    0    0    0    0  0.00000000000E+00  0.00000000000E+00  0.39999999673E+01  0.40000000000E+01  0.51109989000E-03 0. -1.
     -623   -1    0    0    0    0  0.00000000000E+00  0.00000000000E+00  0.12525980253E-10  0.17130000000E+03  0.17130000000E+03 0.  1.
       11    1    1    2    0    0  0.89977120398E-02  0.31118960775E-01  0.21227013103E+01  0.21229485303E+01  0.51109989000E-03 0. -1.
     -623    1    1    2    0    0 -0.65257985449E-02  0.61855066504E-02  0.10461185704E-02  0.17130000024E+03  0.17130000000E+03 0.  1.
      622    1    1    2    0    0 -0.24719134949E-02 -0.37304467426E-01  0.18762525385E+01  0.18770512305E+01  0.40000000000E-01 0. -1.
</event>
<event>
 5   0  0.6200596E+07  0.9118800E+02  0.7818608E-02  0.1180000E+00
       11   -1    0    0    0    0  0.00000000000E+00  0.00000000000E+00  0.39999999673E+01  0.40000000000E+01  0.51109989000E-03 0.  1.
     -623   -1    0    0    0    0  0.00000000000E+00  0.00000000000E+00  0.12525980253E-10  0.17130000000E+03  0.17130000000E+03 0.  1.
       11    1    1    2    0    0 -0.12220737130E-01  0.21853352990E-01  0.14901714828E+00  0.15110687329E+00  0.51109989000E-03 0.  1.
     -623    1    1    2    0    0 -0.82363483031E-02 -0.72938611628E-02  0.23798280125E-02  0.17130000037E+03  0.17130000000E+03 0.  1.
      622    1    1    2    0    0  0.20457085433E-01 -0.14559491827E-01  0.38486029911E+01  0.38488927569E+01  0.40000000000E-01 0.  1.
</event>
<event>
 5   0  0.6200596E+07  0.9118800E+02  0.7818608E-02  0.1180000E+00
       11   -1    0    0    0    0  0.00000000000E+00  0.00000000000E+00  0.39999999673E+01  0.40000000000E+01  0.51109989000E-03 0. -1.
     -623   -1    0    0    0    0  0.00000000000E+00  0.00000000000E+00  0.12525980253E-10  0.17130000000E+03  0.17130000000E+03 0. -1.
       11    1    1    2    0    0  0.10312917047E-01  0.59446821239E-02  0.11852050840E+01  0.11852649694E+01  0.51109989000E-03 0. -1.
     -623    1    1    2    0    0 -0.55922788977E-03  0.12670274128E-03  0.36753693979E-03  0.17130000000E+03  0.17130000000E+03 0. -1.
      622    1    1    2    0    0 -0.97536891572E-02 -0.60713848652E-02  0.28144273464E+01  0.28147350292E+01  0.40000000000E-01 0. -1.
</event>
<event>
 5   0  0.6200596E+07  0.9118800E+02  0.7818608E-02  0.1180000E+00
       11   -1    0    0    0    0  0.00000000000E+00  0.00000000000E+00  0.39999999673E+01  0.40000000000E+01  0.51109989000E-03 0.  1.
     -623   -1    0    0    0    0  0.00000000000E+00  0.00000000000E+00  0.12525980253E-10  0.17130000000E+03  0.17130000000E+03 0.  1.
       11    1    1    2    0    0 -0.82492326360E-02  0.28609384966E-01  0.15462707963E+01  0.15465575267E+01  0.51109989000E-03 0.  1.
     -623    1    1    2    0    0 -0.53467304651E-02 -0.75300060785E-02  0.74128893586E-03  0.17130000025E+03  0.17130000000E+03 0.  1.
      622    1    1    2    0    0  0.13595963101E-01 -0.21079378887E-01  0.24529878821E+01  0.24534422227E+01  0.40000000000E-01 0.  1.
</event>
<event>
 5   0  0.6200596E+07  0.9118800E+02  0.7818608E-02  0.1180000E+00
       11   -1    0    0    0    0  0.00000000000E+00  0.00000000000E+00  0.39999999673E+01  0.40000000000E+01  0.51109989000E-03 0. -1.
     -623   -1    0    0    0    0  0.00000000000E+00  0.00000000000E+00  0.12525980253E-10  0.17130000000E+03  0.17130000000E+03 0.  1.
       11    1    1    2    0    0 -0.11601132237E-01 -0.71893352528E-03  0.13782792950E+00  0.13831812068E+00  0.51109989000E-03 0. -1.
     -623    1    1    2    0    0  0.52202363589E-03  0.41534314114E-03  0.71323621626E-03  0.17130000000E+03  0.17130000000E+03 0.  1.
      622    1    1    2    0    0  0.11079108601E-01  0.30359038414E-03  0.38614588016E+01  0.38616818765E+01  0.40000000000E-01 0. -1.
</event>
<event>
 5   0  0.6200596E+07  0.9118800E+02  0.7818608E-02  0.1180000E+00
       11   -1    0    0    0    0  0.00000000000E+00  0.00000000000E+00  0.39999999673E+01  0.40000000000E+01  0.51109989000E-03 0.  1.
     -623   -1    0    0    0    0  0.00000000000E+00  0.00000000000E+00  0.12525980253E-10  0.17130000000E+03  0.17130000000E+03 0.  1.
       11    1    1    2    0    0  0.17748941368E-03 -0.22640028905E-02  0.33251346834E-02  0.40589350416E-02  0.51109989000E-03 0.  1.
     -623    1    1    2    0    0  0.68463376352E-03  0.13379996626E-02  0.93418533325E-03  0.17130000001E+03  0.17130000000E+03 0.  1.
      622    1    1    2    0    0 -0.86212317719E-03  0.92600322792E-03  0.39957406473E+01  0.39959410558E+01  0.40000000000E-01 0.  1.
</event>
<event>
 5   0  0.6200596E+07  0.9118800E+02  0.7818608E-02  0.1180000E+00
       11   -1    0    0    0    0  0.00000000000E+00  0.00000000000E+00  0.39999999673E+01  0.40000000000E+01  0.51109989000E-03 0.  1.
     -623   -1    0    0    0    0  0.00000000000E+00  0.00000000000E+00  0.12525980253E-10  0.17130000000E+03  0.17130000000E+03 0.  1.
       11    1    1    2    0    0  0.13261921831E-02  0.30427076948E-02  0.93313841076E-01  0.93374252418E-01  0.51109989000E-03 0.  1.
     -623    1    1    2    0    0  0.72307640229E-03  0.58215129922E-05  0.26689313807E-03  0.17130000000E+03  0.17130000000E+03 0.  1.
      622    1    1    2    0    0 -0.20492685854E-02 -0.30485292078E-02  0.39064192331E+01  0.39066257458E+01  0.40000000000E-01 0.  1.
</event>
<event>
 5   0  0.6200596E+07  0.9118800E+02  0.7818608E-02  0.1180000E+00
       11   -1    0    0    0    0  0.00000000000E+00  0.00000000000E+00  0.39999999673E+01  0.40000000000E+01  0.51109989000E-03 0.  1.
     -623   -1    0    0    0    0  0.00000000000E+00  0.00000000000E+00  0.12525980253E-10  0.17130000000E+03  0.17130000000E+03 0. -1.
       11    1    1    2    0    0  0.14781886968E-02 -0.14130249758E-02  0.14606693623E+01  0.14606708831E+01  0.51109989000E-03 0.  1.
     -623    1    1    2    0    0 -0.60073668713E-03 -0.30144093702E-04  0.31711470591E-03  0.17130000000E+03  0.17130000000E+03 0. -1.
      622    1    1    2    0    0 -0.87745200969E-03  0.14431690695E-02  0.25390134904E+01  0.25393291155E+01  0.40000000000E-01 0.  1.
</event>
<event>
 5   0  0.6200596E+07  0.9118800E+02  0.7818608E-02  0.1180000E+00
       11   -1    0    0    0    0  0.00000000000E+00  0.00000000000E+00  0.39999999673E+01  0.40000000000E+01  0.51109989000E-03 0.  1.
     -623   -1    0    0    0    0  0.00000000000E+00  0.00000000000E+00  0.12525980253E-10  0.17130000000E+03  0.17130000000E+03 0.  1.
       11    1    1    2    0    0 -0.11965661656E-01  0.46674948168E-01  0.75073965577E+00  0.75228453381E+00  0.51109989000E-03 0.  1.
     -623    1    1    2    0    0  0.21877857883E-01 -0.83523943962E-02  0.20340484818E-02  0.17130000161E+03  0.17130000000E+03 0.  1.
      622    1    1    2    0    0 -0.99121962268E-02 -0.38322553772E-01  0.32472262631E+01  0.32477138534E+01  0.40000000000E-01 0.  1.
</event>
<event>
 5   0  0.6200596E+07  0.9118800E+02  0.7818608E-02  0.1180000E+00
       11   -1    0    0    0    0  0.00000000000E+00  0.00000000000E+00  0.39999999673E+01  0.40000000000E+01  0.51109989000E-03 0.  1.
     -623   -1    0    0    0    0  0.00000000000E+00  0.00000000000E+00  0.12525980253E-10  0.17130000000E+03  0.17130000000E+03 0.  1.
       11    1    1    2    0    0 -0.82907303762E-02 -0.13946899931E-02  0.31339438272E+00  0.31350754650E+00  0.51109989000E-03 0.  1.
     -623    1    1    2    0    0  0.54471055835E-01  0.27072512226E-01  0.71966687358E-03  0.17130001080E+03  0.17130000000E+03 0.  1.
      622    1    1    2    0    0 -0.46180325459E-01 -0.25677822232E-01  0.36858859178E+01  0.36864816522E+01  0.40000000000E-01 0.  0.
</event>
<event>
 5   0  0.6200596E+07  0.9118800E+02  0.7818608E-02  0.1180000E+00
       11   -1    0    0    0    0  0.00000000000E+00  0.00000000000E+00  0.39999999673E+01  0.40000000000E+01  0.51109989000E-03 0.  1.
     -623   -1    0    0    0    0  0.00000000000E+00  0.00000000000E+00  0.12525980253E-10  0.17130000000E+03  0.17130000000E+03 0.  1.
       11    1    1    2    0    0  0.49441750323E-02 -0.44906871730E-02  0.48959237450E+00  0.48963819860E+00  0.51109989000E-03 0.  1.
     -623    1    1    2    0    0 -0.24312886287E-02 -0.34051011321E-03  0.27793762336E-03  0.17130000002E+03  0.17130000000E+03 0.  1.
      622    1    1    2    0    0 -0.25128864036E-02  0.48311972862E-02  0.35101296552E+01  0.35103617836E+01  0.40000000000E-01 0.  1.
</event>
<event>
 5   0  0.6200596E+07  0.9118800E+02  0.7818608E-02  0.1180000E+00
       11   -1    0    0    0    0  0.00000000000E+00  0.00000000000E+00  0.39999999673E+01  0.40000000000E+01  0.51109989000E-03 0. -1.
     -623   -1    0    0    0    0  0.00000000000E+00  0.00000000000E+00  0.12525980253E-10  0.17130000000E+03  0.17130000000E+03 0.  1.
       11    1    1    2    0    0 -0.66309580374E-03  0.15000518865E-02  0.16580973539E+00  0.16581863413E+00  0.51109989000E-03 0. -1.
     -623    1    1    2    0    0  0.17022377690E-02  0.62511893161E-03  0.21826081876E-03  0.17130000001E+03  0.17130000000E+03 0.  1.
      622    1    1    2    0    0 -0.10391419652E-02 -0.21251708182E-02  0.38339719711E+01  0.38341813561E+01  0.40000000000E-01 0. -1.
</event>
<event>
 5   0  0.6200596E+07  0.9118800E+02  0.7818608E-02  0.1180000E+00
       11   -1    0    0    0    0  0.00000000000E+00  0.00000000000E+00  0.39999999673E+01  0.40000000000E+01  0.51109989000E-03 0. -1.
     -623   -1    0    0    0    0  0.00000000000E+00  0.00000000000E+00  0.12525980253E-10  0.17130000000E+03  0.17130000000E+03 0. -1.
       11    1    1    2    0    0 -0.51142533023E-04  0.12248366689E-03  0.56309998166E-02  0.56557048956E-02  0.51109989000E-03 0. -1.
     -623    1    1    2    0    0 -0.13195954947E-02  0.47154460449E-03  0.22524590909E-03  0.17130000001E+03  0.17130000000E+03 0. -1.
      622    1    1    2    0    0  0.13707380277E-02 -0.59402827138E-03  0.39941437216E+01  0.39943442892E+01  0.40000000000E-01 0. -1.
</event>
<event>
 5   0  0.6200596E+07  0.9118800E+02  0.7818608E-02  0.1180000E+00
       11   -1    0    0    0    0  0.00000000000E+00  0.00000000000E+00  0.39999999673E+01  0.40000000000E+01  0.51109989000E-03 0. -1.
     -623   -1    0    0    0    0  0.00000000000E+00  0.00000000000E+00  0.12525980253E-10  0.17130000000E+03  0.17130000000E+03 0. -1.
       11    1    1    2    0    0 -0.45753316584E-04  0.11657204288E-02  0.41885948759E+00  0.41886142405E+00  0.51109989000E-03 0. -1.
     -623    1    1    2    0    0 -0.86543406222E-03  0.67383144618E-03  0.22589552317E-03  0.17130000000E+03  0.17130000000E+03 0. -1.
      622    1    1    2    0    0  0.91118737880E-03 -0.18395518749E-02  0.35809145842E+01  0.35811385723E+01  0.40000000000E-01 0. -1.
</event>
<event>
 5   0  0.6200596E+07  0.9118800E+02  0.7818608E-02  0.1180000E+00
       11   -1    0    0    0    0  0.00000000000E+00  0.00000000000E+00  0.39999999673E+01  0.40000000000E+01  0.51109989000E-03 0. -1.
     -623   -1    0    0    0    0  0.00000000000E+00  0.00000000000E+00  0.12525980253E-10  0.17130000000E+03  0.17130000000E+03 0. -1.
       11    1    1    2    0    0  0.17279112802E-03  0.89744779388E-02  0.12971797586E+01  0.12972109152E+01  0.51109989000E-03 0. -1.
     -623    1    1    2    0    0  0.12536130061E-01 -0.18020547974E-01  0.37356110983E-03  0.17130000141E+03  0.17130000000E+03 0. -1.
      622    1    1    2    0    0 -0.12708921189E-01  0.90460700347E-02  0.27024466476E+01  0.27027876778E+01  0.40000000000E-01 0. -1.
</event>
<event>
 5   0  0.6200596E+07  0.9118800E+02  0.7818608E-02  0.1180000E+00
       11   -1    0    0    0    0  0.00000000000E+00  0.00000000000E+00  0.39999999673E+01  0.40000000000E+01  0.51109989000E-03 0. -1.
     -623   -1    0    0    0    0  0.00000000000E+00  0.00000000000E+00  0.12525980253E-10  0.17130000000E+03  0.17130000000E+03 0.  1.
       11    1    1    2    0    0 -0.12578107784E-01  0.48580458288E-02  0.32460070523E+00  0.32488103740E+00  0.51109989000E-03 0. -1.
     -623    1    1    2    0    0  0.64786637815E-02 -0.98026589154E-02  0.50677809108E-03  0.17130000040E+03  0.17130000000E+03 0.  1.
      622    1    1    2    0    0  0.60994440028E-02  0.49446130866E-02  0.36748924840E+01  0.36751185589E+01  0.40000000000E-01 0. -1.
</event>
<event>
 5   0  0.6200596E+07  0.9118800E+02  0.7818608E-02  0.1180000E+00
       11   -1    0    0    0    0  0.00000000000E+00  0.00000000000E+00  0.39999999673E+01  0.40000000000E+01  0.51109989000E-03 0.  1.
     -623   -1    0    0    0    0  0.00000000000E+00  0.00000000000E+00  0.12525980253E-10  0.17130000000E+03  0.17130000000E+03 0. -1.
       11    1    1    2    0    0 -0.76096743896E-02 -0.13585605685E-01  0.96192098044E+00  0.96204714524E+00  0.51109989000E-03 0.  1.
     -623    1    1    2    0    0  0.29826705148E-02  0.11936396990E-03  0.42287772387E-03  0.17130000003E+03  0.17130000000E+03 0. -1.
      622    1    1    2    0    0  0.46270038749E-02  0.13466241715E-01  0.30376561092E+01  0.30379528282E+01  0.40000000000E-01 0.  1.
</event>
<event>
 5   0  0.6200596E+07  0.9118800E+02  0.7818608E-02  0.1180000E+00
       11   -1    0    0    0    0  0.00000000000E+00  0.00000000000E+00  0.39999999673E+01  0.40000000000E+01  0.51109989000E-03 0.  1.
     -623   -1    0    0    0    0  0.00000000000E+00  0.00000000000E+00  0.12525980253E-10  0.17130000000E+03  0.17130000000E+03 0. -1.
       11    1    1    2    0    0 -0.16259545425E-02 -0.15137509566E-02  0.94987948921E-02  0.97684950632E-02  0.51109989000E-03 0.  1.
     -623    1    1    2    0    0  0.32433925994E-02 -0.61388650653E-03  0.47108974230E-03  0.17130000003E+03  0.17130000000E+03 0. -1.
      622    1    1    2    0    0 -0.16174380569E-02  0.21276374632E-02  0.39900300827E+01  0.39902314725E+01  0.40000000000E-01 0.  1.
</event>
<event>
 5   0  0.6200596E+07  0.9118800E+02  0.7818608E-02  0.1180000E+00
       11   -1    0    0    0    0  0.00000000000E+00  0.00000000000E+00  0.39999999673E+01  0.40000000000E+01  0.51109989000E-03 0. -1.
     -623   -1    0    0    0    0  0.00000000000E+00  0.00000000000E+00  0.12525980253E-10  0.17130000000E+03  0.17130000000E+03 0. -1.
       11    1    1    2    0    0  0.15446682608E-01 -0.34853776620E-02  0.16761640683E+01  0.16762389427E+01  0.51109989000E-03 0. -1.
     -623    1    1    2    0    0  0.95595990196E-03  0.29625837729E-02  0.47712414070E-03  0.17130000003E+03  0.17130000000E+03 0. -1.
      622    1    1    2    0    0 -0.16402642510E-01  0.52279388912E-03  0.23233587749E+01  0.23237610284E+01  0.40000000000E-01 0. -1.
</event>
<event>
 5   0  0.6200596E+07  0.9118800E+02  0.7818608E-02  0.1180000E+00
       11   -1    0    0    0    0  0.00000000000E+00  0.00000000000E+00  0.39999999673E+01  0.40000000000E+01  0.51109989000E-03 0. -1.
     -623   -1    0    0    0    0  0.00000000000E+00  0.00000000000E+00  0.12525980253E-10  0.17130000000E+03  0.17130000000E+03 0. -1.
       11    1    1    2    0    0 -0.32153185528E-02 -0.26020054915E-03  0.20050197157E-01  0.20314467902E-01  0.51109989000E-03 0. -1.
     -623    1    1    2    0    0  0.35519019887E-02 -0.20749066519E-02  0.46601345582E-03  0.17130000005E+03  0.17130000000E+03 0. -1.
      622    1    1    2    0    0 -0.33658343592E-03  0.23351072010E-02  0.39794837567E+01  0.39796854821E+01  0.40000000000E-01 0. -1.
</event>
<event>
 5   0  0.6200596E+07  0.9118800E+02  0.7818608E-02  0.1180000E+00
       11   -1    0    0    0    0  0.00000000000E+00  0.00000000000E+00  0.39999999673E+01  0.40000000000E+01  0.51109989000E-03 0.  1.
     -623   -1    0    0    0    0  0.00000000000E+00  0.00000000000E+00  0.12525980253E-10  0.17130000000E+03  0.17130000000E+03 0. -1.
       11    1    1    2    0    0 -0.55992451642E-02 -0.33874805724E-02  0.75828362372E+00  0.75831203459E+00  0.51109989000E-03 0.  1.
     -623    1    1    2    0    0  0.15580830224E-02 -0.50245352452E-04  0.27952199605E-03  0.17130000001E+03  0.17130000000E+03 0. -1.
      622    1    1    2    0    0  0.40411621418E-02  0.34377259248E-02  0.32414368216E+01  0.32416879581E+01  0.40000000000E-01 0.  0.
</event>
<event>
 5   0  0.6200596E+07  0.9118800E+02  0.7818608E-02  0.1180000E+00
       11   -1    0    0    0    0  0.00000000000E+00  0.00000000000E+00  0.39999999673E+01  0.40000000000E+01  0.51109989000E-03 0.  1.
     -623   -1    0    0    0    0  0.00000000000E+00  0.00000000000E+00  0.12525980253E-10  0.17130000000E+03  0.17130000000E+03 0.  1.
       11    1    1    2    0    0 -0.20516139278E-01  0.57259763578E-02  0.40569666708E+00  0.40625576387E+00  0.51109989000E-03 0.  1.
     -623    1    1    2    0    0  0.26830692895E-01  0.34193060198E-02  0.80100258526E-03  0.17130000214E+03  0.17130000000E+03 0.  1.
      622    1    1    2    0    0 -0.63145536174E-02 -0.91452823776E-02  0.35935022977E+01  0.35937420989E+01  0.40000000000E-01 0.  1.
</event>
<event>
 5   0  0.6200596E+07  0.9118800E+02  0.7818608E-02  0.1180000E+00
       11   -1    0    0    0    0  0.00000000000E+00  0.00000000000E+00  0.39999999673E+01  0.40000000000E+01  0.51109989000E-03 0.  1.
     -623   -1    0    0    0    0  0.00000000000E+00  0.00000000000E+00  0.12525980253E-10  0.17130000000E+03  0.17130000000E+03 0.  1.
       11    1    1    2    0    0  0.78520245978E-02  0.40874565407E-02  0.29816929628E-01  0.31107428440E-01  0.51109989000E-03 0.  1.
     -623    1    1    2    0    0 -0.23504254663E-02  0.19406955449E-03  0.14981844523E-02  0.17130000002E+03  0.17130000000E+03 0.  1.
      622    1    1    2    0    0 -0.55015991315E-02 -0.42815260952E-02  0.39686848533E+01  0.39688925488E+01  0.40000000000E-01 0.  1.
</event>
<event>
 5   0  0.6200596E+07  0.9118800E+02  0.7818608E-02  0.1180000E+00
       11   -1    0    0    0    0  0.00000000000E+00  0.00000000000E+00  0.39999999673E+01  0.40000000000E+01  0.51109989000E-03 0. -1.
     -623   -1    0    0    0    0  0.00000000000E+00  0.00000000000E+00  0.12525980253E-10  0.17130000000E+03  0.17130000000E+03 0. -1.
       11    1    1    2    0    0  0.38776778442E-03 -0.20826887646E-03  0.37143365348E-01  0.37149489226E-01  0.51109989000E-03 0. -1.
     -623    1    1    2    0    0  0.19469379983E-03  0.13125856824E-03  0.20801511038E-03  0.17130000000E+03  0.17130000000E+03 0. -1.
      622    1    1    2    0    0 -0.58246158425E-03  0.77010308211E-04  0.39626485869E+01  0.39628505105E+01  0.40000000000E-01 0. -1.
</event>
<event>
 5   0  0.6200596E+07  0.9118800E+02  0.7818608E-02  0.1180000E+00
       11   -1    0    0    0    0  0.00000000000E+00  0.00000000000E+00  0.39999999673E+01  0.40000000000E+01  0.51109989000E-03 0. -1.
     -623   -1    0    0    0    0  0.00000000000E+00  0.00000000000E+00  0.12525980253E-10  0.17130000000E+03  0.17130000000E+03 0.  1.
       11    1    1    2    0    0 -0.12527793322E-01 -0.15205032456E-01  0.16162132659E+01  0.16163334188E+01  0.51109989000E-03 0. -1.
     -623    1    1    2    0    0  0.28720838501E-01 -0.28397205685E-02  0.58151784793E-03  0.17130000243E+03  0.17130000000E+03 0.  1.
      622    1    1    2    0    0 -0.16193045179E-01  0.18044753024E-01  0.23832051836E+01  0.23836641489E+01  0.40000000000E-01 0. -1.
</event>
<event>
 5   0  0.6200596E+07  0.9118800E+02  0.7818608E-02  0.1180000E+00
       11   -1    0    0    0    0  0.00000000000E+00  0.00000000000E+00  0.39999999673E+01  0.40000000000E+01  0.51109989000E-03 0.  1.
     -623   -1    0    0    0    0  0.00000000000E+00  0.00000000000E+00  0.12525980253E-10  0.17130000000E+03  0.17130000000E+03 0. -1.
       11    1    1    2    0    0  0.22182490755E-01 -0.57718885586E-02  0.43369906053E+00  0.43430463263E+00  0.51109989000E-03 0.  1.
     -623    1    1    2    0    0  0.16077263323E-02  0.11834831855E-01  0.91485024489E-03  0.17130000042E+03  0.17130000000E+03 0. -1.
      622    1    1    2    0    0 -0.23790217087E-01 -0.60629432961E-02  0.35653860566E+01  0.35656949486E+01  0.40000000000E-01 0.  1.
</event>
<event>
 5   0  0.6200596E+07  0.9118800E+02  0.7818608E-02  0.1180000E+00
       11   -1    0    0    0    0  0.00000000000E+00  0.00000000000E+00  0.39999999673E+01  0.40000000000E+01  0.51109989000E-03 0. -1.
     -623   -1    0    0    0    0  0.00000000000E+00  0.00000000000E+00  0.12525980253E-10  0.17130000000E+03  0.17130000000E+03 0. -1.
       11    1    1    2    0    0  0.12614494191E-01  0.22698745731E-01  0.14040093722E+01  0.14042495992E+01  0.51109989000E-03 0. -1.
     -623    1    1    2    0    0  0.45893132435E-02 -0.94553164884E-02  0.63953922589E-03  0.17130000032E+03  0.17130000000E+03 0. -1.
      622    1    1    2    0    0 -0.17203807435E-01 -0.13243429243E-01  0.25953510560E+01  0.25957500772E+01  0.40000000000E-01 0. -1.
</event>
<event>
 5   0  0.6200596E+07  0.9118800E+02  0.7818608E-02  0.1180000E+00
       11   -1    0    0    0    0  0.00000000000E+00  0.00000000000E+00  0.39999999673E+01  0.40000000000E+01  0.51109989000E-03 0.  1.
     -623   -1    0    0    0    0  0.00000000000E+00  0.00000000000E+00  0.12525980253E-10  0.17130000000E+03  0.17130000000E+03 0.  1.
       11    1    1    2    0    0  0.32290218551E-02 -0.44942973250E-01  0.10739079705E+00  0.11646176170E+00  0.51109989000E-03 0.  1.
     -623    1    1    2    0    0  0.21332395982E-01  0.51279757357E-02  0.95603982981E-02  0.17130000167E+03  0.17130000000E+03 0.  1.
      622    1    1    2    0    0 -0.24561417837E-01  0.39814997514E-01  0.38830487720E+01  0.38835365665E+01  0.40000000000E-01 0.  1.
</event>
<event>
 5   0  0.6200596E+07  0.9118800E+02  0.7818608E-02  0.1180000E+00
       11   -1    0    0    0    0  0.00000000000E+00  0.00000000000E+00  0.39999999673E+01  0.40000000000E+01  0.51109989000E-03 0.  1.
     -623   -1    0    0    0    0  0.00000000000E+00  0.00000000000E+00  0.12525980253E-10  0.17130000000E+03  0.17130000000E+03 0. -1.
       11    1    1    2    0    0  0.18045610127E-02 -0.12903988217E-02  0.19753872604E-01  0.19884624045E-01  0.51109989000E-03 0.  1.
     -623    1    1    2    0    0 -0.36939205085E-02  0.12592171355E-02  0.33221644013E-03  0.17130000004E+03  0.17130000000E+03 0. -1.
      622    1    1    2    0    0  0.18893594958E-02  0.31181686173E-04  0.39799138783E+01  0.39801153312E+01  0.40000000000E-01 0.  1.
</event>
<event>
 5   0  0.6200596E+07  0.9118800E+02  0.7818608E-02  0.1180000E+00
       11   -1    0    0    0    0  0.00000000000E+00  0.00000000000E+00  0.39999999673E+01  0.40000000000E+01  0.51109989000E-03 0.  1.
     -623   -1    0    0    0    0  0.00000000000E+00  0.00000000000E+00  0.12525980253E-10  0.17130000000E+03  0.17130000000E+03 0.  1.
       11    1    1    2    0    0  0.37720504350E-02  0.73541428074E-02  0.10497606629E+01  0.10497933236E+01  0.51109989000E-03 0.  1.
     -623    1    1    2    0    0  0.26977184581E-03  0.21789672856E-04  0.31579875446E-03  0.17130000000E+03  0.17130000000E+03 0.  1.
      622    1    1    2    0    0 -0.40418222808E-02 -0.73759324802E-02  0.29499235057E+01  0.29502066759E+01  0.40000000000E-01 0.  1.
</event>
<event>
 5   0  0.6200596E+07  0.9118800E+02  0.7818608E-02  0.1180000E+00
       11   -1    0    0    0    0  0.00000000000E+00  0.00000000000E+00  0.39999999673E+01  0.40000000000E+01  0.51109989000E-03 0.  1.
     -623   -1    0    0    0    0  0.00000000000E+00  0.00000000000E+00  0.12525980253E-10  0.17130000000E+03  0.17130000000E+03 0.  1.
       11    1    1    2    0    0 -0.14413984161E-01  0.37528227912E-02  0.12921038538E+01  0.12921897991E+01  0.51109989000E-03 0.  1.
     -623    1    1    2    0    0 -0.34278937183E-01 -0.80014372417E-02  0.82621500774E-03  0.17130000362E+03  0.17130000000E+03 0.  1.
      622    1    1    2    0    0  0.48692921344E-01  0.42486144505E-02  0.27070698985E+01  0.27078065822E+01  0.40000000000E-01 0.  0.
</event>
<event>
 5   0  0.6200596E+07  0.9118800E+02  0.7818608E-02  0.1180000E+00
       11   -1    0    0    0    0  0.00000000000E+00  0.00000000000E+00  0.39999999673E+01  0.40000000000E+01  0.51109989000E-03 0. -1.
     -623   -1    0    0    0    0  0.00000000000E+00  0.00000000000E+00  0.12525980253E-10  0.17130000000E+03  0.17130000000E+03 0.  1.
       11    1    1    2    0    0  0.54720372118E-02  0.13029272831E-01  0.40541383277E+00  0.40566037786E+00  0.51109989000E-03 0. -1.
     -623    1    1    2    0    0 -0.14525474530E-01 -0.59757533660E-02  0.48813634125E-03  0.17130000072E+03  0.17130000000E+03 0.  1.
      622    1    1    2    0    0  0.90534373177E-02 -0.70535194650E-02  0.35940979982E+01  0.35943389014E+01  0.40000000000E-01 0. -1.
</event>
<event>
 5   0  0.6200596E+07  0.9118800E+02  0.7818608E-02  0.1180000E+00
       11   -1    0    0    0    0  0.00000000000E+00  0.00000000000E+00  0.39999999673E+01  0.40000000000E+01  0.51109989000E-03 0. -1.
     -623   -1    0    0    0    0  0.00000000000E+00  0.00000000000E+00  0.12525980253E-10  0.17130000000E+03  0.17130000000E+03 0.  1.
       11    1    1    2    0    0  0.46141871211E-02  0.96424756660E-02  0.61855515006E+00  0.61864772120E+00  0.51109989000E-03 0. -1.
     -623    1    1    2    0    0  0.11411632674E-01 -0.11021832891E-02  0.37828845404E-03  0.17130000038E+03  0.17130000000E+03 0.  1.
      622    1    1    2    0    0 -0.16025819795E-01 -0.85402923769E-02  0.33810665288E+01  0.33813518947E+01  0.40000000000E-01 0. -1.
</event>
<event>
 5   0  0.6200596E+07  0.9118800E+02  0.7818608E-02  0.1180000E+00
       11   -1    0    0    0    0  0.00000000000E+00  0.00000000000E+00  0.39999999673E+01  0.40000000000E+01  0.51109989000E-03 0. -1.
     -623   -1    0    0    0    0  0.00000000000E+00  0.00000000000E+00  0.12525980253E-10  0.17130000000E+03  0.17130000000E+03 0.  1.
       11    1    1    2    0    0  0.15587758503E-02 -0.15816596857E-02  0.69328604930E-02  0.72977534499E-02  0.51109989000E-03 0. -1.
     -623    1    1    2    0    0  0.16669596451E-02  0.20313777717E-02  0.56658043517E-03  0.17130000002E+03  0.17130000000E+03 0.  1.
      622    1    1    2    0    0 -0.32257354954E-02 -0.44971808602E-03  0.39925005264E+01  0.39927022255E+01  0.40000000000E-01 0. -1.
</event>
<event>
 5   0  0.6200596E+07  0.9118800E+02  0.7818608E-02  0.1180000E+00
       11   -1    0    0    0    0  0.00000000000E+00  0.00000000000E+00  0.39999999673E+01  0.40000000000E+01  0.51109989000E-03 0.  1.
     -623   -1    0    0    0    0  0.00000000000E+00  0.00000000000E+00  0.12525980253E-10  0.17130000000E+03  0.17130000000E+03 0.  1.
       11    1    1    2    0    0  0.20184568518E-01 -0.43230521026E-02  0.47784233278E+00  0.47828826225E+00  0.51109989000E-03 0.  1.
     -623    1    1    2    0    0  0.32948849918E-03  0.26403977160E-02  0.73324246877E-03  0.17130000002E+03  0.17130000000E+03 0.  1.
      622    1    1    2    0    0 -0.20514057017E-01  0.16826543865E-02  0.35214243921E+01  0.35217117155E+01  0.40000000000E-01 0.  1.
</event>
<event>
 5   0  0.6200596E+07  0.9118800E+02  0.7818608E-02  0.1180000E+00
       11   -1    0    0    0    0  0.00000000000E+00  0.00000000000E+00  0.39999999673E+01  0.40000000000E+01  0.51109989000E-03 0. -1.
     -623   -1    0    0    0    0  0.00000000000E+00  0.00000000000E+00  0.12525980253E-10  0.17130000000E+03  0.17130000000E+03 0.  1.
       11    1    1    2    0    0  0.14740359699E-01  0.86709073534E-02  0.10830585593E+00  0.10964890555E+00  0.51109989000E-03 0. -1.
     -623    1    1    2    0    0  0.58055074573E-02 -0.32210066874E-02  0.16068702110E-02  0.17130000014E+03  0.17130000000E+03 0.  1.
      622    1    1    2    0    0 -0.20545867156E-01 -0.54499006661E-02  0.38900872412E+01  0.38903509583E+01  0.40000000000E-01 0. -1.
</event>
<event>
 5   0  0.6200596E+07  0.9118800E+02  0.7818608E-02  0.1180000E+00
       11   -1    0    0    0    0  0.00000000000E+00  0.00000000000E+00  0.39999999673E+01  0.40000000000E+01  0.51109989000E-03 0.  1.
     -623   -1    0    0    0    0  0.00000000000E+00  0.00000000000E+00  0.12525980253E-10  0.17130000000E+03  0.17130000000E+03 0. -1.
       11    1    1    2    0    0 -0.50599046580E-02 -0.13998528818E-02  0.66441590338E+00  0.66443684132E+00  0.51109989000E-03 0.  1.
     -623    1    1    2    0    0  0.22593219431E-03  0.43469910520E-03  0.26439704171E-03  0.17130000000E+03  0.17130000000E+03 0. -1.
      622    1    1    2    0    0  0.48339724637E-02  0.96515377658E-03  0.33353196669E+01  0.33355631578E+01  0.40000000000E-01 0.  1.
</event>
<event>
 5   0  0.6200596E+07  0.9118800E+02  0.7818608E-02  0.1180000E+00
       11   -1    0    0    0    0  0.00000000000E+00  0.00000000000E+00  0.39999999673E+01  0.40000000000E+01  0.51109989000E-03 0. -1.
     -623   -1    0    0    0    0  0.00000000000E+00  0.00000000000E+00  0.12525980253E-10  0.17130000000E+03  0.17130000000E+03 0. -1.
       11    1    1    2    0    0 -0.15204262456E-02  0.14941505338E-03  0.23611227248E-02  0.28583461790E-02  0.51109989000E-03 0. -1.
     -623    1    1    2    0    0  0.35287914184E-03  0.11002754056E-02  0.69771005408E-03  0.17130000001E+03  0.17130000000E+03 0. -1.
      622    1    1    2    0    0  0.11675471038E-02 -0.12496904590E-02  0.39969411346E+01  0.39971416485E+01  0.40000000000E-01 0. -1.
</event>
<event>
 5   0  0.6200596E+07  0.9118800E+02  0.7818608E-02  0.1180000E+00
       11   -1    0    0    0    0  0.00000000000E+00  0.00000000000E+00  0.39999999673E+01  0.40000000000E+01  0.51109989000E-03 0. -1.
     -623   -1    0    0    0    0  0.00000000000E+00  0.00000000000E+00  0.12525980253E-10  0.17130000000E+03  0.17130000000E+03 0. -1.
       11    1    1    2    0    0 -0.37962338286E-03 -0.45617301902E-03  0.12140610331E+00  0.12140862964E+00  0.51109989000E-03 0. -1.
     -623    1    1    2    0    0  0.69375006381E-02  0.26118630409E-02  0.21506353757E-03  0.17130000016E+03  0.17130000000E+03 0. -1.
      622    1    1    2    0    0 -0.65578772552E-02 -0.21556900219E-02  0.38783788005E+01  0.38785912098E+01  0.40000000000E-01 0. -1.
</event>
<event>
 5   0  0.6200596E+07  0.9118800E+02  0.7818608E-02  0.1180000E+00
       11   -1    0    0    0    0  0.00000000000E+00  0.00000000000E+00  0.39999999673E+01  0.40000000000E+01  0.51109989000E-03 0. -1.
     -623   -1    0    0    0    0  0.00000000000E+00  0.00000000000E+00  0.12525980253E-10  0.17130000000E+03  0.17130000000E+03 0.  1.
       11    1    1    2    0    0 -0.28006293221E-02  0.71543200433E-02  0.64174539723E+00  0.64179158915E+00  0.51109989000E-03 0. -1.
     -623    1    1    2    0    0  0.11842087757E-02  0.55706500106E-03  0.29363867993E-03  0.17130000001E+03  0.17130000000E+03 0.  1.
      622    1    1    2    0    0  0.16164205463E-02 -0.77113850443E-02  0.33579609315E+01  0.33582084056E+01  0.40000000000E-01 0. -1.
</event>
<event>
 5   0  0.6200596E+07  0.9118800E+02  0.7818608E-02  0.1180000E+00
       11   -1    0    0    0    0  0.00000000000E+00  0.00000000000E+00  0.39999999673E+01  0.40000000000E+01  0.51109989000E-03 0.  1.
     -623   -1    0    0    0    0  0.00000000000E+00  0.00000000000E+00  0.12525980253E-10  0.17130000000E+03  0.17130000000E+03 0.  1.
       11    1    1    2    0    0  0.25968446096E-02 -0.14821624751E-01  0.33122847401E+00  0.33157048630E+00  0.51109989000E-03 0.  1.
     -623    1    1    2    0    0  0.30791797866E-02 -0.60977645283E-03  0.59694284044E-03  0.17130000003E+03  0.17130000000E+03 0.  1.
      622    1    1    2    0    0 -0.56760243962E-02  0.15431401203E-01  0.36681745505E+01  0.36684294839E+01  0.40000000000E-01 0.  1.
</event>
<event>
 5   0  0.6200596E+07  0.9118800E+02  0.7818608E-02  0.1180000E+00
       11   -1    0    0    0    0  0.00000000000E+00  0.00000000000E+00  0.39999999673E+01  0.40000000000E+01  0.51109989000E-03 0.  1.
     -623   -1    0    0    0    0  0.00000000000E+00  0.00000000000E+00  0.12525980253E-10  0.17130000000E+03  0.17130000000E+03 0.  1.
       11    1    1    2    0    0 -0.25835715585E-02 -0.62251687311E-02  0.24690538621E+00  0.24699789175E+00  0.51109989000E-03 0.  1.
     -623    1    1    2    0    0  0.46611133197E-02  0.10629237844E-01  0.30919437923E-03  0.17130000039E+03  0.17130000000E+03 0.  1.
      622    1    1    2    0    0 -0.20775417611E-02 -0.44040691124E-02  0.37527853868E+01  0.37530017148E+01  0.40000000000E-01 0.  1.
</event>
<event>
 5   0  0.6200596E+07  0.9118800E+02  0.7818608E-02  0.1180000E+00
       11   -1    0    0    0    0  0.00000000000E+00  0.00000000000E+00  0.39999999673E+01  0.40000000000E+01  0.51109989000E-03 0. -1.
     -623   -1    0    0    0    0  0.00000000000E+00  0.00000000000E+00  0.12525980253E-10  0.17130000000E+03  0.17130000000E+03 0.  1.
       11    1    1    2    0    0  0.22451850244E-02 -0.32932501126E-02  0.99818692488E+00  0.99819501330E+00  0.51109989000E-03 0. -1.
     -623    1    1    2    0    0  0.56387726371E-03  0.58939618366E-04  0.27763212699E-03  0.17130000000E+03  0.17130000000E+03 0.  1.
      622    1    1    2    0    0 -0.28090622882E-02  0.32343104942E-02  0.30015354104E+01  0.30018049855E+01  0.40000000000E-01 0. -1.
</event>
<event>
 5   0  0.6200596E+07  0.9118800E+02  0.7818608E-02  0.1180000E+00
       11   -1    0    0    0    0  0.00000000000E+00  0.00000000000E+00  0.39999999673E+01  0.40000000000E+01  0.51109989000E-03 0. -1.
     -623   -1    0    0    0    0  0.00000000000E+00  0.00000000000E+00  0.12525980253E-10  0.17130000000E+03  0.17130000000E+03 0.  1.
       11    1    1    2    0    0 -0.86103238342E-02 -0.73451837951E-02  0.27292289637E+01  0.27292524777E+01  0.51109989000E-03 0. -1.
     -623    1    1    2    0    0  0.57069771234E-02 -0.37501275342E-03  0.68006654514E-03  0.17130000010E+03  0.17130000000E+03 0.  1.
      622    1    1    2    0    0  0.29033467108E-02  0.77201965485E-02  0.12700909371E+01  0.12707474255E+01  0.40000000000E-01 0. -1.
</event>
<event>
 5   0  0.6200596E+07  0.9118800E+02  0.7818608E-02  0.1180000E+00
       11   -1    0    0    0    0  0.00000000000E+00  0.00000000000E+00  0.39999999673E+01  0.40000000000E+01  0.51109989000E-03 0. -1.
     -623   -1    0    0    0    0  0.00000000000E+00  0.00000000000E+00  0.12525980253E-10  0.17130000000E+03  0.17130000000E+03 0. -1.
       11    1    1    2    0    0 -0.92694692924E-03 -0.44959306456E-03  0.99073675982E-01  0.99080350526E-01  0.51109989000E-03 0. -1.
     -623    1    1    2    0    0  0.10491838359E-03 -0.11664821469E-03  0.21185505830E-03  0.17130000000E+03  0.17130000000E+03 0. -1.
      622    1    1    2    0    0  0.82202854565E-03  0.56624127925E-03  0.39007144363E+01  0.39009196493E+01  0.40000000000E-01 0. -1.
</event>
<event>
 5   0  0.6200596E+07  0.9118800E+02  0.7818608E-02  0.1180000E+00
       11   -1    0    0    0    0  0.00000000000E+00  0.00000000000E+00  0.39999999673E+01  0.40000000000E+01  0.51109989000E-03 0.  1.
     -623   -1    0    0    0    0  0.00000000000E+00  0.00000000000E+00  0.12525980253E-10  0.17130000000E+03  0.17130000000E+03 0. -1.
       11    1    1    2    0    0 -0.14027891982E-02  0.21114510232E-02  0.85496294511E-02  0.89321569394E-02  0.51109989000E-03 0.  1.
     -623    1    1    2    0    0 -0.47875545493E-02 -0.48807017679E-02  0.58884673909E-03  0.17130000014E+03  0.17130000000E+03 0. -1.
      622    1    1    2    0    0  0.61903437476E-02  0.27692507447E-02  0.39908614912E+01  0.39910677056E+01  0.40000000000E-01 0.  1.
</event>
<event>
 5   0  0.6200596E+07  0.9118800E+02  0.7818608E-02  0.1180000E+00
       11   -1    0    0    0    0  0.00000000000E+00  0.00000000000E+00  0.39999999673E+01  0.40000000000E+01  0.51109989000E-03 0.  1.
     -623   -1    0    0    0    0  0.00000000000E+00  0.00000000000E+00  0.12525980253E-10  0.17130000000E+03  0.17130000000E+03 0.  1.
       11    1    1    2    0    0  0.30929598201E-02 -0.36693772986E-03  0.15931306438E-01  0.16240960277E-01  0.51109989000E-03 0.  1.
     -623    1    1    2    0    0 -0.73336934770E-02  0.65629691228E-03  0.51286840341E-03  0.17130000016E+03  0.17130000000E+03 0.  1.
      622    1    1    2    0    0  0.42407336570E-02 -0.28935918242E-03  0.39835557925E+01  0.39837588807E+01  0.40000000000E-01 0.  1.
</event>
<event>
 5   0  0.6200596E+07  0.9118800E+02  0.7818608E-02  0.1180000E+00
       11   -1    0    0    0    0  0.00000000000E+00  0.00000000000E+00  0.39999999673E+01  0.40000000000E+01  0.51109989000E-03 0.  1.
     -623   -1    0    0    0    0  0.00000000000E+00  0.00000000000E+00  0.12525980253E-10  0.17130000000E+03  0.17130000000E+03 0.  1.
       11    1    1    2    0    0 -0.21010375167E-02 -0.19430166071E-02  0.20680610436E-01  0.20883930236E-01  0.51109989000E-03 0.  1.
     -623    1    1    2    0    0  0.49473792299E-04  0.45462161088E-03  0.40515029065E-03  0.17130000000E+03  0.17130000000E+03 0.  1.
      622    1    1    2    0    0  0.20515637244E-02  0.14883949962E-02  0.39789142066E+01  0.39791160687E+01  0.40000000000E-01 0.  1.
</event>
<event>
 5   0  0.6200596E+07  0.9118800E+02  0.7818608E-02  0.1180000E+00
       11   -1    0    0    0    0  0.00000000000E+00  0.00000000000E+00  0.39999999673E+01  0.40000000000E+01  0.51109989000E-03 0.  1.
     -623   -1    0    0    0    0  0.00000000000E+00  0.00000000000E+00  0.12525980253E-10  0.17130000000E+03  0.17130000000E+03 0. -1.
       11    1    1    2    0    0  0.48023971211E-02 -0.15144040407E-01  0.63867583882E+00  0.63887361293E+00  0.51109989000E-03 0.  1.
     -623    1    1    2    0    0 -0.32576829438E-03 -0.15383627037E-02  0.48015803682E-03  0.17130000001E+03  0.17130000000E+03 0. -1.
      622    1    1    2    0    0 -0.44766288267E-02  0.16682403111E-01  0.33608439705E+01  0.33611263792E+01  0.40000000000E-01 0.  1.
</event>
<event>
 5   0  0.6200596E+07  0.9118800E+02  0.7818608E-02  0.1180000E+00
       11   -1    0    0    0    0  0.00000000000E+00  0.00000000000E+00  0.39999999673E+01  0.40000000000E+01  0.51109989000E-03 0.  1.
     -623   -1    0    0    0    0  0.00000000000E+00  0.00000000000E+00  0.12525980253E-10  0.17130000000E+03  0.17130000000E+03 0.  1.
       11    1    1    2    0    0 -0.12025503498E-01  0.11798049454E-02  0.18914737186E+00  0.18953362282E+00  0.51109989000E-03 0.  1.
     -623    1    1    2    0    0 -0.26904359114E-02 -0.38806284011E-02  0.62561359569E-03  0.17130000007E+03  0.17130000000E+03 0.  1.
      622    1    1    2    0    0  0.14715939409E-01  0.27008234558E-02  0.38102269819E+01  0.38104663110E+01  0.40000000000E-01 0.  1.
</event>
<event>
 5   0  0.6200596E+07  0.9118800E+02  0.7818608E-02  0.1180000E+00
       11   -1    0    0    0    0  0.00000000000E+00  0.00000000000E+00  0.39999999673E+01  0.40000000000E+01  0.51109989000E-03 0. -1.
     -623   -1    0    0    0    0  0.00000000000E+00  0.00000000000E+00  0.12525980253E-10  0.17130000000E+03  0.17130000000E+03 0. -1.
       11    1    1    2    0    0 -0.38702414152E-03  0.16303348895E-02  0.62345584450E-01  0.62370192412E-01  0.51109989000E-03 0. -1.
     -623    1    1    2    0    0  0.28104397034E-02  0.50038126440E-03  0.22909470565E-03  0.17130000002E+03  0.17130000000E+03 0. -1.
      622    1    1    2    0    0 -0.24234155619E-02 -0.21307161539E-02  0.39374252882E+01  0.39376297836E+01  0.40000000000E-01 0. -1.
</event>
<event>
 5   0  0.6200596E+07  0.9118800E+02  0.7818608E-02  0.1180000E+00
       11   -1    0    0    0    0  0.00000000000E+00  0.00000000000E+00  0.39999999673E+01  0.40000000000E+01  0.51109989000E-03 0. -1.
     -623   -1    0    0    0    0  0.00000000000E+00  0.00000000000E+00  0.12525980253E-10  0.17130000000E+03  0.17130000000E+03 0.  1.
       11    1    1    2    0    0 -0.43341802890E-02 -0.12077869887E-01  0.65342192854E+00  0.65354811450E+00  0.51109989000E-03 0. -1.
     -623    1    1    2    0    0 -0.25986461488E-02 -0.20212159531E-02  0.40213807578E-03  0.17130000003E+03  0.17130000000E+03 0.  1.
      622    1    1    2    0    0  0.69328264378E-02  0.14099085840E-01  0.33461759007E+01  0.33464518534E+01  0.40000000000E-01 0. -1.
</event>
<event>
 5   0  0.6200596E+07  0.9118800E+02  0.7818608E-02  0.1180000E+00
       11   -1    0    0    0    0  0.00000000000E+00  0.00000000000E+00  0.39999999673E+01  0.40000000000E+01  0.51109989000E-03 0. -1.
     -623   -1    0    0    0    0  0.00000000000E+00  0.00000000000E+00  0.12525980253E-10  0.17130000000E+03  0.17130000000E+03 0.  1.
       11    1    1    2    0    0 -0.44968486147E-02  0.14823603565E-01  0.56309196636E+00  0.56330523224E+00  0.51109989000E-03 0. -1.
     -623    1    1    2    0    0 -0.32523937323E-03 -0.13146113614E-02  0.47596471589E-03  0.17130000001E+03  0.17130000000E+03 0.  1.
      622    1    1    2    0    0  0.48220879879E-02 -0.13508992204E-01  0.34364320363E+01  0.34366947617E+01  0.40000000000E-01 0.  0.
</event>
<event>
 5   0  0.6200596E+07  0.9118800E+02  0.7818608E-02  0.1180000E+00
       11   -1    0    0    0    0  0.00000000000E+00  0.00000000000E+00  0.39999999673E+01  0.40000000000E+01  0.51109989000E-03 0.  1.
     -623   -1    0    0    0    0  0.00000000000E+00  0.00000000000E+00  0.12525980253E-10  0.17130000000E+03  0.17130000000E+03 0.  1.
       11    1    1    2    0    0  0.29647223569E-02  0.23008303072E-01  0.10148724454E+01  0.10151376820E+01  0.51109989000E-03 0.  1.
     -623    1    1    2    0    0 -0.28256055254E-02 -0.78137040649E-02  0.57211887863E-03  0.17130000020E+03  0.17130000000E+03 0.  1.
      622    1    1    2    0    0 -0.13911683152E-03 -0.15194599007E-01  0.29845554030E+01  0.29848621156E+01  0.40000000000E-01 0.  1.
</event>
<event>
 5   0  0.6200596E+07  0.9118800E+02  0.7818608E-02  0.1180000E+00
       11   -1    0    0    0    0  0.00000000000E+00  0.00000000000E+00  0.39999999673E+01  0.40000000000E+01  0.51109989000E-03 0. -1.
     -623   -1    0    0    0    0  0.00000000000E+00  0.00000000000E+00  0.12525980253E-10  0.17130000000E+03  0.17130000000E+03 0.  1.
       11    1    1    2    0    0  0.15850939296E-03  0.15116136378E-02  0.19031828823E-02  0.24886595486E-02  0.51109989000E-03 0. -1.
     -623    1    1    2    0    0 -0.73857032993E-03 -0.26705592217E-02  0.78580785321E-03  0.17130000002E+03  0.17130000000E+03 0.  1.
      622    1    1    2    0    0  0.58006093697E-03  0.11589455838E-02  0.39973109766E+01  0.39975113162E+01  0.40000000000E-01 0. -1.
</event>
<event>
 5   0  0.6200596E+07  0.9118800E+02  0.7818608E-02  0.1180000E+00
       11   -1    0    0    0    0  0.00000000000E+00  0.00000000000E+00  0.39999999673E+01  0.40000000000E+01  0.51109989000E-03 0.  1.
     -623   -1    0    0    0    0  0.00000000000E+00  0.00000000000E+00  0.12525980253E-10  0.17130000000E+03  0.17130000000E+03 0.  1.
       11    1    1    2    0    0 -0.25190498002E-02 -0.41002883545E-02  0.10965523260E+00  0.10976196625E+00  0.51109989000E-03 0.  1.
     -623    1    1    2    0    0  0.27958827087E-03  0.95744343694E-04  0.31505576283E-03  0.17130000000E+03  0.17130000000E+03 0.  1.
      622    1    1    2    0    0  0.22394615293E-02  0.40045440108E-02  0.38900296790E+01  0.38902380332E+01  0.40000000000E-01 0.  1.
</event>
<event>
 5   0  0.6200596E+07  0.9118800E+02  0.7818608E-02  0.1180000E+00
       11   -1    0    0    0    0  0.00000000000E+00  0.00000000000E+00  0.39999999673E+01  0.40000000000E+01  0.51109989000E-03 0. -1.
     -623   -1    0    0    0    0  0.00000000000E+00  0.00000000000E+00  0.12525980253E-10  0.17130000000E+03  0.17130000000E+03 0. -1.
       11    1    1    2    0    0  0.22889415751E-02 -0.35765995018E-02  0.51276386944E-02  0.66772162755E-02  0.51109989000E-03 0. -1.
     -623    1    1    2    0    0 -0.30903047928E-02 -0.62406324777E-03  0.17522122675E-02  0.17130000004E+03  0.17130000000E+03 0. -1.
      622    1    1    2    0    0  0.80136321772E-03  0.42006627496E-02  0.39931201164E+01  0.39933227458E+01  0.40000000000E-01 0. -1.
</event>
<event>
 5   0  0.6200596E+07  0.9118800E+02  0.7818608E-02  0.1180000E+00
       11   -1    0    0    0    0  0.00000000000E+00  0.00000000000E+00  0.39999999673E+01  0.40000000000E+01  0.51109989000E-03 0.  1.
     -623   -1    0    0    0    0  0.00000000000E+00  0.00000000000E+00  0.12525980253E-10  0.17130000000E+03  0.17130000000E+03 0.  1.
       11    1    1    2    0    0  0.46061278212E-02 -0.25473488952E-02  0.69391419416E+00  0.69393434522E+00  0.51109989000E-03 0.  1.
     -623    1    1    2    0    0  0.24397076771E-02 -0.14520354557E-02  0.27205826801E-03  0.17130000002E+03  0.17130000000E+03 0.  1.
      622    1    1    2    0    0 -0.70458354983E-02  0.39993843509E-02  0.33058137149E+01  0.33060656310E+01  0.40000000000E-01 0.  0.
</event>
<event>
 5   0  0.6200596E+07  0.9118800E+02  0.7818608E-02  0.1180000E+00
       11   -1    0    0    0    0  0.00000000000E+00  0.00000000000E+00  0.39999999673E+01  0.40000000000E+01  0.51109989000E-03 0. -1.
     -623   -1    0    0    0    0  0.00000000000E+00  0.00000000000E+00  0.12525980253E-10  0.17130000000E+03  0.17130000000E+03 0.  1.
       11    1    1    2    0    0  0.77059735078E-02  0.55831880973E-02  0.70461562460E+00  0.70468006476E+00  0.51109989000E-03 0. -1.
     -623    1    1    2    0    0  0.74055846830E-03 -0.33570203741E-03  0.32219146855E-03  0.17130000000E+03  0.17130000000E+03 0.  1.
      622    1    1    2    0    0 -0.84465319761E-02 -0.52474860599E-02  0.32950621513E+01  0.32953199330E+01  0.40000000000E-01 0. -1.
</event>
<event>
 5   0  0.6200596E+07  0.9118800E+02  0.7818608E-02  0.1180000E+00
       11   -1    0    0    0    0  0.00000000000E+00  0.00000000000E+00  0.39999999673E+01  0.40000000000E+01  0.51109989000E-03 0.  1.
     -623   -1    0    0    0    0  0.00000000000E+00  0.00000000000E+00  0.12525980253E-10  0.17130000000E+03  0.17130000000E+03 0. -1.
       11    1    1    2    0    0 -0.42986335753E-02  0.74250588267E-04  0.80709219346E+00  0.80710380604E+00  0.51109989000E-03 0.  1.
     -623    1    1    2    0    0  0.18143530518E-02  0.28373157309E-02  0.26447346693E-03  0.17130000003E+03  0.17130000000E+03 0. -1.
      622    1    1    2    0    0  0.24842805235E-02 -0.29115663192E-02  0.31926433004E+01  0.31928961606E+01  0.40000000000E-01 0.  1.
</event>
<event>
 5   0  0.6200596E+07  0.9118800E+02  0.7818608E-02  0.1180000E+00
       11   -1    0    0    0    0  0.00000000000E+00  0.00000000000E+00  0.39999999673E+01  0.40000000000E+01  0.51109989000E-03 0.  1.
     -623   -1    0    0    0    0  0.00000000000E+00  0.00000000000E+00  0.12525980253E-10  0.17130000000E+03  0.17130000000E+03 0.  1.
       11    1    1    2    0    0  0.11701680929E-02 -0.24863014751E-02  0.47035672462E-01  0.47118644872E-01  0.51109989000E-03 0.  1.
     -623    1    1    2    0    0 -0.29689558972E-02 -0.13741757021E-02  0.28765496006E-03  0.17130000003E+03  0.17130000000E+03 0.  1.
      622    1    1    2    0    0  0.17987878043E-02  0.38604771772E-02  0.39526766399E+01  0.39528813236E+01  0.40000000000E-01 0.  1.
</event>
<event>
 5   0  0.6200596E+07  0.9118800E+02  0.7818608E-02  0.1180000E+00
       11   -1    0    0    0    0  0.00000000000E+00  0.00000000000E+00  0.39999999673E+01  0.40000000000E+01  0.51109989000E-03 0.  1.
     -623   -1    0    0    0    0  0.00000000000E+00  0.00000000000E+00  0.12525980253E-10  0.17130000000E+03  0.17130000000E+03 0. -1.
       11    1    1    2    0    0 -0.50558615832E-03 -0.75319578917E-03  0.24210476114E-01  0.24232855694E-01  0.51109989000E-03 0.  1.
     -623    1    1    2    0    0 -0.98018783733E-03 -0.38826878427E-03  0.22401595619E-03  0.17130000000E+03  0.17130000000E+03 0. -1.
      622    1    1    2    0    0  0.14857739956E-02  0.11414645734E-02  0.39755654753E+01  0.39757671409E+01  0.40000000000E-01 0.  1.
</event>
<event>
 5   0  0.6200596E+07  0.9118800E+02  0.7818608E-02  0.1180000E+00
       11   -1    0    0    0    0  0.00000000000E+00  0.00000000000E+00  0.39999999673E+01  0.40000000000E+01  0.51109989000E-03 0.  1.
     -623   -1    0    0    0    0  0.00000000000E+00  0.00000000000E+00  0.12525980253E-10  0.17130000000E+03  0.17130000000E+03 0. -1.
       11    1    1    2    0    0  0.17594109477E-01 -0.80007234703E-02  0.95553693627E+00  0.95573252643E+00  0.51109989000E-03 0.  1.
     -623    1    1    2    0    0  0.14555143024E-02  0.18016432221E-02  0.52429423905E-03  0.17130000002E+03  0.17130000000E+03 0. -1.
      622    1    1    2    0    0 -0.19049623779E-01  0.61990802482E-02  0.30439387368E+01  0.30442674571E+01  0.40000000000E-01 0.  0.
</event>
<event>
 5   0  0.6200596E+07  0.9118800E+02  0.7818608E-02  0.1180000E+00
       11   -1    0    0    0    0  0.00000000000E+00  0.00000000000E+00  0.39999999673E+01  0.40000000000E+01  0.51109989000E-03 0.  1.
     -623   -1    0    0    0    0  0.00000000000E+00  0.00000000000E+00  0.12525980253E-10  0.17130000000E+03  0.17130000000E+03 0. -1.
       11    1    1    2    0    0 -0.11233902791E-01  0.11799750137E+00  0.12387999130E+01  0.12444577520E+01  0.51109989000E-03 0.  1.
     -623    1    1    2    0    0  0.70473141836E-02 -0.62394468696E-01  0.65240755907E-02  0.17130001163E+03  0.17130000000E+03 0. -1.
      622    1    1    2    0    0  0.41865886074E-02 -0.55603032678E-01  0.27546759788E+01  0.27555306155E+01  0.40000000000E-01 0.  1.
</event>
<event>
 5   0  0.6200596E+07  0.9118800E+02  0.7818608E-02  0.1180000E+00
       11   -1    0    0    0    0  0.00000000000E+00  0.00000000000E+00  0.39999999673E+01  0.40000000000E+01  0.51109989000E-03 0. -1.
     -623   -1    0    0    0    0  0.00000000000E+00  0.00000000000E+00  0.12525980253E-10  0.17130000000E+03  0.17130000000E+03 0.  1.
       11    1    1    2    0    0  0.38487804560E-02  0.68440909522E-02  0.19038552838E+00  0.19054806567E+00  0.51109989000E-03 0. -1.
     -623    1    1    2    0    0  0.60256648147E-02 -0.59381629993E-02  0.38562993302E-03  0.17130000021E+03  0.17130000000E+03 0.  1.
      622    1    1    2    0    0 -0.98744452707E-02 -0.90592795287E-03  0.38092288090E+01  0.38094517250E+01  0.40000000000E-01 0. -1.
</event>
<event>
 5   0  0.6200596E+07  0.9118800E+02  0.7818608E-02  0.1180000E+00
       11   -1    0    0    0    0  0.00000000000E+00  0.00000000000E+00  0.39999999673E+01  0.40000000000E+01  0.51109989000E-03 0. -1.
     -623   -1    0    0    0    0  0.00000000000E+00  0.00000000000E+00  0.12525980253E-10  0.17130000000E+03  0.17130000000E+03 0. -1.
       11    1    1    2    0    0 -0.27154481007E-01  0.27695630935E-01  0.27648463574E+01  0.27651184523E+01  0.51109989000E-03 0. -1.
     -623    1    1    2    0    0  0.22421021889E-01 -0.16193172955E-01  0.98498147277E-03  0.17130000224E+03  0.17130000000E+03 0. -1.
      622    1    1    2    0    0  0.47334591179E-02 -0.11502457980E-01  0.12341686285E+01  0.12348793122E+01  0.40000000000E-01 0.  0.
</event>
<event>
 5   0  0.6200596E+07  0.9118800E+02  0.7818608E-02  0.1180000E+00
       11   -1    0    0    0    0  0.00000000000E+00  0.00000000000E+00  0.39999999673E+01  0.40000000000E+01  0.51109989000E-03 0. -1.
     -623   -1    0    0    0    0  0.00000000000E+00  0.00000000000E+00  0.12525980253E-10  0.17130000000E+03  0.17130000000E+03 0.  1.
       11    1    1    2    0    0  0.22824636485E-02 -0.16474358085E-02  0.10171133778E+00  0.10175156579E+00  0.51109989000E-03 0. -1.
     -623    1    1    2    0    0 -0.99545941387E-03 -0.11304320301E-02  0.24663020632E-03  0.17130000001E+03  0.17130000000E+03 0.  1.
      622    1    1    2    0    0 -0.12870042346E-02  0.27778678386E-02  0.38980419994E+01  0.38982484274E+01  0.40000000000E-01 0. -1.
</event>
<event>
 5   0  0.6200596E+07  0.9118800E+02  0.7818608E-02  0.1180000E+00
       11   -1    0    0    0    0  0.00000000000E+00  0.00000000000E+00  0.39999999673E+01  0.40000000000E+01  0.51109989000E-03 0. -1.
     -623   -1    0    0    0    0  0.00000000000E+00  0.00000000000E+00  0.12525980253E-10  0.17130000000E+03  0.17130000000E+03 0. -1.
       11    1    1    2    0    0 -0.85681978367E-01  0.16768811426E-01  0.26632941365E+01  0.26647248476E+01  0.51109989000E-03 0. -1.
     -623    1    1    2    0    0  0.25518975853E-01 -0.51326984844E-01  0.38441907365E-02  0.17130000963E+03  0.17130000000E+03 0. -1.
      622    1    1    2    0    0  0.60163002514E-01  0.34558173418E-01  0.13328616401E+01  0.13352655189E+01  0.40000000000E-01 0.  1.
</event>
<event>
 5   0  0.6200596E+07  0.9118800E+02  0.7818608E-02  0.1180000E+00
       11   -1    0    0    0    0  0.00000000000E+00  0.00000000000E+00  0.39999999673E+01  0.40000000000E+01  0.51109989000E-03 0. -1.
     -623   -1    0    0    0    0  0.00000000000E+00  0.00000000000E+00  0.12525980253E-10  0.17130000000E+03  0.17130000000E+03 0. -1.
       11    1    1    2    0    0 -0.19276189351E-02  0.24672618948E-02  0.43137078070E+00  0.43138244605E+00  0.51109989000E-03 0. -1.
     -623    1    1    2    0    0  0.47979213837E-03  0.11463815133E-02  0.23794432051E-03  0.17130000000E+03  0.17130000000E+03 0. -1.
      622    1    1    2    0    0  0.14478267967E-02 -0.36136434080E-02  0.35683912423E+01  0.35686175493E+01  0.40000000000E-01 0. -1.
</event>
<event>
 5   0  0.6200596E+07  0.9118800E+02  0.7818608E-02  0.1180000E+00
       11   -1    0    0    0    0  0.00000000000E+00  0.00000000000E+00  0.39999999673E+01  0.40000000000E+01  0.51109989000E-03 0.  1.
     -623   -1    0    0    0    0  0.00000000000E+00  0.00000000000E+00  0.12525980253E-10  0.17130000000E+03  0.17130000000E+03 0. -1.
       11    1    1    2    0    0 -0.18266340533E-02 -0.65448990455E-03  0.58728838108E+00  0.58729180883E+00  0.51109989000E-03 0.  1.
     -623    1    1    2    0    0 -0.16631038867E-03  0.76483775467E-03  0.23840679251E-03  0.17130000000E+03  0.17130000000E+03 0. -1.
      622    1    1    2    0    0  0.19929444420E-02 -0.11034785013E-03  0.34124731795E+01  0.34127081892E+01  0.40000000000E-01 0.  1.
</event>
<event>
 5   0  0.6200596E+07  0.9118800E+02  0.7818608E-02  0.1180000E+00
       11   -1    0    0    0    0  0.00000000000E+00  0.00000000000E+00  0.39999999673E+01  0.40000000000E+01  0.51109989000E-03 0.  1.
     -623   -1    0    0    0    0  0.00000000000E+00  0.00000000000E+00  0.12525980253E-10  0.17130000000E+03  0.17130000000E+03 0. -1.
       11    1    1    2    0    0  0.44909346670E-02  0.30727315501E-02  0.33300371646E+01  0.33300416497E+01  0.51109989000E-03 0.  1.
     -623    1    1    2    0    0  0.38276847015E-03 -0.10350534291E-02  0.12204941099E-02  0.17130000001E+03  0.17130000000E+03 0. -1.
      622    1    1    2    0    0 -0.48737031371E-02 -0.20376781210E-02  0.66874230867E+00  0.66995834238E+00  0.40000000000E-01 0.  1.
</event>
<event>
 5   0  0.6200596E+07  0.9118800E+02  0.7818608E-02  0.1180000E+00
       11   -1    0    0    0    0  0.00000000000E+00  0.00000000000E+00  0.39999999673E+01  0.40000000000E+01  0.51109989000E-03 0. -1.
     -623   -1    0    0    0    0  0.00000000000E+00  0.00000000000E+00  0.12525980253E-10  0.17130000000E+03  0.17130000000E+03 0.  1.
       11    1    1    2    0    0  0.98869039521E-02 -0.10466527931E-02  0.81237436501E-01  0.81845150513E-01  0.51109989000E-03 0. -1.
     -623    1    1    2    0    0  0.52412482727E-02  0.44279511310E-02  0.84266984338E-03  0.17130000014E+03  0.17130000000E+03 0.  1.
      622    1    1    2    0    0 -0.15128152225E-01 -0.33812983379E-02  0.39179198610E+01  0.39181547100E+01  0.40000000000E-01 0. -1.
</event>
<event>
 5   0  0.6200596E+07  0.9118800E+02  0.7818608E-02  0.1180000E+00
       11   -1    0    0    0    0  0.00000000000E+00  0.00000000000E+00  0.39999999673E+01  0.40000000000E+01  0.51109989000E-03 0. -1.
     -623   -1    0    0    0    0  0.00000000000E+00  0.00000000000E+00  0.12525980253E-10  0.17130000000E+03  0.17130000000E+03 0. -1.
       11    1    1    2    0    0  0.45759810121E-01  0.25214442017E-01  0.19938205445E+01  0.19945050397E+01  0.51109989000E-03 0. -1.
     -623    1    1    2    0    0 -0.10930608547E-01  0.22480684752E-02  0.15744028530E-02  0.17130000037E+03  0.17130000000E+03 0. -1.
      622    1    1    2    0    0 -0.34829201574E-01 -0.27462510493E-01  0.20046050200E+01  0.20054945896E+01  0.40000000000E-01 0. -1.
</event>
<event>
 5   0  0.6200596E+07  0.9118800E+02  0.7818608E-02  0.1180000E+00
       11   -1    0    0    0    0  0.00000000000E+00  0.00000000000E+00  0.39999999673E+01  0.40000000000E+01  0.51109989000E-03 0. -1.
     -623   -1    0    0    0    0  0.00000000000E+00  0.00000000000E+00  0.12525980253E-10  0.17130000000E+03  0.17130000000E+03 0. -1.
       11    1    1    2    0    0 -0.69018125667E-01  0.75216013736E-01  0.17120735712E+01  0.17151143183E+01  0.51109989000E-03 0. -1.
     -623    1    1    2    0    0 -0.22883739946E-02 -0.11683690450E-01  0.53884824534E-02  0.17130000050E+03  0.17130000000E+03 0. -1.
      622    1    1    2    0    0  0.71306499662E-01 -0.63532323286E-01  0.22825379137E+01  0.22848851832E+01  0.40000000000E-01 0.  1.
</event>
<event>
 5   0  0.6200596E+07  0.9118800E+02  0.7818608E-02  0.1180000E+00
       11   -1    0    0    0    0  0.00000000000E+00  0.00000000000E+00  0.39999999673E+01  0.40000000000E+01  0.51109989000E-03 0.  1.
     -623   -1    0    0    0    0  0.00000000000E+00  0.00000000000E+00  0.12525980253E-10  0.17130000000E+03  0.17130000000E+03 0. -1.
       11    1    1    2    0    0  0.85460557842E-02  0.61724683150E-02  0.54757532416E+00  0.54767703191E+00  0.51109989000E-03 0.  1.
     -623    1    1    2    0    0  0.53232884183E-05  0.20816694975E-01  0.45077342782E-03  0.17130000127E+03  0.17130000000E+03 0. -1.
      622    1    1    2    0    0 -0.85513790726E-02 -0.26989163290E-01  0.34519738698E+01  0.34523217027E+01  0.40000000000E-01 0.  0.
</event>
<event>
 5   0  0.6200596E+07  0.9118800E+02  0.7818608E-02  0.1180000E+00
       11   -1    0    0    0    0  0.00000000000E+00  0.00000000000E+00  0.39999999673E+01  0.40000000000E+01  0.51109989000E-03 0.  1.
     -623   -1    0    0    0    0  0.00000000000E+00  0.00000000000E+00  0.12525980253E-10  0.17130000000E+03  0.17130000000E+03 0.  1.
       11    1    1    2    0    0 -0.36258385352E-02  0.54748833756E-03  0.14074438147E-01  0.14553263555E-01  0.51109989000E-03 0.  1.
     -623    1    1    2    0    0  0.16415483237E-02  0.89072626077E-03  0.68029318870E-03  0.17130000001E+03  0.17130000000E+03 0.  1.
      622    1    1    2    0    0  0.19842902115E-02 -0.14382145983E-02  0.39852452360E+01  0.39854467249E+01  0.40000000000E-01 0.  1.
</event>
<event>
 5   0  0.6200596E+07  0.9118800E+02  0.7818608E-02  0.1180000E+00
       11   -1    0    0    0    0  0.00000000000E+00  0.00000000000E+00  0.39999999673E+01  0.40000000000E+01  0.51109989000E-03 0. -1.
     -623   -1    0    0    0    0  0.00000000000E+00  0.00000000000E+00  0.12525980253E-10  0.17130000000E+03  0.17130000000E+03 0. -1.
       11    1    1    2    0    0  0.24875840213E-01  0.11046303078E-01  0.16589931208E+00  0.16811802762E+00  0.51109989000E-03 0. -1.
     -623    1    1    2    0    0  0.18146439957E-02 -0.14120824048E-02  0.25325704841E-02  0.17130000003E+03  0.17130000000E+03 0. -1.
      622    1    1    2    0    0 -0.26690484208E-01 -0.96342206731E-02  0.38315680848E+01  0.38318819382E+01  0.40000000000E-01 0. -1.
</event>
<event>
 5   0  0.6200596E+07  0.9118800E+02  0.7818608E-02  0.1180000E+00
       11   -1    0    0    0    0  0.00000000000E+00  0.00000000000E+00  0.39999999673E+01  0.40000000000E+01  0.51109989000E-03 0. -1.
     -623   -1    0    0    0    0  0.00000000000E+00  0.00000000000E+00  0.12525980253E-10  0.17130000000E+03  0.17130000000E+03 0. -1.
       11    1    1    2    0    0  0.10087764477E-02  0.33423098197E-02  0.12400536811E+01  0.12400587010E+01  0.51109989000E-03 0. -1.
     -623    1    1    2    0    0 -0.67933365860E-02  0.78083206116E-02  0.32376701427E-03  0.17130000031E+03  0.17130000000E+03 0. -1.
      622    1    1    2    0    0  0.57845601384E-02 -0.11150630431E-01  0.27596225192E+01  0.27599409860E+01  0.40000000000E-01 0. -1.
</event>
<event>
 5   0  0.6200596E+07  0.9118800E+02  0.7818608E-02  0.1180000E+00
       11   -1    0    0    0    0  0.00000000000E+00  0.00000000000E+00  0.39999999673E+01  0.40000000000E+01  0.51109989000E-03 0.  1.
     -623   -1    0    0    0    0  0.00000000000E+00  0.00000000000E+00  0.12525980253E-10  0.17130000000E+03  0.17130000000E+03 0. -1.
       11    1    1    2    0    0  0.16800213662E-01  0.24377845888E-01  0.18170169257E+01  0.18172581809E+01  0.51109989000E-03 0.  1.
     -623    1    1    2    0    0 -0.79884309236E-03  0.32247211849E-02  0.84103124310E-03  0.17130000003E+03  0.17130000000E+03 0. -1.
      622    1    1    2    0    0 -0.16001370569E-01 -0.27602567072E-01  0.21821420104E+01  0.21827417848E+01  0.40000000000E-01 0.  0.
</event>
<event>
 5   0  0.6200596E+07  0.9118800E+02  0.7818608E-02  0.1180000E+00
       11   -1    0    0    0    0  0.00000000000E+00  0.00000000000E+00  0.39999999673E+01  0.40000000000E+01  0.51109989000E-03 0.  1.
     -623   -1    0    0    0    0  0.00000000000E+00  0.00000000000E+00  0.12525980253E-10  0.17130000000E+03  0.17130000000E+03 0. -1.
       11    1    1    2    0    0  0.16527144137E-03 -0.37789253125E-02  0.84472339505E-01  0.84558529749E-01  0.51109989000E-03 0.  1.
     -623    1    1    2    0    0 -0.10144218384E-02  0.19250526440E-02  0.29102722590E-03  0.17130000001E+03  0.17130000000E+03 0. -1.
      622    1    1    2    0    0  0.84915039698E-03  0.18538726685E-02  0.39152366006E+01  0.39154414562E+01  0.40000000000E-01 0.  1.
</event>
<event>
 5   0  0.6200596E+07  0.9118800E+02  0.7818608E-02  0.1180000E+00
       11   -1    0    0    0    0  0.00000000000E+00  0.00000000000E+00  0.39999999673E+01  0.40000000000E+01  0.51109989000E-03 0. -1.
     -623   -1    0    0    0    0  0.00000000000E+00  0.00000000000E+00  0.12525980253E-10  0.17130000000E+03  0.17130000000E+03 0. -1.
       11    1    1    2    0    0 -0.73180233857E-03 -0.59099544945E-02  0.33947523230E+00  0.33952784519E+00  0.51109989000E-03 0. -1.
     -623    1    1    2    0    0 -0.37025552672E-03  0.13771597394E-02  0.27411655384E-03  0.17130000001E+03  0.17130000000E+03 0. -1.
      622    1    1    2    0    0  0.11020578653E-02  0.45327947551E-02  0.36602506185E+01  0.36604721487E+01  0.40000000000E-01 0.  0.
</event>
<event>
 5   0  0.6200596E+07  0.9118800E+02  0.7818608E-02  0.1180000E+00
       11   -1    0    0    0    0  0.00000000000E+00  0.00000000000E+00  0.39999999673E+01  0.40000000000E+01  0.51109989000E-03 0. -1.
     -623   -1    0    0    0    0  0.00000000000E+00  0.00000000000E+00  0.12525980253E-10  0.17130000000E+03  0.17130000000E+03 0.  1.
       11    1    1    2    0    0  0.49272785572E-02  0.35419638463E-02  0.76243840191E+00  0.76246272139E+00  0.51109989000E-03 0. -1.
     -623    1    1    2    0    0  0.39655889569E-03  0.22608479224E-02  0.28099165783E-03  0.17130000002E+03  0.17130000000E+03 0.  1.
      622    1    1    2    0    0 -0.53238374529E-02 -0.58028117688E-02  0.32372805738E+01  0.32375372630E+01  0.40000000000E-01 0. -1.
</event>
<event>
 5   0  0.6200596E+07  0.9118800E+02  0.7818608E-02  0.1180000E+00
       11   -1    0    0    0    0  0.00000000000E+00  0.00000000000E+00  0.39999999673E+01  0.40000000000E+01  0.51109989000E-03 0. -1.
     -623   -1    0    0    0    0  0.00000000000E+00  0.00000000000E+00  0.12525980253E-10  0.17130000000E+03  0.17130000000E+03 0. -1.
       11    1    1    2    0    0  0.71682384226E-01  0.54676001713E-01  0.17148966898E+01  0.17172649031E+01  0.51109989000E-03 0. -1.
     -623    1    1    2    0    0  0.55445605930E-02 -0.14930845122E-01  0.43726470148E-02  0.17130000080E+03  0.17130000000E+03 0. -1.
      622    1    1    2    0    0 -0.77226944819E-01 -0.39745156591E-01  0.22807306305E+01  0.22827343007E+01  0.40000000000E-01 0. -1.
</event>
<event>
 5   0  0.6200596E+07  0.9118800E+02  0.7818608E-02  0.1180000E+00
       11   -1    0    0    0    0  0.00000000000E+00  0.00000000000E+00  0.39999999673E+01  0.40000000000E+01  0.51109989000E-03 0.  1.
     -623   -1    0    0    0    0  0.00000000000E+00  0.00000000000E+00  0.12525980253E-10  0.17130000000E+03  0.17130000000E+03 0. -1.
       11    1    1    2    0    0 -0.27150799456E-03  0.34023450444E-02  0.12420843699E-01  0.12891402061E-01  0.51109989000E-03 0.  1.
     -623    1    1    2    0    0 -0.88437557153E-03 -0.43126074198E-02  0.67150678277E-03  0.17130000006E+03  0.17130000000E+03 0. -1.
      622    1    1    2    0    0  0.11558835661E-02  0.91026237538E-03  0.39869076169E+01  0.39871085401E+01  0.40000000000E-01 0.  1.
</event>
<event>
 5   0  0.6200596E+07  0.9118800E+02  0.7818608E-02  0.1180000E+00
       11   -1    0    0    0    0  0.00000000000E+00  0.00000000000E+00  0.39999999673E+01  0.40000000000E+01  0.51109989000E-03 0.  1.
     -623   -1    0    0    0    0  0.00000000000E+00  0.00000000000E+00  0.12525980253E-10  0.17130000000E+03  0.17130000000E+03 0. -1.
       11    1    1    2    0    0 -0.16564305680E-02  0.29010374422E-02  0.24759926081E+00  0.24762232322E+00  0.51109989000E-03 0.  1.
     -623    1    1    2    0    0  0.72531978879E-02 -0.99890832002E-02  0.24754796146E-03  0.17130000044E+03  0.17130000000E+03 0. -1.
      622    1    1    2    0    0 -0.55967673199E-02  0.70880457580E-02  0.37521531586E+01  0.37523772318E+01  0.40000000000E-01 0.  1.
</event>
<event>
 5   0  0.6200596E+07  0.9118800E+02  0.7818608E-02  0.1180000E+00
       11   -1    0    0    0    0  0.00000000000E+00  0.00000000000E+00  0.39999999673E+01  0.40000000000E+01  0.51109989000E-03 0.  1.
     -623   -1    0    0    0    0  0.00000000000E+00  0.00000000000E+00  0.12525980253E-10  0.17130000000E+03  0.17130000000E+03 0. -1.
       11    1    1    2    0    0 -0.37349448071E-02  0.34324937439E-02  0.30233243720E-01  0.30660105574E-01  0.51109989000E-03 0.  1.
     -623    1    1    2    0    0  0.23641227082E-02 -0.16832127080E-03  0.62997566271E-03  0.17130000002E+03  0.17130000000E+03 0. -1.
      622    1    1    2    0    0  0.13708220988E-02 -0.32641724731E-02  0.39691367480E+01  0.39693398769E+01  0.40000000000E-01 0.  1.
</event>
<event>
 5   0  0.6200596E+07  0.9118800E+02  0.7818608E-02  0.1180000E+00
       11   -1    0    0    0    0  0.00000000000E+00  0.00000000000E+00  0.39999999673E+01  0.40000000000E+01  0.51109989000E-03 0. -1.
     -623   -1    0    0    0    0  0.00000000000E+00  0.00000000000E+00  0.12525980253E-10  0.17130000000E+03  0.17130000000E+03 0. -1.
       11    1    1    2    0    0  0.77080764922E-02  0.20750772131E-02  0.84889795973E-01  0.85265814189E-01  0.51109989000E-03 0. -1.
     -623    1    1    2    0    0 -0.10910075590E-02 -0.32215537053E-02  0.58614242500E-03  0.17130000003E+03  0.17130000000E+03 0. -1.
      622    1    1    2    0    0 -0.66170689331E-02  0.11464764922E-02  0.39145240290E+01  0.39147341510E+01  0.40000000000E-01 0. -1.
</event>
<event>
 5   0  0.6200596E+07  0.9118800E+02  0.7818608E-02  0.1180000E+00
       11   -1    0    0    0    0  0.00000000000E+00  0.00000000000E+00  0.39999999673E+01  0.40000000000E+01  0.51109989000E-03 0.  1.
     -623   -1    0    0    0    0  0.00000000000E+00  0.00000000000E+00  0.12525980253E-10  0.17130000000E+03  0.17130000000E+03 0. -1.
       11    1    1    2    0    0  0.35947038364E-01  0.51697264391E-01  0.87162796103E+00  0.87389951389E+00  0.51109989000E-03 0.  1.
     -623    1    1    2    0    0 -0.19255210272E-01 -0.64121972650E-01  0.26098058035E-02  0.17130001310E+03  0.17130000000E+03 0. -1.
      622    1    1    2    0    0 -0.16691828093E-01  0.12424708259E-01  0.31257622005E+01  0.31260873828E+01  0.40000000000E-01 0.  1.
</event>
<event>
 5   0  0.6200596E+07  0.9118800E+02  0.7818608E-02  0.1180000E+00
       11   -1    0    0    0    0  0.00000000000E+00  0.00000000000E+00  0.39999999673E+01  0.40000000000E+01  0.51109989000E-03 0.  1.
     -623   -1    0    0    0    0  0.00000000000E+00  0.00000000000E+00  0.12525980253E-10  0.17130000000E+03  0.17130000000E+03 0.  1.
       11    1    1    2    0    0 -0.41781791581E-03  0.72301469487E-02  0.23202061403E+00  0.23213417705E+00  0.51109989000E-03 0.  1.
     -623    1    1    2    0    0 -0.15666034437E-02  0.75585270882E-03  0.33485355937E-03  0.17130000001E+03  0.17130000000E+03 0.  1.
      622    1    1    2    0    0  0.19844213595E-02 -0.79859996576E-02  0.37676444998E+01  0.37678658138E+01  0.40000000000E-01 0.  1.
</event>
<event>
 5   0  0.6200596E+07  0.9118800E+02  0.7818608E-02  0.1180000E+00
       11   -1    0    0    0    0  0.00000000000E+00  0.00000000000E+00  0.39999999673E+01  0.40000000000E+01  0.51109989000E-03 0. -1.
     -623   -1    0    0    0    0  0.00000000000E+00  0.00000000000E+00  0.12525980253E-10  0.17130000000E+03  0.17130000000E+03 0.  1.
       11    1    1    2    0    0  0.15228298381E-01  0.16137676345E-01  0.73526728176E+00  0.73560217680E+00  0.51109989000E-03 0. -1.
     -623    1    1    2    0    0 -0.73103272001E-02 -0.10597947073E-02  0.62452806695E-03  0.17130000016E+03  0.17130000000E+03 0.  1.
      622    1    1    2    0    0 -0.79179711804E-02 -0.15077881638E-01  0.32641081575E+01  0.32643976628E+01  0.40000000000E-01 0. -1.
</event>
<event>
 5   0  0.6200596E+07  0.9118800E+02  0.7818608E-02  0.1180000E+00
       11   -1    0    0    0    0  0.00000000000E+00  0.00000000000E+00  0.39999999673E+01  0.40000000000E+01  0.51109989000E-03 0. -1.
     -623   -1    0    0    0    0  0.00000000000E+00  0.00000000000E+00  0.12525980253E-10  0.17130000000E+03  0.17130000000E+03 0. -1.
       11    1    1    2    0    0 -0.93355408181E-02 -0.15010672596E-01  0.52036927170E+00  0.52066967721E+00  0.51109989000E-03 0. -1.
     -623    1    1    2    0    0  0.16842842031E-02 -0.18261885352E-02  0.57948285975E-03  0.17130000002E+03  0.17130000000E+03 0. -1.
      622    1    1    2    0    0  0.76512566150E-02  0.16836861131E-01  0.34790512128E+01  0.34793303038E+01  0.40000000000E-01 0. -1.
</event>
<event>
 5   0  0.6200596E+07  0.9118800E+02  0.7818608E-02  0.1180000E+00
       11   -1    0    0    0    0  0.00000000000E+00  0.00000000000E+00  0.39999999673E+01  0.40000000000E+01  0.51109989000E-03 0. -1.
     -623   -1    0    0    0    0  0.00000000000E+00  0.00000000000E+00  0.12525980253E-10  0.17130000000E+03  0.17130000000E+03 0. -1.
       11    1    1    2    0    0 -0.18983266610E-02 -0.21784697854E-02  0.14135213220E+00  0.14138258689E+00  0.51109989000E-03 0. -1.
     -623    1    1    2    0    0  0.50030987006E-03 -0.50815914843E-03  0.23894603753E-03  0.17130000000E+03  0.17130000000E+03 0. -1.
      622    1    1    2    0    0  0.13980167910E-02  0.26866289339E-02  0.38584088891E+01  0.38586174115E+01  0.40000000000E-01 0. -1.
</event>
<event>
 5   0  0.6200596E+07  0.9118800E+02  0.7818608E-02  0.1180000E+00
       11   -1    0    0    0    0  0.00000000000E+00  0.00000000000E+00  0.39999999673E+01  0.40000000000E+01  0.51109989000E-03 0. -1.
     -623   -1    0    0    0    0  0.00000000000E+00  0.00000000000E+00  0.12525980253E-10  0.17130000000E+03  0.17130000000E+03 0. -1.
       11    1    1    2    0    0 -0.12497282577E-01 -0.19002300038E-01  0.25873720114E+00  0.25973538449E+00  0.51109989000E-03 0. -1.
     -623    1    1    2    0    0  0.14424692272E-02  0.72743967753E-02  0.12469364891E-02  0.17130000017E+03  0.17130000000E+03 0. -1.
      622    1    1    2    0    0  0.11054813349E-01  0.11727903262E-01  0.37400158297E+01  0.37402644504E+01  0.40000000000E-01 0. -1.
</event>
<event>
 5   0  0.6200596E+07  0.9118800E+02  0.7818608E-02  0.1180000E+00
       11   -1    0    0    0    0  0.00000000000E+00  0.00000000000E+00  0.39999999673E+01  0.40000000000E+01  0.51109989000E-03 0.  1.
     -623   -1    0    0    0    0  0.00000000000E+00  0.00000000000E+00  0.12525980253E-10  0.17130000000E+03  0.17130000000E+03 0. -1.
       11    1    1    2    0    0 -0.32424413858E-04 -0.27662140736E-02  0.81330175489E-01  0.81378815782E-01  0.51109989000E-03 0.  1.
     -623    1    1    2    0    0 -0.12636465998E-02  0.19720694991E-03  0.25382787347E-03  0.17130000000E+03  0.17130000000E+03 0. -1.
      622    1    1    2    0    0  0.12960710136E-02  0.25690071237E-02  0.39184159640E+01  0.39186211793E+01  0.40000000000E-01 0.  1.
</event>
<event>
 5   0  0.6200596E+07  0.9118800E+02  0.7818608E-02  0.1180000E+00
       11   -1    0    0    0    0  0.00000000000E+00  0.00000000000E+00  0.39999999673E+01  0.40000000000E+01  0.51109989000E-03 0.  1.
     -623   -1    0    0    0    0  0.00000000000E+00  0.00000000000E+00  0.12525980253E-10  0.17130000000E+03  0.17130000000E+03 0.  1.
       11    1    1    2    0    0  0.90459757788E-03 -0.11332447510E-01  0.40889009509E-01  0.42443079343E-01  0.51109989000E-03 0.  1.
     -623    1    1    2    0    0  0.63105586029E-02  0.15849141340E-02  0.17749023074E-02  0.17130000013E+03  0.17130000000E+03 0.  1.
      622    1    1    2    0    0 -0.72151561807E-02  0.97475333762E-02  0.39573360555E+01  0.39575567879E+01  0.40000000000E-01 0.  1.
</event>
<event>
 5   0  0.6200596E+07  0.9118800E+02  0.7818608E-02  0.1180000E+00
       11   -1    0    0    0    0  0.00000000000E+00  0.00000000000E+00  0.39999999673E+01  0.40000000000E+01  0.51109989000E-03 0. -1.
     -623   -1    0    0    0    0  0.00000000000E+00  0.00000000000E+00  0.12525980253E-10  0.17130000000E+03  0.17130000000E+03 0. -1.
       11    1    1    2    0    0  0.28787543515E-02 -0.61602296718E-03  0.27078164646E+00  0.27079813144E+00  0.51109989000E-03 0. -1.
     -623    1    1    2    0    0  0.18153486999E-03 -0.19806495382E-03  0.23232661003E-03  0.17130000000E+03  0.17130000000E+03 0. -1.
      622    1    1    2    0    0 -0.30602892215E-02  0.81408792099E-03  0.37289859943E+01  0.37292018682E+01  0.40000000000E-01 0. -1.
</event>
<event>
 5   0  0.6200596E+07  0.9118800E+02  0.7818608E-02  0.1180000E+00
       11   -1    0    0    0    0  0.00000000000E+00  0.00000000000E+00  0.39999999673E+01  0.40000000000E+01  0.51109989000E-03 0. -1.
     -623   -1    0    0    0    0  0.00000000000E+00  0.00000000000E+00  0.12525980253E-10  0.17130000000E+03  0.17130000000E+03 0. -1.
       11    1    1    2    0    0 -0.18101097539E-02  0.14359069032E-02  0.12778514057E-01  0.12995767392E-01  0.51109989000E-03 0. -1.
     -623    1    1    2    0    0 -0.15882313019E-02 -0.17696324957E-04  0.41958614444E-03  0.17130000001E+03  0.17130000000E+03 0. -1.
      622    1    1    2    0    0  0.33983410558E-02 -0.14182105782E-02  0.39868018672E+01  0.39870042247E+01  0.40000000000E-01 0. -1.
</event>
<event>
 5   0  0.6200596E+07  0.9118800E+02  0.7818608E-02  0.1180000E+00
       11   -1    0    0    0    0  0.00000000000E+00  0.00000000000E+00  0.39999999673E+01  0.40000000000E+01  0.51109989000E-03 0.  1.
     -623   -1    0    0    0    0  0.00000000000E+00  0.00000000000E+00  0.12525980253E-10  0.17130000000E+03  0.17130000000E+03 0.  1.
       11    1    1    2    0    0 -0.13770178764E-01 -0.85177845110E-03  0.29537518181E+00  0.29569765403E+00  0.51109989000E-03 0.  1.
     -623    1    1    2    0    0  0.12632363374E-02 -0.83998197890E-02  0.57129142685E-03  0.17130000021E+03  0.17130000000E+03 0.  1.
      622    1    1    2    0    0  0.12506942426E-01  0.92515982401E-02  0.37040534941E+01  0.37043021344E+01  0.40000000000E-01 0.  1.
</event>
<event>
 5   0  0.6200596E+07  0.9118800E+02  0.7818608E-02  0.1180000E+00
       11   -1    0    0    0    0  0.00000000000E+00  0.00000000000E+00  0.39999999673E+01  0.40000000000E+01  0.51109989000E-03 0.  1.
     -623   -1    0    0    0    0  0.00000000000E+00  0.00000000000E+00  0.12525980253E-10  0.17130000000E+03  0.17130000000E+03 0. -1.
       11    1    1    2    0    0  0.16402212509E-02 -0.24707782776E-02  0.25481598827E+00  0.25483375791E+00  0.51109989000E-03 0.  1.
     -623    1    1    2    0    0  0.71558992162E-03 -0.77471996716E-03  0.23350247922E-03  0.17130000000E+03  0.17130000000E+03 0. -1.
      622    1    1    2    0    0 -0.23558111725E-02  0.32454982448E-02  0.37449504766E+01  0.37451662387E+01  0.40000000000E-01 0.  0.
</event>
<event>
 5   0  0.6200596E+07  0.9118800E+02  0.7818608E-02  0.1180000E+00
       11   -1    0    0    0    0  0.00000000000E+00  0.00000000000E+00  0.39999999673E+01  0.40000000000E+01  0.51109989000E-03 0. -1.
     -623   -1    0    0    0    0  0.00000000000E+00  0.00000000000E+00  0.12525980253E-10  0.17130000000E+03  0.17130000000E+03 0. -1.
       11    1    1    2    0    0 -0.71928548847E-02 -0.16660117551E-01  0.13368698184E+01  0.13369930700E+01  0.51109989000E-03 0. -1.
     -623    1    1    2    0    0 -0.22063626767E-02  0.13470956533E-02  0.48429047166E-03  0.17130000002E+03  0.17130000000E+03 0. -1.
      622    1    1    2    0    0  0.93992175614E-02  0.15313021898E-01  0.26626458585E+01  0.26630069098E+01  0.40000000000E-01 0. -1.
</event>
<event>
 5   0  0.6200596E+07  0.9118800E+02  0.7818608E-02  0.1180000E+00
       11   -1    0    0    0    0  0.00000000000E+00  0.00000000000E+00  0.39999999673E+01  0.40000000000E+01  0.51109989000E-03 0.  1.
     -623   -1    0    0    0    0  0.00000000000E+00  0.00000000000E+00  0.12525980253E-10  0.17130000000E+03  0.17130000000E+03 0.  1.
       11    1    1    2    0    0  0.42253965830E-02 -0.76685943727E-02  0.12933671529E+00  0.12963374738E+00  0.51109989000E-03 0.  1.
     -623    1    1    2    0    0  0.23331293685E-02  0.30931902843E-02  0.51201009247E-03  0.17130000004E+03  0.17130000000E+03 0.  1.
      622    1    1    2    0    0 -0.65585259515E-02  0.45754040884E-02  0.38701512420E+01  0.38703662080E+01  0.40000000000E-01 0.  1.
</event>
<event>
 5   0  0.6200596E+07  0.9118800E+02  0.7818608E-02  0.1180000E+00
       11   -1    0    0    0    0  0.00000000000E+00  0.00000000000E+00  0.39999999673E+01  0.40000000000E+01  0.51109989000E-03 0. -1.
     -623   -1    0    0    0    0  0.00000000000E+00  0.00000000000E+00  0.12525980253E-10  0.17130000000E+03  0.17130000000E+03 0. -1.
       11    1    1    2    0    0 -0.16530824195E-01  0.35106534931E-02  0.59112011293E+00  0.59136185366E+00  0.51109989000E-03 0. -1.
     -623    1    1    2    0    0 -0.32215519800E-02 -0.66549817618E-02  0.53525976346E-03  0.17130000016E+03  0.17130000000E+03 0. -1.
      622    1    1    2    0    0  0.19752376175E-01  0.31443282687E-02  0.34083445947E+01  0.34086379859E+01  0.40000000000E-01 0.  0.
</event>
<event>
 5   0  0.6200596E+07  0.9118800E+02  0.7818608E-02  0.1180000E+00
       11   -1    0    0    0    0  0.00000000000E+00  0.00000000000E+00  0.39999999673E+01  0.40000000000E+01  0.51109989000E-03 0.  1.
     -623   -1    0    0    0    0  0.00000000000E+00  0.00000000000E+00  0.12525980253E-10  0.17130000000E+03  0.17130000000E+03 0. -1.
       11    1    1    2    0    0 -0.80359122425E-03  0.44094827628E-02  0.92779944181E-01  0.92889550330E-01  0.51109989000E-03 0.  1.
     -623    1    1    2    0    0  0.22630420258E-03 -0.24918975030E-04  0.31683717749E-03  0.17130000000E+03  0.17130000000E+03 0. -1.
      622    1    1    2    0    0  0.57728702167E-03 -0.43845637878E-02  0.39069031860E+01  0.39071104492E+01  0.40000000000E-01 0.  1.
</event>
<event>
 5   0  0.6200596E+07  0.9118800E+02  0.7818608E-02  0.1180000E+00
       11   -1    0    0    0    0  0.00000000000E+00  0.00000000000E+00  0.39999999673E+01  0.40000000000E+01  0.51109989000E-03 0.  1.
     -623   -1    0    0    0    0  0.00000000000E+00  0.00000000000E+00  0.12525980253E-10  0.17130000000E+03  0.17130000000E+03 0.  1.
       11    1    1    2    0    0 -0.37277508996E-02 -0.13950253448E-01  0.33832025082E+00  0.33862864473E+00  0.51109989000E-03 0.  1.
     -623    1    1    2    0    0  0.21243862129E-02 -0.68581866978E-02  0.58650138345E-03  0.17130000015E+03  0.17130000000E+03 0.  1.
      622    1    1    2    0    0  0.16033646867E-02  0.20808440146E-01  0.36610932152E+01  0.36613712038E+01  0.40000000000E-01 0.  0.
</event>
<event>
 5   0  0.6200596E+07  0.9118800E+02  0.7818608E-02  0.1180000E+00
       11   -1    0    0    0    0  0.00000000000E+00  0.00000000000E+00  0.39999999673E+01  0.40000000000E+01  0.51109989000E-03 0. -1.
     -623   -1    0    0    0    0  0.00000000000E+00  0.00000000000E+00  0.12525980253E-10  0.17130000000E+03  0.17130000000E+03 0.  1.
       11    1    1    2    0    0  0.14356776273E-01  0.24737246890E-03  0.87814581837E+00  0.87826335331E+00  0.51109989000E-03 0. -1.
     -623    1    1    2    0    0  0.67175521984E-03  0.53075549707E-03  0.41005808453E-03  0.17130000000E+03  0.17130000000E+03 0.  1.
      622    1    1    2    0    0 -0.15028531493E-01 -0.77812796597E-03  0.31214440909E+01  0.31217366441E+01  0.40000000000E-01 0.  0.
</event>
<event>
 5   0  0.6200596E+07  0.9118800E+02  0.7818608E-02  0.1180000E+00
       11   -1    0    0    0    0  0.00000000000E+00  0.00000000000E+00  0.39999999673E+01  0.40000000000E+01  0.51109989000E-03 0. -1.
     -623   -1    0    0    0    0  0.00000000000E+00  0.00000000000E+00  0.12525980253E-10  0.17130000000E+03  0.17130000000E+03 0. -1.
       11    1    1    2    0    0  0.29368649115E-02 -0.47543790346E-03  0.53425916373E-01  0.53511129487E-01  0.51109989000E-03 0. -1.
     -623    1    1    2    0    0 -0.10793682035E-03  0.68701185069E-03  0.28891881256E-03  0.17130000000E+03  0.17130000000E+03 0. -1.
      622    1    1    2    0    0 -0.28289280911E-02 -0.21157394722E-03  0.39462851322E+01  0.39464888689E+01  0.40000000000E-01 0. -1.
</event>
<event>
 5   0  0.6200596E+07  0.9118800E+02  0.7818608E-02  0.1180000E+00
       11   -1    0    0    0    0  0.00000000000E+00  0.00000000000E+00  0.39999999673E+01  0.40000000000E+01  0.51109989000E-03 0. -1.
     -623   -1    0    0    0    0  0.00000000000E+00  0.00000000000E+00  0.12525980253E-10  0.17130000000E+03  0.17130000000E+03 0. -1.
       11    1    1    2    0    0 -0.12249283277E-01 -0.63622137542E-03  0.11435629402E+00  0.11501335975E+00  0.51109989000E-03 0. -1.
     -623    1    1    2    0    0 -0.40405976847E-03  0.63398992423E-02  0.88787371560E-03  0.17130000012E+03  0.17130000000E+03 0. -1.
      622    1    1    2    0    0  0.12653343046E-01 -0.57036778669E-02  0.38847557996E+01  0.38849865202E+01  0.40000000000E-01 0. -1.
</event>
<event>
 5   0  0.6200596E+07  0.9118800E+02  0.7818608E-02  0.1180000E+00
       11   -1    0    0    0    0  0.00000000000E+00  0.00000000000E+00  0.39999999673E+01  0.40000000000E+01  0.51109989000E-03 0.  1.
     -623   -1    0    0    0    0  0.00000000000E+00  0.00000000000E+00  0.12525980253E-10  0.17130000000E+03  0.17130000000E+03 0. -1.
       11    1    1    2    0    0  0.12343547208E-01 -0.12461516591E-01  0.71288735457E+00  0.71310328431E+00  0.51109989000E-03 0.  1.
     -623    1    1    2    0    0  0.95552794516E-03 -0.44331442709E-02  0.52968751508E-03  0.17130000006E+03  0.17130000000E+03 0. -1.
      622    1    1    2    0    0 -0.13299075153E-01  0.16894660862E-01  0.32865829253E+01  0.32868966548E+01  0.40000000000E-01 0.  0.
</event>
<event>
 5   0  0.6200596E+07  0.9118800E+02  0.7818608E-02  0.1180000E+00
       11   -1    0    0    0    0  0.00000000000E+00  0.00000000000E+00  0.39999999673E+01  0.40000000000E+01  0.51109989000E-03 0.  1.
     -623   -1    0    0    0    0  0.00000000000E+00  0.00000000000E+00  0.12525980253E-10  0.17130000000E+03  0.17130000000E+03 0. -1.
       11    1    1    2    0    0  0.37990627065E-03 -0.81403543256E-03  0.66254458651E-02  0.67055749487E-02  0.51109989000E-03 0.  1.
     -623    1    1    2    0    0 -0.13852750106E-02 -0.33854453770E-04  0.28065972972E-03  0.17130000001E+03  0.17130000000E+03 0. -1.
      622    1    1    2    0    0  0.10053687399E-02  0.84788988633E-03  0.39930938618E+01  0.39932944192E+01  0.40000000000E-01 0.  1.
</event>
<event>
 5   0  0.6200596E+07  0.9118800E+02  0.7818608E-02  0.1180000E+00
       11   -1    0    0    0    0  0.00000000000E+00  0.00000000000E+00  0.39999999673E+01  0.40000000000E+01  0.51109989000E-03 0.  1.
     -623   -1    0    0    0    0  0.00000000000E+00  0.00000000000E+00  0.12525980253E-10  0.17130000000E+03  0.17130000000E+03 0. -1.
       11    1    1    2    0    0  0.23346371628E-02 -0.24496042568E-02  0.31693699074E-01  0.31877937085E-01  0.51109989000E-03 0.  1.
     -623    1    1    2    0    0 -0.28959867834E-02  0.47302823804E-02  0.38660257633E-03  0.17130000009E+03  0.17130000000E+03 0. -1.
      622    1    1    2    0    0  0.56134962056E-03 -0.22806781236E-02  0.39679196657E+01  0.39681219727E+01  0.40000000000E-01 0.  1.
</event>
<event>
 5   0  0.6200596E+07  0.9118800E+02  0.7818608E-02  0.1180000E+00
       11   -1    0    0    0    0  0.00000000000E+00  0.00000000000E+00  0.39999999673E+01  0.40000000000E+01  0.51109989000E-03 0.  1.
     -623   -1    0    0    0    0  0.00000000000E+00  0.00000000000E+00  0.12525980253E-10  0.17130000000E+03  0.17130000000E+03 0.  1.
       11    1    1    2    0    0  0.21220858220E-02  0.30281220595E-02  0.83022075829E-02  0.91027822409E-02  0.51109989000E-03 0.  1.
     -623    1    1    2    0    0 -0.23554712141E-02 -0.10732994435E-03  0.10020980788E-02  0.17130000002E+03  0.17130000000E+03 0.  1.
      622    1    1    2    0    0  0.23338539207E-03 -0.29207921151E-02  0.39906956617E+01  0.39908971986E+01  0.40000000000E-01 0.  1.
</event>
<event>
 5   0  0.6200596E+07  0.9118800E+02  0.7818608E-02  0.1180000E+00
       11   -1    0    0    0    0  0.00000000000E+00  0.00000000000E+00  0.39999999673E+01  0.40000000000E+01  0.51109989000E-03 0.  1.
     -623   -1    0    0    0    0  0.00000000000E+00  0.00000000000E+00  0.12525980253E-10  0.17130000000E+03  0.17130000000E+03 0.  1.
       11    1    1    2    0    0  0.26807396716E-02 -0.75417785027E-03  0.76149103058E-01  0.76201720898E-01  0.51109989000E-03 0.  1.
     -623    1    1    2    0    0 -0.50062070862E-02 -0.12856651153E-02  0.25777213924E-03  0.17130000008E+03  0.17130000000E+03 0.  1.
      622    1    1    2    0    0  0.23254674146E-02  0.20398429656E-02  0.39235930922E+01  0.39237982009E+01  0.40000000000E-01 0.  1.
</event>
<event>
 5   0  0.6200596E+07  0.9118800E+02  0.7818608E-02  0.1180000E+00
       11   -1    0    0    0    0  0.00000000000E+00  0.00000000000E+00  0.39999999673E+01  0.40000000000E+01  0.51109989000E-03 0. -1.
     -623   -1    0    0    0    0  0.00000000000E+00  0.00000000000E+00  0.12525980253E-10  0.17130000000E+03  0.17130000000E+03 0.  1.
       11    1    1    2    0    0 -0.10637624632E-01 -0.55559948088E-02  0.71152536381E+00  0.71162675098E+00  0.51109989000E-03 0. -1.
     -623    1    1    2    0    0  0.20645101461E-01  0.20844857609E-01  0.39793170624E-03  0.17130000251E+03  0.17130000000E+03 0.  1.
      622    1    1    2    0    0 -0.10007476829E-01 -0.15288862801E-01  0.32880766718E+01  0.32883707362E+01  0.40000000000E-01 0. -1.
</event>
<event>
 5   0  0.6200596E+07  0.9118800E+02  0.7818608E-02  0.1180000E+00
       11   -1    0    0    0    0  0.00000000000E+00  0.00000000000E+00  0.39999999673E+01  0.40000000000E+01  0.51109989000E-03 0.  1.
     -623   -1    0    0    0    0  0.00000000000E+00  0.00000000000E+00  0.12525980253E-10  0.17130000000E+03  0.17130000000E+03 0. -1.
       11    1    1    2    0    0  0.22804409702E-02 -0.33455104514E-01  0.11919436464E+01  0.11924153479E+01  0.51109989000E-03 0.  1.
     -623    1    1    2    0    0 -0.16013129478E-02 -0.26886768600E-02  0.98942326103E-03  0.17130000003E+03  0.17130000000E+03 0. -1.
      622    1    1    2    0    0 -0.67912802245E-03  0.36143781374E-01  0.28070668976E+01  0.28075846206E+01  0.40000000000E-01 0.  0.
</event>
<event>
 5   0  0.6200596E+07  0.9118800E+02  0.7818608E-02  0.1180000E+00
       11   -1    0    0    0    0  0.00000000000E+00  0.00000000000E+00  0.39999999673E+01  0.40000000000E+01  0.51109989000E-03 0. -1.
     -623   -1    0    0    0    0  0.00000000000E+00  0.00000000000E+00  0.12525980253E-10  0.17130000000E+03  0.17130000000E+03 0. -1.
       11    1    1    2    0    0  0.23550943723E-02  0.37700190013E-03  0.72444386920E-01  0.72485440045E-01  0.51109989000E-03 0. -1.
     -623    1    1    2    0    0  0.13015919108E-02  0.74331356189E-03  0.24658581113E-03  0.17130000001E+03  0.17130000000E+03 0. -1.
      622    1    1    2    0    0 -0.36566862832E-02 -0.11203154620E-02  0.39273089946E+01  0.39275145532E+01  0.40000000000E-01 0. -1.
</event>
<event>
 5   0  0.6200596E+07  0.9118800E+02  0.7818608E-02  0.1180000E+00
       11   -1    0    0    0    0  0.00000000000E+00  0.00000000000E+00  0.39999999673E+01  0.40000000000E+01  0.51109989000E-03 0. -1.
     -623   -1    0    0    0    0  0.00000000000E+00  0.00000000000E+00  0.12525980253E-10  0.17130000000E+03  0.17130000000E+03 0.  1.
       11    1    1    2    0    0  0.78678810715E-03 -0.27928923131E-02  0.89715337082E-01  0.89763702084E-01  0.51109989000E-03 0. -1.
     -623    1    1    2    0    0  0.49368179144E-02  0.94639106891E-03  0.25762806818E-03  0.17130000007E+03  0.17130000000E+03 0.  1.
      622    1    1    2    0    0 -0.57236060215E-02  0.18465012442E-02  0.39100270022E+01  0.39102362240E+01  0.40000000000E-01 0. -1.
</event>
<event>
 5   0  0.6200596E+07  0.9118800E+02  0.7818608E-02  0.1180000E+00
       11   -1    0    0    0    0  0.00000000000E+00  0.00000000000E+00  0.39999999673E+01  0.40000000000E+01  0.51109989000E-03 0. -1.
     -623   -1    0    0    0    0  0.00000000000E+00  0.00000000000E+00  0.12525980253E-10  0.17130000000E+03  0.17130000000E+03 0.  1.
       11    1    1    2    0    0 -0.16845152979E-01  0.58392613646E-02  0.62495009053E+00  0.62520455295E+00  0.51109989000E-03 0. -1.
     -623    1    1    2    0    0  0.59491490408E-03  0.40955153450E-02  0.54529154091E-03  0.17130000005E+03  0.17130000000E+03 0.  1.
      622    1    1    2    0    0  0.16250238075E-01 -0.99347767096E-02  0.33745045853E+01  0.33747953962E+01  0.40000000000E-01 0. -1.
</event>
<event>
 5   0  0.6200596E+07  0.9118800E+02  0.7818608E-02  0.1180000E+00
       11   -1    0    0    0    0  0.00000000000E+00  0.00000000000E+00  0.39999999673E+01  0.40000000000E+01  0.51109989000E-03 0. -1.
     -623   -1    0    0    0    0  0.00000000000E+00  0.00000000000E+00  0.12525980253E-10  0.17130000000E+03  0.17130000000E+03 0.  1.
       11    1    1    2    0    0 -0.20601329814E-01  0.86108331286E-01  0.24881389778E+01  0.24897138176E+01  0.51109989000E-03 0. -1.
     -623    1    1    2    0    0 -0.95368604579E-02  0.22730928288E-02  0.49954684756E-02  0.17130000035E+03  0.17130000000E+03 0.  1.
      622    1    1    2    0    0  0.30138190272E-01 -0.88381424115E-01  0.15068655210E+01  0.15102858290E+01  0.40000000000E-01 0. -1.
</event>
<event>
 5   0  0.6200596E+07  0.9118800E+02  0.7818608E-02  0.1180000E+00
       11   -1    0    0    0    0  0.00000000000E+00  0.00000000000E+00  0.39999999673E+01  0.40000000000E+01  0.51109989000E-03 0.  1.
     -623   -1    0    0    0    0  0.00000000000E+00  0.00000000000E+00  0.12525980253E-10  0.17130000000E+03  0.17130000000E+03 0. -1.
       11    1    1    2    0    0 -0.65892178826E-03 -0.72506247276E-02  0.11883353845E+00  0.11905745176E+00  0.51109989000E-03 0.  1.
     -623    1    1    2    0    0  0.19444569719E-02  0.40449481312E-02  0.43161792484E-03  0.17130000006E+03  0.17130000000E+03 0. -1.
      622    1    1    2    0    0 -0.12855351836E-02  0.32056765964E-02  0.38807348110E+01  0.38809424889E+01  0.40000000000E-01 0.  0.
</event>
<event>
 5   0  0.6200596E+07  0.9118800E+02  0.7818608E-02  0.1180000E+00
       11   -1    0    0    0    0  0.00000000000E+00  0.00000000000E+00  0.39999999673E+01  0.40000000000E+01  0.51109989000E-03 0. -1.
     -623   -1    0    0    0    0  0.00000000000E+00  0.00000000000E+00  0.12525980253E-10  0.17130000000E+03  0.17130000000E+03 0.  1.
       11    1    1    2    0    0  0.48926479578E-03 -0.15228137495E-02  0.37474630100E-02  0.41064635757E-02  0.51109989000E-03 0. -1.
     -623    1    1    2    0    0 -0.57496422357E-03  0.24703205856E-03  0.55938512267E-03  0.17130000000E+03  0.17130000000E+03 0.  1.
      622    1    1    2    0    0  0.85699427785E-04  0.12757816910E-02  0.39956931192E+01  0.39958935344E+01  0.40000000000E-01 0. -1.
</event>
<event>
 5   0  0.6200596E+07  0.9118800E+02  0.7818608E-02  0.1180000E+00
       11   -1    0    0    0    0  0.00000000000E+00  0.00000000000E+00  0.39999999673E+01  0.40000000000E+01  0.51109989000E-03 0. -1.
     -623   -1    0    0    0    0  0.00000000000E+00  0.00000000000E+00  0.12525980253E-10  0.17130000000E+03  0.17130000000E+03 0. -1.
       11    1    1    2    0    0  0.23872755839E-02 -0.29600100697E-02  0.19523992110E-01  0.19897442885E-01  0.51109989000E-03 0. -1.
     -623    1    1    2    0    0  0.12821634582E-02  0.44372031362E-02  0.57645203353E-03  0.17130000006E+03  0.17130000000E+03 0. -1.
      622    1    1    2    0    0 -0.36694390421E-02 -0.14771930666E-02  0.39798995232E+01  0.39801024939E+01  0.40000000000E-01 0. -1.
</event>
<event>
 5   0  0.6200596E+07  0.9118800E+02  0.7818608E-02  0.1180000E+00
       11   -1    0    0    0    0  0.00000000000E+00  0.00000000000E+00  0.39999999673E+01  0.40000000000E+01  0.51109989000E-03 0. -1.
     -623   -1    0    0    0    0  0.00000000000E+00  0.00000000000E+00  0.12525980253E-10  0.17130000000E+03  0.17130000000E+03 0. -1.
       11    1    1    2    0    0 -0.20499508233E-02 -0.11053689010E-01  0.24612860992E+00  0.24638575482E+00  0.51109989000E-03 0. -1.
     -623    1    1    2    0    0 -0.26489359568E-03 -0.18721953657E-03  0.48779356921E-03  0.17130000000E+03  0.17130000000E+03 0. -1.
      622    1    1    2    0    0  0.23148444190E-02  0.11240908547E-01  0.37533835639E+01  0.37536142442E+01  0.40000000000E-01 0. -1.
</event>
<event>
 5   0  0.6200596E+07  0.9118800E+02  0.7818608E-02  0.1180000E+00
       11   -1    0    0    0    0  0.00000000000E+00  0.00000000000E+00  0.39999999673E+01  0.40000000000E+01  0.51109989000E-03 0. -1.
     -623   -1    0    0    0    0  0.00000000000E+00  0.00000000000E+00  0.12525980253E-10  0.17130000000E+03  0.17130000000E+03 0. -1.
       11    1    1    2    0    0  0.91085773283E-03 -0.15892684709E-03  0.20046961224E-01  0.20074780101E-01  0.51109989000E-03 0. -1.
     -623    1    1    2    0    0 -0.43478356912E-03 -0.33565291007E-03  0.22886035573E-03  0.17130000000E+03  0.17130000000E+03 0. -1.
      622    1    1    2    0    0 -0.47607416371E-03  0.49457975715E-03  0.39797241458E+01  0.39799252189E+01  0.40000000000E-01 0. -1.
</event>
<event>
 5   0  0.6200596E+07  0.9118800E+02  0.7818608E-02  0.1180000E+00
       11   -1    0    0    0    0  0.00000000000E+00  0.00000000000E+00  0.39999999673E+01  0.40000000000E+01  0.51109989000E-03 0. -1.
     -623   -1    0    0    0    0  0.00000000000E+00  0.00000000000E+00  0.12525980253E-10  0.17130000000E+03  0.17130000000E+03 0.  1.
       11    1    1    2    0    0  0.14036441033E-02 -0.84038567689E-02  0.88813555695E+00  0.88817657240E+00  0.51109989000E-03 0. -1.
     -623    1    1    2    0    0  0.57459561382E-02  0.94091268629E-02  0.30680890930E-03  0.17130000036E+03  0.17130000000E+03 0.  1.
      622    1    1    2    0    0 -0.71496002415E-02 -0.10052700940E-02  0.31115576015E+01  0.31118230725E+01  0.40000000000E-01 0. -1.
</event>
<event>
 5   0  0.6200596E+07  0.9118800E+02  0.7818608E-02  0.1180000E+00
       11   -1    0    0    0    0  0.00000000000E+00  0.00000000000E+00  0.39999999673E+01  0.40000000000E+01  0.51109989000E-03 0. -1.
     -623   -1    0    0    0    0  0.00000000000E+00  0.00000000000E+00  0.12525980253E-10  0.17130000000E+03  0.17130000000E+03 0.  1.
       11    1    1    2    0    0  0.97733876354E-04 -0.22466221167E-03  0.54144257441E-02  0.54440108307E-02  0.51109989000E-03 0. -1.
     -623    1    1    2    0    0 -0.10133449360E-02 -0.24844476177E-03  0.22996632997E-03  0.17130000000E+03  0.17130000000E+03 0.  1.
      622    1    1    2    0    0  0.91561105966E-03  0.47310697344E-03  0.39943555753E+01  0.39945559858E+01  0.40000000000E-01 0. -1.
</event>
<event>
 5   0  0.6200596E+07  0.9118800E+02  0.7818608E-02  0.1180000E+00
       11   -1    0    0    0    0  0.00000000000E+00  0.00000000000E+00  0.39999999673E+01  0.40000000000E+01  0.51109989000E-03 0. -1.
     -623   -1    0    0    0    0  0.00000000000E+00  0.00000000000E+00  0.12525980253E-10  0.17130000000E+03  0.17130000000E+03 0. -1.
       11    1    1    2    0    0  0.18639947628E-02 -0.39458015537E-02  0.91827146557E-01  0.91932202689E-01  0.51109989000E-03 0. -1.
     -623    1    1    2    0    0  0.32079968317E-02  0.14076388602E-02  0.31388543035E-03  0.17130000004E+03  0.17130000000E+03 0. -1.
      622    1    1    2    0    0 -0.50719915945E-02  0.25381626934E-02  0.39078589354E+01  0.39080677612E+01  0.40000000000E-01 0. -1.
</event>
<event>
 5   0  0.6200596E+07  0.9118800E+02  0.7818608E-02  0.1180000E+00
       11   -1    0    0    0    0  0.00000000000E+00  0.00000000000E+00  0.39999999673E+01  0.40000000000E+01  0.51109989000E-03 0. -1.
     -623   -1    0    0    0    0  0.00000000000E+00  0.00000000000E+00  0.12525980253E-10  0.17130000000E+03  0.17130000000E+03 0. -1.
       11    1    1    2    0    0 -0.19289843114E-02  0.34184581489E-02  0.33156669995E-02  0.51634974968E-02  0.51109989000E-03 0. -1.
     -623    1    1    2    0    0  0.30766174093E-02  0.72079710573E-03  0.20504122135E-02  0.17130000004E+03  0.17130000000E+03 0. -1.
      622    1    1    2    0    0 -0.11476330979E-02 -0.41392552547E-02  0.39946338881E+01  0.39948364611E+01  0.40000000000E-01 0. -1.
</event>
<event>
 5   0  0.6200596E+07  0.9118800E+02  0.7818608E-02  0.1180000E+00
       11   -1    0    0    0    0  0.00000000000E+00  0.00000000000E+00  0.39999999673E+01  0.40000000000E+01  0.51109989000E-03 0. -1.
     -623   -1    0    0    0    0  0.00000000000E+00  0.00000000000E+00  0.12525980253E-10  0.17130000000E+03  0.17130000000E+03 0. -1.
       11    1    1    2    0    0 -0.14665516266E-02 -0.61920078164E-02  0.10433716317E+01  0.10433911610E+01  0.51109989000E-03 0. -1.
     -623    1    1    2    0    0 -0.57624640402E-02  0.28670689841E-02  0.30091864975E-03  0.17130000012E+03  0.17130000000E+03 0. -1.
      622    1    1    2    0    0  0.72290156668E-02  0.33249388323E-02  0.29563274170E+01  0.29566087179E+01  0.40000000000E-01 0. -1.
</event>
<event>
 5   0  0.6200596E+07  0.9118800E+02  0.7818608E-02  0.1180000E+00
       11   -1    0    0    0    0  0.00000000000E+00  0.00000000000E+00  0.39999999673E+01  0.40000000000E+01  0.51109989000E-03 0. -1.
     -623   -1    0    0    0    0  0.00000000000E+00  0.00000000000E+00  0.12525980253E-10  0.17130000000E+03  0.17130000000E+03 0.  1.
       11    1    1    2    0    0  0.19529025478E-02  0.90254404142E-02  0.45386281097E-01  0.46318982479E-01  0.51109989000E-03 0. -1.
     -623    1    1    2    0    0 -0.88139493506E-03 -0.84032858037E-03  0.11436434139E-02  0.17130000001E+03  0.17130000000E+03 0.  1.
      622    1    1    2    0    0 -0.10715076127E-02 -0.81851118339E-02  0.39534700428E+01  0.39536810094E+01  0.40000000000E-01 0. -1.
</event>
<event>
 5   0  0.6200596E+07  0.9118800E+02  0.7818608E-02  0.1180000E+00
       11   -1    0    0    0    0  0.00000000000E+00  0.00000000000E+00  0.39999999673E+01  0.40000000000E+01  0.51109989000E-03 0. -1.
     -623   -1    0    0    0    0  0.00000000000E+00  0.00000000000E+00  0.12525980253E-10  0.17130000000E+03  0.17130000000E+03 0.  1.
       11    1    1    2    0    0  0.71278241728E-02 -0.15144069078E-02  0.53897865627E+00  0.53902815552E+00  0.51109989000E-03 0. -1.
     -623    1    1    2    0    0  0.68857360824E-02  0.43688167253E-03  0.30930290087E-03  0.17130000014E+03  0.17130000000E+03 0.  1.
      622    1    1    2    0    0 -0.14013560255E-01  0.10775252353E-02  0.34607120082E+01  0.34609717053E+01  0.40000000000E-01 0. -1.
</event>
<event>
 5   0  0.6200596E+07  0.9118800E+02  0.7818608E-02  0.1180000E+00
       11   -1    0    0    0    0  0.00000000000E+00  0.00000000000E+00  0.39999999673E+01  0.40000000000E+01  0.51109989000E-03 0. -1.
     -623   -1    0    0    0    0  0.00000000000E+00  0.00000000000E+00  0.12525980253E-10  0.17130000000E+03  0.17130000000E+03 0.  1.
       11    1    1    2    0    0  0.10754607666E-01  0.10783348777E-01  0.10424506399E+01  0.10425620077E+01  0.51109989000E-03 0. -1.
     -623    1    1    2    0    0 -0.31569499988E-03  0.11818792945E-02  0.42448881059E-03  0.17130000000E+03  0.17130000000E+03 0.  1.
      622    1    1    2    0    0 -0.10438912666E-01 -0.11965228071E-01  0.29571248387E+01  0.29574379874E+01  0.40000000000E-01 0. -1.
</event>
<event>
 5   0  0.6200596E+07  0.9118800E+02  0.7818608E-02  0.1180000E+00
       11   -1    0    0    0    0  0.00000000000E+00  0.00000000000E+00  0.39999999673E+01  0.40000000000E+01  0.51109989000E-03 0. -1.
     -623   -1    0    0    0    0  0.00000000000E+00  0.00000000000E+00  0.12525980253E-10  0.17130000000E+03  0.17130000000E+03 0. -1.
       11    1    1    2    0    0  0.17295424160E-03  0.16192441321E-02  0.20712812083E+00  0.20713515279E+00  0.51109989000E-03 0. -1.
     -623    1    1    2    0    0  0.85617184505E-04  0.43530219478E-03  0.21849357028E-03  0.17130000000E+03  0.17130000000E+03 0. -1.
      622    1    1    2    0    0 -0.25857142611E-03 -0.20545463269E-02  0.37926533530E+01  0.37928648465E+01  0.40000000000E-01 0. -1.
</event>
<event>
 5   0  0.6200596E+07  0.9118800E+02  0.7818608E-02  0.1180000E+00
       11   -1    0    0    0    0  0.00000000000E+00  0.00000000000E+00  0.39999999673E+01  0.40000000000E+01  0.51109989000E-03 0.  1.
     -623   -1    0    0    0    0  0.00000000000E+00  0.00000000000E+00  0.12525980253E-10  0.17130000000E+03  0.17130000000E+03 0.  1.
       11    1    1    2    0    0  0.20034342387E-01 -0.58156312129E-02  0.10434991787E+01  0.10437078105E+01  0.51109989000E-03 0.  1.
     -623    1    1    2    0    0  0.14804451101E-02  0.56032846958E-03  0.56219711864E-03  0.17130000001E+03  0.17130000000E+03 0.  1.
      622    1    1    2    0    0 -0.21514787497E-01  0.52553027433E-02  0.29559385915E+01  0.29562921813E+01  0.40000000000E-01 0.  0.
</event>
<event>
 5   0  0.6200596E+07  0.9118800E+02  0.7818608E-02  0.1180000E+00
       11   -1    0    0    0    0  0.00000000000E+00  0.00000000000E+00  0.39999999673E+01  0.40000000000E+01  0.51109989000E-03 0. -1.
     -623   -1    0    0    0    0  0.00000000000E+00  0.00000000000E+00  0.12525980253E-10  0.17130000000E+03  0.17130000000E+03 0. -1.
       11    1    1    2    0    0 -0.58588876855E-03 -0.75065479077E-02  0.29640956971E+00  0.29650562518E+00  0.51109989000E-03 0. -1.
     -623    1    1    2    0    0  0.10659509619E-01  0.59787469350E-02  0.32649392903E-03  0.17130000044E+03  0.17130000000E+03 0. -1.
      622    1    1    2    0    0 -0.10073620851E-01  0.15278009727E-02  0.37032639037E+01  0.37034939385E+01  0.40000000000E-01 0. -1.
</event>
<event>
 5   0  0.6200596E+07  0.9118800E+02  0.7818608E-02  0.1180000E+00
       11   -1    0    0    0    0  0.00000000000E+00  0.00000000000E+00  0.39999999673E+01  0.40000000000E+01  0.51109989000E-03 0. -1.
     -623   -1    0    0    0    0  0.00000000000E+00  0.00000000000E+00  0.12525980253E-10  0.17130000000E+03  0.17130000000E+03 0. -1.
       11    1    1    2    0    0  0.17882438344E-01 -0.30742020883E-02  0.34104201878E+00  0.34152474598E+00  0.51109989000E-03 0. -1.
     -623    1    1    2    0    0 -0.48983116052E-02 -0.95198674582E-02  0.74642841308E-03  0.17130000034E+03  0.17130000000E+03 0. -1.
      622    1    1    2    0    0 -0.12984126739E-01  0.12594069547E-01  0.36582115202E+01  0.36584749178E+01  0.40000000000E-01 0. -1.
</event>
<event>
 5   0  0.6200596E+07  0.9118800E+02  0.7818608E-02  0.1180000E+00
       11   -1    0    0    0    0  0.00000000000E+00  0.00000000000E+00  0.39999999673E+01  0.40000000000E+01  0.51109989000E-03 0.  1.
     -623   -1    0    0    0    0  0.00000000000E+00  0.00000000000E+00  0.12525980253E-10  0.17130000000E+03  0.17130000000E+03 0. -1.
       11    1    1    2    0    0  0.62884768206E-03 -0.19543533610E-03  0.95093266556E-02  0.95457926880E-02  0.51109989000E-03 0.  1.
     -623    1    1    2    0    0  0.54142494539E-03  0.23386856590E-02  0.23768104889E-03  0.17130000002E+03  0.17130000000E+03 0. -1.
      622    1    1    2    0    0 -0.11702726275E-02 -0.21432503229E-02  0.39902529597E+01  0.39904541903E+01  0.40000000000E-01 0.  1.
</event>
<event>
 5   0  0.6200596E+07  0.9118800E+02  0.7818608E-02  0.1180000E+00
       11   -1    0    0    0    0  0.00000000000E+00  0.00000000000E+00  0.39999999673E+01  0.40000000000E+01  0.51109989000E-03 0.  1.
     -623   -1    0    0    0    0  0.00000000000E+00  0.00000000000E+00  0.12525980253E-10  0.17130000000E+03  0.17130000000E+03 0.  1.
       11    1    1    2    0    0  0.16632803502E-01 -0.35183937732E-01  0.36903917167E+00  0.37108588099E+00  0.51109989000E-03 0.  1.
     -623    1    1    2    0    0 -0.38573738171E-03  0.14619787038E-01  0.23624185856E-02  0.17130000064E+03  0.17130000000E+03 0.  1.
      622    1    1    2    0    0 -0.16247066120E-01  0.20564150694E-01  0.36285983771E+01  0.36289134784E+01  0.40000000000E-01 0.  1.
</event>
<event>
 5   0  0.6200596E+07  0.9118800E+02  0.7818608E-02  0.1180000E+00
       11   -1    0    0    0    0  0.00000000000E+00  0.00000000000E+00  0.39999999673E+01  0.40000000000E+01  0.51109989000E-03 0.  1.
     -623   -1    0    0    0    0  0.00000000000E+00  0.00000000000E+00  0.12525980253E-10  0.17130000000E+03  0.17130000000E+03 0.  1.
       11    1    1    2    0    0 -0.83543183259E-03  0.15597329535E-01  0.84026060252E+00  0.84040592335E+00  0.51109989000E-03 0.  1.
     -623    1    1    2    0    0 -0.10653114367E-02  0.18326288606E-03  0.43848265503E-03  0.17130000000E+03  0.17130000000E+03 0.  1.
      622    1    1    2    0    0  0.19007432692E-02 -0.15780592421E-01  0.31593008822E+01  0.31595940727E+01  0.40000000000E-01 0.  1.
</event>
<event>
 5   0  0.6200596E+07  0.9118800E+02  0.7818608E-02  0.1180000E+00
       11   -1    0    0    0    0  0.00000000000E+00  0.00000000000E+00  0.39999999673E+01  0.40000000000E+01  0.51109989000E-03 0.  1.
     -623   -1    0    0    0    0  0.00000000000E+00  0.00000000000E+00  0.12525980253E-10  0.17130000000E+03  0.17130000000E+03 0. -1.
       11    1    1    2    0    0  0.61116807210E-02 -0.36746041587E-01  0.30364467913E+00  0.30592152033E+00  0.51109989000E-03 0.  1.
     -623    1    1    2    0    0 -0.61684120110E-02  0.71602550777E-04  0.26755753590E-02  0.17130000013E+03  0.17130000000E+03 0. -1.
      622    1    1    2    0    0  0.56731290016E-04  0.36674439036E-01  0.36936797129E+01  0.36940783477E+01  0.40000000000E-01 0.  1.
</event>
<event>
 5   0  0.6200596E+07  0.9118800E+02  0.7818608E-02  0.1180000E+00
       11   -1    0    0    0    0  0.00000000000E+00  0.00000000000E+00  0.39999999673E+01  0.40000000000E+01  0.51109989000E-03 0.  1.
     -623   -1    0    0    0    0  0.00000000000E+00  0.00000000000E+00  0.12525980253E-10  0.17130000000E+03  0.17130000000E+03 0.  1.
       11    1    1    2    0    0  0.19034760618E-02 -0.67325649194E-03  0.15696848804E-01  0.15834417520E-01  0.51109989000E-03 0.  1.
     -623    1    1    2    0    0 -0.41222069840E-03 -0.18232327155E-03  0.33870790019E-03  0.17130000000E+03  0.17130000000E+03 0.  1.
      622    1    1    2    0    0 -0.14912553634E-02  0.85557976349E-03  0.39839644107E+01  0.39841655816E+01  0.40000000000E-01 0.  1.
</event>
<event>
 5   0  0.6200596E+07  0.9118800E+02  0.7818608E-02  0.1180000E+00
       11   -1    0    0    0    0  0.00000000000E+00  0.00000000000E+00  0.39999999673E+01  0.40000000000E+01  0.51109989000E-03 0.  1.
     -623   -1    0    0    0    0  0.00000000000E+00  0.00000000000E+00  0.12525980253E-10  0.17130000000E+03  0.17130000000E+03 0.  1.
       11    1    1    2    0    0 -0.15572836949E-02 -0.17515360360E-02  0.53127833913E-01  0.53181960934E-01  0.51109989000E-03 0.  1.
     -623    1    1    2    0    0  0.60463901933E-03  0.59789033415E-04  0.25727335191E-03  0.17130000000E+03  0.17130000000E+03 0.  1.
      622    1    1    2    0    0  0.95264467558E-03  0.16917470025E-02  0.39466148601E+01  0.39468180378E+01  0.40000000000E-01 0.  1.
</event>
<event>
 5   0  0.6200596E+07  0.9118800E+02  0.7818608E-02  0.1180000E+00
       11   -1    0    0    0    0  0.00000000000E+00  0.00000000000E+00  0.39999999673E+01  0.40000000000E+01  0.51109989000E-03 0.  1.
     -623   -1    0    0    0    0  0.00000000000E+00  0.00000000000E+00  0.12525980253E-10  0.17130000000E+03  0.17130000000E+03 0. -1.
       11    1    1    2    0    0  0.90937174527E-04 -0.25211076456E-03  0.12603495313E+00  0.12603627438E+00  0.51109989000E-03 0.  1.
     -623    1    1    2    0    0 -0.36075387379E-03  0.73235425059E-04  0.20781500393E-03  0.17130000000E+03  0.17130000000E+03 0. -1.
      622    1    1    2    0    0  0.26981669926E-03  0.17887533950E-03  0.38737571992E+01  0.38739637251E+01  0.40000000000E-01 0.  1.
</event>
<event>
 5   0  0.6200596E+07  0.9118800E+02  0.7818608E-02  0.1180000E+00
       11   -1    0    0    0    0  0.00000000000E+00  0.00000000000E+00  0.39999999673E+01  0.40000000000E+01  0.51109989000E-03 0. -1.
     -623   -1    0    0    0    0  0.00000000000E+00  0.00000000000E+00  0.12525980253E-10  0.17130000000E+03  0.17130000000E+03 0.  1.
       11    1    1    2    0    0 -0.84326452022E-03 -0.13648912636E-01  0.98199517634E+00  0.98209052103E+00  0.51109989000E-03 0. -1.
     -623    1    1    2    0    0  0.11361519470E-02 -0.86302900347E-03  0.39532284215E-03  0.17130000001E+03  0.17130000000E+03 0.  1.
      622    1    1    2    0    0 -0.29288742681E-03  0.14511941639E-01  0.30176094682E+01  0.30179094726E+01  0.40000000000E-01 0. -1.
</event>
<event>
 5   0  0.6200596E+07  0.9118800E+02  0.7818608E-02  0.1180000E+00
       11   -1    0    0    0    0  0.00000000000E+00  0.00000000000E+00  0.39999999673E+01  0.40000000000E+01  0.51109989000E-03 0.  1.
     -623   -1    0    0    0    0  0.00000000000E+00  0.00000000000E+00  0.12525980253E-10  0.17130000000E+03  0.17130000000E+03 0.  1.
       11    1    1    2    0    0  0.84538471440E-02  0.38499748679E-02  0.82380227918E+00  0.82385480896E+00  0.51109989000E-03 0.  1.
     -623    1    1    2    0    0  0.54892030529E-03 -0.59207977426E-02  0.31792360954E-03  0.17130000010E+03  0.17130000000E+03 0.  1.
      622    1    1    2    0    0 -0.90027674493E-02  0.20708228748E-02  0.31758797646E+01  0.31761450875E+01  0.40000000000E-01 0.  1.
</event>
<event>
 5   0  0.6200596E+07  0.9118800E+02  0.7818608E-02  0.1180000E+00
       11   -1    0    0    0    0  0.00000000000E+00  0.00000000000E+00  0.39999999673E+01  0.40000000000E+01  0.51109989000E-03 0. -1.
     -623   -1    0    0    0    0  0.00000000000E+00  0.00000000000E+00  0.12525980253E-10  0.17130000000E+03  0.17130000000E+03 0.  1.
       11    1    1    2    0    0 -0.30951507822E-01 -0.51903428567E-01  0.32869019915E+01  0.32874575168E+01  0.51109989000E-03 0. -1.
     -623    1    1    2    0    0  0.32919785800E-01  0.64816278506E-01  0.18145034600E-02  0.17130001544E+03  0.17130000000E+03 0.  1.
      622    1    1    2    0    0 -0.19682779779E-02 -0.12912849939E-01  0.71128347236E+00  0.71252704781E+00  0.40000000000E-01 0. -1.
</event>
<event>
 5   0  0.6200596E+07  0.9118800E+02  0.7818608E-02  0.1180000E+00
       11   -1    0    0    0    0  0.00000000000E+00  0.00000000000E+00  0.39999999673E+01  0.40000000000E+01  0.51109989000E-03 0. -1.
     -623   -1    0    0    0    0  0.00000000000E+00  0.00000000000E+00  0.12525980253E-10  0.17130000000E+03  0.17130000000E+03 0. -1.
       11    1    1    2    0    0 -0.53265915393E-02 -0.59502818537E-02  0.13628654667E+00  0.13652128940E+00  0.51109989000E-03 0. -1.
     -623    1    1    2    0    0  0.73269887534E-02  0.34651818029E-02  0.44329242453E-03  0.17130000019E+03  0.17130000000E+03 0. -1.
      622    1    1    2    0    0 -0.20003972141E-02  0.24851000508E-02  0.38632701283E+01  0.38634785183E+01  0.40000000000E-01 0. -1.
</event>
<event>
 5   0  0.6200596E+07  0.9118800E+02  0.7818608E-02  0.1180000E+00
       11   -1    0    0    0    0  0.00000000000E+00  0.00000000000E+00  0.39999999673E+01  0.40000000000E+01  0.51109989000E-03 0.  1.
     -623   -1    0    0    0    0  0.00000000000E+00  0.00000000000E+00  0.12525980253E-10  0.17130000000E+03  0.17130000000E+03 0.  1.
       11    1    1    2    0    0 -0.47090177856E-04  0.64162230069E-04  0.64814926746E+00  0.64814947386E+00  0.51109989000E-03 0.  1.
     -623    1    1    2    0    0 -0.50456891257E-03 -0.22361234286E-03  0.23890663372E-03  0.17130000000E+03  0.17130000000E+03 0.  1.
      622    1    1    2    0    0  0.55165909043E-03  0.15945011279E-03  0.33516117933E+01  0.33518505251E+01  0.40000000000E-01 0.  1.
</event>
<event>
 5   0  0.6200596E+07  0.9118800E+02  0.7818608E-02  0.1180000E+00
       11   -1    0    0    0    0  0.00000000000E+00  0.00000000000E+00  0.39999999673E+01  0.40000000000E+01  0.51109989000E-03 0. -1.
     -623   -1    0    0    0    0  0.00000000000E+00  0.00000000000E+00  0.12525980253E-10  0.17130000000E+03  0.17130000000E+03 0.  1.
       11    1    1    2    0    0  0.75176315301E-01  0.57607429872E-01  0.38740353453E+01  0.38751929258E+01  0.51109989000E-03 0. -1.
     -623    1    1    2    0    0 -0.33589608433E-01 -0.10205472585E-01  0.25969538350E-01  0.17130000557E+03  0.17130000000E+03 0.  1.
      622    1    1    2    0    0 -0.41586706868E-01 -0.47401957287E-01  0.99995083753E-01  0.12480150847E+00  0.40000000000E-01 0.  0.
</event>
<event>
 5   0  0.6200596E+07  0.9118800E+02  0.7818608E-02  0.1180000E+00
       11   -1    0    0    0    0  0.00000000000E+00  0.00000000000E+00  0.39999999673E+01  0.40000000000E+01  0.51109989000E-03 0. -1.
     -623   -1    0    0    0    0  0.00000000000E+00  0.00000000000E+00  0.12525980253E-10  0.17130000000E+03  0.17130000000E+03 0.  1.
       11    1    1    2    0    0 -0.10978130353E-02  0.93121092759E-03  0.44918310067E-01  0.44944278249E-01  0.51109989000E-03 0. -1.
     -623    1    1    2    0    0  0.96291830683E-03 -0.20064298498E-02  0.22837653717E-03  0.17130000001E+03  0.17130000000E+03 0.  1.
      622    1    1    2    0    0  0.13489472842E-03  0.10752189222E-02  0.39548532808E+01  0.39550557071E+01  0.40000000000E-01 0. -1.
</event>
<event>
 5   0  0.6200596E+07  0.9118800E+02  0.7818608E-02  0.1180000E+00
       11   -1    0    0    0    0  0.00000000000E+00  0.00000000000E+00  0.39999999673E+01  0.40000000000E+01  0.51109989000E-03 0. -1.
     -623   -1    0    0    0    0  0.00000000000E+00  0.00000000000E+00  0.12525980253E-10  0.17130000000E+03  0.17130000000E+03 0. -1.
       11    1    1    2    0    0  0.33388527408E-02 -0.63278229815E-03  0.68902660864E-01  0.68988305149E-01  0.51109989000E-03 0. -1.
     -623    1    1    2    0    0 -0.27954280629E-02  0.73407143497E-02  0.29506834034E-03  0.17130000018E+03  0.17130000000E+03 0. -1.
      622    1    1    2    0    0 -0.54342467782E-03 -0.67079320515E-02  0.39308022382E+01  0.39310115145E+01  0.40000000000E-01 0. -1.
</event>
<event>
 5   0  0.6200596E+07  0.9118800E+02  0.7818608E-02  0.1180000E+00
       11   -1    0    0    0    0  0.00000000000E+00  0.00000000000E+00  0.39999999673E+01  0.40000000000E+01  0.51109989000E-03 0.  1.
     -623   -1    0    0    0    0  0.00000000000E+00  0.00000000000E+00  0.12525980253E-10  0.17130000000E+03  0.17130000000E+03 0. -1.
       11    1    1    2    0    0  0.15582623911E-01 -0.16975663976E-01  0.12776432062E+01  0.12778510926E+01  0.51109989000E-03 0.  1.
     -623    1    1    2    0    0 -0.38723549595E-01  0.15023284473E-01  0.60586543747E-03  0.17130000504E+03  0.17130000000E+03 0. -1.
      622    1    1    2    0    0  0.23140925684E-01  0.19523795027E-02  0.27217508957E+01  0.27221438707E+01  0.40000000000E-01 0.  1.
</event>
<event>
 5   0  0.6200596E+07  0.9118800E+02  0.7818608E-02  0.1180000E+00
       11   -1    0    0    0    0  0.00000000000E+00  0.00000000000E+00  0.39999999673E+01  0.40000000000E+01  0.51109989000E-03 0.  1.
     -623   -1    0    0    0    0  0.00000000000E+00  0.00000000000E+00  0.12525980253E-10  0.17130000000E+03  0.17130000000E+03 0. -1.
       11    1    1    2    0    0  0.33756741239E-02 -0.25883836516E-02  0.93024166759E-03  0.43842305066E-02  0.51109989000E-03 0.  1.
     -623    1    1    2    0    0 -0.81465110442E-02  0.27848139371E-02  0.36572892755E-02  0.17130000026E+03  0.17130000000E+03 0. -1.
      622    1    1    2    0    0  0.47708369203E-02 -0.19643028548E-03  0.39954124364E+01  0.39956155141E+01  0.40000000000E-01 0.  1.
</event>
<event>
 5   0  0.6200596E+07  0.9118800E+02  0.7818608E-02  0.1180000E+00
       11   -1    0    0    0    0  0.00000000000E+00  0.00000000000E+00  0.39999999673E+01  0.40000000000E+01  0.51109989000E-03 0.  1.
     -623   -1    0    0    0    0  0.00000000000E+00  0.00000000000E+00  0.12525980253E-10  0.17130000000E+03  0.17130000000E+03 0.  1.
       11    1    1    2    0    0 -0.22961058869E-01  0.47548290748E-02  0.46213886662E+00  0.46273362951E+00  0.51109989000E-03 0.  1.
     -623    1    1    2    0    0  0.85490140708E-03 -0.72574278109E-02  0.89102573781E-03  0.17130000016E+03  0.17130000000E+03 0.  1.
      622    1    1    2    0    0  0.22106157461E-01  0.25025987360E-02  0.35369700750E+01  0.35372662123E+01  0.40000000000E-01 0.  1.
</event>
<event>
 5   0  0.6200596E+07  0.9118800E+02  0.7818608E-02  0.1180000E+00
       11   -1    0    0    0    0  0.00000000000E+00  0.00000000000E+00  0.39999999673E+01  0.40000000000E+01  0.51109989000E-03 0.  1.
     -623   -1    0    0    0    0  0.00000000000E+00  0.00000000000E+00  0.12525980253E-10  0.17130000000E+03  0.17130000000E+03 0. -1.
       11    1    1    2    0    0 -0.30193984415E-02  0.97284415443E-03  0.15362023486E+00  0.15365383487E+00  0.51109989000E-03 0.  1.
     -623    1    1    2    0    0 -0.89967923380E-04 -0.12299618003E-02  0.24283267451E-03  0.17130000000E+03  0.17130000000E+03 0. -1.
      622    1    1    2    0    0  0.31093663648E-02  0.25711764587E-03  0.38461368998E+01  0.38463461605E+01  0.40000000000E-01 0.  1.
</event>
<event>
 5   0  0.6200596E+07  0.9118800E+02  0.7818608E-02  0.1180000E+00
       11   -1    0    0    0    0  0.00000000000E+00  0.00000000000E+00  0.39999999673E+01  0.40000000000E+01  0.51109989000E-03 0.  1.
     -623   -1    0    0    0    0  0.00000000000E+00  0.00000000000E+00  0.12525980253E-10  0.17130000000E+03  0.17130000000E+03 0. -1.
       11    1    1    2    0    0 -0.17990847365E-01 -0.23839595714E-03  0.46861122969E+00  0.46895679250E+00  0.51109989000E-03 0.  1.
     -623    1    1    2    0    0  0.20319524769E-02 -0.16597645191E-02  0.60869717741E-03  0.17130000002E+03  0.17130000000E+03 0. -1.
      622    1    1    2    0    0  0.15958894888E-01  0.18981604762E-02  0.35307800405E+01  0.35310431863E+01  0.40000000000E-01 0.  1.
</event>
<event>
 5   0  0.6200596E+07  0.9118800E+02  0.7818608E-02  0.1180000E+00
       11   -1    0    0    0    0  0.00000000000E+00  0.00000000000E+00  0.39999999673E+01  0.40000000000E+01  0.51109989000E-03 0. -1.
     -623   -1    0    0    0    0  0.00000000000E+00  0.00000000000E+00  0.12525980253E-10  0.17130000000E+03  0.17130000000E+03 0. -1.
       11    1    1    2    0    0  0.10292220148E-01  0.16048892956E-02  0.72198483214E-01  0.72947842081E-01  0.51109989000E-03 0. -1.
     -623    1    1    2    0    0  0.58069604421E-02 -0.16585770814E-01  0.10155290023E-02  0.17130000090E+03  0.17130000000E+03 0. -1.
      622    1    1    2    0    0 -0.16099180590E-01  0.14980881518E-01  0.39267859551E+01  0.39270512535E+01  0.40000000000E-01 0. -1.
</event>
<event>
 5   0  0.6200596E+07  0.9118800E+02  0.7818608E-02  0.1180000E+00
       11   -1    0    0    0    0  0.00000000000E+00  0.00000000000E+00  0.39999999673E+01  0.40000000000E+01  0.51109989000E-03 0.  1.
     -623   -1    0    0    0    0  0.00000000000E+00  0.00000000000E+00  0.12525980253E-10  0.17130000000E+03  0.17130000000E+03 0.  1.
       11    1    1    2    0    0  0.89778370026E-02  0.12143996045E-02  0.39959950937E+00  0.39970252117E+00  0.51109989000E-03 0.  1.
     -623    1    1    2    0    0  0.11463514022E-02 -0.14936325325E-03  0.33958739034E-03  0.17130000000E+03  0.17130000000E+03 0.  1.
      622    1    1    2    0    0 -0.10124188405E-01 -0.10650363512E-02  0.36000608706E+01  0.36002974746E+01  0.40000000000E-01 0.  1.
</event>
<event>
 5   0  0.6200596E+07  0.9118800E+02  0.7818608E-02  0.1180000E+00
       11   -1    0    0    0    0  0.00000000000E+00  0.00000000000E+00  0.39999999673E+01  0.40000000000E+01  0.51109989000E-03 0.  1.
     -623   -1    0    0    0    0  0.00000000000E+00  0.00000000000E+00  0.12525980253E-10  0.17130000000E+03  0.17130000000E+03 0. -1.
       11    1    1    2    0    0  0.36474523139E-02  0.25566738815E-02  0.72872711092E-01  0.73010504271E-01  0.51109989000E-03 0.  1.
     -623    1    1    2    0    0 -0.12223371985E-02  0.19286568689E-03  0.34320050224E-03  0.17130000000E+03  0.17130000000E+03 0. -1.
      622    1    1    2    0    0 -0.24251151154E-02 -0.27495395684E-02  0.39267840558E+01  0.39269894909E+01  0.40000000000E-01 0.  1.
</event>
<event>
 5   0  0.6200596E+07  0.9118800E+02  0.7818608E-02  0.1180000E+00
       11   -1    0    0    0    0  0.00000000000E+00  0.00000000000E+00  0.39999999673E+01  0.40000000000E+01  0.51109989000E-03 0.  1.
     -623   -1    0    0    0    0  0.00000000000E+00  0.00000000000E+00  0.12525980253E-10  0.17130000000E+03  0.17130000000E+03 0. -1.
       11    1    1    2    0    0 -0.32918132040E-03  0.16524941920E-02  0.36810597916E-02  0.40805048137E-02  0.51109989000E-03 0.  1.
     -623    1    1    2    0    0  0.11597017604E-02 -0.82900989947E-03  0.59979978263E-03  0.17130000001E+03  0.17130000000E+03 0. -1.
      622    1    1    2    0    0 -0.83052043997E-03 -0.82348429253E-03  0.39957191078E+01  0.39959194882E+01  0.40000000000E-01 0.  1.
</event>
<event>
 5   0  0.6200596E+07  0.9118800E+02  0.7818608E-02  0.1180000E+00
       11   -1    0    0    0    0  0.00000000000E+00  0.00000000000E+00  0.39999999673E+01  0.40000000000E+01  0.51109989000E-03 0.  1.
     -623   -1    0    0    0    0  0.00000000000E+00  0.00000000000E+00  0.12525980253E-10  0.17130000000E+03  0.17130000000E+03 0. -1.
       11    1    1    2    0    0  0.33374889790E-02 -0.55274320533E-02  0.50848245719E-01  0.51259112864E-01  0.51109989000E-03 0.  1.
     -623    1    1    2    0    0 -0.71923147063E-03 -0.83640839678E-03  0.61943696722E-03  0.17130000000E+03  0.17130000000E+03 0. -1.
      622    1    1    2    0    0 -0.26182575084E-02  0.63638404501E-02  0.39485322847E+01  0.39487408825E+01  0.40000000000E-01 0.  1.
</event>
<event>
 5   0  0.6200596E+07  0.9118800E+02  0.7818608E-02  0.1180000E+00
       11   -1    0    0    0    0  0.00000000000E+00  0.00000000000E+00  0.39999999673E+01  0.40000000000E+01  0.51109989000E-03 0.  1.
     -623   -1    0    0    0    0  0.00000000000E+00  0.00000000000E+00  0.12525980253E-10  0.17130000000E+03  0.17130000000E+03 0. -1.
       11    1    1    2    0    0 -0.23968253323E-03 -0.62492133280E-03  0.32976923040E-01  0.32987674204E-01  0.51109989000E-03 0.  1.
     -623    1    1    2    0    0 -0.29750139974E-03  0.90858669268E-03  0.21243606396E-03  0.17130000000E+03  0.17130000000E+03 0. -1.
      622    1    1    2    0    0  0.53718393297E-03 -0.28366535989E-03  0.39668106083E+01  0.39670123230E+01  0.40000000000E-01 0.  1.
</event>
<event>
 5   0  0.6200596E+07  0.9118800E+02  0.7818608E-02  0.1180000E+00
       11   -1    0    0    0    0  0.00000000000E+00  0.00000000000E+00  0.39999999673E+01  0.40000000000E+01  0.51109989000E-03 0. -1.
     -623   -1    0    0    0    0  0.00000000000E+00  0.00000000000E+00  0.12525980253E-10  0.17130000000E+03  0.17130000000E+03 0. -1.
       11    1    1    2    0    0 -0.74086139353E-01 -0.23606367352E-01  0.30470600639E+00  0.31447102915E+00  0.51109989000E-03 0. -1.
     -623    1    1    2    0    0  0.70382356933E-01 -0.14983980632E-01  0.10201395778E-01  0.17130001542E+03  0.17130000000E+03 0. -1.
      622    1    1    2    0    0  0.37037824202E-02  0.38590347985E-01  0.36850925652E+01  0.36855135527E+01  0.40000000000E-01 0. -1.
</event>
<event>
 5   0  0.6200596E+07  0.9118800E+02  0.7818608E-02  0.1180000E+00
       11   -1    0    0    0    0  0.00000000000E+00  0.00000000000E+00  0.39999999673E+01  0.40000000000E+01  0.51109989000E-03 0. -1.
     -623   -1    0    0    0    0  0.00000000000E+00  0.00000000000E+00  0.12525980253E-10  0.17130000000E+03  0.17130000000E+03 0.  1.
       11    1    1    2    0    0  0.54080395863E-02 -0.15318058240E-01  0.45226376973E+00  0.45255570755E+00  0.51109989000E-03 0. -1.
     -623    1    1    2    0    0  0.17292832932E-02 -0.40033514741E-03  0.55944321318E-03  0.17130000001E+03  0.17130000000E+03 0.  1.
      622    1    1    2    0    0 -0.71373228795E-02  0.15718393388E-01  0.35471767544E+01  0.35474442823E+01  0.40000000000E-01 0. -1.
</event>
<event>
 5   0  0.6200596E+07  0.9118800E+02  0.7818608E-02  0.1180000E+00
       11   -1    0    0    0    0  0.00000000000E+00  0.00000000000E+00  0.39999999673E+01  0.40000000000E+01  0.51109989000E-03 0.  1.
     -623   -1    0    0    0    0  0.00000000000E+00  0.00000000000E+00  0.12525980253E-10  0.17130000000E+03  0.17130000000E+03 0.  1.
       11    1    1    2    0    0 -0.34533559066E-02  0.11746285725E-02  0.18179281561E-01  0.18548663515E-01  0.51109989000E-03 0.  1.
     -623    1    1    2    0    0 -0.12996205711E-01  0.37930251959E-02  0.60790443982E-03  0.17130000054E+03  0.17130000000E+03 0.  1.
      622    1    1    2    0    0  0.16449561617E-01 -0.49676537684E-02  0.39812127814E+01  0.39814508004E+01  0.40000000000E-01 0.  1.
</event>
<event>
 5   0  0.6200596E+07  0.9118800E+02  0.7818608E-02  0.1180000E+00
       11   -1    0    0    0    0  0.00000000000E+00  0.00000000000E+00  0.39999999673E+01  0.40000000000E+01  0.51109989000E-03 0.  1.
     -623   -1    0    0    0    0  0.00000000000E+00  0.00000000000E+00  0.12525980253E-10  0.17130000000E+03  0.17130000000E+03 0. -1.
       11    1    1    2    0    0 -0.43979029726E-03  0.13435654736E-03  0.43596281921E+00  0.43596336134E+00  0.51109989000E-03 0.  1.
     -623    1    1    2    0    0 -0.34959869906E-02  0.53972161511E-03  0.22725484389E-03  0.17130000004E+03  0.17130000000E+03 0. -1.
      622    1    1    2    0    0  0.39357772879E-02 -0.67407816246E-03  0.35638098933E+01  0.35640366020E+01  0.40000000000E-01 0.  1.
</event>
<event>
 5   0  0.6200596E+07  0.9118800E+02  0.7818608E-02  0.1180000E+00
       11   -1    0    0    0    0  0.00000000000E+00  0.00000000000E+00  0.39999999673E+01  0.40000000000E+01  0.51109989000E-03 0. -1.
     -623   -1    0    0    0    0  0.00000000000E+00  0.00000000000E+00  0.12525980253E-10  0.17130000000E+03  0.17130000000E+03 0.  1.
       11    1    1    2    0    0  0.11770069116E-02  0.23549367198E-02  0.45035599345E-01  0.45115379875E-01  0.51109989000E-03 0. -1.
     -623    1    1    2    0    0  0.83098506066E-02 -0.30692663554E-03  0.29414595528E-03  0.17130000020E+03  0.17130000000E+03 0.  1.
      622    1    1    2    0    0 -0.94868575182E-02 -0.20480100843E-02  0.39546702221E+01  0.39548844180E+01  0.40000000000E-01 0. -1.
</event>
<event>
 5   0  0.6200596E+07  0.9118800E+02  0.7818608E-02  0.1180000E+00
       11   -1    0    0    0    0  0.00000000000E+00  0.00000000000E+00  0.39999999673E+01  0.40000000000E+01  0.51109989000E-03 0. -1.
     -623   -1    0    0    0    0  0.00000000000E+00  0.00000000000E+00  0.12525980253E-10  0.17130000000E+03  0.17130000000E+03 0.  1.
       11    1    1    2    0    0  0.11162215491E-02  0.62435039289E-03  0.29934220512E-01  0.29965889672E-01  0.51109989000E-03 0. -1.
     -623    1    1    2    0    0 -0.41190705869E-02 -0.32074117180E-02  0.23520702202E-03  0.17130000008E+03  0.17130000000E+03 0.  1.
      622    1    1    2    0    0  0.30028490378E-02  0.25830613251E-02  0.39698305398E+01  0.39700340306E+01  0.40000000000E-01 0. -1.
</event>
<event>
 5   0  0.6200596E+07  0.9118800E+02  0.7818608E-02  0.1180000E+00
       11   -1    0    0    0    0  0.00000000000E+00  0.00000000000E+00  0.39999999673E+01  0.40000000000E+01  0.51109989000E-03 0.  1.
     -623   -1    0    0    0    0  0.00000000000E+00  0.00000000000E+00  0.12525980253E-10  0.17130000000E+03  0.17130000000E+03 0. -1.
       11    1    1    2    0    0 -0.69922757413E-02  0.38199612210E-02  0.62531314925E-01  0.63038960901E-01  0.51109989000E-03 0.  1.
     -623    1    1    2    0    0 -0.30260954173E-02 -0.21758560918E-02  0.72395392702E-03  0.17130000004E+03  0.17130000000E+03 0. -1.
      622    1    1    2    0    0  0.10018371159E-01 -0.16441051292E-02  0.39367446985E+01  0.39369609970E+01  0.40000000000E-01 0.  1.
</event>
<event>
 5   0  0.6200596E+07  0.9118800E+02  0.7818608E-02  0.1180000E+00
       11   -1    0    0    0    0  0.00000000000E+00  0.00000000000E+00  0.39999999673E+01  0.40000000000E+01  0.51109989000E-03 0. -1.
     -623   -1    0    0    0    0  0.00000000000E+00  0.00000000000E+00  0.12525980253E-10  0.17130000000E+03  0.17130000000E+03 0.  1.
       11    1    1    2    0    0 -0.17311544864E-01  0.18830048761E-01  0.25654337518E+00  0.25781587401E+00  0.51109989000E-03 0. -1.
     -623    1    1    2    0    0  0.57647752036E-02  0.73919209067E-03  0.15553429581E-02  0.17130000011E+03  0.17130000000E+03 0.  1.
      622    1    1    2    0    0  0.11546769660E-01 -0.19569240852E-01  0.37419012492E+01  0.37421840203E+01  0.40000000000E-01 0. -1.
</event>
<event>
 5   0  0.6200596E+07  0.9118800E+02  0.7818608E-02  0.1180000E+00
       11   -1    0    0    0    0  0.00000000000E+00  0.00000000000E+00  0.39999999673E+01  0.40000000000E+01  0.51109989000E-03 0. -1.
     -623   -1    0    0    0    0  0.00000000000E+00  0.00000000000E+00  0.12525980253E-10  0.17130000000E+03  0.17130000000E+03 0. -1.
       11    1    1    2    0    0  0.14150352169E-02  0.10552770683E-01  0.24638493185E+00  0.24661540738E+00  0.51109989000E-03 0. -1.
     -623    1    1    2    0    0 -0.23864031009E-03 -0.20493339313E-01  0.45816518527E-03  0.17130000123E+03  0.17130000000E+03 0. -1.
      622    1    1    2    0    0 -0.11763949069E-02  0.99405686299E-02  0.37531568703E+01  0.37533833660E+01  0.40000000000E-01 0. -1.
</event>
<event>
 5   0  0.6200596E+07  0.9118800E+02  0.7818608E-02  0.1180000E+00
       11   -1    0    0    0    0  0.00000000000E+00  0.00000000000E+00  0.39999999673E+01  0.40000000000E+01  0.51109989000E-03 0. -1.
     -623   -1    0    0    0    0  0.00000000000E+00  0.00000000000E+00  0.12525980253E-10  0.17130000000E+03  0.17130000000E+03 0.  1.
       11    1    1    2    0    0 -0.43046484818E-01 -0.86590807230E-02  0.15928740411E+01  0.15934791971E+01  0.51109989000E-03 0. -1.
     -623    1    1    2    0    0 -0.45185650631E-03  0.48858583176E-03  0.13446642747E-02  0.17130000001E+03  0.17130000000E+03 0.  1.
      622    1    1    2    0    0  0.43498341324E-01  0.81704948912E-02  0.24057812620E+01  0.24065207963E+01  0.40000000000E-01 0.  1.
</event>
<event>
 5   0  0.6200596E+07  0.9118800E+02  0.7818608E-02  0.1180000E+00
       11   -1    0    0    0    0  0.00000000000E+00  0.00000000000E+00  0.39999999673E+01  0.40000000000E+01  0.51109989000E-03 0.  1.
     -623   -1    0    0    0    0  0.00000000000E+00  0.00000000000E+00  0.12525980253E-10  0.17130000000E+03  0.17130000000E+03 0.  1.
       11    1    1    2    0    0 -0.97983264965E-03 -0.24126531638E-04  0.76588607600E-01  0.76596584047E-01  0.51109989000E-03 0.  1.
     -623    1    1    2    0    0  0.17225781237E-02  0.15120675538E-02  0.21222164413E-03  0.17130000002E+03  0.17130000000E+03 0.  1.
      622    1    1    2    0    0 -0.74274547404E-03 -0.14879410222E-02  0.39231991381E+01  0.39234034005E+01  0.40000000000E-01 0.  1.
</event>
<event>
 5   0  0.6200596E+07  0.9118800E+02  0.7818608E-02  0.1180000E+00
       11   -1    0    0    0    0  0.00000000000E+00  0.00000000000E+00  0.39999999673E+01  0.40000000000E+01  0.51109989000E-03 0.  1.
     -623   -1    0    0    0    0  0.00000000000E+00  0.00000000000E+00  0.12525980253E-10  0.17130000000E+03  0.17130000000E+03 0.  1.
       11    1    1    2    0    0 -0.25842221598E-02  0.99323385765E-03  0.40388367802E+00  0.40389349006E+00  0.51109989000E-03 0.  1.
     -623    1    1    2    0    0  0.53971661822E-03 -0.10025704759E-02  0.23283427303E-03  0.17130000000E+03  0.17130000000E+03 0.  1.
      622    1    1    2    0    0  0.20445055416E-02  0.93366182587E-05  0.35958834551E+01  0.35961065060E+01  0.40000000000E-01 0.  1.
</event>
<event>
 5   0  0.6200596E+07  0.9118800E+02  0.7818608E-02  0.1180000E+00
       11   -1    0    0    0    0  0.00000000000E+00  0.00000000000E+00  0.39999999673E+01  0.40000000000E+01  0.51109989000E-03 0. -1.
     -623   -1    0    0    0    0  0.00000000000E+00  0.00000000000E+00  0.12525980253E-10  0.17130000000E+03  0.17130000000E+03 0.  1.
       11    1    1    2    0    0 -0.41379791451E-02 -0.56383558007E-02  0.90537885403E-01  0.90809051539E-01  0.51109989000E-03 0. -1.
     -623    1    1    2    0    0  0.11646678134E-02  0.20331418144E-02  0.47859479974E-03  0.17130000002E+03  0.17130000000E+03 0.  1.
      622    1    1    2    0    0  0.29733113318E-02  0.36052139863E-02  0.39089834872E+01  0.39091909318E+01  0.40000000000E-01 0. -1.
</event>
<event>
 5   0  0.6200596E+07  0.9118800E+02  0.7818608E-02  0.1180000E+00
       11   -1    0    0    0    0  0.00000000000E+00  0.00000000000E+00  0.39999999673E+01  0.40000000000E+01  0.51109989000E-03 0.  1.
     -623   -1    0    0    0    0  0.00000000000E+00  0.00000000000E+00  0.12525980253E-10  0.17130000000E+03  0.17130000000E+03 0.  1.
       11    1    1    2    0    0 -0.40908027135E-02 -0.11219804970E-01  0.10695073332E+01  0.10695741282E+01  0.51109989000E-03 0.  1.
     -623    1    1    2    0    0  0.10285856400E-01  0.28109957033E-01  0.39761790721E-03  0.17130000262E+03  0.17130000000E+03 0.  1.
      622    1    1    2    0    0 -0.61950536869E-02 -0.16890152064E-01  0.29300950162E+01  0.29304232561E+01  0.40000000000E-01 0.  1.
</event>
<event>
 5   0  0.6200596E+07  0.9118800E+02  0.7818608E-02  0.1180000E+00
       11   -1    0    0    0    0  0.00000000000E+00  0.00000000000E+00  0.39999999673E+01  0.40000000000E+01  0.51109989000E-03 0.  1.
     -623   -1    0    0    0    0  0.00000000000E+00  0.00000000000E+00  0.12525980253E-10  0.17130000000E+03  0.17130000000E+03 0.  1.
       11    1    1    2    0    0 -0.16567558779E-01 -0.55852276149E-02  0.24941009402E+01  0.24941622722E+01  0.51109989000E-03 0.  1.
     -623    1    1    2    0    0 -0.80126748621E-03  0.12836634703E-02  0.69902099389E-03  0.17130000001E+03  0.17130000000E+03 0.  1.
      622    1    1    2    0    0  0.17368826265E-01  0.43015641446E-02  0.15052000061E+01  0.15058377197E+01  0.40000000000E-01 0.  1.
</event>
<event>
 5   0  0.6200596E+07  0.9118800E+02  0.7818608E-02  0.1180000E+00
       11   -1    0    0    0    0  0.00000000000E+00  0.00000000000E+00  0.39999999673E+01  0.40000000000E+01  0.51109989000E-03 0.  1.
     -623   -1    0    0    0    0  0.00000000000E+00  0.00000000000E+00  0.12525980253E-10  0.17130000000E+03  0.17130000000E+03 0. -1.
       11    1    1    2    0    0 -0.32885876153E-02  0.13463121891E-01  0.19783794443E+00  0.19832343265E+00  0.51109989000E-03 0.  1.
     -623    1    1    2    0    0  0.99316226083E-02 -0.20424510186E-01  0.70958029975E-03  0.17130000151E+03  0.17130000000E+03 0. -1.
      622    1    1    2    0    0 -0.66430349930E-02  0.69613882943E-02  0.38014524426E+01  0.38016750603E+01  0.40000000000E-01 0.  1.
</event>
<event>
 5   0  0.6200596E+07  0.9118800E+02  0.7818608E-02  0.1180000E+00
       11   -1    0    0    0    0  0.00000000000E+00  0.00000000000E+00  0.39999999673E+01  0.40000000000E+01  0.51109989000E-03 0.  1.
     -623   -1    0    0    0    0  0.00000000000E+00  0.00000000000E+00  0.12525980253E-10  0.17130000000E+03  0.17130000000E+03 0. -1.
       11    1    1    2    0    0  0.28660917451E-02 -0.21738976748E-02  0.10334852643E+00  0.10341237571E+00  0.51109989000E-03 0.  1.
     -623    1    1    2    0    0 -0.60955160221E-03 -0.50895276737E-03  0.27070900462E-03  0.17130000000E+03  0.17130000000E+03 0. -1.
      622    1    1    2    0    0 -0.22565401429E-02  0.26828504422E-02  0.38963807319E+01  0.38965876222E+01  0.40000000000E-01 0.  1.
</event>
<event>
 5   0  0.6200596E+07  0.9118800E+02  0.7818608E-02  0.1180000E+00
       11   -1    0    0    0    0  0.00000000000E+00  0.00000000000E+00  0.39999999673E+01  0.40000000000E+01  0.51109989000E-03 0. -1.
     -623   -1    0    0    0    0  0.00000000000E+00  0.00000000000E+00  0.12525980253E-10  0.17130000000E+03  0.17130000000E+03 0.  1.
       11    1    1    2    0    0 -0.29750845334E-01  0.56259049720E-01  0.20459717627E+01  0.20469613842E+01  0.51109989000E-03 0. -1.
     -623    1    1    2    0    0 -0.12175301382E-01 -0.32202127276E-01  0.20011201012E-02  0.17130000347E+03  0.17130000000E+03 0.  1.
      622    1    1    2    0    0  0.41926146717E-01 -0.24056922444E-01  0.19520270845E+01  0.19530351446E+01  0.40000000000E-01 0. -1.
</event>
<event>
 5   0  0.6200596E+07  0.9118800E+02  0.7818608E-02  0.1180000E+00
       11   -1    0    0    0    0  0.00000000000E+00  0.00000000000E+00  0.39999999673E+01  0.40000000000E+01  0.51109989000E-03 0.  1.
     -623   -1    0    0    0    0  0.00000000000E+00  0.00000000000E+00  0.12525980253E-10  0.17130000000E+03  0.17130000000E+03 0.  1.
       11    1    1    2    0    0 -0.67331907480E-03 -0.14295653502E-02  0.37419252559E+00  0.37419621116E+00  0.51109989000E-03 0.  1.
     -623    1    1    2    0    0  0.59364484173E-02 -0.10079722832E-02  0.22904591032E-03  0.17130000011E+03  0.17130000000E+03 0.  1.
      622    1    1    2    0    0 -0.52631293425E-02  0.24375376335E-02  0.36255783959E+01  0.36258036829E+01  0.40000000000E-01 0. -1.
</event>
<event>
 5   0  0.6200596E+07  0.9118800E+02  0.7818608E-02  0.1180000E+00
       11   -1    0    0    0    0  0.00000000000E+00  0.00000000000E+00  0.39999999673E+01  0.40000000000E+01  0.51109989000E-03 0.  1.
     -623   -1    0    0    0    0  0.00000000000E+00  0.00000000000E+00  0.12525980253E-10  0.17130000000E+03  0.17130000000E+03 0. -1.
       11    1    1    2    0    0 -0.17259978995E-01 -0.10531675531E-01  0.27985004371E+00  0.28057999082E+00  0.51109989000E-03 0.  1.
     -623    1    1    2    0    0 -0.16197121453E-02 -0.47799207148E-04  0.10079853033E-02  0.17130000001E+03  0.17130000000E+03 0. -1.
      622    1    1    2    0    0  0.18879691141E-01  0.10579474738E-01  0.37191419384E+01  0.37194199986E+01  0.40000000000E-01 0.  0.
</event>
<event>
 5   0  0.6200596E+07  0.9118800E+02  0.7818608E-02  0.1180000E+00
       11   -1    0    0    0    0  0.00000000000E+00  0.00000000000E+00  0.39999999673E+01  0.40000000000E+01  0.51109989000E-03 0. -1.
     -623   -1    0    0    0    0  0.00000000000E+00  0.00000000000E+00  0.12525980253E-10  0.17130000000E+03  0.17130000000E+03 0.  1.
       11    1    1    2    0    0 -0.17790761844E-02  0.53058377647E-02  0.50129915274E+00  0.50133064816E+00  0.51109989000E-03 0. -1.
     -623    1    1    2    0    0  0.21060242801E-03  0.32679768418E-03  0.26501525329E-03  0.17130000000E+03  0.17130000000E+03 0.  1.
      622    1    1    2    0    0  0.15684737564E-02 -0.56326354489E-02  0.34984357994E+01  0.34986693512E+01  0.40000000000E-01 0. -1.
</event>
<event>
 5   0  0.6200596E+07  0.9118800E+02  0.7818608E-02  0.1180000E+00
       11   -1    0    0    0    0  0.00000000000E+00  0.00000000000E+00  0.39999999673E+01  0.40000000000E+01  0.51109989000E-03 0. -1.
     -623   -1    0    0    0    0  0.00000000000E+00  0.00000000000E+00  0.12525980253E-10  0.17130000000E+03  0.17130000000E+03 0. -1.
       11    1    1    2    0    0 -0.33257915908E-02  0.45618845263E-02  0.20721251176E+00  0.20729003337E+00  0.51109989000E-03 0. -1.
     -623    1    1    2    0    0  0.48805723352E-02  0.11171821341E-02  0.29306998194E-03  0.17130000007E+03  0.17130000000E+03 0. -1.
      622    1    1    2    0    0 -0.15547807444E-02 -0.56790666604E-02  0.37924943856E+01  0.37927098932E+01  0.40000000000E-01 0. -1.
</event>
<event>
 5   0  0.6200596E+07  0.9118800E+02  0.7818608E-02  0.1180000E+00
       11   -1    0    0    0    0  0.00000000000E+00  0.00000000000E+00  0.39999999673E+01  0.40000000000E+01  0.51109989000E-03 0. -1.
     -623   -1    0    0    0    0  0.00000000000E+00  0.00000000000E+00  0.12525980253E-10  0.17130000000E+03  0.17130000000E+03 0.  1.
       11    1    1    2    0    0  0.64730036379E-03 -0.76571842960E-03  0.18937605791E-01  0.18971016248E-01  0.51109989000E-03 0. -1.
     -623    1    1    2    0    0 -0.54009546211E-03 -0.48362479623E-03  0.23453514537E-03  0.17130000000E+03  0.17130000000E+03 0.  1.
      622    1    1    2    0    0 -0.10720490168E-03  0.12493432258E-02  0.39808278264E+01  0.39810289821E+01  0.40000000000E-01 0. -1.
</event>
<event>
 5   0  0.6200596E+07  0.9118800E+02  0.7818608E-02  0.1180000E+00
       11   -1    0    0    0    0  0.00000000000E+00  0.00000000000E+00  0.39999999673E+01  0.40000000000E+01  0.51109989000E-03 0. -1.
     -623   -1    0    0    0    0  0.00000000000E+00  0.00000000000E+00  0.12525980253E-10  0.17130000000E+03  0.17130000000E+03 0.  1.
       11    1    1    2    0    0 -0.29681094842E-02 -0.32892019428E-01  0.19808707439E+01  0.19811460976E+01  0.51109989000E-03 0. -1.
     -623    1    1    2    0    0 -0.17667042021E-02  0.33351259071E-01  0.68048773893E-03  0.17130000326E+03  0.17130000000E+03 0.  1.
      622    1    1    2    0    0  0.47348136863E-02 -0.45923964248E-03  0.20184487357E+01  0.20188506453E+01  0.40000000000E-01 0.  0.
</event>
<event>
 5   0  0.6200596E+07  0.9118800E+02  0.7818608E-02  0.1180000E+00
       11   -1    0    0    0    0  0.00000000000E+00  0.00000000000E+00  0.39999999673E+01  0.40000000000E+01  0.51109989000E-03 0.  1.
     -623   -1    0    0    0    0  0.00000000000E+00  0.00000000000E+00  0.12525980253E-10  0.17130000000E+03  0.17130000000E+03 0.  1.
       11    1    1    2    0    0 -0.13455947042E+00 -0.45259217018E-01  0.22889308077E+01  0.22933292724E+01  0.51109989000E-03 0.  1.
     -623    1    1    2    0    0  0.35286712247E-01  0.83153006896E-03  0.83410641760E-02  0.17130000384E+03  0.17130000000E+03 0.  1.
      622    1    1    2    0    0  0.99272758168E-01  0.44427686949E-01  0.17027280954E+01  0.17066668881E+01  0.40000000000E-01 0.  1.
</event>
<event>
 5   0  0.6200596E+07  0.9118800E+02  0.7818608E-02  0.1180000E+00
       11   -1    0    0    0    0  0.00000000000E+00  0.00000000000E+00  0.39999999673E+01  0.40000000000E+01  0.51109989000E-03 0. -1.
     -623   -1    0    0    0    0  0.00000000000E+00  0.00000000000E+00  0.12525980253E-10  0.17130000000E+03  0.17130000000E+03 0.  1.
       11    1    1    2    0    0 -0.12244891265E-02 -0.31290784574E-02  0.55184893642E-02  0.64811613494E-02  0.51109989000E-03 0.  1.
     -623    1    1    2    0    0  0.18688621331E-02  0.21654004681E-02  0.11631650527E-02  0.17130000003E+03  0.17130000000E+03 0.  1.
      622    1    1    2    0    0 -0.64437300655E-03  0.96367798933E-03  0.39933183129E+01  0.39935188108E+01  0.40000000000E-01 0. -1.
</event>
<event>
 5   0  0.6200596E+07  0.9118800E+02  0.7818608E-02  0.1180000E+00
       11   -1    0    0    0    0  0.00000000000E+00  0.00000000000E+00  0.39999999673E+01  0.40000000000E+01  0.51109989000E-03 0. -1.
     -623   -1    0    0    0    0  0.00000000000E+00  0.00000000000E+00  0.12525980253E-10  0.17130000000E+03  0.17130000000E+03 0. -1.
       11    1    1    2    0    0 -0.93426367929E-03  0.11242061451E-01  0.13716959645E+01  0.13717424456E+01  0.51109989000E-03 0. -1.
     -623    1    1    2    0    0 -0.25649498080E-03  0.63870318901E-03  0.37797795685E-03  0.17130000000E+03  0.17130000000E+03 0. -1.
      622    1    1    2    0    0  0.11907586601E-02 -0.11880764640E-01  0.26279260249E+01  0.26282575526E+01  0.40000000000E-01 0. -1.
</event>
<event>
 5   0  0.6200596E+07  0.9118800E+02  0.7818608E-02  0.1180000E+00
       11   -1    0    0    0    0  0.00000000000E+00  0.00000000000E+00  0.39999999673E+01  0.40000000000E+01  0.51109989000E-03 0. -1.
     -623   -1    0    0    0    0  0.00000000000E+00  0.00000000000E+00  0.12525980253E-10  0.17130000000E+03  0.17130000000E+03 0. -1.
       11    1    1    2    0    0  0.39685660054E-02 -0.68202216583E-04  0.71985280462E-01  0.72096435369E-01  0.51109989000E-03 0. -1.
     -623    1    1    2    0    0  0.20755558011E-04 -0.74914891161E-03  0.31691146910E-03  0.17130000000E+03  0.17130000000E+03 0. -1.
      622    1    1    2    0    0 -0.39893215634E-02  0.81735112819E-03  0.39276977754E+01  0.39279035627E+01  0.40000000000E-01 0. -1.
</event>
<event>
 5   0  0.6200596E+07  0.9118800E+02  0.7818608E-02  0.1180000E+00
       11   -1    0    0    0    0  0.00000000000E+00  0.00000000000E+00  0.39999999673E+01  0.40000000000E+01  0.51109989000E-03 0. -1.
     -623   -1    0    0    0    0  0.00000000000E+00  0.00000000000E+00  0.12525980253E-10  0.17130000000E+03  0.17130000000E+03 0.  1.
       11    1    1    2    0    0  0.10622607361E-01  0.93836181725E-02  0.27916944140E+00  0.27952948021E+00  0.51109989000E-03 0. -1.
     -623    1    1    2    0    0 -0.10825726477E-02 -0.12115593050E-02  0.59625528096E-03  0.17130000001E+03  0.17130000000E+03 0.  1.
      622    1    1    2    0    0 -0.95400347128E-02 -0.81720588675E-02  0.37202342707E+01  0.37204705110E+01  0.40000000000E-01 0.  0.
</event>
<event>
 5   0  0.6200596E+07  0.9118800E+02  0.7818608E-02  0.1180000E+00
       11   -1    0    0    0    0  0.00000000000E+00  0.00000000000E+00  0.39999999673E+01  0.40000000000E+01  0.51109989000E-03 0. -1.
     -623   -1    0    0    0    0  0.00000000000E+00  0.00000000000E+00  0.12525980253E-10  0.17130000000E+03  0.17130000000E+03 0.  1.
       11    1    1    2    0    0 -0.28401330025E-02  0.83373157449E-02  0.70102935154E+00  0.70108486657E+00  0.51109989000E-03 0. -1.
     -623    1    1    2    0    0  0.12236247778E-02  0.34247129330E-02  0.31940017178E-03  0.17130000004E+03  0.17130000000E+03 0.  1.
      622    1    1    2    0    0  0.16165082247E-02 -0.11762028678E-01  0.32986512156E+01  0.32989150945E+01  0.40000000000E-01 0. -1.
</event>
<event>
 5   0  0.6200596E+07  0.9118800E+02  0.7818608E-02  0.1180000E+00
       11   -1    0    0    0    0  0.00000000000E+00  0.00000000000E+00  0.39999999673E+01  0.40000000000E+01  0.51109989000E-03 0.  1.
     -623   -1    0    0    0    0  0.00000000000E+00  0.00000000000E+00  0.12525980253E-10  0.17130000000E+03  0.17130000000E+03 0.  1.
       11    1    1    2    0    0  0.30867518588E-03 -0.71618741906E-03  0.46885734707E-02  0.47803919247E-02  0.51109989000E-03 0.  1.
     -623    1    1    2    0    0  0.20752228480E-02  0.10466877831E-02  0.29277108461E-03  0.17130000002E+03  0.17130000000E+03 0.  1.
      622    1    1    2    0    0 -0.23838980339E-02 -0.33050036401E-03  0.39950186228E+01  0.39952195921E+01  0.40000000000E-01 0.  1.
</event>
<event>
 5   0  0.6200596E+07  0.9118800E+02  0.7818608E-02  0.1180000E+00
       11   -1    0    0    0    0  0.00000000000E+00  0.00000000000E+00  0.39999999673E+01  0.40000000000E+01  0.51109989000E-03 0. -1.
     -623   -1    0    0    0    0  0.00000000000E+00  0.00000000000E+00  0.12525980253E-10  0.17130000000E+03  0.17130000000E+03 0. -1.
       11    1    1    2    0    0 -0.43357071961E-01  0.76499553894E-02  0.20267046761E+01  0.20271828883E+01  0.51109989000E-03 0. -1.
     -623    1    1    2    0    0  0.29417846554E-02  0.61424632528E-03  0.13151849773E-02  0.17130000003E+03  0.17130000000E+03 0. -1.
      622    1    1    2    0    0  0.40415287305E-01 -0.82642017147E-02  0.19719801063E+01  0.19728170803E+01  0.40000000000E-01 0.  1.
</event>
<event>
 5   0  0.6200596E+07  0.9118800E+02  0.7818608E-02  0.1180000E+00
       11   -1    0    0    0    0  0.00000000000E+00  0.00000000000E+00  0.39999999673E+01  0.40000000000E+01  0.51109989000E-03 0. -1.
     -623   -1    0    0    0    0  0.00000000000E+00  0.00000000000E+00  0.12525980253E-10  0.17130000000E+03  0.17130000000E+03 0.  1.
       11    1    1    2    0    0 -0.43004810230E-03 -0.24266169464E-02  0.28232992508E-02  0.37822812058E-02  0.51109989000E-03 0. -1.
     -623    1    1    2    0    0 -0.35924115460E-03  0.26768831687E-02  0.11592546253E-02  0.17130000003E+03  0.17130000000E+03 0.  1.
      622    1    1    2    0    0  0.78928925691E-03 -0.25026622230E-03  0.39960174135E+01  0.39962176936E+01  0.40000000000E-01 0. -1.
</event>
<event>
 5   0  0.6200596E+07  0.9118800E+02  0.7818608E-02  0.1180000E+00
       11   -1    0    0    0    0  0.00000000000E+00  0.00000000000E+00  0.39999999673E+01  0.40000000000E+01  0.51109989000E-03 0.  1.
     -623   -1    0    0    0    0  0.00000000000E+00  0.00000000000E+00  0.12525980253E-10  0.17130000000E+03  0.17130000000E+03 0. -1.
       11    1    1    2    0    0 -0.91231617593E-04  0.15978105473E-02  0.55478312956E-02  0.57966348698E-02  0.51109989000E-03 0.  1.
     -623    1    1    2    0    0 -0.27810721096E-02 -0.23840923450E-02  0.45021617866E-03  0.17130000004E+03  0.17130000000E+03 0. -1.
      622    1    1    2    0    0  0.28723037271E-02  0.78628179770E-03  0.39940019199E+01  0.39942033254E+01  0.40000000000E-01 0.  1.
</event>
<event>
 5   0  0.6200596E+07  0.9118800E+02  0.7818608E-02  0.1180000E+00
       11   -1    0    0    0    0  0.00000000000E+00  0.00000000000E+00  0.39999999673E+01  0.40000000000E+01  0.51109989000E-03 0. -1.
     -623   -1    0    0    0    0  0.00000000000E+00  0.00000000000E+00  0.12525980253E-10  0.17130000000E+03  0.17130000000E+03 0.  1.
       11    1    1    2    0    0  0.20319571657E-02 -0.71645792913E-02  0.40409442013E-01  0.41093117082E-01  0.51109989000E-03 0. -1.
     -623    1    1    2    0    0  0.13120718629E-02  0.15003232469E-02  0.89120219446E-03  0.17130000001E+03  0.17130000000E+03 0.  1.
      622    1    1    2    0    0 -0.33440290287E-02  0.56642560444E-02  0.39586993232E+01  0.39589068690E+01  0.40000000000E-01 0. -1.
</event>
<event>
 5   0  0.6200596E+07  0.9118800E+02  0.7818608E-02  0.1180000E+00
       11   -1    0    0    0    0  0.00000000000E+00  0.00000000000E+00  0.39999999673E+01  0.40000000000E+01  0.51109989000E-03 0. -1.
     -623   -1    0    0    0    0  0.00000000000E+00  0.00000000000E+00  0.12525980253E-10  0.17130000000E+03  0.17130000000E+03 0.  1.
       11    1    1    2    0    0  0.75236424963E-02 -0.74830745960E-02  0.19605373212E+00  0.19634135759E+00  0.51109989000E-03 0. -1.
     -623    1    1    2    0    0 -0.14395523222E-01  0.50418444527E-02  0.50559366389E-03  0.17130000068E+03  0.17130000000E+03 0.  1.
      622    1    1    2    0    0  0.68718807261E-02  0.24412301433E-02  0.38034406416E+01  0.38036579626E+01  0.40000000000E-01 0. -1.
</event>
<event>
 5   0  0.6200596E+07  0.9118800E+02  0.7818608E-02  0.1180000E+00
       11   -1    0    0    0    0  0.00000000000E+00  0.00000000000E+00  0.39999999673E+01  0.40000000000E+01  0.51109989000E-03 0.  1.
     -623   -1    0    0    0    0  0.00000000000E+00  0.00000000000E+00  0.12525980253E-10  0.17130000000E+03  0.17130000000E+03 0.  1.
       11    1    1    2    0    0  0.22490810238E-01  0.18404563925E-01  0.33035796134E+00  0.33163414836E+00  0.51109989000E-03 0.  1.
     -623    1    1    2    0    0 -0.87259172767E-02 -0.11110726272E-02  0.15610670051E-02  0.17130000023E+03  0.17130000000E+03 0.  1.
      622    1    1    2    0    0 -0.13764892961E-01 -0.17293491298E-01  0.36680809390E+01  0.36683656187E+01  0.40000000000E-01 0.  1.
</event>
<event>
 5   0  0.6200596E+07  0.9118800E+02  0.7818608E-02  0.1180000E+00
       11   -1    0    0    0    0  0.00000000000E+00  0.00000000000E+00  0.39999999673E+01  0.40000000000E+01  0.51109989000E-03 0. -1.
     -623   -1    0    0    0    0  0.00000000000E+00  0.00000000000E+00  0.12525980253E-10  0.17130000000E+03  0.17130000000E+03 0. -1.
       11    1    1    2    0    0  0.21221881763E-01  0.15635992271E-01  0.20729899492E+01  0.20731576022E+01  0.51109989000E-03 0. -1.
     -623    1    1    2    0    0  0.24378378414E-02  0.25370928041E-02  0.81391282365E-03  0.17130000004E+03  0.17130000000E+03 0. -1.
      622    1    1    2    0    0 -0.23659719605E-01 -0.18173085075E-01  0.19261961053E+01  0.19268423598E+01  0.40000000000E-01 0.  0.
</event>
<event>
 5   0  0.6200596E+07  0.9118800E+02  0.7818608E-02  0.1180000E+00
       11   -1    0    0    0    0  0.00000000000E+00  0.00000000000E+00  0.39999999673E+01  0.40000000000E+01  0.51109989000E-03 0.  1.
     -623   -1    0    0    0    0  0.00000000000E+00  0.00000000000E+00  0.12525980253E-10  0.17130000000E+03  0.17130000000E+03 0.  1.
       11    1    1    2    0    0  0.47977954565E-02  0.31894193399E-02  0.25418329711E-01  0.26068063640E-01  0.51109989000E-03 0.  1.
     -623    1    1    2    0    0 -0.96807459297E-02 -0.53826068841E-02  0.85498394435E-03  0.17130000036E+03  0.17130000000E+03 0.  1.
      622    1    1    2    0    0  0.48829504732E-02  0.21931875442E-02  0.39737266537E+01  0.39739315761E+01  0.40000000000E-01 0.  1.
</event>
<event>
 5   0  0.6200596E+07  0.9118800E+02  0.7818608E-02  0.1180000E+00
       11   -1    0    0    0    0  0.00000000000E+00  0.00000000000E+00  0.39999999673E+01  0.40000000000E+01  0.51109989000E-03 0. -1.
     -623   -1    0    0    0    0  0.00000000000E+00  0.00000000000E+00  0.12525980253E-10  0.17130000000E+03  0.17130000000E+03 0.  1.
       11    1    1    2    0    0  0.34926730722E-02 -0.11656233898E-02  0.33977607789E-01  0.34180352470E-01  0.51109989000E-03 0. -1.
     -623    1    1    2    0    0  0.25945218893E-02  0.12277986300E-02  0.40913784820E-03  0.17130000002E+03  0.17130000000E+03 0.  1.
      622    1    1    2    0    0 -0.60871949615E-02 -0.62175240157E-04  0.39656132217E+01  0.39658196230E+01  0.40000000000E-01 0. -1.
</event>
<event>
 5   0  0.6200596E+07  0.9118800E+02  0.7818608E-02  0.1180000E+00
       11   -1    0    0    0    0  0.00000000000E+00  0.00000000000E+00  0.39999999673E+01  0.40000000000E+01  0.51109989000E-03 0.  1.
     -623   -1    0    0    0    0  0.00000000000E+00  0.00000000000E+00  0.12525980253E-10  0.17130000000E+03  0.17130000000E+03 0.  1.
       11    1    1    2    0    0  0.66126385959E-02 -0.12599129765E-03  0.38043720918E-01  0.38617726295E-01  0.51109989000E-03 0.  1.
     -623    1    1    2    0    0 -0.50322846254E-02 -0.57247701933E-02  0.78073507103E-03  0.17130000017E+03  0.17130000000E+03 0.  1.
      622    1    1    2    0    0 -0.15803539705E-02  0.58507614910E-02  0.39611755114E+01  0.39613821023E+01  0.40000000000E-01 0.  1.
</event>
<event>
 5   0  0.6200596E+07  0.9118800E+02  0.7818608E-02  0.1180000E+00
       11   -1    0    0    0    0  0.00000000000E+00  0.00000000000E+00  0.39999999673E+01  0.40000000000E+01  0.51109989000E-03 0.  1.
     -623   -1    0    0    0    0  0.00000000000E+00  0.00000000000E+00  0.12525980253E-10  0.17130000000E+03  0.17130000000E+03 0. -1.
       11    1    1    2    0    0 -0.66215785758E-03 -0.31794184042E-02  0.11330948729E-01  0.11798253063E-01  0.51109989000E-03 0.  1.
     -623    1    1    2    0    0  0.25950633360E-02  0.17002628714E-02  0.66864052895E-03  0.17130000003E+03  0.17130000000E+03 0. -1.
      622    1    1    2    0    0 -0.19329054784E-02  0.14791555329E-02  0.39880003781E+01  0.39882017175E+01  0.40000000000E-01 0.  1.
</event>
<event>
 5   0  0.6200596E+07  0.9118800E+02  0.7818608E-02  0.1180000E+00
       11   -1    0    0    0    0  0.00000000000E+00  0.00000000000E+00  0.39999999673E+01  0.40000000000E+01  0.51109989000E-03 0.  1.
     -623   -1    0    0    0    0  0.00000000000E+00  0.00000000000E+00  0.12525980253E-10  0.17130000000E+03  0.17130000000E+03 0.  1.
       11    1    1    2    0    0  0.12144813642E-01  0.48338354342E-02  0.34853047331E+00  0.34877588006E+00  0.51109989000E-03 0.  1.
     -623    1    1    2    0    0 -0.55930564945E-03 -0.18290715751E-02  0.48411494260E-03  0.17130000001E+03  0.17130000000E+03 0.  1.
      622    1    1    2    0    0 -0.11585507992E-01 -0.30047638591E-02  0.36509853791E+01  0.36512241086E+01  0.40000000000E-01 0.  1.
</event>
<event>
 5   0  0.6200596E+07  0.9118800E+02  0.7818608E-02  0.1180000E+00
       11   -1    0    0    0    0  0.00000000000E+00  0.00000000000E+00  0.39999999673E+01  0.40000000000E+01  0.51109989000E-03 0.  1.
     -623   -1    0    0    0    0  0.00000000000E+00  0.00000000000E+00  0.12525980253E-10  0.17130000000E+03  0.17130000000E+03 0.  1.
       11    1    1    2    0    0 -0.23154189905E-02 -0.73170015626E-02  0.32070970299E+00  0.32080192408E+00  0.51109989000E-03 0.  1.
     -623    1    1    2    0    0  0.13971653677E-03 -0.70206111702E-05  0.31756750000E-03  0.17130000000E+03  0.17130000000E+03 0.  1.
      622    1    1    2    0    0  0.21757024537E-02  0.73240221737E-02  0.36789726969E+01  0.36791980756E+01  0.40000000000E-01 0.  1.
</event>
<event>
 5   0  0.6200596E+07  0.9118800E+02  0.7818608E-02  0.1180000E+00
       11   -1    0    0    0    0  0.00000000000E+00  0.00000000000E+00  0.39999999673E+01  0.40000000000E+01  0.51109989000E-03 0.  1.
     -623   -1    0    0    0    0  0.00000000000E+00  0.00000000000E+00  0.12525980253E-10  0.17130000000E+03  0.17130000000E+03 0.  1.
       11    1    1    2    0    0 -0.13441468195E-02  0.42885824235E-02  0.54328487662E-01  0.54516460482E-01  0.51109989000E-03 0.  1.
     -623    1    1    2    0    0  0.37030055459E-02 -0.67044148480E-02  0.39232538293E-03  0.17130000017E+03  0.17130000000E+03 0.  1.
      622    1    1    2    0    0 -0.23588587264E-02  0.24158324244E-02  0.39452791543E+01  0.39454833678E+01  0.40000000000E-01 0.  1.
</event>
<event>
 5   0  0.6200596E+07  0.9118800E+02  0.7818608E-02  0.1180000E+00
       11   -1    0    0    0    0  0.00000000000E+00  0.00000000000E+00  0.39999999673E+01  0.40000000000E+01  0.51109989000E-03 0. -1.
     -623   -1    0    0    0    0  0.00000000000E+00  0.00000000000E+00  0.12525980253E-10  0.17130000000E+03  0.17130000000E+03 0.  1.
       11    1    1    2    0    0 -0.98065185338E-02 -0.27206175827E-01  0.27374775751E+01  0.27376303766E+01  0.51109989000E-03 0. -1.
     -623    1    1    2    0    0 -0.26991391528E-02  0.59053483332E-03  0.11294255537E-02  0.17130000003E+03  0.17130000000E+03 0.  1.
      622    1    1    2    0    0  0.12505657687E-01  0.26615640994E-01  0.12613929667E+01  0.12623695974E+01  0.40000000000E-01 0.  1.
</event>
<event>
 5   0  0.6200596E+07  0.9118800E+02  0.7818608E-02  0.1180000E+00
       11   -1    0    0    0    0  0.00000000000E+00  0.00000000000E+00  0.39999999673E+01  0.40000000000E+01  0.51109989000E-03 0. -1.
     -623   -1    0    0    0    0  0.00000000000E+00  0.00000000000E+00  0.12525980253E-10  0.17130000000E+03  0.17130000000E+03 0.  1.
       11    1    1    2    0    0  0.30058219240E-01  0.29401966989E-01  0.63488809087E+00  0.63627912221E+00  0.51109989000E-03 0. -1.
     -623    1    1    2    0    0  0.17197189699E-01 -0.13554452177E-01  0.19995630542E-02  0.17130000141E+03  0.17130000000E+03 0.  1.
      622    1    1    2    0    0 -0.47255408939E-01 -0.15847514812E-01  0.33631123134E+01  0.33637194666E+01  0.40000000000E-01 0. -1.
</event>
<event>
 5   0  0.6200596E+07  0.9118800E+02  0.7818608E-02  0.1180000E+00
       11   -1    0    0    0    0  0.00000000000E+00  0.00000000000E+00  0.39999999673E+01  0.40000000000E+01  0.51109989000E-03 0.  1.
     -623   -1    0    0    0    0  0.00000000000E+00  0.00000000000E+00  0.12525980253E-10  0.17130000000E+03  0.17130000000E+03 0.  1.
       11    1    1    2    0    0  0.15426177873E-01 -0.61100535141E-02  0.27516738743E-01  0.32136145562E-01  0.51109989000E-03 0.  1.
     -623    1    1    2    0    0 -0.18394938365E-02 -0.52704691977E-02  0.48607435511E-02  0.17130000016E+03  0.17130000000E+03 0.  1.
      622    1    1    2    0    0 -0.13586684036E-01  0.11380522712E-01  0.39676224851E+01  0.39678636945E+01  0.40000000000E-01 0.  1.
</event>
<event>
 5   0  0.6200596E+07  0.9118800E+02  0.7818608E-02  0.1180000E+00
       11   -1    0    0    0    0  0.00000000000E+00  0.00000000000E+00  0.39999999673E+01  0.40000000000E+01  0.51109989000E-03 0. -1.
     -623   -1    0    0    0    0  0.00000000000E+00  0.00000000000E+00  0.12525980253E-10  0.17130000000E+03  0.17130000000E+03 0.  1.
       11    1    1    2    0    0 -0.40066984710E-02 -0.46537476708E-02  0.21892005808E-01  0.22742738166E-01  0.51109989000E-03 0. -1.
     -623    1    1    2    0    0 -0.13083569124E-02  0.22915524171E-02  0.10561251451E-02  0.17130000002E+03  0.17130000000E+03 0.  1.
      622    1    1    2    0    0  0.53150553834E-02  0.23621952537E-02  0.39770518364E+01  0.39772572383E+01  0.40000000000E-01 0. -1.
</event>
<event>
 5   0  0.6200596E+07  0.9118800E+02  0.7818608E-02  0.1180000E+00
       11   -1    0    0    0    0  0.00000000000E+00  0.00000000000E+00  0.39999999673E+01  0.40000000000E+01  0.51109989000E-03 0.  1.
     -623   -1    0    0    0    0  0.00000000000E+00  0.00000000000E+00  0.12525980253E-10  0.17130000000E+03  0.17130000000E+03 0.  1.
       11    1    1    2    0    0  0.10943311861E-01 -0.17898218888E-01  0.22635941194E+01  0.22636913882E+01  0.51109989000E-03 0.  1.
     -623    1    1    2    0    0 -0.14234495860E-01 -0.62973191030E-02  0.73051012000E-03  0.17130000071E+03  0.17130000000E+03 0.  1.
      622    1    1    2    0    0  0.32911839984E-02  0.24195537991E-01  0.17356753378E+01  0.17363079031E+01  0.40000000000E-01 0.  1.
</event>
<event>
 5   0  0.6200596E+07  0.9118800E+02  0.7818608E-02  0.1180000E+00
       11   -1    0    0    0    0  0.00000000000E+00  0.00000000000E+00  0.39999999673E+01  0.40000000000E+01  0.51109989000E-03 0. -1.
     -623   -1    0    0    0    0  0.00000000000E+00  0.00000000000E+00  0.12525980253E-10  0.17130000000E+03  0.17130000000E+03 0.  1.
       11    1    1    2    0    0 -0.16959185594E-01  0.89477124464E-02  0.12009612307E+00  0.12161831907E+00  0.51109989000E-03 0. -1.
     -623    1    1    2    0    0  0.13462001934E-02 -0.12369658328E-01  0.17618391010E-02  0.17130000046E+03  0.17130000000E+03 0.  1.
      622    1    1    2    0    0  0.15612985401E-01  0.34219458811E-02  0.38781420052E+01  0.38783812200E+01  0.40000000000E-01 0. -1.
</event>
<event>
 5   0  0.6200596E+07  0.9118800E+02  0.7818608E-02  0.1180000E+00
       11   -1    0    0    0    0  0.00000000000E+00  0.00000000000E+00  0.39999999673E+01  0.40000000000E+01  0.51109989000E-03 0.  1.
     -623   -1    0    0    0    0  0.00000000000E+00  0.00000000000E+00  0.12525980253E-10  0.17130000000E+03  0.17130000000E+03 0. -1.
       11    1    1    2    0    0 -0.53491482953E-03 -0.10865780344E-02  0.12719963382E-01  0.12787707976E-01  0.51109989000E-03 0.  1.
     -623    1    1    2    0    0  0.12048833078E-02 -0.69025977517E-03  0.26881649764E-03  0.17130000001E+03  0.17130000000E+03 0. -1.
      622    1    1    2    0    0 -0.66996847823E-03  0.17768378095E-02  0.39870111875E+01  0.39872122862E+01  0.40000000000E-01 0.  1.
</event>
<event>
 5   0  0.6200596E+07  0.9118800E+02  0.7818608E-02  0.1180000E+00
       11   -1    0    0    0    0  0.00000000000E+00  0.00000000000E+00  0.39999999673E+01  0.40000000000E+01  0.51109989000E-03 0. -1.
     -623   -1    0    0    0    0  0.00000000000E+00  0.00000000000E+00  0.12525980253E-10  0.17130000000E+03  0.17130000000E+03 0.  1.
       11    1    1    2    0    0 -0.11193962758E-02 -0.24941470302E-03  0.38028989107E-01  0.38049710759E-01  0.51109989000E-03 0. -1.
     -623    1    1    2    0    0 -0.35454332862E-03  0.16667170170E-03  0.22289055544E-03  0.17130000000E+03  0.17130000000E+03 0.  1.
      622    1    1    2    0    0  0.14739396045E-02  0.82743001324E-04  0.39617480877E+01  0.39619502886E+01  0.40000000000E-01 0. -1.
</event>
<event>
 5   0  0.6200596E+07  0.9118800E+02  0.7818608E-02  0.1180000E+00
       11   -1    0    0    0    0  0.00000000000E+00  0.00000000000E+00  0.39999999673E+01  0.40000000000E+01  0.51109989000E-03 0. -1.
     -623   -1    0    0    0    0  0.00000000000E+00  0.00000000000E+00  0.12525980253E-10  0.17130000000E+03  0.17130000000E+03 0. -1.
       11    1    1    2    0    0 -0.72091080786E-03  0.61640735600E-03  0.34617492992E-02  0.36255483860E-02  0.51109989000E-03 0. -1.
     -623    1    1    2    0    0  0.17488596967E-02 -0.15331491502E-02  0.36420644252E-03  0.17130000002E+03  0.17130000000E+03 0. -1.
      622    1    1    2    0    0 -0.10279488889E-02  0.91674179419E-03  0.39961740116E+01  0.39963744354E+01  0.40000000000E-01 0. -1.
</event>
<event>
 5   0  0.6200596E+07  0.9118800E+02  0.7818608E-02  0.1180000E+00
       11   -1    0    0    0    0  0.00000000000E+00  0.00000000000E+00  0.39999999673E+01  0.40000000000E+01  0.51109989000E-03 0.  1.
     -623   -1    0    0    0    0  0.00000000000E+00  0.00000000000E+00  0.12525980253E-10  0.17130000000E+03  0.17130000000E+03 0.  1.
       11    1    1    2    0    0 -0.44320169410E-03  0.65664439830E-03  0.56633837923E-01  0.56641684560E-01  0.51109989000E-03 0.  1.
     -623    1    1    2    0    0 -0.17037004224E-02  0.17233662099E-02  0.21201197157E-03  0.17130000002E+03  0.17130000000E+03 0.  1.
      622    1    1    2    0    0  0.21469021165E-02 -0.23800106082E-02  0.39431541175E+01  0.39433582982E+01  0.40000000000E-01 0.  1.
</event>
<event>
 5   0  0.6200596E+07  0.9118800E+02  0.7818608E-02  0.1180000E+00
       11   -1    0    0    0    0  0.00000000000E+00  0.00000000000E+00  0.39999999673E+01  0.40000000000E+01  0.51109989000E-03 0. -1.
     -623   -1    0    0    0    0  0.00000000000E+00  0.00000000000E+00  0.12525980253E-10  0.17130000000E+03  0.17130000000E+03 0.  1.
       11    1    1    2    0    0  0.51878044724E-01  0.61927675005E-01  0.23355419934E+01  0.23369388166E+01  0.51109989000E-03 0. -1.
     -623    1    1    2    0    0 -0.29224635233E-01 -0.82997168880E-02  0.29001740043E-02  0.17130000272E+03  0.17130000000E+03 0.  1.
      622    1    1    2    0    0 -0.22653409491E-01 -0.53627958117E-01  0.16615578000E+01  0.16630584648E+01  0.40000000000E-01 0. -1.
</event>
<event>
 5   0  0.6200596E+07  0.9118800E+02  0.7818608E-02  0.1180000E+00
       11   -1    0    0    0    0  0.00000000000E+00  0.00000000000E+00  0.39999999673E+01  0.40000000000E+01  0.51109989000E-03 0.  1.
     -623   -1    0    0    0    0  0.00000000000E+00  0.00000000000E+00  0.12525980253E-10  0.17130000000E+03  0.17130000000E+03 0. -1.
       11    1    1    2    0    0 -0.43107487349E-02 -0.76630781558E-02  0.70640773887E+00  0.70646263884E+00  0.51109989000E-03 0.  1.
     -623    1    1    2    0    0  0.18784202649E-02  0.11691266855E-02  0.30509162991E-03  0.17130000001E+03  0.17130000000E+03 0. -1.
      622    1    1    2    0    0  0.24323284700E-02  0.64939514704E-02  0.32932871369E+01  0.32935373466E+01  0.40000000000E-01 0.  1.
</event>
<event>
 5   0  0.6200596E+07  0.9118800E+02  0.7818608E-02  0.1180000E+00
       11   -1    0    0    0    0  0.00000000000E+00  0.00000000000E+00  0.39999999673E+01  0.40000000000E+01  0.51109989000E-03 0. -1.
     -623   -1    0    0    0    0  0.00000000000E+00  0.00000000000E+00  0.12525980253E-10  0.17130000000E+03  0.17130000000E+03 0.  1.
       11    1    1    2    0    0  0.76010837133E-03 -0.32102474369E-03  0.66285835033E-02  0.66992657863E-02  0.51109989000E-03 0. -1.
     -623    1    1    2    0    0 -0.10656988397E-03 -0.39182005670E-03  0.27110799895E-03  0.17130000000E+03  0.17130000000E+03 0.  1.
      622    1    1    2    0    0 -0.65353848736E-03  0.71284480039E-03  0.39931002759E+01  0.39933007335E+01  0.40000000000E-01 0. -1.
</event>
<event>
 5   0  0.6200596E+07  0.9118800E+02  0.7818608E-02  0.1180000E+00
       11   -1    0    0    0    0  0.00000000000E+00  0.00000000000E+00  0.39999999673E+01  0.40000000000E+01  0.51109989000E-03 0.  1.
     -623   -1    0    0    0    0  0.00000000000E+00  0.00000000000E+00  0.12525980253E-10  0.17130000000E+03  0.17130000000E+03 0. -1.
       11    1    1    2    0    0  0.59107657063E-03 -0.47206899126E-02  0.14539922570E-01  0.15307019791E-01  0.51109989000E-03 0.  1.
     -623    1    1    2    0    0 -0.22823417173E-02  0.95428318019E-03  0.96999760832E-03  0.17130000002E+03  0.17130000000E+03 0. -1.
      622    1    1    2    0    0  0.16912651467E-02  0.37664067324E-02  0.39844900472E+01  0.39846929596E+01  0.40000000000E-01 0.  1.
</event>
<event>
 5   0  0.6200596E+07  0.9118800E+02  0.7818608E-02  0.1180000E+00
       11   -1    0    0    0    0  0.00000000000E+00  0.00000000000E+00  0.39999999673E+01  0.40000000000E+01  0.51109989000E-03 0. -1.
     -623   -1    0    0    0    0  0.00000000000E+00  0.00000000000E+00  0.12525980253E-10  0.17130000000E+03  0.17130000000E+03 0. -1.
       11    1    1    2    0    0  0.10510288375E-02  0.25734711003E-01  0.10615952902E+01  0.10619078121E+01  0.51109989000E-03 0. -1.
     -623    1    1    2    0    0 -0.28739951690E-02 -0.13501845624E-02  0.68658394240E-03  0.17130000003E+03  0.17130000000E+03 0. -1.
      622    1    1    2    0    0  0.18229663315E-02 -0.24384526441E-01  0.29377180932E+01  0.29380921571E+01  0.40000000000E-01 0. -1.
</event>
<event>
 5   0  0.6200596E+07  0.9118800E+02  0.7818608E-02  0.1180000E+00
       11   -1    0    0    0    0  0.00000000000E+00  0.00000000000E+00  0.39999999673E+01  0.40000000000E+01  0.51109989000E-03 0. -1.
     -623   -1    0    0    0    0  0.00000000000E+00  0.00000000000E+00  0.12525980253E-10  0.17130000000E+03  0.17130000000E+03 0. -1.
       11    1    1    2    0    0 -0.17715566135E-01  0.11478741372E-01  0.30079264161E+00  0.30153287922E+00  0.51109989000E-03 0. -1.
     -623    1    1    2    0    0  0.20115703604E-01 -0.57412309585E-02  0.96302667598E-03  0.17130000128E+03  0.17130000000E+03 0. -1.
      622    1    1    2    0    0 -0.24001374690E-02 -0.57375104134E-02  0.36982442991E+01  0.36984658408E+01  0.40000000000E-01 0. -1.
</event>
<event>
 5   0  0.6200596E+07  0.9118800E+02  0.7818608E-02  0.1180000E+00
       11   -1    0    0    0    0  0.00000000000E+00  0.00000000000E+00  0.39999999673E+01  0.40000000000E+01  0.51109989000E-03 0.  1.
     -623   -1    0    0    0    0  0.00000000000E+00  0.00000000000E+00  0.12525980253E-10  0.17130000000E+03  0.17130000000E+03 0. -1.
       11    1    1    2    0    0 -0.33115079101E-02 -0.38353635990E-02  0.66833304258E+00  0.66835244679E+00  0.51109989000E-03 0.  1.
     -623    1    1    2    0    0 -0.25871069113E-03  0.54546485983E-03  0.26304045277E-03  0.17130000000E+03  0.17130000000E+03 0. -1.
      622    1    1    2    0    0  0.35702186012E-02  0.32898987392E-02  0.33314038843E+01  0.33316475519E+01  0.40000000000E-01 0.  1.
</event>
<event>
 5   0  0.6200596E+07  0.9118800E+02  0.7818608E-02  0.1180000E+00
       11   -1    0    0    0    0  0.00000000000E+00  0.00000000000E+00  0.39999999673E+01  0.40000000000E+01  0.51109989000E-03 0. -1.
     -623   -1    0    0    0    0  0.00000000000E+00  0.00000000000E+00  0.12525980253E-10  0.17130000000E+03  0.17130000000E+03 0.  1.
       11    1    1    2    0    0  0.78871809708E-03  0.20225438067E-02  0.25698276935E-01  0.25794871953E-01  0.51109989000E-03 0. -1.
     -623    1    1    2    0    0 -0.40351079331E-02 -0.29764936175E-02  0.29937973592E-03  0.17130000007E+03  0.17130000000E+03 0.  1.
      622    1    1    2    0    0  0.32463898360E-02  0.95394981085E-03  0.39740023107E+01  0.39742050544E+01  0.40000000000E-01 0. -1.
</event>
<event>
 5   0  0.6200596E+07  0.9118800E+02  0.7818608E-02  0.1180000E+00
       11   -1    0    0    0    0  0.00000000000E+00  0.00000000000E+00  0.39999999673E+01  0.40000000000E+01  0.51109989000E-03 0.  1.
     -623   -1    0    0    0    0  0.00000000000E+00  0.00000000000E+00  0.12525980253E-10  0.17130000000E+03  0.17130000000E+03 0.  1.
       11    1    1    2    0    0 -0.81398498694E-03  0.38050303557E-03  0.22863125035E-01  0.22886482060E-01  0.51109989000E-03 0.  1.
     -623    1    1    2    0    0 -0.14272157998E-03 -0.18141852189E-04  0.22461217171E-03  0.17130000000E+03  0.17130000000E+03 0.  1.
      622    1    1    2    0    0  0.95670656693E-03 -0.36236118338E-03  0.39769122302E+01  0.39771135177E+01  0.40000000000E-01 0.  1.
</event>
<event>
 5   0  0.6200596E+07  0.9118800E+02  0.7818608E-02  0.1180000E+00
       11   -1    0    0    0    0  0.00000000000E+00  0.00000000000E+00  0.39999999673E+01  0.40000000000E+01  0.51109989000E-03 0. -1.
     -623   -1    0    0    0    0  0.00000000000E+00  0.00000000000E+00  0.12525980253E-10  0.17130000000E+03  0.17130000000E+03 0. -1.
       11    1    1    2    0    0 -0.13747178353E-01 -0.54384454982E-01  0.29112816907E+01  0.29118221095E+01  0.51109989000E-03 0. -1.
     -623    1    1    2    0    0  0.26236003172E-01  0.29587008195E-01  0.16348913060E-02  0.17130000457E+03  0.17130000000E+03 0. -1.
      622    1    1    2    0    0 -0.12488824820E-01  0.24797446787E-01  0.10870833854E+01  0.10881733184E+01  0.40000000000E-01 0. -1.
</event>
<event>
 5   0  0.6200596E+07  0.9118800E+02  0.7818608E-02  0.1180000E+00
       11   -1    0    0    0    0  0.00000000000E+00  0.00000000000E+00  0.39999999673E+01  0.40000000000E+01  0.51109989000E-03 0.  1.
     -623   -1    0    0    0    0  0.00000000000E+00  0.00000000000E+00  0.12525980253E-10  0.17130000000E+03  0.17130000000E+03 0.  1.
       11    1    1    2    0    0 -0.89262622574E-03  0.12730379618E-01  0.54941925518E-01  0.56406876782E-01  0.51109989000E-03 0.  1.
     -623    1    1    2    0    0 -0.28949181081E-02 -0.16675925151E-01  0.16724216715E-02  0.17130000084E+03  0.17130000000E+03 0.  1.
      622    1    1    2    0    0  0.37875443339E-02  0.39455455329E-02  0.39433856202E+01  0.39435922789E+01  0.40000000000E-01 0.  1.
</event>
<event>
 5   0  0.6200596E+07  0.9118800E+02  0.7818608E-02  0.1180000E+00
       11   -1    0    0    0    0  0.00000000000E+00  0.00000000000E+00  0.39999999673E+01  0.40000000000E+01  0.51109989000E-03 0. -1.
     -623   -1    0    0    0    0  0.00000000000E+00  0.00000000000E+00  0.12525980253E-10  0.17130000000E+03  0.17130000000E+03 0. -1.
       11    1    1    2    0    0 -0.14983769616E-02 -0.35520804423E-03  0.23968481237E-01  0.24023334898E-01  0.51109989000E-03 0. -1.
     -623    1    1    2    0    0  0.10800315638E-02 -0.10232626077E-02  0.25630216901E-03  0.17130000001E+03  0.17130000000E+03 0. -1.
      622    1    1    2    0    0  0.41834539783E-03  0.13784706520E-02  0.39757751840E+01  0.39759766584E+01  0.40000000000E-01 0. -1.
</event>
<event>
 5   0  0.6200596E+07  0.9118800E+02  0.7818608E-02  0.1180000E+00
       11   -1    0    0    0    0  0.00000000000E+00  0.00000000000E+00  0.39999999673E+01  0.40000000000E+01  0.51109989000E-03 0. -1.
     -623   -1    0    0    0    0  0.00000000000E+00  0.00000000000E+00  0.12525980253E-10  0.17130000000E+03  0.17130000000E+03 0.  1.
       11    1    1    2    0    0 -0.63082059287E-04 -0.78832733245E-03  0.14393450827E-01  0.14424218796E-01  0.51109989000E-03 0. -1.
     -623    1    1    2    0    0  0.21987572210E-02  0.24675937300E-03  0.23208767933E-03  0.17130000001E+03  0.17130000000E+03 0.  1.
      622    1    1    2    0    0 -0.21356751617E-02  0.54156795946E-03  0.39853744289E+01  0.39855757668E+01  0.40000000000E-01 0. -1.
</event>
<event>
 5   0  0.6200596E+07  0.9118800E+02  0.7818608E-02  0.1180000E+00
       11   -1    0    0    0    0  0.00000000000E+00  0.00000000000E+00  0.39999999673E+01  0.40000000000E+01  0.51109989000E-03 0.  1.
     -623   -1    0    0    0    0  0.00000000000E+00  0.00000000000E+00  0.12525980253E-10  0.17130000000E+03  0.17130000000E+03 0. -1.
       11    1    1    2    0    0 -0.53116046374E-02  0.72760620589E-02  0.70407471193E+00  0.70413252689E+00  0.51109989000E-03 0.  1.
     -623    1    1    2    0    0 -0.40667033034E-03 -0.12004174390E-02  0.31108574765E-03  0.17130000000E+03  0.17130000000E+03 0. -1.
      622    1    1    2    0    0  0.57182749678E-02 -0.60756446199E-02  0.32956141697E+01  0.32958674681E+01  0.40000000000E-01 0.  1.
</event>
<event>
 5   0  0.6200596E+07  0.9118800E+02  0.7818608E-02  0.1180000E+00
       11   -1    0    0    0    0  0.00000000000E+00  0.00000000000E+00  0.39999999673E+01  0.40000000000E+01  0.51109989000E-03 0.  1.
     -623   -1    0    0    0    0  0.00000000000E+00  0.00000000000E+00  0.12525980253E-10  0.17130000000E+03  0.17130000000E+03 0. -1.
       11    1    1    2    0    0  0.12319113625E-01 -0.14524348910E-01  0.59911821593E+00  0.59942106666E+00  0.51109989000E-03 0.  1.
     -623    1    1    2    0    0  0.14145608307E-02  0.22763100935E-02  0.58789586686E-03  0.17130000002E+03  0.17130000000E+03 0. -1.
      622    1    1    2    0    0 -0.13733674455E-01  0.12248038817E-01  0.34002938556E+01  0.34005789114E+01  0.40000000000E-01 0.  1.
</event>
<event>
 5   0  0.6200596E+07  0.9118800E+02  0.7818608E-02  0.1180000E+00
       11   -1    0    0    0    0  0.00000000000E+00  0.00000000000E+00  0.39999999673E+01  0.40000000000E+01  0.51109989000E-03 0.  1.
     -623   -1    0    0    0    0  0.00000000000E+00  0.00000000000E+00  0.12525980253E-10  0.17130000000E+03  0.17130000000E+03 0. -1.
       11    1    1    2    0    0  0.84769927405E-02  0.28071967913E-02  0.43433037340E-01  0.44344444012E-01  0.51109989000E-03 0.  1.
     -623    1    1    2    0    0 -0.15419151053E-02  0.67184257353E-02  0.11313132926E-02  0.17130000014E+03  0.17130000000E+03 0. -1.
      622    1    1    2    0    0 -0.69350776351E-02 -0.95256225265E-02  0.39554356167E+01  0.39556554136E+01  0.40000000000E-01 0.  1.
</event>
<event>
 5   0  0.6200596E+07  0.9118800E+02  0.7818608E-02  0.1180000E+00
       11   -1    0    0    0    0  0.00000000000E+00  0.00000000000E+00  0.39999999673E+01  0.40000000000E+01  0.51109989000E-03 0.  1.
     -623   -1    0    0    0    0  0.00000000000E+00  0.00000000000E+00  0.12525980253E-10  0.17130000000E+03  0.17130000000E+03 0. -1.
       11    1    1    2    0    0  0.21060703001E-02 -0.57918155576E-02  0.41891925478E-01  0.42345900647E-01  0.51109989000E-03 0.  1.
     -623    1    1    2    0    0 -0.56849654463E-05 -0.25541974728E-02  0.66546597371E-03  0.17130000002E+03  0.17130000000E+03 0. -1.
      622    1    1    2    0    0 -0.21003853346E-02  0.83460130304E-02  0.39574425759E+01  0.39576540790E+01  0.40000000000E-01 0.  1.
</event>
<event>
 5   0  0.6200596E+07  0.9118800E+02  0.7818608E-02  0.1180000E+00
       11   -1    0    0    0    0  0.00000000000E+00  0.00000000000E+00  0.39999999673E+01  0.40000000000E+01  0.51109989000E-03 0.  1.
     -623   -1    0    0    0    0  0.00000000000E+00  0.00000000000E+00  0.12525980253E-10  0.17130000000E+03  0.17130000000E+03 0.  1.
       11    1    1    2    0    0  0.21284706959E-02  0.73054692339E-02  0.10193917091E+01  0.10194202362E+01  0.51109989000E-03 0.  1.
     -623    1    1    2    0    0 -0.21569234095E-02  0.47178080529E-02  0.32124220574E-03  0.17130000008E+03  0.17130000000E+03 0.  1.
      622    1    1    2    0    0  0.28452713639E-04 -0.12023277287E-01  0.29802870161E+01  0.29805796850E+01  0.40000000000E-01 0.  1.
</event>
<event>
 5   0  0.6200596E+07  0.9118800E+02  0.7818608E-02  0.1180000E+00
       11   -1    0    0    0    0  0.00000000000E+00  0.00000000000E+00  0.39999999673E+01  0.40000000000E+01  0.51109989000E-03 0.  1.
     -623   -1    0    0    0    0  0.00000000000E+00  0.00000000000E+00  0.12525980253E-10  0.17130000000E+03  0.17130000000E+03 0.  1.
       11    1    1    2    0    0  0.32873755531E-03  0.44628415420E-04  0.26240924832E-01  0.26247998357E-01  0.51109989000E-03 0.  1.
     -623    1    1    2    0    0 -0.12733173855E-02  0.19947913311E-04  0.20848470978E-03  0.17130000000E+03  0.17130000000E+03 0.  1.
      622    1    1    2    0    0  0.94457983014E-03 -0.64576328731E-04  0.39735505578E+01  0.39737519968E+01  0.40000000000E-01 0.  1.
</event>
<event>
 5   0  0.6200596E+07  0.9118800E+02  0.7818608E-02  0.1180000E+00
       11   -1    0    0    0    0  0.00000000000E+00  0.00000000000E+00  0.39999999673E+01  0.40000000000E+01  0.51109989000E-03 0.  1.
     -623   -1    0    0    0    0  0.00000000000E+00  0.00000000000E+00  0.12525980253E-10  0.17130000000E+03  0.17130000000E+03 0.  1.
       11    1    1    2    0    0  0.31988157196E-03 -0.24170089573E-03  0.44401764332E-02  0.44874415649E-02  0.51109989000E-03 0.  1.
     -623    1    1    2    0    0 -0.39807029918E-03 -0.40203721422E-03  0.24751587168E-03  0.17130000000E+03  0.17130000000E+03 0.  1.
      622    1    1    2    0    0  0.78188727214E-04  0.64373810994E-03  0.39953122751E+01  0.39955125573E+01  0.40000000000E-01 0.  1.
</event>
<event>
 5   0  0.6200596E+07  0.9118800E+02  0.7818608E-02  0.1180000E+00
       11   -1    0    0    0    0  0.00000000000E+00  0.00000000000E+00  0.39999999673E+01  0.40000000000E+01  0.51109989000E-03 0.  1.
     -623   -1    0    0    0    0  0.00000000000E+00  0.00000000000E+00  0.12525980253E-10  0.17130000000E+03  0.17130000000E+03 0. -1.
       11    1    1    2    0    0 -0.61671238009E-02  0.45385909721E-02  0.72588092825E-01  0.72992634336E-01  0.51109989000E-03 0.  1.
     -623    1    1    2    0    0 -0.49590140476E-02 -0.28392432121E-02  0.62445811552E-03  0.17130000010E+03  0.17130000000E+03 0. -1.
      622    1    1    2    0    0  0.11126137849E-01 -0.16993477601E-02  0.39267874164E+01  0.39270072692E+01  0.40000000000E-01 0.  1.
</event>
<event>
 5   0  0.6200596E+07  0.9118800E+02  0.7818608E-02  0.1180000E+00
       11   -1    0    0    0    0  0.00000000000E+00  0.00000000000E+00  0.39999999673E+01  0.40000000000E+01  0.51109989000E-03 0.  1.
     -623   -1    0    0    0    0  0.00000000000E+00  0.00000000000E+00  0.12525980253E-10  0.17130000000E+03  0.17130000000E+03 0. -1.
       11    1    1    2    0    0 -0.10270173268E-02 -0.16735413265E-02  0.90878158538E+00  0.90878385035E+00  0.51109989000E-03 0.  1.
     -623    1    1    2    0    0 -0.26591395567E-03 -0.15935008665E-03  0.26185531330E-03  0.17130000000E+03  0.17130000000E+03 0. -1.
      622    1    1    2    0    0  0.12929312825E-02  0.18328914131E-02  0.30909565267E+01  0.30912161492E+01  0.40000000000E-01 0.  1.
</event>
<event>
 5   0  0.6200596E+07  0.9118800E+02  0.7818608E-02  0.1180000E+00
       11   -1    0    0    0    0  0.00000000000E+00  0.00000000000E+00  0.39999999673E+01  0.40000000000E+01  0.51109989000E-03 0.  1.
     -623   -1    0    0    0    0  0.00000000000E+00  0.00000000000E+00  0.12525980253E-10  0.17130000000E+03  0.17130000000E+03 0.  1.
       11    1    1    2    0    0  0.26003284315E-02 -0.24073179138E-02  0.10582609570E+00  0.10588664052E+00  0.51109989000E-03 0.  1.
     -623    1    1    2    0    0 -0.19133678039E-02  0.63147101385E-03  0.26643349162E-03  0.17130000001E+03  0.17130000000E+03 0.  1.
      622    1    1    2    0    0 -0.68696062764E-03  0.17758468999E-02  0.38939074382E+01  0.38941133474E+01  0.40000000000E-01 0.  1.
</event>
<event>
 5   0  0.6200596E+07  0.9118800E+02  0.7818608E-02  0.1180000E+00
       11   -1    0    0    0    0  0.00000000000E+00  0.00000000000E+00  0.39999999673E+01  0.40000000000E+01  0.51109989000E-03 0. -1.
     -623   -1    0    0    0    0  0.00000000000E+00  0.00000000000E+00  0.12525980253E-10  0.17130000000E+03  0.17130000000E+03 0.  1.
       11    1    1    2    0    0  0.24577203347E-01 -0.39823189866E-01  0.14556177209E+01  0.14563698486E+01  0.51109989000E-03 0. -1.
     -623    1    1    2    0    0 -0.17883769369E-01  0.53977846930E-01  0.11242653124E-02  0.17130000944E+03  0.17130000000E+03 0.  1.
      622    1    1    2    0    0 -0.66934339777E-02 -0.14154657065E-01  0.25432579812E+01  0.25436207098E+01  0.40000000000E-01 0. -1.
</event>
<event>
 5   0  0.6200596E+07  0.9118800E+02  0.7818608E-02  0.1180000E+00
       11   -1    0    0    0    0  0.00000000000E+00  0.00000000000E+00  0.39999999673E+01  0.40000000000E+01  0.51109989000E-03 0. -1.
     -623   -1    0    0    0    0  0.00000000000E+00  0.00000000000E+00  0.12525980253E-10  0.17130000000E+03  0.17130000000E+03 0.  1.
       11    1    1    2    0    0  0.28004773983E-02  0.18211276902E-02  0.83902083101E-01  0.83970113433E-01  0.51109989000E-03 0. -1.
     -623    1    1    2    0    0 -0.78142071176E-02  0.18891296371E-02  0.27744790912E-03  0.17130000019E+03  0.17130000000E+03 0.  1.
      622    1    1    2    0    0  0.50137297193E-02 -0.37102573273E-02  0.39158204363E+01  0.39160296977E+01  0.40000000000E-01 0. -1.
</event>
<event>
 5   0  0.6200596E+07  0.9118800E+02  0.7818608E-02  0.1180000E+00
       11   -1    0    0    0    0  0.00000000000E+00  0.00000000000E+00  0.39999999673E+01  0.40000000000E+01  0.51109989000E-03 0.  1.
     -623   -1    0    0    0    0  0.00000000000E+00  0.00000000000E+00  0.12525980253E-10  0.17130000000E+03  0.17130000000E+03 0. -1.
       11    1    1    2    0    0  0.19265828197E-01  0.12390404997E-01  0.21524344947E+01  0.21525564358E+01  0.51109989000E-03 0.  1.
     -623    1    1    2    0    0  0.60821174899E-03  0.24266706425E-02  0.72137353864E-03  0.17130000002E+03  0.17130000000E+03 0. -1.
      622    1    1    2    0    0 -0.19874039946E-01 -0.14817075640E-01  0.18468440992E+01  0.18474435444E+01  0.40000000000E-01 0.  1.
</event>
<event>
 5   0  0.6200596E+07  0.9118800E+02  0.7818608E-02  0.1180000E+00
       11   -1    0    0    0    0  0.00000000000E+00  0.00000000000E+00  0.39999999673E+01  0.40000000000E+01  0.51109989000E-03 0. -1.
     -623   -1    0    0    0    0  0.00000000000E+00  0.00000000000E+00  0.12525980253E-10  0.17130000000E+03  0.17130000000E+03 0.  1.
       11    1    1    2    0    0  0.63027905455E-02  0.81390243713E-02  0.22147945373E-01  0.24428704265E-01  0.51109989000E-03 0. -1.
     -623    1    1    2    0    0 -0.43850015842E-02 -0.10874274113E-01  0.24837831736E-02  0.17130000042E+03  0.17130000000E+03 0.  1.
      622    1    1    2    0    0 -0.19177889613E-02  0.27352497412E-02  0.39753682388E+01  0.39755708764E+01  0.40000000000E-01 0. -1.
</event>
<event>
 5   0  0.6200596E+07  0.9118800E+02  0.7818608E-02  0.1180000E+00
       11   -1    0    0    0    0  0.00000000000E+00  0.00000000000E+00  0.39999999673E+01  0.40000000000E+01  0.51109989000E-03 0. -1.
     -623   -1    0    0    0    0  0.00000000000E+00  0.00000000000E+00  0.12525980253E-10  0.17130000000E+03  0.17130000000E+03 0. -1.
       11    1    1    2    0    0 -0.85732695512E-02  0.83987198174E-02  0.41617077960E+00  0.41634411064E+00  0.51109989000E-03 0. -1.
     -623    1    1    2    0    0  0.18837444181E-02 -0.42515892652E-02  0.40524840766E-03  0.17130000006E+03  0.17130000000E+03 0. -1.
      622    1    1    2    0    0  0.66895251330E-02 -0.41471305521E-02  0.35834239393E+01  0.35836558258E+01  0.40000000000E-01 0.  0.
</event>
<event>
 5   0  0.6200596E+07  0.9118800E+02  0.7818608E-02  0.1180000E+00
       11   -1    0    0    0    0  0.00000000000E+00  0.00000000000E+00  0.39999999673E+01  0.40000000000E+01  0.51109989000E-03 0. -1.
     -623   -1    0    0    0    0  0.00000000000E+00  0.00000000000E+00  0.12525980253E-10  0.17130000000E+03  0.17130000000E+03 0. -1.
       11    1    1    2    0    0  0.20064446675E-02 -0.12971718150E-01  0.13938602635E+00  0.14000363158E+00  0.51109989000E-03 0. -1.
     -623    1    1    2    0    0  0.12193927111E-02  0.24974221857E-02  0.84041690818E-03  0.17130000002E+03  0.17130000000E+03 0. -1.
      622    1    1    2    0    0 -0.32258373786E-02  0.10474295964E-01  0.38597735241E+01  0.38599963438E+01  0.40000000000E-01 0. -1.
</event>
<event>
 5   0  0.6200596E+07  0.9118800E+02  0.7818608E-02  0.1180000E+00
       11   -1    0    0    0    0  0.00000000000E+00  0.00000000000E+00  0.39999999673E+01  0.40000000000E+01  0.51109989000E-03 0. -1.
     -623   -1    0    0    0    0  0.00000000000E+00  0.00000000000E+00  0.12525980253E-10  0.17130000000E+03  0.17130000000E+03 0. -1.
       11    1    1    2    0    0  0.20926039033E-01  0.46824257179E-02  0.32202356833E+00  0.32273714382E+00  0.51109989000E-03 0. -1.
     -623    1    1    2    0    0  0.94077037188E-03 -0.66038163138E-02  0.99675700732E-03  0.17130000013E+03  0.17130000000E+03 0. -1.
      622    1    1    2    0    0 -0.21866809405E-01  0.19213905959E-02  0.36769796420E+01  0.36772627234E+01  0.40000000000E-01 0. -1.
</event>
<event>
 5   0  0.6200596E+07  0.9118800E+02  0.7818608E-02  0.1180000E+00
       11   -1    0    0    0    0  0.00000000000E+00  0.00000000000E+00  0.39999999673E+01  0.40000000000E+01  0.51109989000E-03 0. -1.
     -623   -1    0    0    0    0  0.00000000000E+00  0.00000000000E+00  0.12525980253E-10  0.17130000000E+03  0.17130000000E+03 0. -1.
       11    1    1    2    0    0 -0.40832171639E-02  0.76640213230E-02  0.22170286668E+00  0.22187345988E+00  0.51109989000E-03 0. -1.
     -623    1    1    2    0    0  0.18454174425E-02 -0.11643389247E-02  0.38857992687E-03  0.17130000001E+03  0.17130000000E+03 0. -1.
      622    1    1    2    0    0  0.22377997214E-02 -0.64996823983E-02  0.37779085208E+01  0.37781265258E+01  0.40000000000E-01 0.  0.
</event>
<event>
 5   0  0.6200596E+07  0.9118800E+02  0.7818608E-02  0.1180000E+00
       11   -1    0    0    0    0  0.00000000000E+00  0.00000000000E+00  0.39999999673E+01  0.40000000000E+01  0.51109989000E-03 0. -1.
     -623   -1    0    0    0    0  0.00000000000E+00  0.00000000000E+00  0.12525980253E-10  0.17130000000E+03  0.17130000000E+03 0.  1.
       11    1    1    2    0    0  0.17619395396E-02 -0.10046322443E-02  0.55320523871E-01  0.55360051485E-01  0.51109989000E-03 0. -1.
     -623    1    1    2    0    0  0.11947468544E-03  0.21043090259E-03  0.24283603333E-03  0.17130000000E+03  0.17130000000E+03 0.  1.
      622    1    1    2    0    0 -0.18814142251E-02  0.79420134176E-03  0.39444366075E+01  0.39446399482E+01  0.40000000000E-01 0. -1.
</event>
<event>
 5   0  0.6200596E+07  0.9118800E+02  0.7818608E-02  0.1180000E+00
       11   -1    0    0    0    0  0.00000000000E+00  0.00000000000E+00  0.39999999673E+01  0.40000000000E+01  0.51109989000E-03 0.  1.
     -623   -1    0    0    0    0  0.00000000000E+00  0.00000000000E+00  0.12525980253E-10  0.17130000000E+03  0.17130000000E+03 0. -1.
       11    1    1    2    0    0  0.18037072850E-02  0.36622192181E-02  0.59837447616E-01  0.59978717631E-01  0.51109989000E-03 0.  1.
     -623    1    1    2    0    0  0.85710072409E-03 -0.41661718748E-03  0.34652555861E-03  0.17130000000E+03  0.17130000000E+03 0. -1.
      622    1    1    2    0    0 -0.26608080091E-02 -0.32456020307E-02  0.39398159942E+01  0.39400212794E+01  0.40000000000E-01 0.  1.
</event>
<event>
 5   0  0.6200596E+07  0.9118800E+02  0.7818608E-02  0.1180000E+00
       11   -1    0    0    0    0  0.00000000000E+00  0.00000000000E+00  0.39999999673E+01  0.40000000000E+01  0.51109989000E-03 0. -1.
     -623   -1    0    0    0    0  0.00000000000E+00  0.00000000000E+00  0.12525980253E-10  0.17130000000E+03  0.17130000000E+03 0. -1.
       11    1    1    2    0    0  0.30612921929E-03  0.11896275167E-03  0.40007972748E-01  0.40012585178E-01  0.51109989000E-03 0. -1.
     -623    1    1    2    0    0 -0.20399536338E-02  0.16859575531E-02  0.20741729488E-03  0.17130000002E+03  0.17130000000E+03 0. -1.
      622    1    1    2    0    0  0.17338244145E-02 -0.18049203047E-02  0.39597845773E+01  0.39599873943E+01  0.40000000000E-01 0. -1.
</event>
<event>
 5   0  0.6200596E+07  0.9118800E+02  0.7818608E-02  0.1180000E+00
       11   -1    0    0    0    0  0.00000000000E+00  0.00000000000E+00  0.39999999673E+01  0.40000000000E+01  0.51109989000E-03 0. -1.
     -623   -1    0    0    0    0  0.00000000000E+00  0.00000000000E+00  0.12525980253E-10  0.17130000000E+03  0.17130000000E+03 0.  1.
       11    1    1    2    0    0  0.54736318902E-03 -0.28225579407E-02  0.96253947114E-01  0.96298234642E-01  0.51109989000E-03 0. -1.
     -623    1    1    2    0    0 -0.69523257492E-03  0.38642435446E-02  0.24938092761E-03  0.17130000005E+03  0.17130000000E+03 0.  1.
      622    1    1    2    0    0  0.14786938591E-03 -0.10416856039E-02  0.39034966393E+01  0.39037017202E+01  0.40000000000E-01 0. -1.
</event>
<event>
 5   0  0.6200596E+07  0.9118800E+02  0.7818608E-02  0.1180000E+00
       11   -1    0    0    0    0  0.00000000000E+00  0.00000000000E+00  0.39999999673E+01  0.40000000000E+01  0.51109989000E-03 0.  1.
     -623   -1    0    0    0    0  0.00000000000E+00  0.00000000000E+00  0.12525980253E-10  0.17130000000E+03  0.17130000000E+03 0.  1.
       11    1    1    2    0    0 -0.18476448889E-01 -0.10578420096E-01  0.28785448972E+00  0.28864121433E+00  0.51109989000E-03 0.  1.
     -623    1    1    2    0    0 -0.19790898738E-01 -0.13362547275E-01  0.12784514467E-02  0.17130000167E+03  0.17130000000E+03 0.  1.
      622    1    1    2    0    0  0.38267347627E-01  0.23940967371E-01  0.37108670262E+01  0.37113571165E+01  0.40000000000E-01 0.  1.
</event>
<event>
 5   0  0.6200596E+07  0.9118800E+02  0.7818608E-02  0.1180000E+00
       11   -1    0    0    0    0  0.00000000000E+00  0.00000000000E+00  0.39999999673E+01  0.40000000000E+01  0.51109989000E-03 0. -1.
     -623   -1    0    0    0    0  0.00000000000E+00  0.00000000000E+00  0.12525980253E-10  0.17130000000E+03  0.17130000000E+03 0. -1.
       11    1    1    2    0    0 -0.49396860760E-02  0.32809140014E-02  0.63620750284E-01  0.63898560111E-01  0.51109989000E-03 0. -1.
     -623    1    1    2    0    0 -0.18293403018E-02 -0.11212117293E-02  0.48745664608E-03  0.17130000001E+03  0.17130000000E+03 0. -1.
      622    1    1    2    0    0  0.67690263778E-02 -0.21597022721E-02  0.39358917604E+01  0.39361014258E+01  0.40000000000E-01 0. -1.
</event>
<event>
 5   0  0.6200596E+07  0.9118800E+02  0.7818608E-02  0.1180000E+00
       11   -1    0    0    0    0  0.00000000000E+00  0.00000000000E+00  0.39999999673E+01  0.40000000000E+01  0.51109989000E-03 0. -1.
     -623   -1    0    0    0    0  0.00000000000E+00  0.00000000000E+00  0.12525980253E-10  0.17130000000E+03  0.17130000000E+03 0.  1.
       11    1    1    2    0    0 -0.14906154984E-01 -0.23877646485E-01  0.64060259080E+00  0.64122092606E+00  0.51109989000E-03 0. -1.
     -623    1    1    2    0    0 -0.52987945695E-03 -0.43423410816E-02  0.10105862366E-02  0.17130000006E+03  0.17130000000E+03 0.  1.
      622    1    1    2    0    0  0.15436034441E-01  0.28219987567E-01  0.33583867903E+01  0.33587790151E+01  0.40000000000E-01 0. -1.
</event>
<event>
 5   0  0.6200596E+07  0.9118800E+02  0.7818608E-02  0.1180000E+00
       11   -1    0    0    0    0  0.00000000000E+00  0.00000000000E+00  0.39999999673E+01  0.40000000000E+01  0.51109989000E-03 0. -1.
     -623   -1    0    0    0    0  0.00000000000E+00  0.00000000000E+00  0.12525980253E-10  0.17130000000E+03  0.17130000000E+03 0. -1.
       11    1    1    2    0    0 -0.15046257963E-02  0.17980223331E-02  0.18079646120E+00  0.18081238449E+00  0.51109989000E-03 0. -1.
     -623    1    1    2    0    0 -0.58022210594E-02  0.42219013486E-03  0.23309945133E-03  0.17130000010E+03  0.17130000000E+03 0. -1.
      622    1    1    2    0    0  0.73068468557E-02 -0.22202124679E-02  0.38189704067E+01  0.38191875166E+01  0.40000000000E-01 0. -1.
</event>
<event>
 5   0  0.6200596E+07  0.9118800E+02  0.7818608E-02  0.1180000E+00
       11   -1    0    0    0    0  0.00000000000E+00  0.00000000000E+00  0.39999999673E+01  0.40000000000E+01  0.51109989000E-03 0. -1.
     -623   -1    0    0    0    0  0.00000000000E+00  0.00000000000E+00  0.12525980253E-10  0.17130000000E+03  0.17130000000E+03 0. -1.
       11    1    1    2    0    0 -0.20170867008E-02  0.52844409701E-02  0.18220017936E-01  0.19084659524E-01  0.51109989000E-03 0. -1.
     -623    1    1    2    0    0  0.68052248261E-02 -0.53328148760E-02  0.10686743196E-02  0.17130000022E+03  0.17130000000E+03 0. -1.
      622    1    1    2    0    0 -0.47881381253E-02  0.48373905871E-04  0.39807112751E+01  0.39809151190E+01  0.40000000000E-01 0. -1.
</event>
<event>
 5   0  0.6200596E+07  0.9118800E+02  0.7818608E-02  0.1180000E+00
       11   -1    0    0    0    0  0.00000000000E+00  0.00000000000E+00  0.39999999673E+01  0.40000000000E+01  0.51109989000E-03 0. -1.
     -623   -1    0    0    0    0  0.00000000000E+00  0.00000000000E+00  0.12525980253E-10  0.17130000000E+03  0.17130000000E+03 0. -1.
       11    1    1    2    0    0 -0.12046168792E-03  0.17193426802E-02  0.19034163257E-02  0.26181799915E-02  0.51109989000E-03 0. -1.
     -623    1    1    2    0    0 -0.11183254922E-02  0.78326906554E-04  0.91546934188E-03  0.17130000001E+03  0.17130000000E+03 0. -1.
      622    1    1    2    0    0  0.12387871801E-02 -0.17976695868E-02  0.39971810817E+01  0.39973818139E+01  0.40000000000E-01 0. -1.
</event>
<event>
 5   0  0.6200596E+07  0.9118800E+02  0.7818608E-02  0.1180000E+00
       11   -1    0    0    0    0  0.00000000000E+00  0.00000000000E+00  0.39999999673E+01  0.40000000000E+01  0.51109989000E-03 0.  1.
     -623   -1    0    0    0    0  0.00000000000E+00  0.00000000000E+00  0.12525980253E-10  0.17130000000E+03  0.17130000000E+03 0.  1.
       11    1    1    2    0    0 -0.84557063850E-02  0.96796854382E-02  0.12963180789E+01  0.12963818952E+01  0.51109989000E-03 0.  1.
     -623    1    1    2    0    0  0.92506489683E-02 -0.52367901417E-02  0.36379769673E-03  0.17130000033E+03  0.17130000000E+03 0.  1.
      622    1    1    2    0    0 -0.79494258331E-03 -0.44428952965E-02  0.27033180907E+01  0.27036177745E+01  0.40000000000E-01 0.  0.
</event>
<event>
 5   0  0.6200596E+07  0.9118800E+02  0.7818608E-02  0.1180000E+00
       11   -1    0    0    0    0  0.00000000000E+00  0.00000000000E+00  0.39999999673E+01  0.40000000000E+01  0.51109989000E-03 0.  1.
     -623   -1    0    0    0    0  0.00000000000E+00  0.00000000000E+00  0.12525980253E-10  0.17130000000E+03  0.17130000000E+03 0.  1.
       11    1    1    2    0    0  0.13602707983E-03  0.21566461046E-02  0.16743482984E-01  0.16890087935E-01  0.51109989000E-03 0.  1.
     -623    1    1    2    0    0 -0.50002206815E-03 -0.83864272576E-03  0.34766330177E-03  0.17130000000E+03  0.17130000000E+03 0.  1.
      622    1    1    2    0    0  0.36399498831E-03 -0.13180033788E-02  0.39829088211E+01  0.39831099089E+01  0.40000000000E-01 0.  1.
</event>
<event>
 5   0  0.6200596E+07  0.9118800E+02  0.7818608E-02  0.1180000E+00
       11   -1    0    0    0    0  0.00000000000E+00  0.00000000000E+00  0.39999999673E+01  0.40000000000E+01  0.51109989000E-03 0.  1.
     -623   -1    0    0    0    0  0.00000000000E+00  0.00000000000E+00  0.12525980253E-10  0.17130000000E+03  0.17130000000E+03 0. -1.
       11    1    1    2    0    0  0.17663130386E-01 -0.11667800329E-01  0.10636889887E+01  0.10638997366E+01  0.51109989000E-03 0.  1.
     -623    1    1    2    0    0 -0.33347097852E-02 -0.10936860597E-01  0.60557194485E-03  0.17130000038E+03  0.17130000000E+03 0. -1.
      622    1    1    2    0    0 -0.14328420601E-01  0.22604660926E-01  0.29357054067E+01  0.29360998807E+01  0.40000000000E-01 0.  0.
</event>
<event>
 5   0  0.6200596E+07  0.9118800E+02  0.7818608E-02  0.1180000E+00
       11   -1    0    0    0    0  0.00000000000E+00  0.00000000000E+00  0.39999999673E+01  0.40000000000E+01  0.51109989000E-03 0. -1.
     -623   -1    0    0    0    0  0.00000000000E+00  0.00000000000E+00  0.12525980253E-10  0.17130000000E+03  0.17130000000E+03 0. -1.
       11    1    1    2    0    0 -0.80542010604E-03  0.23031817024E-04  0.27366503614E-01  0.27383133010E-01  0.51109989000E-03 0. -1.
     -623    1    1    2    0    0  0.18978561603E-03 -0.33561233081E-03  0.21804102964E-03  0.17130000000E+03  0.17130000000E+03 0. -1.
      622    1    1    2    0    0  0.61563449001E-03  0.31258051379E-03  0.39724154227E+01  0.39726168664E+01  0.40000000000E-01 0. -1.
</event>
<event>
 5   0  0.6200596E+07  0.9118800E+02  0.7818608E-02  0.1180000E+00
       11   -1    0    0    0    0  0.00000000000E+00  0.00000000000E+00  0.39999999673E+01  0.40000000000E+01  0.51109989000E-03 0.  1.
     -623   -1    0    0    0    0  0.00000000000E+00  0.00000000000E+00  0.12525980253E-10  0.17130000000E+03  0.17130000000E+03 0. -1.
       11    1    1    2    0    0 -0.12467020819E-01  0.46125132302E-03  0.27666035378E+00  0.27694196492E+00  0.51109989000E-03 0.  1.
     -623    1    1    2    0    0  0.11627957865E-03  0.17584934480E-02  0.51762063685E-03  0.17130000001E+03  0.17130000000E+03 0. -1.
      622    1    1    2    0    0  0.12350741240E-01 -0.22197447710E-02  0.37228219929E+01  0.37230580252E+01  0.40000000000E-01 0.  1.
</event>
<event>
 5   0  0.6200596E+07  0.9118800E+02  0.7818608E-02  0.1180000E+00
       11   -1    0    0    0    0  0.00000000000E+00  0.00000000000E+00  0.39999999673E+01  0.40000000000E+01  0.51109989000E-03 0.  1.
     -623   -1    0    0    0    0  0.00000000000E+00  0.00000000000E+00  0.12525980253E-10  0.17130000000E+03  0.17130000000E+03 0. -1.
       11    1    1    2    0    0  0.16476906285E-02 -0.17416569539E-03  0.86314934442E-01  0.86332348217E-01  0.51109989000E-03 0.  1.
     -623    1    1    2    0    0 -0.22175711093E-02 -0.33225304057E-03  0.22188739182E-03  0.17130000001E+03  0.17130000000E+03 0. -1.
      622    1    1    2    0    0  0.56988048078E-03  0.50641873596E-03  0.39134631455E+01  0.39136676370E+01  0.40000000000E-01 0.  1.
</event>
<event>
 5   0  0.6200596E+07  0.9118800E+02  0.7818608E-02  0.1180000E+00
       11   -1    0    0    0    0  0.00000000000E+00  0.00000000000E+00  0.39999999673E+01  0.40000000000E+01  0.51109989000E-03 0.  1.
     -623   -1    0    0    0    0  0.00000000000E+00  0.00000000000E+00  0.12525980253E-10  0.17130000000E+03  0.17130000000E+03 0.  1.
       11    1    1    2    0    0 -0.75995414229E-03 -0.25377218013E-02  0.19710103806E-01  0.19893892891E-01  0.51109989000E-03 0.  1.
     -623    1    1    2    0    0 -0.23737808382E-02  0.18319165001E-03  0.38670838034E-03  0.17130000002E+03  0.17130000000E+03 0.  1.
      622    1    1    2    0    0  0.31337349805E-02  0.23545301513E-02  0.39799031552E+01  0.39801060901E+01  0.40000000000E-01 0.  1.
</event>
<event>
 5   0  0.6200596E+07  0.9118800E+02  0.7818608E-02  0.1180000E+00
       11   -1    0    0    0    0  0.00000000000E+00  0.00000000000E+00  0.39999999673E+01  0.40000000000E+01  0.51109989000E-03 0.  1.
     -623   -1    0    0    0    0  0.00000000000E+00  0.00000000000E+00  0.12525980253E-10  0.17130000000E+03  0.17130000000E+03 0. -1.
       11    1    1    2    0    0  0.26856643655E-01  0.38777462346E-02  0.23078326433E+01  0.23079922198E+01  0.51109989000E-03 0.  1.
     -623    1    1    2    0    0 -0.15175219306E-01 -0.15463675016E-01  0.71380799526E-03  0.17130000137E+03  0.17130000000E+03 0. -1.
      622    1    1    2    0    0 -0.11681424349E-01  0.11585928782E-01  0.16914535161E+01  0.16920064086E+01  0.40000000000E-01 0.  1.
</event>
<event>
 5   0  0.6200596E+07  0.9118800E+02  0.7818608E-02  0.1180000E+00
       11   -1    0    0    0    0  0.00000000000E+00  0.00000000000E+00  0.39999999673E+01  0.40000000000E+01  0.51109989000E-03 0.  1.
     -623   -1    0    0    0    0  0.00000000000E+00  0.00000000000E+00  0.12525980253E-10  0.17130000000E+03  0.17130000000E+03 0.  1.
       11    1    1    2    0    0  0.77678031278E-03 -0.75503964465E-03  0.30472257345E-01  0.30495789222E-01  0.51109989000E-03 0.  1.
     -623    1    1    2    0    0 -0.64002897961E-02  0.98607422368E-02  0.23987238657E-03  0.17130000040E+03  0.17130000000E+03 0.  1.
      622    1    1    2    0    0  0.56235094834E-02 -0.91057025921E-02  0.39692878376E+01  0.39695038072E+01  0.40000000000E-01 0.  1.
</event>
<event>
 5   0  0.6200596E+07  0.9118800E+02  0.7818608E-02  0.1180000E+00
       11   -1    0    0    0    0  0.00000000000E+00  0.00000000000E+00  0.39999999673E+01  0.40000000000E+01  0.51109989000E-03 0.  1.
     -623   -1    0    0    0    0  0.00000000000E+00  0.00000000000E+00  0.12525980253E-10  0.17130000000E+03  0.17130000000E+03 0.  1.
       11    1    1    2    0    0  0.17184557084E-03  0.48125658706E-03  0.35889984581E-02  0.36610475815E-02  0.51109989000E-03 0.  1.
     -623    1    1    2    0    0 -0.87537738982E-03 -0.14190950834E-02  0.27238502746E-03  0.17130000001E+03  0.17130000000E+03 0.  1.
      622    1    1    2    0    0  0.70353181899E-03  0.93783849636E-03  0.39961385839E+01  0.39963389441E+01  0.40000000000E-01 0.  1.
</event>
<event>
 5   0  0.6200596E+07  0.9118800E+02  0.7818608E-02  0.1180000E+00
       11   -1    0    0    0    0  0.00000000000E+00  0.00000000000E+00  0.39999999673E+01  0.40000000000E+01  0.51109989000E-03 0.  1.
     -623   -1    0    0    0    0  0.00000000000E+00  0.00000000000E+00  0.12525980253E-10  0.17130000000E+03  0.17130000000E+03 0. -1.
       11    1    1    2    0    0 -0.19899802229E-02  0.43335989927E-03  0.20115343196E-01  0.20224640302E-01  0.51109989000E-03 0.  1.
     -623    1    1    2    0    0  0.21464712450E-02  0.38665960820E-02  0.31266943125E-03  0.17130000006E+03  0.17130000000E+03 0. -1.
      622    1    1    2    0    0 -0.15649102211E-03 -0.42999559813E-02  0.39795719547E+01  0.39797753023E+01  0.40000000000E-01 0.  1.
</event>
<event>
 5   0  0.6200596E+07  0.9118800E+02  0.7818608E-02  0.1180000E+00
       11   -1    0    0    0    0  0.00000000000E+00  0.00000000000E+00  0.39999999673E+01  0.40000000000E+01  0.51109989000E-03 0. -1.
     -623   -1    0    0    0    0  0.00000000000E+00  0.00000000000E+00  0.12525980253E-10  0.17130000000E+03  0.17130000000E+03 0.  1.
       11    1    1    2    0    0 -0.44517774068E-02  0.74418885375E-02  0.10676004227E+00  0.10711287446E+00  0.51109989000E-03 0. -1.
     -623    1    1    2    0    0 -0.54166233840E-02  0.45186399528E-03  0.57890767077E-03  0.17130000009E+03  0.17130000000E+03 0.  1.
      622    1    1    2    0    0  0.98684007908E-02 -0.78937525327E-02  0.38926610174E+01  0.38928870383E+01  0.40000000000E-01 0. -1.
</event>
<event>
 5   0  0.6200596E+07  0.9118800E+02  0.7818608E-02  0.1180000E+00
       11   -1    0    0    0    0  0.00000000000E+00  0.00000000000E+00  0.39999999673E+01  0.40000000000E+01  0.51109989000E-03 0.  1.
     -623   -1    0    0    0    0  0.00000000000E+00  0.00000000000E+00  0.12525980253E-10  0.17130000000E+03  0.17130000000E+03 0.  1.
       11    1    1    2    0    0  0.12309721733E-02 -0.41479087161E-02  0.34392286963E-01  0.34667146733E-01  0.51109989000E-03 0.  1.
     -623    1    1    2    0    0 -0.23759010899E-02  0.15127891439E-03  0.47877747548E-03  0.17130000002E+03  0.17130000000E+03 0.  1.
      622    1    1    2    0    0  0.11449289167E-02  0.39966298017E-02  0.39651289029E+01  0.39653328361E+01  0.40000000000E-01 0.  1.
</event>
<event>
 5   0  0.6200596E+07  0.9118800E+02  0.7818608E-02  0.1180000E+00
       11   -1    0    0    0    0  0.00000000000E+00  0.00000000000E+00  0.39999999673E+01  0.40000000000E+01  0.51109989000E-03 0.  1.
     -623   -1    0    0    0    0  0.00000000000E+00  0.00000000000E+00  0.12525980253E-10  0.17130000000E+03  0.17130000000E+03 0.  1.
       11    1    1    2    0    0  0.13845691099E-01  0.78388881532E-02  0.12319381509E+01  0.12320409978E+01  0.51109989000E-03 0.  1.
     -623    1    1    2    0    0  0.98434112121E-03  0.82370639312E-02  0.47847422515E-03  0.17130000020E+03  0.17130000000E+03 0.  1.
      622    1    1    2    0    0 -0.14830032220E-01 -0.16075952084E-01  0.27675833422E+01  0.27679588007E+01  0.40000000000E-01 0.  1.
</event>
<event>
 5   0  0.6200596E+07  0.9118800E+02  0.7818608E-02  0.1180000E+00
       11   -1    0    0    0    0  0.00000000000E+00  0.00000000000E+00  0.39999999673E+01  0.40000000000E+01  0.51109989000E-03 0.  1.
     -623   -1    0    0    0    0  0.00000000000E+00  0.00000000000E+00  0.12525980253E-10  0.17130000000E+03  0.17130000000E+03 0.  1.
       11    1    1    2    0    0 -0.10386284779E-01 -0.37857364121E-02  0.84634994094E+00  0.84642228849E+00  0.51109989000E-03 0.  1.
     -623    1    1    2    0    0  0.33212122079E-02 -0.23835217436E-02  0.34000396500E-03  0.17130000005E+03  0.17130000000E+03 0.  1.
      622    1    1    2    0    0  0.70650725712E-02  0.61692581557E-02  0.31533100225E+01  0.31535776624E+01  0.40000000000E-01 0.  1.
</event>
<event>
 5   0  0.6200596E+07  0.9118800E+02  0.7818608E-02  0.1180000E+00
       11   -1    0    0    0    0  0.00000000000E+00  0.00000000000E+00  0.39999999673E+01  0.40000000000E+01  0.51109989000E-03 0. -1.
     -623   -1    0    0    0    0  0.00000000000E+00  0.00000000000E+00  0.12525980253E-10  0.17130000000E+03  0.17130000000E+03 0.  1.
       11    1    1    2    0    0  0.30837256063E-03  0.35739746818E-02  0.16772339716E+00  0.16776253326E+00  0.51109989000E-03 0. -1.
     -623    1    1    2    0    0 -0.29019956753E-02 -0.12433180595E-02  0.24948022983E-03  0.17130000003E+03  0.17130000000E+03 0.  1.
      622    1    1    2    0    0  0.25936231147E-02 -0.23306566222E-02  0.38320270900E+01  0.38322374375E+01  0.40000000000E-01 0. -1.
</event>
<event>
 5   0  0.6200596E+07  0.9118800E+02  0.7818608E-02  0.1180000E+00
       11   -1    0    0    0    0  0.00000000000E+00  0.00000000000E+00  0.39999999673E+01  0.40000000000E+01  0.51109989000E-03 0. -1.
     -623   -1    0    0    0    0  0.00000000000E+00  0.00000000000E+00  0.12525980253E-10  0.17130000000E+03  0.17130000000E+03 0.  1.
       11    1    1    2    0    0 -0.39575987093E-02 -0.12484043914E-02  0.28650650177E+00  0.28653700961E+00  0.51109989000E-03 0. -1.
     -623    1    1    2    0    0  0.61187935040E-02  0.65108609919E-02  0.25050494209E-03  0.17130000023E+03  0.17130000000E+03 0.  1.
      622    1    1    2    0    0 -0.21611947947E-02 -0.52624566005E-02  0.37132429606E+01  0.37134627572E+01  0.40000000000E-01 0. -1.
</event>
<event>
 5   0  0.6200596E+07  0.9118800E+02  0.7818608E-02  0.1180000E+00
       11   -1    0    0    0    0  0.00000000000E+00  0.00000000000E+00  0.39999999673E+01  0.40000000000E+01  0.51109989000E-03 0.  1.
     -623   -1    0    0    0    0  0.00000000000E+00  0.00000000000E+00  0.12525980253E-10  0.17130000000E+03  0.17130000000E+03 0.  1.
       11    1    1    2    0    0  0.39944787976E-02  0.17669279236E-01  0.12706135995E+01  0.12707428299E+01  0.51109989000E-03 0.  1.
     -623    1    1    2    0    0 -0.29529490444E-02  0.26155274966E-02  0.49796953852E-03  0.17130000005E+03  0.17130000000E+03 0.  1.
      622    1    1    2    0    0 -0.10415297532E-02 -0.20284806732E-01  0.27288883983E+01  0.27292571240E+01  0.40000000000E-01 0.  1.
</event>
<event>
 5   0  0.6200596E+07  0.9118800E+02  0.7818608E-02  0.1180000E+00
       11   -1    0    0    0    0  0.00000000000E+00  0.00000000000E+00  0.39999999673E+01  0.40000000000E+01  0.51109989000E-03 0. -1.
     -623   -1    0    0    0    0  0.00000000000E+00  0.00000000000E+00  0.12525980253E-10  0.17130000000E+03  0.17130000000E+03 0.  1.
       11    1    1    2    0    0 -0.12734975571E-01  0.22395113068E-02  0.16289455927E-01  0.20803908518E-01  0.51109989000E-03 0. -1.
     -623    1    1    2    0    0  0.12740248511E-01  0.21153713012E-02  0.47184056512E-02  0.17130000055E+03  0.17130000000E+03 0.  1.
      622    1    1    2    0    0 -0.52729402333E-05 -0.43548826080E-02  0.39789921058E+01  0.39791955397E+01  0.40000000000E-01 0. -1.
</event>
<event>
 5   0  0.6200596E+07  0.9118800E+02  0.7818608E-02  0.1180000E+00
       11   -1    0    0    0    0  0.00000000000E+00  0.00000000000E+00  0.39999999673E+01  0.40000000000E+01  0.51109989000E-03 0. -1.
     -623   -1    0    0    0    0  0.00000000000E+00  0.00000000000E+00  0.12525980253E-10  0.17130000000E+03  0.17130000000E+03 0. -1.
       11    1    1    2    0    0 -0.20321214625E-01 -0.18182362763E-02  0.83163341374E+00  0.83188379826E+00  0.51109989000E-03 0. -1.
     -623    1    1    2    0    0  0.38900216168E-02  0.94975326955E-02  0.55510749984E-03  0.17130000031E+03  0.17130000000E+03 0. -1.
      622    1    1    2    0    0  0.16431193008E-01 -0.76792964192E-02  0.31678114461E+01  0.31681158934E+01  0.40000000000E-01 0.  1.
</event>
<event>
 5   0  0.6200596E+07  0.9118800E+02  0.7818608E-02  0.1180000E+00
       11   -1    0    0    0    0  0.00000000000E+00  0.00000000000E+00  0.39999999673E+01  0.40000000000E+01  0.51109989000E-03 0.  1.
     -623   -1    0    0    0    0  0.00000000000E+00  0.00000000000E+00  0.12525980253E-10  0.17130000000E+03  0.17130000000E+03 0. -1.
       11    1    1    2    0    0 -0.21058895256E-01 -0.22904932948E-01  0.13090591939E+01  0.13094290157E+01  0.51109989000E-03 0.  1.
     -623    1    1    2    0    0  0.26881976212E-02 -0.67263013288E-03  0.83320951864E-03  0.17130000002E+03  0.17130000000E+03 0. -1.
      622    1    1    2    0    0  0.18370697635E-01  0.23577563080E-01  0.26901075640E+01  0.26905709598E+01  0.40000000000E-01 0.  1.
</event>
<event>
 5   0  0.6200596E+07  0.9118800E+02  0.7818608E-02  0.1180000E+00
       11   -1    0    0    0    0  0.00000000000E+00  0.00000000000E+00  0.39999999673E+01  0.40000000000E+01  0.51109989000E-03 0.  1.
     -623   -1    0    0    0    0  0.00000000000E+00  0.00000000000E+00  0.12525980253E-10  0.17130000000E+03  0.17130000000E+03 0. -1.
       11    1    1    2    0    0  0.83205553201E-02  0.24392250577E-02  0.90495741944E-02  0.12543423578E-01  0.51109989000E-03 0.  1.
     -623    1    1    2    0    0 -0.54235629113E-02 -0.72777246044E-02  0.36987195008E-02  0.17130000028E+03  0.17130000000E+03 0. -1.
      622    1    1    2    0    0 -0.28969924088E-02  0.48384995467E-02  0.39872516737E+01  0.39874562960E+01  0.40000000000E-01 0.  1.
</event>
<event>
 5   0  0.6200596E+07  0.9118800E+02  0.7818608E-02  0.1180000E+00
       11   -1    0    0    0    0  0.00000000000E+00  0.00000000000E+00  0.39999999673E+01  0.40000000000E+01  0.51109989000E-03 0.  1.
     -623   -1    0    0    0    0  0.00000000000E+00  0.00000000000E+00  0.12525980253E-10  0.17130000000E+03  0.17130000000E+03 0. -1.
       11    1    1    2    0    0 -0.13445241983E-01 -0.24185999915E-01  0.16667436837E+01  0.16669734568E+01  0.51109989000E-03 0.  1.
     -623    1    1    2    0    0 -0.65360781061E-02  0.82190602724E-02  0.71321944615E-03  0.17130000032E+03  0.17130000000E+03 0. -1.
      622    1    1    2    0    0  0.19981320089E-01  0.15966939643E-01  0.23325430642E+01  0.23330262199E+01  0.40000000000E-01 0.  1.
</event>
<event>
 5   0  0.6200596E+07  0.9118800E+02  0.7818608E-02  0.1180000E+00
       11   -1    0    0    0    0  0.00000000000E+00  0.00000000000E+00  0.39999999673E+01  0.40000000000E+01  0.51109989000E-03 0. -1.
     -623   -1    0    0    0    0  0.00000000000E+00  0.00000000000E+00  0.12525980253E-10  0.17130000000E+03  0.17130000000E+03 0.  1.
       11    1    1    2    0    0  0.52590696892E-02 -0.13019525069E-02  0.53785595325E-01  0.54060192195E-01  0.51109989000E-03 0. -1.
     -623    1    1    2    0    0 -0.29816763810E-02 -0.17222090320E-02  0.47916090595E-03  0.17130000004E+03  0.17130000000E+03 0.  1.
      622    1    1    2    0    0 -0.22773933082E-02  0.30241615389E-02  0.39457352111E+01  0.39459397725E+01  0.40000000000E-01 0. -1.
</event>
<event>
 5   0  0.6200596E+07  0.9118800E+02  0.7818608E-02  0.1180000E+00
       11   -1    0    0    0    0  0.00000000000E+00  0.00000000000E+00  0.39999999673E+01  0.40000000000E+01  0.51109989000E-03 0.  1.
     -623   -1    0    0    0    0  0.00000000000E+00  0.00000000000E+00  0.12525980253E-10  0.17130000000E+03  0.17130000000E+03 0.  1.
       11    1    1    2    0    0 -0.20380015958E-02 -0.43853923723E-02  0.84845971634E+00  0.84847365109E+00  0.51109989000E-03 0.  1.
     -623    1    1    2    0    0  0.36683978799E-03 -0.46879972804E-03  0.27194063303E-03  0.17130000000E+03  0.17130000000E+03 0.  1.
      622    1    1    2    0    0  0.16711618078E-02  0.48541921003E-02  0.31512683104E+01  0.31515263477E+01  0.40000000000E-01 0.  1.
</event>
<event>
 5   0  0.6200596E+07  0.9118800E+02  0.7818608E-02  0.1180000E+00
       11   -1    0    0    0    0  0.00000000000E+00  0.00000000000E+00  0.39999999673E+01  0.40000000000E+01  0.51109989000E-03 0.  1.
     -623   -1    0    0    0    0  0.00000000000E+00  0.00000000000E+00  0.12525980253E-10  0.17130000000E+03  0.17130000000E+03 0.  1.
       11    1    1    2    0    0  0.10281537713E-01  0.10446669560E-02  0.59265621255E-01  0.60162084664E-01  0.51109989000E-03 0.  1.
     -623    1    1    2    0    0  0.18519091119E-02 -0.16979129659E-02  0.11182508598E-02  0.17130000002E+03  0.17130000000E+03 0.  1.
      622    1    1    2    0    0 -0.12133446825E-01  0.65324600991E-03  0.39396160952E+01  0.39398378933E+01  0.40000000000E-01 0.  1.
</event>
<event>
 5   0  0.6200596E+07  0.9118800E+02  0.7818608E-02  0.1180000E+00
       11   -1    0    0    0    0  0.00000000000E+00  0.00000000000E+00  0.39999999673E+01  0.40000000000E+01  0.51109989000E-03 0.  1.
     -623   -1    0    0    0    0  0.00000000000E+00  0.00000000000E+00  0.12525980253E-10  0.17130000000E+03  0.17130000000E+03 0.  1.
       11    1    1    2    0    0  0.89728901463E-02 -0.19219090672E-01  0.72419696880E-01  0.75463633098E-01  0.51109989000E-03 0.  1.
     -623    1    1    2    0    0  0.46924043602E-02  0.27567251214E-01  0.32827408618E-02  0.17130000231E+03  0.17130000000E+03 0.  1.
      622    1    1    2    0    0 -0.13665294506E-01 -0.83481605426E-02  0.39242975296E+01  0.39245340530E+01  0.40000000000E-01 0.  1.
</event>
<event>
 5   0  0.6200596E+07  0.9118800E+02  0.7818608E-02  0.1180000E+00
       11   -1    0    0    0    0  0.00000000000E+00  0.00000000000E+00  0.39999999673E+01  0.40000000000E+01  0.51109989000E-03 0.  1.
     -623   -1    0    0    0    0  0.00000000000E+00  0.00000000000E+00  0.12525980253E-10  0.17130000000E+03  0.17130000000E+03 0. -1.
       11    1    1    2    0    0  0.57945496255E-02  0.40256083655E-02  0.15567191104E+00  0.15583256218E+00  0.51109989000E-03 0.  1.
     -623    1    1    2    0    0 -0.31812014992E-02  0.36250243990E-02  0.37730181539E-03  0.17130000007E+03  0.17130000000E+03 0. -1.
      622    1    1    2    0    0 -0.26133481263E-02 -0.76506327645E-02  0.38439507545E+01  0.38441673695E+01  0.40000000000E-01 0.  1.
</event>
<event>
 5   0  0.6200596E+07  0.9118800E+02  0.7818608E-02  0.1180000E+00
       11   -1    0    0    0    0  0.00000000000E+00  0.00000000000E+00  0.39999999673E+01  0.40000000000E+01  0.51109989000E-03 0.  1.
     -623   -1    0    0    0    0  0.00000000000E+00  0.00000000000E+00  0.12525980253E-10  0.17130000000E+03  0.17130000000E+03 0. -1.
       11    1    1    2    0    0  0.37778582802E-02  0.39787134319E-01  0.89408180484E+00  0.89497476123E+00  0.51109989000E-03 0.  1.
     -623    1    1    2    0    0 -0.21974445280E-01 -0.41037427867E-01  0.12104871872E-02  0.17130000633E+03  0.17130000000E+03 0. -1.
      622    1    1    2    0    0  0.18196586999E-01  0.12502935482E-02  0.31047076753E+01  0.31050189095E+01  0.40000000000E-01 0.  1.
</event>
<event>
 5   0  0.6200596E+07  0.9118800E+02  0.7818608E-02  0.1180000E+00
       11   -1    0    0    0    0  0.00000000000E+00  0.00000000000E+00  0.39999999673E+01  0.40000000000E+01  0.51109989000E-03 0. -1.
     -623   -1    0    0    0    0  0.00000000000E+00  0.00000000000E+00  0.12525980253E-10  0.17130000000E+03  0.17130000000E+03 0.  1.
       11    1    1    2    0    0 -0.60072316431E-02 -0.45443680808E-02  0.35643640853E-01  0.36434440688E-01  0.51109989000E-03 0. -1.
     -623    1    1    2    0    0 -0.30622814297E-03  0.34968623814E-02  0.99781663410E-03  0.17130000004E+03  0.17130000000E+03 0.  1.
      622    1    1    2    0    0  0.63134597861E-02  0.10475056994E-02  0.39633585099E+01  0.39635655204E+01  0.40000000000E-01 0. -1.
</event>
<event>
 5   0  0.6200596E+07  0.9118800E+02  0.7818608E-02  0.1180000E+00
       11   -1    0    0    0    0  0.00000000000E+00  0.00000000000E+00  0.39999999673E+01  0.40000000000E+01  0.51109989000E-03 0.  1.
     -623   -1    0    0    0    0  0.00000000000E+00  0.00000000000E+00  0.12525980253E-10  0.17130000000E+03  0.17130000000E+03 0. -1.
       11    1    1    2    0    0 -0.99306824637E-02  0.73756756155E-02  0.46472949274E+00  0.46489437692E+00  0.51109989000E-03 0.  1.
     -623    1    1    2    0    0  0.41696168477E-02 -0.35586133559E-03  0.40287682477E-03  0.17130000005E+03  0.17130000000E+03 0. -1.
      622    1    1    2    0    0  0.57610656160E-02 -0.70198142799E-02  0.35348675978E+01  0.35351055715E+01  0.40000000000E-01 0.  1.
</event>
<event>
 5   0  0.6200596E+07  0.9118800E+02  0.7818608E-02  0.1180000E+00
       11   -1    0    0    0    0  0.00000000000E+00  0.00000000000E+00  0.39999999673E+01  0.40000000000E+01  0.51109989000E-03 0.  1.
     -623   -1    0    0    0    0  0.00000000000E+00  0.00000000000E+00  0.12525980253E-10  0.17130000000E+03  0.17130000000E+03 0.  1.
       11    1    1    2    0    0 -0.18550163159E-01 -0.14539294669E-02  0.80123494275E+00  0.80145113212E+00  0.51109989000E-03 0.  1.
     -623    1    1    2    0    0  0.72167778423E-02  0.16053877737E-01  0.52058957136E-03  0.17130000091E+03  0.17130000000E+03 0.  1.
      622    1    1    2    0    0  0.11333385317E-01 -0.14599948270E-01  0.31982444350E+01  0.31985479628E+01  0.40000000000E-01 0.  1.
</event>
<event>
 5   0  0.6200596E+07  0.9118800E+02  0.7818608E-02  0.1180000E+00
       11   -1    0    0    0    0  0.00000000000E+00  0.00000000000E+00  0.39999999673E+01  0.40000000000E+01  0.51109989000E-03 0.  1.
     -623   -1    0    0    0    0  0.00000000000E+00  0.00000000000E+00  0.12525980253E-10  0.17130000000E+03  0.17130000000E+03 0.  1.
       11    1    1    2    0    0 -0.36751444287E-02 -0.99252829798E-03  0.20527378366E+00  0.20530971550E+00  0.51109989000E-03 0.  1.
     -623    1    1    2    0    0  0.13063579793E-03  0.18815622419E-03  0.24846703969E-03  0.17130000000E+03  0.17130000000E+03 0.  1.
      622    1    1    2    0    0  0.35445086308E-02  0.80437207379E-03  0.37944777167E+01  0.37946902842E+01  0.40000000000E-01 0.  1.
</event>
<event>
 5   0  0.6200596E+07  0.9118800E+02  0.7818608E-02  0.1180000E+00
       11   -1    0    0    0    0  0.00000000000E+00  0.00000000000E+00  0.39999999673E+01  0.40000000000E+01  0.51109989000E-03 0.  1.
     -623   -1    0    0    0    0  0.00000000000E+00  0.00000000000E+00  0.12525980253E-10  0.17130000000E+03  0.17130000000E+03 0. -1.
       11    1    1    2    0    0  0.10624709610E-02  0.34363060777E-02  0.19582134057E-01  0.19916280785E-01  0.51109989000E-03 0.  1.
     -623    1    1    2    0    0 -0.60945119901E-03 -0.34676567117E-03  0.53634720781E-03  0.17130000000E+03  0.17130000000E+03 0. -1.
      622    1    1    2    0    0 -0.45301976201E-03 -0.30895404066E-02  0.39798814861E+01  0.39800837169E+01  0.40000000000E-01 0.  1.
</event>
<event>
 5   0  0.6200596E+07  0.9118800E+02  0.7818608E-02  0.1180000E+00
       11   -1    0    0    0    0  0.00000000000E+00  0.00000000000E+00  0.39999999673E+01  0.40000000000E+01  0.51109989000E-03 0.  1.
     -623   -1    0    0    0    0  0.00000000000E+00  0.00000000000E+00  0.12525980253E-10  0.17130000000E+03  0.17130000000E+03 0.  1.
       11    1    1    2    0    0 -0.18805936941E-02 -0.69425452659E-03  0.50887614359E-03  0.21304453447E-02  0.51109989000E-03 0.  1.
     -623    1    1    2    0    0 -0.50724041620E-03 -0.60072103563E-02  0.18280941075E-02  0.17130000012E+03  0.17130000000E+03 0.  1.
      622    1    1    2    0    0  0.23878341103E-02  0.67014648829E-02  0.39976629971E+01  0.39978694388E+01  0.40000000000E-01 0.  1.
</event>
<event>
 5   0  0.6200596E+07  0.9118800E+02  0.7818608E-02  0.1180000E+00
       11   -1    0    0    0    0  0.00000000000E+00  0.00000000000E+00  0.39999999673E+01  0.40000000000E+01  0.51109989000E-03 0. -1.
     -623   -1    0    0    0    0  0.00000000000E+00  0.00000000000E+00  0.12525980253E-10  0.17130000000E+03  0.17130000000E+03 0.  1.
       11    1    1    2    0    0  0.69579612522E-02 -0.22723216977E-02  0.91842415434E+00  0.91845346380E+00  0.51109989000E-03 0. -1.
     -623    1    1    2    0    0 -0.38489218366E-03 -0.52874997064E-03  0.29718325602E-03  0.17130000000E+03  0.17130000000E+03 0.  1.
      622    1    1    2    0    0 -0.65730690685E-02  0.28010716683E-02  0.30812786298E+01  0.30815465347E+01  0.40000000000E-01 0. -1.
</event>
<event>
 5   0  0.6200596E+07  0.9118800E+02  0.7818608E-02  0.1180000E+00
       11   -1    0    0    0    0  0.00000000000E+00  0.00000000000E+00  0.39999999673E+01  0.40000000000E+01  0.51109989000E-03 0.  1.
     -623   -1    0    0    0    0  0.00000000000E+00  0.00000000000E+00  0.12525980253E-10  0.17130000000E+03  0.17130000000E+03 0.  1.
       11    1    1    2    0    0 -0.85671459909E-02 -0.37995992894E-01  0.21178715651E+01  0.21182297606E+01  0.51109989000E-03 0.  1.
     -623    1    1    2    0    0  0.25389589991E-02  0.29844921156E-02  0.11188576201E-02  0.17130000005E+03  0.17130000000E+03 0.  1.
      622    1    1    2    0    0  0.60281869918E-02  0.35011500778E-01  0.18810095447E+01  0.18817701909E+01  0.40000000000E-01 0.  0.
</event>
<event>
 5   0  0.6200596E+07  0.9118800E+02  0.7818608E-02  0.1180000E+00
       11   -1    0    0    0    0  0.00000000000E+00  0.00000000000E+00  0.39999999673E+01  0.40000000000E+01  0.51109989000E-03 0. -1.
     -623   -1    0    0    0    0  0.00000000000E+00  0.00000000000E+00  0.12525980253E-10  0.17130000000E+03  0.17130000000E+03 0.  1.
       11    1    1    2    0    0 -0.32894689607E-02  0.31284479426E-03  0.12781848977E-01  0.13211940188E-01  0.51109989000E-03 0. -1.
     -623    1    1    2    0    0  0.67884131229E-03  0.18429575214E-02  0.63217651164E-03  0.17130000001E+03  0.17130000000E+03 0.  1.
      622    1    1    2    0    0  0.26106276484E-02 -0.21558023156E-02  0.39865859419E+01  0.39867880474E+01  0.40000000000E-01 0. -1.
</event>
<event>
 5   0  0.6200596E+07  0.9118800E+02  0.7818608E-02  0.1180000E+00
       11   -1    0    0    0    0  0.00000000000E+00  0.00000000000E+00  0.39999999673E+01  0.40000000000E+01  0.51109989000E-03 0. -1.
     -623   -1    0    0    0    0  0.00000000000E+00  0.00000000000E+00  0.12525980253E-10  0.17130000000E+03  0.17130000000E+03 0. -1.
       11    1    1    2    0    0  0.11821125129E-02 -0.22578807674E-02  0.28966975022E-02  0.38919780691E-02  0.51109989000E-03 0. -1.
     -623    1    1    2    0    0 -0.56495437068E-04  0.29457605762E-02  0.11956949893E-02  0.17130000003E+03  0.17130000000E+03 0. -1.
      622    1    1    2    0    0 -0.11256170758E-02 -0.68787980886E-03  0.39959075749E+01  0.39961079924E+01  0.40000000000E-01 0. -1.
</event>
<event>
 5   0  0.6200596E+07  0.9118800E+02  0.7818608E-02  0.1180000E+00
       11   -1    0    0    0    0  0.00000000000E+00  0.00000000000E+00  0.39999999673E+01  0.40000000000E+01  0.51109989000E-03 0. -1.
     -623   -1    0    0    0    0  0.00000000000E+00  0.00000000000E+00  0.12525980253E-10  0.17130000000E+03  0.17130000000E+03 0.  1.
       11    1    1    2    0    0 -0.41010988044E-01 -0.55319246245E-02  0.30559074118E+01  0.30561876373E+01  0.51109989000E-03 0. -1.
     -623    1    1    2    0    0  0.22543014133E-03  0.15248005734E-02  0.20191923021E-02  0.17130000002E+03  0.17130000000E+03 0.  1.
      622    1    1    2    0    0  0.40785557903E-01  0.40071240511E-02  0.94207336323E+00  0.94381234389E+00  0.40000000000E-01 0.  1.
</event>
<event>
 5   0  0.6200596E+07  0.9118800E+02  0.7818608E-02  0.1180000E+00
       11   -1    0    0    0    0  0.00000000000E+00  0.00000000000E+00  0.39999999673E+01  0.40000000000E+01  0.51109989000E-03 0. -1.
     -623   -1    0    0    0    0  0.00000000000E+00  0.00000000000E+00  0.12525980253E-10  0.17130000000E+03  0.17130000000E+03 0. -1.
       11    1    1    2    0    0 -0.49432128673E-03  0.22678658888E-02  0.50070713956E-01  0.50127090353E-01  0.51109989000E-03 0. -1.
     -623    1    1    2    0    0 -0.89711956996E-03 -0.28721916199E-02  0.25920506780E-03  0.17130000003E+03  0.17130000000E+03 0. -1.
      622    1    1    2    0    0  0.13914408567E-02  0.60432573114E-03  0.39496700483E+01  0.39498728830E+01  0.40000000000E-01 0. -1.
</event>
<event>
 5   0  0.6200596E+07  0.9118800E+02  0.7818608E-02  0.1180000E+00
       11   -1    0    0    0    0  0.00000000000E+00  0.00000000000E+00  0.39999999673E+01  0.40000000000E+01  0.51109989000E-03 0. -1.
     -623   -1    0    0    0    0  0.00000000000E+00  0.00000000000E+00  0.12525980253E-10  0.17130000000E+03  0.17130000000E+03 0.  1.
       11    1    1    2    0    0  0.46451194391E-03 -0.11077515165E-01  0.10519176605E+00  0.10577568709E+00  0.51109989000E-03 0. -1.
     -623    1    1    2    0    0 -0.37340435873E-02 -0.39005136199E-03  0.80762747097E-03  0.17130000004E+03  0.17130000000E+03 0.  1.
      622    1    1    2    0    0  0.32695316434E-02  0.11467566527E-01  0.38940005738E+01  0.38942242699E+01  0.40000000000E-01 0. -1.
</event>
<event>
 5   0  0.6200596E+07  0.9118800E+02  0.7818608E-02  0.1180000E+00
       11   -1    0    0    0    0  0.00000000000E+00  0.00000000000E+00  0.39999999673E+01  0.40000000000E+01  0.51109989000E-03 0.  1.
     -623   -1    0    0    0    0  0.00000000000E+00  0.00000000000E+00  0.12525980253E-10  0.17130000000E+03  0.17130000000E+03 0. -1.
       11    1    1    2    0    0  0.16081187265E-01  0.10522067622E-01  0.71831967479E+00  0.71857688169E+00  0.51109989000E-03 0.  1.
     -623    1    1    2    0    0  0.28054349017E-03  0.43829669208E-02  0.57568600525E-03  0.17130000006E+03  0.17130000000E+03 0. -1.
      622    1    1    2    0    0 -0.16361730755E-01 -0.14905034543E-01  0.32811046066E+01  0.32814230610E+01  0.40000000000E-01 0.  1.
</event>
<event>
 5   0  0.6200596E+07  0.9118800E+02  0.7818608E-02  0.1180000E+00
       11   -1    0    0    0    0  0.00000000000E+00  0.00000000000E+00  0.39999999673E+01  0.40000000000E+01  0.51109989000E-03 0.  1.
     -623   -1    0    0    0    0  0.00000000000E+00  0.00000000000E+00  0.12525980253E-10  0.17130000000E+03  0.17130000000E+03 0.  1.
       11    1    1    2    0    0 -0.15786731097E-02  0.19100985701E-02  0.73355029097E-01  0.73398652580E-01  0.51109989000E-03 0.  1.
     -623    1    1    2    0    0 -0.27133823313E-03  0.66669395415E-03  0.24861773384E-03  0.17130000000E+03  0.17130000000E+03 0.  1.
      622    1    1    2    0    0  0.18500113428E-02 -0.25767925242E-02  0.39263963205E+01  0.39266013457E+01  0.40000000000E-01 0.  1.
</event>
<event>
 5   0  0.6200596E+07  0.9118800E+02  0.7818608E-02  0.1180000E+00
       11   -1    0    0    0    0  0.00000000000E+00  0.00000000000E+00  0.39999999673E+01  0.40000000000E+01  0.51109989000E-03 0. -1.
     -623   -1    0    0    0    0  0.00000000000E+00  0.00000000000E+00  0.12525980253E-10  0.17130000000E+03  0.17130000000E+03 0.  1.
       11    1    1    2    0    0  0.10186323596E-02 -0.23091152745E-02  0.14660129807E-01  0.14884564251E-01  0.51109989000E-03 0. -1.
     -623    1    1    2    0    0  0.28870658925E-03  0.26053347649E-03  0.42589586208E-03  0.17130000000E+03  0.17130000000E+03 0.  1.
      622    1    1    2    0    0 -0.13073389489E-02  0.20485817980E-02  0.39849139417E+01  0.39851154348E+01  0.40000000000E-01 0. -1.
</event>
<event>
 5   0  0.6200596E+07  0.9118800E+02  0.7818608E-02  0.1180000E+00
       11   -1    0    0    0    0  0.00000000000E+00  0.00000000000E+00  0.39999999673E+01  0.40000000000E+01  0.51109989000E-03 0.  1.
     -623   -1    0    0    0    0  0.00000000000E+00  0.00000000000E+00  0.12525980253E-10  0.17130000000E+03  0.17130000000E+03 0.  1.
       11    1    1    2    0    0  0.17559259541E-01  0.41992326792E-02  0.14138827297E+00  0.14253724463E+00  0.51109989000E-03 0.  1.
     -623    1    1    2    0    0  0.64872674965E-03 -0.17052020347E-02  0.14001317393E-02  0.17130000002E+03  0.17130000000E+03 0.  1.
      622    1    1    2    0    0 -0.18207986291E-01 -0.24940306446E-02  0.38572115626E+01  0.38574627399E+01  0.40000000000E-01 0.  1.
</event>
<event>
 5   0  0.6200596E+07  0.9118800E+02  0.7818608E-02  0.1180000E+00
       11   -1    0    0    0    0  0.00000000000E+00  0.00000000000E+00  0.39999999673E+01  0.40000000000E+01  0.51109989000E-03 0.  1.
     -623   -1    0    0    0    0  0.00000000000E+00  0.00000000000E+00  0.12525980253E-10  0.17130000000E+03  0.17130000000E+03 0.  1.
       11    1    1    2    0    0 -0.10989237055E-01 -0.23083524929E-01  0.12802130853E+00  0.13055010193E+00  0.51109989000E-03 0.  1.
     -623    1    1    2    0    0  0.57204367452E-02  0.93184535095E-03  0.28026328186E-02  0.17130000012E+03  0.17130000000E+03 0.  1.
      622    1    1    2    0    0  0.52688003099E-02  0.22151679578E-01  0.38691760260E+01  0.38694497771E+01  0.40000000000E-01 0.  1.
</event>
<event>
 5   0  0.6200596E+07  0.9118800E+02  0.7818608E-02  0.1180000E+00
       11   -1    0    0    0    0  0.00000000000E+00  0.00000000000E+00  0.39999999673E+01  0.40000000000E+01  0.51109989000E-03 0. -1.
     -623   -1    0    0    0    0  0.00000000000E+00  0.00000000000E+00  0.12525980253E-10  0.17130000000E+03  0.17130000000E+03 0.  1.
       11    1    1    2    0    0 -0.23102719127E-01  0.12963408318E-01  0.15351105241E+01  0.15353391703E+01  0.51109989000E-03 0. -1.
     -623    1    1    2    0    0 -0.29941917458E-02 -0.39968657080E-02  0.70779583162E-03  0.17130000007E+03  0.17130000000E+03 0.  1.
      622    1    1    2    0    0  0.26096910873E-01 -0.89665426104E-02  0.24641816475E+01  0.24646607554E+01  0.40000000000E-01 0. -1.
</event>
<event>
 5   0  0.6200596E+07  0.9118800E+02  0.7818608E-02  0.1180000E+00
       11   -1    0    0    0    0  0.00000000000E+00  0.00000000000E+00  0.39999999673E+01  0.40000000000E+01  0.51109989000E-03 0. -1.
     -623   -1    0    0    0    0  0.00000000000E+00  0.00000000000E+00  0.12525980253E-10  0.17130000000E+03  0.17130000000E+03 0. -1.
       11    1    1    2    0    0  0.14865075998E-01  0.43712446283E-01  0.67478696206E+00  0.67636488217E+00  0.51109989000E-03 0. -1.
     -623    1    1    2    0    0 -0.14067457819E-02 -0.99673554845E-03  0.21203955497E-02  0.17130000002E+03  0.17130000000E+03 0. -1.
      622    1    1    2    0    0 -0.13458330216E-01 -0.42715710734E-01  0.33230926098E+01  0.33236350960E+01  0.40000000000E-01 0. -1.
</event>
<event>
 5   0  0.6200596E+07  0.9118800E+02  0.7818608E-02  0.1180000E+00
       11   -1    0    0    0    0  0.00000000000E+00  0.00000000000E+00  0.39999999673E+01  0.40000000000E+01  0.51109989000E-03 0.  1.
     -623   -1    0    0    0    0  0.00000000000E+00  0.00000000000E+00  0.12525980253E-10  0.17130000000E+03  0.17130000000E+03 0. -1.
       11    1    1    2    0    0 -0.69835984809E-03  0.79989306759E-03  0.14157671986E-01  0.14206633375E-01  0.51109989000E-03 0.  1.
     -623    1    1    2    0    0  0.22649696457E-02  0.83990459274E-03  0.25030910832E-03  0.17130000002E+03  0.17130000000E+03 0. -1.
      622    1    1    2    0    0 -0.15666097976E-02 -0.16397976603E-02  0.39855919863E+01  0.39857933494E+01  0.40000000000E-01 0.  1.
</event>
<event>
 5   0  0.6200596E+07  0.9118800E+02  0.7818608E-02  0.1180000E+00
       11   -1    0    0    0    0  0.00000000000E+00  0.00000000000E+00  0.39999999673E+01  0.40000000000E+01  0.51109989000E-03 0.  1.
     -623   -1    0    0    0    0  0.00000000000E+00  0.00000000000E+00  0.12525980253E-10  0.17130000000E+03  0.17130000000E+03 0. -1.
       11    1    1    2    0    0  0.84572214852E-02  0.53645414318E-02  0.45450466049E+00  0.45461527750E+00  0.51109989000E-03 0.  1.
     -623    1    1    2    0    0 -0.30190987906E-03 -0.18128928182E-01  0.36955663309E-03  0.17130000096E+03  0.17130000000E+03 0. -1.
      622    1    1    2    0    0 -0.81553116062E-02  0.12764386750E-01  0.35451257502E+01  0.35453837625E+01  0.40000000000E-01 0.  1.
</event>
<event>
 5   0  0.6200596E+07  0.9118800E+02  0.7818608E-02  0.1180000E+00
       11   -1    0    0    0    0  0.00000000000E+00  0.00000000000E+00  0.39999999673E+01  0.40000000000E+01  0.51109989000E-03 0.  1.
     -623   -1    0    0    0    0  0.00000000000E+00  0.00000000000E+00  0.12525980253E-10  0.17130000000E+03  0.17130000000E+03 0.  1.
       11    1    1    2    0    0 -0.30025422134E-02  0.63592134744E-02  0.18432372339E+01  0.18432507199E+01  0.51109989000E-03 0.  1.
     -623    1    1    2    0    0 -0.36641932289E-02 -0.41066123472E-03  0.40296448647E-03  0.17130000004E+03  0.17130000000E+03 0.  1.
      622    1    1    2    0    0  0.66667354423E-02 -0.59485522397E-02  0.21563597690E+01  0.21567492399E+01  0.40000000000E-01 0.  0.
</event>
<event>
 5   0  0.6200596E+07  0.9118800E+02  0.7818608E-02  0.1180000E+00
       11   -1    0    0    0    0  0.00000000000E+00  0.00000000000E+00  0.39999999673E+01  0.40000000000E+01  0.51109989000E-03 0. -1.
     -623   -1    0    0    0    0  0.00000000000E+00  0.00000000000E+00  0.12525980253E-10  0.17130000000E+03  0.17130000000E+03 0. -1.
       11    1    1    2    0    0  0.41255503741E-01 -0.24811058765E-01  0.11963459137E+01  0.11973142494E+01  0.51109989000E-03 0. -1.
     -623    1    1    2    0    0  0.76895509124E-03  0.14388369279E-02  0.16663641650E-02  0.17130000002E+03  0.17130000000E+03 0. -1.
      622    1    1    2    0    0 -0.42024458832E-01  0.23372221837E-01  0.28019876895E+01  0.28026857348E+01  0.40000000000E-01 0. -1.
</event>
<event>
 5   0  0.6200596E+07  0.9118800E+02  0.7818608E-02  0.1180000E+00
       11   -1    0    0    0    0  0.00000000000E+00  0.00000000000E+00  0.39999999673E+01  0.40000000000E+01  0.51109989000E-03 0.  1.
     -623   -1    0    0    0    0  0.00000000000E+00  0.00000000000E+00  0.12525980253E-10  0.17130000000E+03  0.17130000000E+03 0.  1.
       11    1    1    2    0    0  0.10848644928E-02  0.19521101493E-03  0.92719577439E-02  0.93512277346E-02  0.51109989000E-03 0.  1.
     -623    1    1    2    0    0  0.51335084875E-03 -0.33708193491E-05  0.28003670359E-03  0.17130000000E+03  0.17130000000E+03 0.  1.
      622    1    1    2    0    0 -0.15982153416E-02 -0.19184019558E-03  0.39904479729E+01  0.39906487713E+01  0.40000000000E-01 0.  1.
</event>
<event>
 5   0  0.6200596E+07  0.9118800E+02  0.7818608E-02  0.1180000E+00
       11   -1    0    0    0    0  0.00000000000E+00  0.00000000000E+00  0.39999999673E+01  0.40000000000E+01  0.51109989000E-03 0. -1.
     -623   -1    0    0    0    0  0.00000000000E+00  0.00000000000E+00  0.12525980253E-10  0.17130000000E+03  0.17130000000E+03 0.  1.
       11    1    1    2    0    0 -0.30107604445E-01 -0.11329003137E-01  0.72085235790E+00  0.72156995314E+00  0.51109989000E-03 0. -1.
     -623    1    1    2    0    0  0.21126238261E-01  0.17310246523E-01  0.98153116030E-03  0.17130000218E+03  0.17130000000E+03 0.  1.
      622    1    1    2    0    0  0.89813661840E-02 -0.59812433856E-02  0.32781660783E+01  0.32784278667E+01  0.40000000000E-01 0. -1.
</event>
<event>
 5   0  0.6200596E+07  0.9118800E+02  0.7818608E-02  0.1180000E+00
       11   -1    0    0    0    0  0.00000000000E+00  0.00000000000E+00  0.39999999673E+01  0.40000000000E+01  0.51109989000E-03 0. -1.
     -623   -1    0    0    0    0  0.00000000000E+00  0.00000000000E+00  0.12525980253E-10  0.17130000000E+03  0.17130000000E+03 0. -1.
       11    1    1    2    0    0 -0.31102720589E-02 -0.84760037464E-03  0.23025554326E-01  0.23255743215E-01  0.51109989000E-03 0. -1.
     -623    1    1    2    0    0  0.52326457160E-03 -0.60458493341E-03  0.43244000825E-03  0.17130000000E+03  0.17130000000E+03 0. -1.
      622    1    1    2    0    0  0.25870074873E-02  0.14521853080E-02  0.39765419730E+01  0.39767442544E+01  0.40000000000E-01 0. -1.
</event>
<event>
 5   0  0.6200596E+07  0.9118800E+02  0.7818608E-02  0.1180000E+00
       11   -1    0    0    0    0  0.00000000000E+00  0.00000000000E+00  0.39999999673E+01  0.40000000000E+01  0.51109989000E-03 0.  1.
     -623   -1    0    0    0    0  0.00000000000E+00  0.00000000000E+00  0.12525980253E-10  0.17130000000E+03  0.17130000000E+03 0.  1.
       11    1    1    2    0    0  0.23889443292E-02 -0.55805624286E-02  0.10517150842E-01  0.12154069876E-01  0.51109989000E-03 0.  1.
     -623    1    1    2    0    0 -0.10182922018E-02  0.42919732796E-02  0.18380114190E-02  0.17130000007E+03  0.17130000000E+03 0.  1.
      622    1    1    2    0    0 -0.13706521274E-02  0.12885891489E-02  0.39876448051E+01  0.39878458635E+01  0.40000000000E-01 0.  1.
</event>
<event>
 5   0  0.6200596E+07  0.9118800E+02  0.7818608E-02  0.1180000E+00
       11   -1    0    0    0    0  0.00000000000E+00  0.00000000000E+00  0.39999999673E+01  0.40000000000E+01  0.51109989000E-03 0.  1.
     -623   -1    0    0    0    0  0.00000000000E+00  0.00000000000E+00  0.12525980253E-10  0.17130000000E+03  0.17130000000E+03 0.  1.
       11    1    1    2    0    0  0.13406223926E-03  0.12107726590E-02  0.10179625358E-01  0.10264985978E-01  0.51109989000E-03 0.  1.
     -623    1    1    2    0    0  0.29866763292E-02  0.18421551098E-04  0.28728379845E-03  0.17130000003E+03  0.17130000000E+03 0.  1.
      622    1    1    2    0    0 -0.31207385685E-02 -0.12291942101E-02  0.39895330582E+01  0.39897349877E+01  0.40000000000E-01 0.  1.
</event>
<event>
 5   0  0.6200596E+07  0.9118800E+02  0.7818608E-02  0.1180000E+00
       11   -1    0    0    0    0  0.00000000000E+00  0.00000000000E+00  0.39999999673E+01  0.40000000000E+01  0.51109989000E-03 0. -1.
     -623   -1    0    0    0    0  0.00000000000E+00  0.00000000000E+00  0.12525980253E-10  0.17130000000E+03  0.17130000000E+03 0.  1.
       11    1    1    2    0    0 -0.87825298221E-03  0.38884390714E-03  0.10517441150E-02  0.15132463957E-02  0.51109989000E-03 0.  1.
     -623    1    1    2    0    0  0.18622593980E-02  0.10599591777E-02  0.66194859587E-03  0.17130000001E+03  0.17130000000E+03 0.  1.
      622    1    1    2    0    0 -0.98400641580E-03 -0.14488030849E-02  0.39982862746E+01  0.39984867389E+01  0.40000000000E-01 0. -1.
</event>
<event>
 5   0  0.6200596E+07  0.9118800E+02  0.7818608E-02  0.1180000E+00
       11   -1    0    0    0    0  0.00000000000E+00  0.00000000000E+00  0.39999999673E+01  0.40000000000E+01  0.51109989000E-03 0. -1.
     -623   -1    0    0    0    0  0.00000000000E+00  0.00000000000E+00  0.12525980253E-10  0.17130000000E+03  0.17130000000E+03 0. -1.
       11    1    1    2    0    0  0.15961327446E-02  0.34993314101E-03  0.10874953344E+00  0.10876300997E+00  0.51109989000E-03 0. -1.
     -623    1    1    2    0    0 -0.22372853998E-02 -0.12437163197E-03  0.21911363263E-03  0.17130000001E+03  0.17130000000E+03 0. -1.
      622    1    1    2    0    0  0.64115265517E-03 -0.22556150904E-03  0.38910313203E+01  0.38912369752E+01  0.40000000000E-01 0. -1.
</event>
<event>
 5   0  0.6200596E+07  0.9118800E+02  0.7818608E-02  0.1180000E+00
       11   -1    0    0    0    0  0.00000000000E+00  0.00000000000E+00  0.39999999673E+01  0.40000000000E+01  0.51109989000E-03 0.  1.
     -623   -1    0    0    0    0  0.00000000000E+00  0.00000000000E+00  0.12525980253E-10  0.17130000000E+03  0.17130000000E+03 0.  1.
       11    1    1    2    0    0 -0.17088558481E-01 -0.17954848862E-01  0.27937693361E+00  0.28047482540E+00  0.51109989000E-03 0.  1.
     -623    1    1    2    0    0  0.23254088231E-02  0.50930259336E-02  0.13645826158E-02  0.17130000010E+03  0.17130000000E+03 0.  1.
      622    1    1    2    0    0  0.14763149658E-01  0.12861822928E-01  0.37192584511E+01  0.37195250777E+01  0.40000000000E-01 0.  1.
</event>
<event>
 5   0  0.6200596E+07  0.9118800E+02  0.7818608E-02  0.1180000E+00
       11   -1    0    0    0    0  0.00000000000E+00  0.00000000000E+00  0.39999999673E+01  0.40000000000E+01  0.51109989000E-03 0.  1.
     -623   -1    0    0    0    0  0.00000000000E+00  0.00000000000E+00  0.12525980253E-10  0.17130000000E+03  0.17130000000E+03 0. -1.
       11    1    1    2    0    0  0.80596118923E-02  0.16757533316E-01  0.17137464772E+01  0.17138474324E+01  0.51109989000E-03 0.  1.
     -623    1    1    2    0    0 -0.32028869924E-02  0.20529134152E-02  0.53348442253E-03  0.17130000004E+03  0.17130000000E+03 0. -1.
      622    1    1    2    0    0 -0.48567248999E-02 -0.18810446732E-01  0.22857200057E+01  0.22861525245E+01  0.40000000000E-01 0.  1.
</event>
<event>
 5   0  0.6200596E+07  0.9118800E+02  0.7818608E-02  0.1180000E+00
       11   -1    0    0    0    0  0.00000000000E+00  0.00000000000E+00  0.39999999673E+01  0.40000000000E+01  0.51109989000E-03 0.  1.
     -623   -1    0    0    0    0  0.00000000000E+00  0.00000000000E+00  0.12525980253E-10  0.17130000000E+03  0.17130000000E+03 0. -1.
       11    1    1    2    0    0  0.26843610026E-01 -0.16517566704E-01  0.32118195979E+01  0.32119742839E+01  0.51109989000E-03 0.  1.
     -623    1    1    2    0    0  0.44140322815E-02  0.16226859059E-03  0.19616429666E-02  0.17130000007E+03  0.17130000000E+03 0. -1.
      622    1    1    2    0    0 -0.31257642308E-01  0.16355298113E-01  0.78621872645E+00  0.78802564793E+00  0.40000000000E-01 0. -1.
</event>
<event>
 5   0  0.6200596E+07  0.9118800E+02  0.7818608E-02  0.1180000E+00
       11   -1    0    0    0    0  0.00000000000E+00  0.00000000000E+00  0.39999999673E+01  0.40000000000E+01  0.51109989000E-03 0. -1.
     -623   -1    0    0    0    0  0.00000000000E+00  0.00000000000E+00  0.12525980253E-10  0.17130000000E+03  0.17130000000E+03 0. -1.
       11    1    1    2    0    0 -0.21654550556E-02  0.35361905797E-03  0.13645275517E+00  0.13647135178E+00  0.51109989000E-03 0. -1.
     -623    1    1    2    0    0 -0.23441856052E-03  0.29524959095E-03  0.22643456426E-03  0.17130000000E+03  0.17130000000E+03 0. -1.
      622    1    1    2    0    0  0.23998736162E-02 -0.64886864892E-03  0.38633207776E+01  0.38635286477E+01  0.40000000000E-01 0. -1.
</event>
<event>
 5   0  0.6200596E+07  0.9118800E+02  0.7818608E-02  0.1180000E+00
       11   -1    0    0    0    0  0.00000000000E+00  0.00000000000E+00  0.39999999673E+01  0.40000000000E+01  0.51109989000E-03 0.  1.
     -623   -1    0    0    0    0  0.00000000000E+00  0.00000000000E+00  0.12525980253E-10  0.17130000000E+03  0.17130000000E+03 0. -1.
       11    1    1    2    0    0 -0.40010486753E-02 -0.20544524718E-02  0.55081761119E+00  0.55083621085E+00  0.51109989000E-03 0.  1.
     -623    1    1    2    0    0  0.18683832727E-02 -0.11248646054E-02  0.25265392782E-03  0.17130000001E+03  0.17130000000E+03 0. -1.
      622    1    1    2    0    0  0.21326654026E-02  0.31793170772E-02  0.34489297022E+01  0.34491637751E+01  0.40000000000E-01 0.  1.
</event>
<event>
 5   0  0.6200596E+07  0.9118800E+02  0.7818608E-02  0.1180000E+00
       11   -1    0    0    0    0  0.00000000000E+00  0.00000000000E+00  0.39999999673E+01  0.40000000000E+01  0.51109989000E-03 0. -1.
     -623   -1    0    0    0    0  0.00000000000E+00  0.00000000000E+00  0.12525980253E-10  0.17130000000E+03  0.17130000000E+03 0.  1.
       11    1    1    2    0    0 -0.51550541645E-03  0.17777927554E-02  0.63493052895E-02  0.66333395210E-02  0.51109989000E-03 0. -1.
     -623    1    1    2    0    0 -0.12262668942E-02 -0.20564666941E-03  0.48503338838E-03  0.17130000001E+03  0.17130000000E+03 0.  1.
      622    1    1    2    0    0  0.17417723107E-02 -0.15721460860E-02  0.39931656287E+01  0.39933666553E+01  0.40000000000E-01 0. -1.
</event>
<event>
 5   0  0.6200596E+07  0.9118800E+02  0.7818608E-02  0.1180000E+00
       11   -1    0    0    0    0  0.00000000000E+00  0.00000000000E+00  0.39999999673E+01  0.40000000000E+01  0.51109989000E-03 0. -1.
     -623   -1    0    0    0    0  0.00000000000E+00  0.00000000000E+00  0.12525980253E-10  0.17130000000E+03  0.17130000000E+03 0.  1.
       11    1    1    2    0    0 -0.18356238977E-01  0.34380258150E-01  0.46979223145E-01  0.61043118271E-01  0.51109989000E-03 0. -1.
     -623    1    1    2    0    0  0.65082800365E-02 -0.20763666497E-01  0.14310303742E-01  0.17130000198E+03  0.17130000000E+03 0.  1.
      622    1    1    2    0    0  0.11847958941E-01 -0.13616591653E-01  0.39387104405E+01  0.39389549019E+01  0.40000000000E-01 0. -1.
</event>
<event>
 5   0  0.6200596E+07  0.9118800E+02  0.7818608E-02  0.1180000E+00
       11   -1    0    0    0    0  0.00000000000E+00  0.00000000000E+00  0.39999999673E+01  0.40000000000E+01  0.51109989000E-03 0. -1.
     -623   -1    0    0    0    0  0.00000000000E+00  0.00000000000E+00  0.12525980253E-10  0.17130000000E+03  0.17130000000E+03 0. -1.
       11    1    1    2    0    0 -0.85334554121E-02 -0.64391939097E-02  0.29947127569E+00  0.29966245889E+00  0.51109989000E-03 0. -1.
     -623    1    1    2    0    0  0.45912919040E-02 -0.23059708263E-03  0.41552702469E-03  0.17130000006E+03  0.17130000000E+03 0. -1.
      622    1    1    2    0    0  0.39421635081E-02  0.66697909923E-02  0.37001131646E+01  0.37003374789E+01  0.40000000000E-01 0. -1.
</event>
<event>
 5   0  0.6200596E+07  0.9118800E+02  0.7818608E-02  0.1180000E+00
       11   -1    0    0    0    0  0.00000000000E+00  0.00000000000E+00  0.39999999673E+01  0.40000000000E+01  0.51109989000E-03 0.  1.
     -623   -1    0    0    0    0  0.00000000000E+00  0.00000000000E+00  0.12525980253E-10  0.17130000000E+03  0.17130000000E+03 0. -1.
       11    1    1    2    0    0  0.82423553855E-03 -0.39047014807E-03  0.76829995820E-02  0.77538078204E-02  0.51109989000E-03 0.  1.
     -623    1    1    2    0    0 -0.57135866278E-03 -0.12014080052E-03  0.27121094533E-03  0.17130000000E+03  0.17130000000E+03 0. -1.
      622    1    1    2    0    0 -0.25287687578E-03  0.51061094859E-03  0.39920457568E+01  0.39922461910E+01  0.40000000000E-01 0.  1.
</event>
<event>
 5   0  0.6200596E+07  0.9118800E+02  0.7818608E-02  0.1180000E+00
       11   -1    0    0    0    0  0.00000000000E+00  0.00000000000E+00  0.39999999673E+01  0.40000000000E+01  0.51109989000E-03 0.  1.
     -623   -1    0    0    0    0  0.00000000000E+00  0.00000000000E+00  0.12525980253E-10  0.17130000000E+03  0.17130000000E+03 0. -1.
       11    1    1    2    0    0  0.30521174527E-02  0.14585535495E-02  0.90998797893E-02  0.97217196553E-02  0.51109989000E-03 0.  1.
     -623    1    1    2    0    0 -0.49363123257E-02  0.46627727836E-02  0.82757648107E-03  0.17130000014E+03  0.17130000000E+03 0. -1.
      622    1    1    2    0    0  0.18841948730E-02 -0.61213263331E-02  0.39900725111E+01  0.39902781438E+01  0.40000000000E-01 0.  1.
</event>
<event>
 5   0  0.6200596E+07  0.9118800E+02  0.7818608E-02  0.1180000E+00
       11   -1    0    0    0    0  0.00000000000E+00  0.00000000000E+00  0.39999999673E+01  0.40000000000E+01  0.51109989000E-03 0.  1.
     -623   -1    0    0    0    0  0.00000000000E+00  0.00000000000E+00  0.12525980253E-10  0.17130000000E+03  0.17130000000E+03 0. -1.
       11    1    1    2    0    0  0.39202916417E-01  0.39773297562E-01  0.10214511201E+01  0.10229767524E+01  0.51109989000E-03 0.  1.
     -623    1    1    2    0    0 -0.39028090545E-01  0.59169993487E-02  0.21495758214E-02  0.17130000456E+03  0.17130000000E+03 0. -1.
      622    1    1    2    0    0 -0.17482587187E-03 -0.45690296910E-01  0.29763992714E+01  0.29770186860E+01  0.40000000000E-01 0.  1.
</event>
<event>
 5   0  0.6200596E+07  0.9118800E+02  0.7818608E-02  0.1180000E+00
       11   -1    0    0    0    0  0.00000000000E+00  0.00000000000E+00  0.39999999673E+01  0.40000000000E+01  0.51109989000E-03 0.  1.
     -623   -1    0    0    0    0  0.00000000000E+00  0.00000000000E+00  0.12525980253E-10  0.17130000000E+03  0.17130000000E+03 0.  1.
       11    1    1    2    0    0  0.12241715966E-02 -0.61331326891E-04  0.10350831751E-01  0.10435674208E-01  0.51109989000E-03 0.  1.
     -623    1    1    2    0    0  0.42993865991E-03 -0.39249674244E-03  0.28570796879E-03  0.17130000000E+03  0.17130000000E+03 0.  1.
      622    1    1    2    0    0 -0.16541102565E-02  0.45382806933E-03  0.39893634276E+01  0.39895643246E+01  0.40000000000E-01 0.  1.
</event>
<event>
 5   0  0.6200596E+07  0.9118800E+02  0.7818608E-02  0.1180000E+00
       11   -1    0    0    0    0  0.00000000000E+00  0.00000000000E+00  0.39999999673E+01  0.40000000000E+01  0.51109989000E-03 0. -1.
     -623   -1    0    0    0    0  0.00000000000E+00  0.00000000000E+00  0.12525980253E-10  0.17130000000E+03  0.17130000000E+03 0. -1.
       11    1    1    2    0    0  0.11295834564E-02  0.21467507629E-03  0.22667140760E+00  0.22667489999E+00  0.51109989000E-03 0. -1.
     -623    1    1    2    0    0 -0.33150495368E-03  0.54739585278E-03  0.21564300631E-03  0.17130000000E+03  0.17130000000E+03 0. -1.
      622    1    1    2    0    0 -0.79807850275E-03 -0.76207092907E-03  0.37731129168E+01  0.37733250987E+01  0.40000000000E-01 0. -1.
</event>
<event>
 5   0  0.6200596E+07  0.9118800E+02  0.7818608E-02  0.1180000E+00
       11   -1    0    0    0    0  0.00000000000E+00  0.00000000000E+00  0.39999999673E+01  0.40000000000E+01  0.51109989000E-03 0.  1.
     -623   -1    0    0    0    0  0.00000000000E+00  0.00000000000E+00  0.12525980253E-10  0.17130000000E+03  0.17130000000E+03 0.  1.
       11    1    1    2    0    0  0.14308692239E-02  0.11154591394E-04  0.44611216364E-02  0.47127846212E-02  0.51109989000E-03 0.  1.
     -623    1    1    2    0    0 -0.41144774740E-03 -0.58386748218E-03  0.45204447846E-03  0.17130000000E+03  0.17130000000E+03 0.  1.
      622    1    1    2    0    0 -0.10194214765E-02  0.57271289078E-03  0.39950868012E+01  0.39952872133E+01  0.40000000000E-01 0.  1.
</event>
<event>
 5   0  0.6200596E+07  0.9118800E+02  0.7818608E-02  0.1180000E+00
       11   -1    0    0    0    0  0.00000000000E+00  0.00000000000E+00  0.39999999673E+01  0.40000000000E+01  0.51109989000E-03 0.  1.
     -623   -1    0    0    0    0  0.00000000000E+00  0.00000000000E+00  0.12525980253E-10  0.17130000000E+03  0.17130000000E+03 0.  1.
       11    1    1    2    0    0  0.24790507996E-01  0.14167971168E-01  0.14882413693E+01  0.14885153459E+01  0.51109989000E-03 0.  1.
     -623    1    1    2    0    0 -0.32222553752E-01 -0.10826704473E-02  0.64062770331E-03  0.17130000304E+03  0.17130000000E+03 0.  1.
      622    1    1    2    0    0  0.74320457551E-02 -0.13085300720E-01  0.25111179704E+01  0.25114816188E+01  0.40000000000E-01 0.  1.
</event>
<event>
 5   0  0.6200596E+07  0.9118800E+02  0.7818608E-02  0.1180000E+00
       11   -1    0    0    0    0  0.00000000000E+00  0.00000000000E+00  0.39999999673E+01  0.40000000000E+01  0.51109989000E-03 0.  1.
     -623   -1    0    0    0    0  0.00000000000E+00  0.00000000000E+00  0.12525980253E-10  0.17130000000E+03  0.17130000000E+03 0. -1.
       11    1    1    2    0    0 -0.18153579905E-02  0.21948428623E-01  0.14089861823E+00  0.14261034635E+00  0.51109989000E-03 0.  1.
     -623    1    1    2    0    0 -0.52035016059E-02 -0.24214881323E-01  0.19279486139E-02  0.17130000180E+03  0.17130000000E+03 0. -1.
      622    1    1    2    0    0  0.70188595963E-02  0.22664526994E-02  0.38571734005E+01  0.38573878523E+01  0.40000000000E-01 0.  1.
</event>
<event>
 5   0  0.6200596E+07  0.9118800E+02  0.7818608E-02  0.1180000E+00
       11   -1    0    0    0    0  0.00000000000E+00  0.00000000000E+00  0.39999999673E+01  0.40000000000E+01  0.51109989000E-03 0.  1.
     -623   -1    0    0    0    0  0.00000000000E+00  0.00000000000E+00  0.12525980253E-10  0.17130000000E+03  0.17130000000E+03 0.  1.
       11    1    1    2    0    0 -0.17929604645E-01 -0.16618111971E-04  0.65933690581E+00  0.65958084234E+00  0.51109989000E-03 0.  1.
     -623    1    1    2    0    0 -0.38032305927E-02 -0.22599028377E-02  0.55494016856E-03  0.17130000006E+03  0.17130000000E+03 0.  1.
      622    1    1    2    0    0  0.21732835238E-01  0.22765209497E-02  0.33401081214E+01  0.33404190996E+01  0.40000000000E-01 0.  0.
</event>
<event>
 5   0  0.6200596E+07  0.9118800E+02  0.7818608E-02  0.1180000E+00
       11   -1    0    0    0    0  0.00000000000E+00  0.00000000000E+00  0.39999999673E+01  0.40000000000E+01  0.51109989000E-03 0. -1.
     -623   -1    0    0    0    0  0.00000000000E+00  0.00000000000E+00  0.12525980253E-10  0.17130000000E+03  0.17130000000E+03 0.  1.
       11    1    1    2    0    0  0.61991395663E-03 -0.11399276342E-02  0.14761348565E-01  0.14827082023E-01  0.51109989000E-03 0. -1.
     -623    1    1    2    0    0  0.45400593225E-02  0.18013890139E-02  0.26991545390E-03  0.17130000007E+03  0.17130000000E+03 0.  1.
      622    1    1    2    0    0 -0.51599732792E-02 -0.66146137970E-03  0.39849687033E+01  0.39851728481E+01  0.40000000000E-01 0. -1.
</event>
<event>
 5   0  0.6200596E+07  0.9118800E+02  0.7818608E-02  0.1180000E+00
       11   -1    0    0    0    0  0.00000000000E+00  0.00000000000E+00  0.39999999673E+01  0.40000000000E+01  0.51109989000E-03 0. -1.
     -623   -1    0    0    0    0  0.00000000000E+00  0.00000000000E+00  0.12525980253E-10  0.17130000000E+03  0.17130000000E+03 0. -1.
       11    1    1    2    0    0 -0.45837261059E-02 -0.18256131458E-02  0.98733737174E-01  0.98858259577E-01  0.51109989000E-03 0. -1.
     -623    1    1    2    0    0  0.12751307649E-01 -0.91103117449E-03  0.33955107184E-03  0.17130000048E+03  0.17130000000E+03 0. -1.
      622    1    1    2    0    0 -0.81675815427E-02  0.27366443203E-02  0.39009266791E+01  0.39011412631E+01  0.40000000000E-01 0. -1.
</event>
<event>
 5   0  0.6200596E+07  0.9118800E+02  0.7818608E-02  0.1180000E+00
       11   -1    0    0    0    0  0.00000000000E+00  0.00000000000E+00  0.39999999673E+01  0.40000000000E+01  0.51109989000E-03 0.  1.
     -623   -1    0    0    0    0  0.00000000000E+00  0.00000000000E+00  0.12525980253E-10  0.17130000000E+03  0.17130000000E+03 0.  1.
       11    1    1    2    0    0 -0.41889049039E-01  0.76466825014E-01  0.25217817720E+01  0.25232886150E+01  0.51109989000E-03 0.  1.
     -623    1    1    2    0    0 -0.17754117679E-01  0.11201913508E-01  0.58631756146E-02  0.17130000139E+03  0.17130000000E+03 0.  1.
      622    1    1    2    0    0  0.59643166718E-01 -0.87668738522E-01  0.14723550197E+01  0.14767099983E+01  0.40000000000E-01 0.  0.
</event>
<event>
 5   0  0.6200596E+07  0.9118800E+02  0.7818608E-02  0.1180000E+00
       11   -1    0    0    0    0  0.00000000000E+00  0.00000000000E+00  0.39999999673E+01  0.40000000000E+01  0.51109989000E-03 0.  1.
     -623   -1    0    0    0    0  0.00000000000E+00  0.00000000000E+00  0.12525980253E-10  0.17130000000E+03  0.17130000000E+03 0. -1.
       11    1    1    2    0    0 -0.14549677993E-01 -0.41647651260E-02  0.48434646928E+00  0.48458312179E+00  0.51109989000E-03 0.  1.
     -623    1    1    2    0    0  0.74960944286E-03  0.17996818382E-02  0.49209223775E-03  0.17130000001E+03  0.17130000000E+03 0. -1.
      622    1    1    2    0    0  0.13800068550E-01  0.23650832878E-02  0.35151614058E+01  0.35154168664E+01  0.40000000000E-01 0.  1.
</event>
<event>
 5   0  0.6200596E+07  0.9118800E+02  0.7818608E-02  0.1180000E+00
       11   -1    0    0    0    0  0.00000000000E+00  0.00000000000E+00  0.39999999673E+01  0.40000000000E+01  0.51109989000E-03 0.  1.
     -623   -1    0    0    0    0  0.00000000000E+00  0.00000000000E+00  0.12525980253E-10  0.17130000000E+03  0.17130000000E+03 0. -1.
       11    1    1    2    0    0  0.17316087198E-02  0.26529896917E-02  0.48791290827E-01  0.48896708545E-01  0.51109989000E-03 0.  1.
     -623    1    1    2    0    0 -0.29611994050E-02 -0.13088262348E-02  0.30831622006E-03  0.17130000003E+03  0.17130000000E+03 0. -1.
      622    1    1    2    0    0  0.12295906852E-02 -0.13441634569E-02  0.39509003603E+01  0.39511032606E+01  0.40000000000E-01 0.  1.
</event>
<event>
 5   0  0.6200596E+07  0.9118800E+02  0.7818608E-02  0.1180000E+00
       11   -1    0    0    0    0  0.00000000000E+00  0.00000000000E+00  0.39999999673E+01  0.40000000000E+01  0.51109989000E-03 0. -1.
     -623   -1    0    0    0    0  0.00000000000E+00  0.00000000000E+00  0.12525980253E-10  0.17130000000E+03  0.17130000000E+03 0.  1.
       11    1    1    2    0    0 -0.38614583239E-02  0.95260685151E-03  0.23896903275E-01  0.24231003453E-01  0.51109989000E-03 0. -1.
     -623    1    1    2    0    0 -0.45333149673E-03 -0.95316001589E-03  0.53763713910E-03  0.17130000000E+03  0.17130000000E+03 0.  1.
      622    1    1    2    0    0  0.43147898206E-02  0.55316437753E-06  0.39755654269E+01  0.39757689925E+01  0.40000000000E-01 0. -1.
</event>
<event>
 5   0  0.6200596E+07  0.9118800E+02  0.7818608E-02  0.1180000E+00
       11   -1    0    0    0    0  0.00000000000E+00  0.00000000000E+00  0.39999999673E+01  0.40000000000E+01  0.51109989000E-03 0.  1.
     -623   -1    0    0    0    0  0.00000000000E+00  0.00000000000E+00  0.12525980253E-10  0.17130000000E+03  0.17130000000E+03 0. -1.
       11    1    1    2    0    0  0.22266266248E-02  0.83458069271E-02  0.10585387249E+01  0.10585740898E+01  0.51109989000E-03 0.  1.
     -623    1    1    2    0    0  0.65240800160E-03 -0.49160620885E-03  0.31922031814E-03  0.17130000000E+03  0.17130000000E+03 0. -1.
      622    1    1    2    0    0 -0.28790346264E-02 -0.78542007182E-02  0.29411420222E+01  0.29414259079E+01  0.40000000000E-01 0.  1.
</event>
<event>
 5   0  0.6200596E+07  0.9118800E+02  0.7818608E-02  0.1180000E+00
       11   -1    0    0    0    0  0.00000000000E+00  0.00000000000E+00  0.39999999673E+01  0.40000000000E+01  0.51109989000E-03 0. -1.
     -623   -1    0    0    0    0  0.00000000000E+00  0.00000000000E+00  0.12525980253E-10  0.17130000000E+03  0.17130000000E+03 0.  1.
       11    1    1    2    0    0  0.28505147670E-02  0.35611360311E-02  0.16529737757E+00  0.16536109390E+00  0.51109989000E-03 0. -1.
     -623    1    1    2    0    0  0.11719000677E-02 -0.58553203846E-03  0.27558357789E-03  0.17130000001E+03  0.17130000000E+03 0.  1.
      622    1    1    2    0    0 -0.40224148347E-02 -0.29756039927E-02  0.38344270062E+01  0.38346389009E+01  0.40000000000E-01 0. -1.
</event>
<event>
 5   0  0.6200596E+07  0.9118800E+02  0.7818608E-02  0.1180000E+00
       11   -1    0    0    0    0  0.00000000000E+00  0.00000000000E+00  0.39999999673E+01  0.40000000000E+01  0.51109989000E-03 0. -1.
     -623   -1    0    0    0    0  0.00000000000E+00  0.00000000000E+00  0.12525980253E-10  0.17130000000E+03  0.17130000000E+03 0.  1.
       11    1    1    2    0    0  0.45272895250E-02 -0.55113149177E-02  0.16406227532E+01  0.16406383363E+01  0.51109989000E-03 0. -1.
     -623    1    1    2    0    0 -0.40986784643E-02 -0.87459364927E-03  0.36338356337E-03  0.17130000005E+03  0.17130000000E+03 0.  1.
      622    1    1    2    0    0 -0.42861106069E-03  0.63859085670E-02  0.23590138306E+01  0.23593616121E+01  0.40000000000E-01 0.  1.
</event>
<event>
 5   0  0.6200596E+07  0.9118800E+02  0.7818608E-02  0.1180000E+00
       11   -1    0    0    0    0  0.00000000000E+00  0.00000000000E+00  0.39999999673E+01  0.40000000000E+01  0.51109989000E-03 0. -1.
     -623   -1    0    0    0    0  0.00000000000E+00  0.00000000000E+00  0.12525980253E-10  0.17130000000E+03  0.17130000000E+03 0. -1.
       11    1    1    2    0    0 -0.44986136580E-02 -0.41150537308E-02  0.38472174445E+00  0.38477039006E+00  0.51109989000E-03 0. -1.
     -623    1    1    2    0    0  0.71805908631E-03 -0.39852233136E-03  0.27470260718E-03  0.17130000000E+03  0.17130000000E+03 0. -1.
      622    1    1    2    0    0  0.37805545717E-02  0.45135760621E-02  0.36150035203E+01  0.36152296077E+01  0.40000000000E-01 0. -1.
</event>
<event>
 5   0  0.6200596E+07  0.9118800E+02  0.7818608E-02  0.1180000E+00
       11   -1    0    0    0    0  0.00000000000E+00  0.00000000000E+00  0.39999999673E+01  0.40000000000E+01  0.51109989000E-03 0. -1.
     -623   -1    0    0    0    0  0.00000000000E+00  0.00000000000E+00  0.12525980253E-10  0.17130000000E+03  0.17130000000E+03 0.  1.
       11    1    1    2    0    0  0.27368272963E-02 -0.12046499705E-02  0.11713724914E-01  0.12100164417E-01  0.51109989000E-03 0. -1.
     -623    1    1    2    0    0 -0.20036907030E-02 -0.34327251588E-03  0.58739964867E-03  0.17130000001E+03  0.17130000000E+03 0.  1.
      622    1    1    2    0    0 -0.73313659326E-03  0.15479224864E-02  0.39876988428E+01  0.39878998225E+01  0.40000000000E-01 0. -1.
</event>
<event>
 5   0  0.6200596E+07  0.9118800E+02  0.7818608E-02  0.1180000E+00
       11   -1    0    0    0    0  0.00000000000E+00  0.00000000000E+00  0.39999999673E+01  0.40000000000E+01  0.51109989000E-03 0. -1.
     -623   -1    0    0    0    0  0.00000000000E+00  0.00000000000E+00  0.12525980253E-10  0.17130000000E+03  0.17130000000E+03 0.  1.
       11    1    1    2    0    0 -0.61795805178E-03 -0.86056750589E-02  0.39741855443E+00  0.39751252576E+00  0.51109989000E-03 0. -1.
     -623    1    1    2    0    0  0.37558704804E-02 -0.21332713372E-03  0.32821793876E-03  0.17130000004E+03  0.17130000000E+03 0.  1.
      622    1    1    2    0    0 -0.31379124286E-02  0.88190021926E-02  0.36022531950E+01  0.36024874326E+01  0.40000000000E-01 0. -1.
</event>
<event>
 5   0  0.6200596E+07  0.9118800E+02  0.7818608E-02  0.1180000E+00
       11   -1    0    0    0    0  0.00000000000E+00  0.00000000000E+00  0.39999999673E+01  0.40000000000E+01  0.51109989000E-03 0. -1.
     -623   -1    0    0    0    0  0.00000000000E+00  0.00000000000E+00  0.12525980253E-10  0.17130000000E+03  0.17130000000E+03 0.  1.
       11    1    1    2    0    0  0.17708998085E-02  0.10906237887E-02  0.84232666110E-02  0.86912708623E-02  0.51109989000E-03 0. -1.
     -623    1    1    2    0    0 -0.45322838296E-03  0.19159489138E-03  0.46883698656E-03  0.17130000000E+03  0.17130000000E+03 0.  1.
      622    1    1    2    0    0 -0.13176714255E-02 -0.12822186801E-02  0.39911078638E+01  0.39913087278E+01  0.40000000000E-01 0. -1.
</event>
<event>
 5   0  0.6200596E+07  0.9118800E+02  0.7818608E-02  0.1180000E+00
       11   -1    0    0    0    0  0.00000000000E+00  0.00000000000E+00  0.39999999673E+01  0.40000000000E+01  0.51109989000E-03 0. -1.
     -623   -1    0    0    0    0  0.00000000000E+00  0.00000000000E+00  0.12525980253E-10  0.17130000000E+03  0.17130000000E+03 0.  1.
       11    1    1    2    0    0 -0.23548045098E-03  0.58244019470E-03  0.87697183785E-02  0.88070352377E-02  0.51109989000E-03 0. -1.
     -623    1    1    2    0    0  0.48170755516E-03 -0.14482213172E-02  0.23783904461E-03  0.17130000001E+03  0.17130000000E+03 0.  1.
      622    1    1    2    0    0 -0.24622710418E-03  0.86578112247E-03  0.39909924099E+01  0.39911929578E+01  0.40000000000E-01 0. -1.
</event>
<event>
 5   0  0.6200596E+07  0.9118800E+02  0.7818608E-02  0.1180000E+00
       11   -1    0    0    0    0  0.00000000000E+00  0.00000000000E+00  0.39999999673E+01  0.40000000000E+01  0.51109989000E-03 0.  1.
     -623   -1    0    0    0    0  0.00000000000E+00  0.00000000000E+00  0.12525980253E-10  0.17130000000E+03  0.17130000000E+03 0.  1.
       11    1    1    2    0    0  0.16640329122E-02 -0.74340534768E-02  0.10083178902E+00  0.10112044826E+00  0.51109989000E-03 0.  1.
     -623    1    1    2    0    0 -0.61714269455E-02  0.61840739773E-02  0.49684863741E-03  0.17130000022E+03  0.17130000000E+03 0.  1.
      622    1    1    2    0    0  0.45073940333E-02  0.12499794995E-02  0.38986713297E+01  0.38988793282E+01  0.40000000000E-01 0.  1.
</event>
<event>
 5   0  0.6200596E+07  0.9118800E+02  0.7818608E-02  0.1180000E+00
       11   -1    0    0    0    0  0.00000000000E+00  0.00000000000E+00  0.39999999673E+01  0.40000000000E+01  0.51109989000E-03 0.  1.
     -623   -1    0    0    0    0  0.00000000000E+00  0.00000000000E+00  0.12525980253E-10  0.17130000000E+03  0.17130000000E+03 0.  1.
       11    1    1    2    0    0 -0.22352645654E-01  0.75460324884E-02  0.15826062953E+01  0.15827822120E+01  0.51109989000E-03 0.  1.
     -623    1    1    2    0    0  0.39026366615E-02  0.10228986260E-01  0.64300568113E-03  0.17130000035E+03  0.17130000000E+03 0.  1.
      622    1    1    2    0    0  0.18450008992E-01 -0.17775018748E-01  0.24167506663E+01  0.24172174369E+01  0.40000000000E-01 0. -1.
</event>
<event>
 5   0  0.6200596E+07  0.9118800E+02  0.7818608E-02  0.1180000E+00
       11   -1    0    0    0    0  0.00000000000E+00  0.00000000000E+00  0.39999999673E+01  0.40000000000E+01  0.51109989000E-03 0. -1.
     -623   -1    0    0    0    0  0.00000000000E+00  0.00000000000E+00  0.12525980253E-10  0.17130000000E+03  0.17130000000E+03 0. -1.
       11    1    1    2    0    0  0.14512785552E-02 -0.18559919931E-01  0.53292034022E+00  0.53324565360E+00  0.51109989000E-03 0. -1.
     -623    1    1    2    0    0 -0.73555655439E-03 -0.14068206989E-02  0.61363759123E-03  0.17130000001E+03  0.17130000000E+03 0. -1.
      622    1    1    2    0    0 -0.71572200081E-03  0.19966740630E-01  0.34664659895E+01  0.34667543379E+01  0.40000000000E-01 0.  0.
</event>
<event>
 5   0  0.6200596E+07  0.9118800E+02  0.7818608E-02  0.1180000E+00
       11   -1    0    0    0    0  0.00000000000E+00  0.00000000000E+00  0.39999999673E+01  0.40000000000E+01  0.51109989000E-03 0.  1.
     -623   -1    0    0    0    0  0.00000000000E+00  0.00000000000E+00  0.12525980253E-10  0.17130000000E+03  0.17130000000E+03 0. -1.
       11    1    1    2    0    0  0.45429281023E-02  0.32911959633E-02  0.50544005017E+00  0.50547143906E+00  0.51109989000E-03 0.  1.
     -623    1    1    2    0    0  0.10731201360E-01  0.17497383193E-02  0.29765747284E-03  0.17130000035E+03  0.17130000000E+03 0. -1.
      622    1    1    2    0    0 -0.15274129462E-01 -0.50409342826E-02  0.34942622597E+01  0.34945282156E+01  0.40000000000E-01 0.  1.
</event>
<event>
 5   0  0.6200596E+07  0.9118800E+02  0.7818608E-02  0.1180000E+00
       11   -1    0    0    0    0  0.00000000000E+00  0.00000000000E+00  0.39999999673E+01  0.40000000000E+01  0.51109989000E-03 0.  1.
     -623   -1    0    0    0    0  0.00000000000E+00  0.00000000000E+00  0.12525980253E-10  0.17130000000E+03  0.17130000000E+03 0. -1.
       11    1    1    2    0    0 -0.18624982196E-01  0.24573835479E-01  0.12291074861E+01  0.12294943013E+01  0.51109989000E-03 0.  1.
     -623    1    1    2    0    0 -0.10345660796E-02 -0.15369310940E-01  0.76130056654E-03  0.17130000069E+03  0.17130000000E+03 0. -1.
      622    1    1    2    0    0  0.19659548275E-01 -0.92045245387E-02  0.27701311807E+01  0.27705050044E+01  0.40000000000E-01 0. -1.
</event>
<event>
 5   0  0.6200596E+07  0.9118800E+02  0.7818608E-02  0.1180000E+00
       11   -1    0    0    0    0  0.00000000000E+00  0.00000000000E+00  0.39999999673E+01  0.40000000000E+01  0.51109989000E-03 0. -1.
     -623   -1    0    0    0    0  0.00000000000E+00  0.00000000000E+00  0.12525980253E-10  0.17130000000E+03  0.17130000000E+03 0. -1.
       11    1    1    2    0    0  0.46318066772E-02  0.10491390955E-01  0.17990668834E+00  0.18027257319E+00  0.51109989000E-03 0. -1.
     -623    1    1    2    0    0  0.16108585122E-03 -0.26984487953E-03  0.59198261800E-03  0.17130000000E+03  0.17130000000E+03 0. -1.
      622    1    1    2    0    0 -0.47928925284E-02 -0.10221546075E-01  0.38195012964E+01  0.38197274255E+01  0.40000000000E-01 0. -1.
</event>
<event>
 5   0  0.6200596E+07  0.9118800E+02  0.7818608E-02  0.1180000E+00
       11   -1    0    0    0    0  0.00000000000E+00  0.00000000000E+00  0.39999999673E+01  0.40000000000E+01  0.51109989000E-03 0.  1.
     -623   -1    0    0    0    0  0.00000000000E+00  0.00000000000E+00  0.12525980253E-10  0.17130000000E+03  0.17130000000E+03 0. -1.
       11    1    1    2    0    0 -0.49557132154E-02  0.20002351810E-01  0.12705257429E+01  0.12706929518E+01  0.51109989000E-03 0.  1.
     -623    1    1    2    0    0  0.12700178846E-02 -0.31151377356E-02  0.51507921033E-03  0.17130000003E+03  0.17130000000E+03 0. -1.
      622    1    1    2    0    0  0.36856953308E-02 -0.16887214074E-01  0.27289591453E+01  0.27293070144E+01  0.40000000000E-01 0.  0.
</event>
<event>
 5   0  0.6200596E+07  0.9118800E+02  0.7818608E-02  0.1180000E+00
       11   -1    0    0    0    0  0.00000000000E+00  0.00000000000E+00  0.39999999673E+01  0.40000000000E+01  0.51109989000E-03 0. -1.
     -623   -1    0    0    0    0  0.00000000000E+00  0.00000000000E+00  0.12525980253E-10  0.17130000000E+03  0.17130000000E+03 0. -1.
       11    1    1    2    0    0  0.31172908012E-02 -0.32046116172E-02  0.10495311882E+01  0.10495408345E+01  0.51109989000E-03 0. -1.
     -623    1    1    2    0    0 -0.68534743389E-02  0.99770382164E-02  0.29133745514E-03  0.17130000043E+03  0.17130000000E+03 0. -1.
      622    1    1    2    0    0  0.37361835377E-02 -0.67724265992E-02  0.29501774417E+01  0.29504587376E+01  0.40000000000E-01 0. -1.
</event>
<event>
 5   0  0.6200596E+07  0.9118800E+02  0.7818608E-02  0.1180000E+00
       11   -1    0    0    0    0  0.00000000000E+00  0.00000000000E+00  0.39999999673E+01  0.40000000000E+01  0.51109989000E-03 0. -1.
     -623   -1    0    0    0    0  0.00000000000E+00  0.00000000000E+00  0.12525980253E-10  0.17130000000E+03  0.17130000000E+03 0. -1.
       11    1    1    2    0    0  0.79780455158E-03 -0.99603932863E-03  0.57298990354E-02  0.58924995567E-02  0.51109989000E-03 0. -1.
     -623    1    1    2    0    0 -0.10873590388E-02  0.16377198990E-03  0.36296908934E-03  0.17130000000E+03  0.17130000000E+03 0. -1.
      622    1    1    2    0    0  0.28955448720E-03  0.83226733873E-03  0.39939070992E+01  0.39941074965E+01  0.40000000000E-01 0. -1.
</event>
<event>
 5   0  0.6200596E+07  0.9118800E+02  0.7818608E-02  0.1180000E+00
       11   -1    0    0    0    0  0.00000000000E+00  0.00000000000E+00  0.39999999673E+01  0.40000000000E+01  0.51109989000E-03 0. -1.
     -623   -1    0    0    0    0  0.00000000000E+00  0.00000000000E+00  0.12525980253E-10  0.17130000000E+03  0.17130000000E+03 0.  1.
       11    1    1    2    0    0  0.27082306425E-02  0.34627115619E-02  0.36065391747E+00  0.36068107005E+00  0.51109989000E-03 0. -1.
     -623    1    1    2    0    0  0.56461549340E-02  0.20192113611E-01  0.33470261963E-03  0.17130000128E+03  0.17130000000E+03 0.  1.
      622    1    1    2    0    0 -0.83543855765E-02 -0.23654825173E-01  0.36390113473E+01  0.36393176465E+01  0.40000000000E-01 0.  0.
</event>
<event>
 5   0  0.6200596E+07  0.9118800E+02  0.7818608E-02  0.1180000E+00
       11   -1    0    0    0    0  0.00000000000E+00  0.00000000000E+00  0.39999999673E+01  0.40000000000E+01  0.51109989000E-03 0. -1.
     -623   -1    0    0    0    0  0.00000000000E+00  0.00000000000E+00  0.12525980253E-10  0.17130000000E+03  0.17130000000E+03 0. -1.
       11    1    1    2    0    0  0.10325325504E-02  0.31025957415E-03  0.41444601478E-01  0.41461772725E-01  0.51109989000E-03 0. -1.
     -623    1    1    2    0    0 -0.63225369736E-03  0.19580523595E-02  0.21992123097E-03  0.17130000001E+03  0.17130000000E+03 0. -1.
      622    1    1    2    0    0 -0.40027885300E-03 -0.22683119337E-02  0.39583354447E+01  0.39585382148E+01  0.40000000000E-01 0. -1.
</event>
<event>
 5   0  0.6200596E+07  0.9118800E+02  0.7818608E-02  0.1180000E+00
       11   -1    0    0    0    0  0.00000000000E+00  0.00000000000E+00  0.39999999673E+01  0.40000000000E+01  0.51109989000E-03 0. -1.
     -623   -1    0    0    0    0  0.00000000000E+00  0.00000000000E+00  0.12525980253E-10  0.17130000000E+03  0.17130000000E+03 0. -1.
       11    1    1    2    0    0 -0.17603280818E-01 -0.36180597378E-01  0.27634698703E+01  0.27637628148E+01  0.51109989000E-03 0. -1.
     -623    1    1    2    0    0 -0.27943172709E-02  0.35876571281E-02  0.15386598364E-02  0.17130000007E+03  0.17130000000E+03 0. -1.
      622    1    1    2    0    0  0.20397598089E-01  0.32592940250E-01  0.12349914373E+01  0.12362371180E+01  0.40000000000E-01 0. -1.
</event>
<event>
 5   0  0.6200596E+07  0.9118800E+02  0.7818608E-02  0.1180000E+00
       11   -1    0    0    0    0  0.00000000000E+00  0.00000000000E+00  0.39999999673E+01  0.40000000000E+01  0.51109989000E-03 0. -1.
     -623   -1    0    0    0    0  0.00000000000E+00  0.00000000000E+00  0.12525980253E-10  0.17130000000E+03  0.17130000000E+03 0. -1.
       11    1    1    2    0    0 -0.13725441309E-02 -0.51126434173E-01  0.16951367608E+01  0.16959082213E+01  0.51109989000E-03 0. -1.
     -623    1    1    2    0    0 -0.52329912636E-02  0.72179693054E-02  0.15468503351E-02  0.17130000024E+03  0.17130000000E+03 0. -1.
      622    1    1    2    0    0  0.66055353945E-02  0.43908464868E-01  0.23033163563E+01  0.23040915397E+01  0.40000000000E-01 0. -1.
</event>
<event>
 5   0  0.6200596E+07  0.9118800E+02  0.7818608E-02  0.1180000E+00
       11   -1    0    0    0    0  0.00000000000E+00  0.00000000000E+00  0.39999999673E+01  0.40000000000E+01  0.51109989000E-03 0. -1.
     -623   -1    0    0    0    0  0.00000000000E+00  0.00000000000E+00  0.12525980253E-10  0.17130000000E+03  0.17130000000E+03 0. -1.
       11    1    1    2    0    0  0.21726534236E-02  0.10131524752E-02  0.13397264395E-01  0.13619648116E-01  0.51109989000E-03 0. -1.
     -623    1    1    2    0    0 -0.31147488302E-02 -0.10241851585E-02  0.42318268886E-03  0.17130000003E+03  0.17130000000E+03 0. -1.
      622    1    1    2    0    0  0.94209540666E-03  0.11032683316E-04  0.39861795203E+01  0.39863803200E+01  0.40000000000E-01 0. -1.
</event>
<event>
 5   0  0.6200596E+07  0.9118800E+02  0.7818608E-02  0.1180000E+00
       11   -1    0    0    0    0  0.00000000000E+00  0.00000000000E+00  0.39999999673E+01  0.40000000000E+01  0.51109989000E-03 0. -1.
     -623   -1    0    0    0    0  0.00000000000E+00  0.00000000000E+00  0.12525980253E-10  0.17130000000E+03  0.17130000000E+03 0. -1.
       11    1    1    2    0    0 -0.12529115849E-03 -0.14441334550E-02  0.49867180910E+00  0.49867417783E+00  0.51109989000E-03 0. -1.
     -623    1    1    2    0    0  0.18077393679E-03  0.45211177148E-03  0.23097025117E-03  0.17130000000E+03  0.17130000000E+03 0. -1.
      622    1    1    2    0    0 -0.55482778307E-04  0.99202168351E-03  0.35010971880E+01  0.35013258213E+01  0.40000000000E-01 0. -1.
</event>
<event>
 5   0  0.6200596E+07  0.9118800E+02  0.7818608E-02  0.1180000E+00
       11   -1    0    0    0    0  0.00000000000E+00  0.00000000000E+00  0.39999999673E+01  0.40000000000E+01  0.51109989000E-03 0. -1.
     -623   -1    0    0    0    0  0.00000000000E+00  0.00000000000E+00  0.12525980253E-10  0.17130000000E+03  0.17130000000E+03 0. -1.
       11    1    1    2    0    0 -0.78837676738E-03  0.18962277615E-02  0.30761957775E+00  0.30762685685E+00  0.51109989000E-03 0. -1.
     -623    1    1    2    0    0  0.11820029211E-02  0.86124790250E-03  0.22497271970E-03  0.17130000001E+03  0.17130000000E+03 0. -1.
      622    1    1    2    0    0 -0.39362615371E-03 -0.27574756640E-02  0.36921554169E+01  0.36923731368E+01  0.40000000000E-01 0.  0.
</event>
<event>
 5   0  0.6200596E+07  0.9118800E+02  0.7818608E-02  0.1180000E+00
       11   -1    0    0    0    0  0.00000000000E+00  0.00000000000E+00  0.39999999673E+01  0.40000000000E+01  0.51109989000E-03 0.  1.
     -623   -1    0    0    0    0  0.00000000000E+00  0.00000000000E+00  0.12525980253E-10  0.17130000000E+03  0.17130000000E+03 0. -1.
       11    1    1    2    0    0 -0.70050487391E-02 -0.96427806908E-03  0.36093060965E-01  0.36782751538E-01  0.51109989000E-03 0.  1.
     -623    1    1    2    0    0  0.87474160611E-02 -0.25506458664E-02  0.89370572812E-03  0.17130000024E+03  0.17130000000E+03 0. -1.
      622    1    1    2    0    0 -0.17423673220E-02  0.35149239355E-02  0.39630132007E+01  0.39632170038E+01  0.40000000000E-01 0.  1.
</event>
<event>
 5   0  0.6200596E+07  0.9118800E+02  0.7818608E-02  0.1180000E+00
       11   -1    0    0    0    0  0.00000000000E+00  0.00000000000E+00  0.39999999673E+01  0.40000000000E+01  0.51109989000E-03 0.  1.
     -623   -1    0    0    0    0  0.00000000000E+00  0.00000000000E+00  0.12525980253E-10  0.17130000000E+03  0.17130000000E+03 0. -1.
       11    1    1    2    0    0  0.29725805649E-02  0.38603359368E-02  0.10426856137E+00  0.10438358367E+00  0.51109989000E-03 0.  1.
     -623    1    1    2    0    0 -0.74052962798E-02  0.40820823157E-02  0.33118218309E-03  0.17130000021E+03  0.17130000000E+03 0. -1.
      622    1    1    2    0    0  0.44327157149E-02 -0.79424182526E-02  0.38954002238E+01  0.38956162073E+01  0.40000000000E-01 0.  1.
</event>
<event>
 5   0  0.6200596E+07  0.9118800E+02  0.7818608E-02  0.1180000E+00
       11   -1    0    0    0    0  0.00000000000E+00  0.00000000000E+00  0.39999999673E+01  0.40000000000E+01  0.51109989000E-03 0. -1.
     -623   -1    0    0    0    0  0.00000000000E+00  0.00000000000E+00  0.12525980253E-10  0.17130000000E+03  0.17130000000E+03 0. -1.
       11    1    1    2    0    0  0.29444400376E-01 -0.22017293048E-02  0.33269574867E+00  0.33400380646E+00  0.51109989000E-03 0. -1.
     -623    1    1    2    0    0  0.28420673328E-03  0.40193122882E-02  0.16473073282E-02  0.17130000006E+03  0.17130000000E+03 0. -1.
      622    1    1    2    0    0 -0.29728607110E-01 -0.18175829834E-02  0.36656569114E+01  0.36659961382E+01  0.40000000000E-01 0. -1.
</event>
<event>
 5   0  0.6200596E+07  0.9118800E+02  0.7818608E-02  0.1180000E+00
       11   -1    0    0    0    0  0.00000000000E+00  0.00000000000E+00  0.39999999673E+01  0.40000000000E+01  0.51109989000E-03 0.  1.
     -623   -1    0    0    0    0  0.00000000000E+00  0.00000000000E+00  0.12525980253E-10  0.17130000000E+03  0.17130000000E+03 0. -1.
       11    1    1    2    0    0 -0.57780731153E-02  0.34007594458E-02  0.98142633865E-02  0.11896734050E-01  0.51109989000E-03 0.  1.
     -623    1    1    2    0    0  0.67265456973E-02 -0.83015918938E-02  0.22865123523E-02  0.17130000035E+03  0.17130000000E+03 0. -1.
      622    1    1    2    0    0 -0.94847258196E-03  0.49008324481E-02  0.39878991916E+01  0.39881029175E+01  0.40000000000E-01 0.  1.
</event>
<event>
 5   0  0.6200596E+07  0.9118800E+02  0.7818608E-02  0.1180000E+00
       11   -1    0    0    0    0  0.00000000000E+00  0.00000000000E+00  0.39999999673E+01  0.40000000000E+01  0.51109989000E-03 0.  1.
     -623   -1    0    0    0    0  0.00000000000E+00  0.00000000000E+00  0.12525980253E-10  0.17130000000E+03  0.17130000000E+03 0.  1.
       11    1    1    2    0    0  0.14901616976E-01  0.42301750882E-02  0.71434822382E+00  0.71451633898E+00  0.51109989000E-03 0.  1.
     -623    1    1    2    0    0 -0.15531817431E-01  0.22869579494E-02  0.41883153335E-03  0.17130000072E+03  0.17130000000E+03 0.  1.
      622    1    1    2    0    0  0.63020045436E-03 -0.65171330376E-02  0.32852329120E+01  0.32854829411E+01  0.40000000000E-01 0.  1.
</event>
<event>
 5   0  0.6200596E+07  0.9118800E+02  0.7818608E-02  0.1180000E+00
       11   -1    0    0    0    0  0.00000000000E+00  0.00000000000E+00  0.39999999673E+01  0.40000000000E+01  0.51109989000E-03 0.  1.
     -623   -1    0    0    0    0  0.00000000000E+00  0.00000000000E+00  0.12525980253E-10  0.17130000000E+03  0.17130000000E+03 0.  1.
       11    1    1    2    0    0  0.97703278882E-02  0.46353081628E-02  0.14692977892E+01  0.14693376739E+01  0.51109989000E-03 0.  1.
     -623    1    1    2    0    0  0.86788816980E-02  0.65769177006E-02  0.44844254381E-03  0.17130000035E+03  0.17130000000E+03 0.  1.
      622    1    1    2    0    0 -0.18449209586E-01 -0.11212225863E-01  0.25302537356E+01  0.25306619794E+01  0.40000000000E-01 0.  1.
</event>
<event>
 5   0  0.6200596E+07  0.9118800E+02  0.7818608E-02  0.1180000E+00
       11   -1    0    0    0    0  0.00000000000E+00  0.00000000000E+00  0.39999999673E+01  0.40000000000E+01  0.51109989000E-03 0. -1.
     -623   -1    0    0    0    0  0.00000000000E+00  0.00000000000E+00  0.12525980253E-10  0.17130000000E+03  0.17130000000E+03 0. -1.
       11    1    1    2    0    0 -0.10407019376E-04  0.27470982950E-03  0.50548284187E-02  0.50880334041E-02  0.51109989000E-03 0. -1.
     -623    1    1    2    0    0  0.12166086256E-02 -0.12814517186E-02  0.23375032899E-03  0.17130000001E+03  0.17130000000E+03 0. -1.
      622    1    1    2    0    0 -0.12062016062E-02  0.10067418891E-02  0.39947113886E+01  0.39949119573E+01  0.40000000000E-01 0. -1.
</event>
<event>
 5   0  0.6200596E+07  0.9118800E+02  0.7818608E-02  0.1180000E+00
       11   -1    0    0    0    0  0.00000000000E+00  0.00000000000E+00  0.39999999673E+01  0.40000000000E+01  0.51109989000E-03 0.  1.
     -623   -1    0    0    0    0  0.00000000000E+00  0.00000000000E+00  0.12525980253E-10  0.17130000000E+03  0.17130000000E+03 0.  1.
       11    1    1    2    0    0 -0.28598336485E-03 -0.10584618374E-02  0.50716988652E-02  0.52139694524E-02  0.51109989000E-03 0.  1.
     -623    1    1    2    0    0 -0.25707950582E-03  0.51128391485E-03  0.34257969494E-03  0.17130000000E+03  0.17130000000E+03 0.  1.
      622    1    1    2    0    0  0.54306287067E-03  0.54717792257E-03  0.39945856888E+01  0.39947860292E+01  0.40000000000E-01 0.  1.
</event>
<event>
 5   0  0.6200596E+07  0.9118800E+02  0.7818608E-02  0.1180000E+00
       11   -1    0    0    0    0  0.00000000000E+00  0.00000000000E+00  0.39999999673E+01  0.40000000000E+01  0.51109989000E-03 0. -1.
     -623   -1    0    0    0    0  0.00000000000E+00  0.00000000000E+00  0.12525980253E-10  0.17130000000E+03  0.17130000000E+03 0.  1.
       11    1    1    2    0    0 -0.20878350970E-01  0.23910780922E-02  0.22760436669E+00  0.22857303373E+00  0.51109989000E-03 0. -1.
     -623    1    1    2    0    0 -0.10372981464E-01 -0.11333426282E-01  0.13215474131E-02  0.17130000069E+03  0.17130000000E+03 0.  1.
      622    1    1    2    0    0  0.31251332434E-01  0.89423481901E-02  0.37710740533E+01  0.37714262722E+01  0.40000000000E-01 0. -1.
</event>
<event>
 5   0  0.6200596E+07  0.9118800E+02  0.7818608E-02  0.1180000E+00
       11   -1    0    0    0    0  0.00000000000E+00  0.00000000000E+00  0.39999999673E+01  0.40000000000E+01  0.51109989000E-03 0.  1.
     -623   -1    0    0    0    0  0.00000000000E+00  0.00000000000E+00  0.12525980253E-10  0.17130000000E+03  0.17130000000E+03 0. -1.
       11    1    1    2    0    0 -0.84489370654E-02  0.35449339303E-03  0.29148896063E-01  0.30355058347E-01  0.51109989000E-03 0.  1.
     -623    1    1    2    0    0 -0.71534959123E-03 -0.55304629474E-02  0.14217142627E-02  0.17130000010E+03  0.17130000000E+03 0. -1.
      622    1    1    2    0    0  0.91642866567E-02  0.51759695544E-02  0.39694293570E+01  0.39696448450E+01  0.40000000000E-01 0.  1.
</event>
<event>
 5   0  0.6200596E+07  0.9118800E+02  0.7818608E-02  0.1180000E+00
       11   -1    0    0    0    0  0.00000000000E+00  0.00000000000E+00  0.39999999673E+01  0.40000000000E+01  0.51109989000E-03 0. -1.
     -623   -1    0    0    0    0  0.00000000000E+00  0.00000000000E+00  0.12525980253E-10  0.17130000000E+03  0.17130000000E+03 0. -1.
       11    1    1    2    0    0  0.36571608576E-02  0.34830200233E-02  0.49494808938E-01  0.49754432841E-01  0.51109989000E-03 0. -1.
     -623    1    1    2    0    0  0.68636380961E-03  0.24640873360E-02  0.46900028183E-03  0.17130000002E+03  0.17130000000E+03 0. -1.
      622    1    1    2    0    0 -0.43435246672E-02 -0.59471073593E-02  0.39500361581E+01  0.39502455474E+01  0.40000000000E-01 0. -1.
</event>
<event>
 5   0  0.6200596E+07  0.9118800E+02  0.7818608E-02  0.1180000E+00
       11   -1    0    0    0    0  0.00000000000E+00  0.00000000000E+00  0.39999999673E+01  0.40000000000E+01  0.51109989000E-03 0.  1.
     -623   -1    0    0    0    0  0.00000000000E+00  0.00000000000E+00  0.12525980253E-10  0.17130000000E+03  0.17130000000E+03 0. -1.
       11    1    1    2    0    0 -0.64879469860E-02  0.66207300694E-02  0.14773817421E+00  0.14802958104E+00  0.51109989000E-03 0.  1.
     -623    1    1    2    0    0 -0.14521341525E-02 -0.10813371184E-02  0.51124317801E-03  0.17130000001E+03  0.17130000000E+03 0. -1.
      622    1    1    2    0    0  0.79400811384E-02 -0.55393929511E-02  0.38517505500E+01  0.38519704086E+01  0.40000000000E-01 0.  1.
</event>
<event>
 5   0  0.6200596E+07  0.9118800E+02  0.7818608E-02  0.1180000E+00
       11   -1    0    0    0    0  0.00000000000E+00  0.00000000000E+00  0.39999999673E+01  0.40000000000E+01  0.51109989000E-03 0. -1.
     -623   -1    0    0    0    0  0.00000000000E+00  0.00000000000E+00  0.12525980253E-10  0.17130000000E+03  0.17130000000E+03 0.  1.
       11    1    1    2    0    0 -0.76515108079E-02  0.65579203933E-02  0.89752857396E-01  0.90318262655E-01  0.51109989000E-03 0. -1.
     -623    1    1    2    0    0  0.11660843289E-02  0.67147596568E-03  0.78206892276E-03  0.17130000001E+03  0.17130000000E+03 0.  1.
      622    1    1    2    0    0  0.64854264790E-02 -0.72293963590E-02  0.39094650410E+01  0.39096817303E+01  0.40000000000E-01 0. -1.
</event>
<event>
 5   0  0.6200596E+07  0.9118800E+02  0.7818608E-02  0.1180000E+00
       11   -1    0    0    0    0  0.00000000000E+00  0.00000000000E+00  0.39999999673E+01  0.40000000000E+01  0.51109989000E-03 0.  1.
     -623   -1    0    0    0    0  0.00000000000E+00  0.00000000000E+00  0.12525980253E-10  0.17130000000E+03  0.17130000000E+03 0. -1.
       11    1    1    2    0    0 -0.33958908057E-02 -0.44565737394E-02  0.24649996572E-01  0.25283921307E-01  0.51109989000E-03 0.  1.
     -623    1    1    2    0    0  0.83200992035E-03  0.10119488246E-01  0.84033366461E-03  0.17130000030E+03  0.17130000000E+03 0. -1.
      622    1    1    2    0    0  0.25638808854E-02 -0.56629145070E-02  0.39745096371E+01  0.39747157757E+01  0.40000000000E-01 0.  1.
</event>
<event>
 5   0  0.6200596E+07  0.9118800E+02  0.7818608E-02  0.1180000E+00
       11   -1    0    0    0    0  0.00000000000E+00  0.00000000000E+00  0.39999999673E+01  0.40000000000E+01  0.51109989000E-03 0.  1.
     -623   -1    0    0    0    0  0.00000000000E+00  0.00000000000E+00  0.12525980253E-10  0.17130000000E+03  0.17130000000E+03 0. -1.
       11    1    1    2    0    0  0.14823514585E-01  0.86509025819E-02  0.91594968103E+00  0.91611061237E+00  0.51109989000E-03 0.  1.
     -623    1    1    2    0    0  0.60080532405E-02 -0.74670119983E-02  0.49118338590E-03  0.17130000027E+03  0.17130000000E+03 0. -1.
      622    1    1    2    0    0 -0.20831567825E-01 -0.11838905837E-02  0.30835591029E+01  0.30838891188E+01  0.40000000000E-01 0.  1.
</event>
<event>
 5   0  0.6200596E+07  0.9118800E+02  0.7818608E-02  0.1180000E+00
       11   -1    0    0    0    0  0.00000000000E+00  0.00000000000E+00  0.39999999673E+01  0.40000000000E+01  0.51109989000E-03 0. -1.
     -623   -1    0    0    0    0  0.00000000000E+00  0.00000000000E+00  0.12525980253E-10  0.17130000000E+03  0.17130000000E+03 0. -1.
       11    1    1    2    0    0  0.85121827678E-02 -0.40450064730E-03  0.67584439341E+00  0.67589831055E+00  0.51109989000E-03 0. -1.
     -623    1    1    2    0    0  0.10979083401E-03 -0.34754430680E-02  0.30804240387E-03  0.17130000004E+03  0.17130000000E+03 0. -1.
      622    1    1    2    0    0 -0.86219736018E-02  0.38799437153E-02  0.33238475315E+01  0.33241016539E+01  0.40000000000E-01 0. -1.
</event>
<event>
 5   0  0.6200596E+07  0.9118800E+02  0.7818608E-02  0.1180000E+00
       11   -1    0    0    0    0  0.00000000000E+00  0.00000000000E+00  0.39999999673E+01  0.40000000000E+01  0.51109989000E-03 0.  1.
     -623   -1    0    0    0    0  0.00000000000E+00  0.00000000000E+00  0.12525980253E-10  0.17130000000E+03  0.17130000000E+03 0.  1.
       11    1    1    2    0    0  0.35151474285E-02 -0.28909544413E-02  0.54001537737E+00  0.54003479786E+00  0.51109989000E-03 0.  1.
     -623    1    1    2    0    0 -0.11389918111E-01  0.20643992663E-02  0.26006380796E-03  0.17130000039E+03  0.17130000000E+03 0.  1.
      622    1    1    2    0    0  0.78747706826E-02  0.82655517503E-03  0.34597245262E+01  0.34599648108E+01  0.40000000000E-01 0.  1.
</event>
<event>
 5   0  0.6200596E+07  0.9118800E+02  0.7818608E-02  0.1180000E+00
       11   -1    0    0    0    0  0.00000000000E+00  0.00000000000E+00  0.39999999673E+01  0.40000000000E+01  0.51109989000E-03 0.  1.
     -623   -1    0    0    0    0  0.00000000000E+00  0.00000000000E+00  0.12525980253E-10  0.17130000000E+03  0.17130000000E+03 0. -1.
       11    1    1    2    0    0  0.55812335385E-04 -0.19287193755E-03  0.33906024641E-02  0.34347809947E-02  0.51109989000E-03 0.  1.
     -623    1    1    2    0    0 -0.49138973436E-03  0.99481830494E-03  0.24443075878E-03  0.17130000000E+03  0.17130000000E+03 0. -1.
      622    1    1    2    0    0  0.43557739898E-03 -0.80194636739E-03  0.39963649341E+01  0.39965652152E+01  0.40000000000E-01 0.  1.
</event>
<event>
 5   0  0.6200596E+07  0.9118800E+02  0.7818608E-02  0.1180000E+00
       11   -1    0    0    0    0  0.00000000000E+00  0.00000000000E+00  0.39999999673E+01  0.40000000000E+01  0.51109989000E-03 0.  1.
     -623   -1    0    0    0    0  0.00000000000E+00  0.00000000000E+00  0.12525980253E-10  0.17130000000E+03  0.17130000000E+03 0. -1.
       11    1    1    2    0    0  0.16949328180E-02  0.23206334204E-02  0.14155399529E-01  0.14453189791E-01  0.51109989000E-03 0.  1.
     -623    1    1    2    0    0  0.29212734753E-02 -0.16765315824E-02  0.50124731979E-03  0.17130000003E+03  0.17130000000E+03 0. -1.
      622    1    1    2    0    0 -0.46162062933E-02 -0.64410183800E-03  0.39853433205E+01  0.39855467764E+01  0.40000000000E-01 0.  1.
</event>
<event>
 5   0  0.6200596E+07  0.9118800E+02  0.7818608E-02  0.1180000E+00
       11   -1    0    0    0    0  0.00000000000E+00  0.00000000000E+00  0.39999999673E+01  0.40000000000E+01  0.51109989000E-03 0. -1.
     -623   -1    0    0    0    0  0.00000000000E+00  0.00000000000E+00  0.12525980253E-10  0.17130000000E+03  0.17130000000E+03 0. -1.
       11    1    1    2    0    0 -0.80128132602E-03 -0.77440052893E-03  0.54712497855E-02  0.56069192500E-02  0.51109989000E-03 0. -1.
     -623    1    1    2    0    0  0.66605385434E-03 -0.53416021741E-04  0.33601229173E-03  0.17130000000E+03  0.17130000000E+03 0. -1.
      622    1    1    2    0    0  0.13522747168E-03  0.82781655067E-03  0.39941927053E+01  0.39943930791E+01  0.40000000000E-01 0. -1.
</event>
<event>
 5   0  0.6200596E+07  0.9118800E+02  0.7818608E-02  0.1180000E+00
       11   -1    0    0    0    0  0.00000000000E+00  0.00000000000E+00  0.39999999673E+01  0.40000000000E+01  0.51109989000E-03 0. -1.
     -623   -1    0    0    0    0  0.00000000000E+00  0.00000000000E+00  0.12525980253E-10  0.17130000000E+03  0.17130000000E+03 0.  1.
       11    1    1    2    0    0  0.16529162480E-01  0.11394728873E-01  0.19643399414E+01  0.19644425977E+01  0.51109989000E-03 0. -1.
     -623    1    1    2    0    0  0.61922872953E-02 -0.88499270560E-02  0.62444720728E-03  0.17130000034E+03  0.17130000000E+03 0.  1.
      622    1    1    2    0    0 -0.22721449775E-01 -0.25448018172E-02  0.20350355787E+01  0.20355570606E+01  0.40000000000E-01 0. -1.
</event>
<event>
 5   0  0.6200596E+07  0.9118800E+02  0.7818608E-02  0.1180000E+00
       11   -1    0    0    0    0  0.00000000000E+00  0.00000000000E+00  0.39999999673E+01  0.40000000000E+01  0.51109989000E-03 0.  1.
     -623   -1    0    0    0    0  0.00000000000E+00  0.00000000000E+00  0.12525980253E-10  0.17130000000E+03  0.17130000000E+03 0.  1.
       11    1    1    2    0    0  0.87385850545E-02 -0.26971315631E-02  0.24548449863E+01  0.24548620746E+01  0.51109989000E-03 0.  1.
     -623    1    1    2    0    0  0.97253652208E-02  0.12942795429E-01  0.68000584544E-03  0.17130000077E+03  0.17130000000E+03 0.  1.
      622    1    1    2    0    0 -0.18463950275E-01 -0.10245663866E-01  0.15444749752E+01  0.15451371590E+01  0.40000000000E-01 0.  0.
</event>
<event>
 5   0  0.6200596E+07  0.9118800E+02  0.7818608E-02  0.1180000E+00
       11   -1    0    0    0    0  0.00000000000E+00  0.00000000000E+00  0.39999999673E+01  0.40000000000E+01  0.51109989000E-03 0. -1.
     -623   -1    0    0    0    0  0.00000000000E+00  0.00000000000E+00  0.12525980253E-10  0.17130000000E+03  0.17130000000E+03 0.  1.
       11    1    1    2    0    0  0.22371204821E-02 -0.14392584241E-01  0.17854308883E+01  0.17854903723E+01  0.51109989000E-03 0. -1.
     -623    1    1    2    0    0  0.41466293535E-02  0.47234446720E-02  0.45116583960E-03  0.17130000012E+03  0.17130000000E+03 0.  1.
      622    1    1    2    0    0 -0.63837498356E-02  0.96691395693E-02  0.22141179132E+01  0.22145095118E+01  0.40000000000E-01 0. -1.
</event>
<event>
 5   0  0.6200596E+07  0.9118800E+02  0.7818608E-02  0.1180000E+00
       11   -1    0    0    0    0  0.00000000000E+00  0.00000000000E+00  0.39999999673E+01  0.40000000000E+01  0.51109989000E-03 0. -1.
     -623   -1    0    0    0    0  0.00000000000E+00  0.00000000000E+00  0.12525980253E-10  0.17130000000E+03  0.17130000000E+03 0.  1.
       11    1    1    2    0    0  0.25871010887E-02  0.72546446314E-03  0.21507492706E+00  0.21509231707E+00  0.51109989000E-03 0. -1.
     -623    1    1    2    0    0 -0.42074114391E-02  0.97765963868E-02  0.24397774289E-03  0.17130000033E+03  0.17130000000E+03 0.  1.
      622    1    1    2    0    0  0.16203103505E-02 -0.10502060850E-01  0.37846810626E+01  0.37849073521E+01  0.40000000000E-01 0. -1.
</event>
<event>
 5   0  0.6200596E+07  0.9118800E+02  0.7818608E-02  0.1180000E+00
       11   -1    0    0    0    0  0.00000000000E+00  0.00000000000E+00  0.39999999673E+01  0.40000000000E+01  0.51109989000E-03 0. -1.
     -623   -1    0    0    0    0  0.00000000000E+00  0.00000000000E+00  0.12525980253E-10  0.17130000000E+03  0.17130000000E+03 0. -1.
       11    1    1    2    0    0 -0.32515896920E-03 -0.94829734257E-04  0.25584400130E+00  0.25584473601E+00  0.51109989000E-03 0. -1.
     -623    1    1    2    0    0 -0.69492209117E-03 -0.23254760937E-02  0.21531312912E-03  0.17130000002E+03  0.17130000000E+03 0. -1.
      622    1    1    2    0    0  0.10200810604E-02  0.24203058280E-02  0.37439406529E+01  0.37441552467E+01  0.40000000000E-01 0. -1.
</event>
<event>
 5   0  0.6200596E+07  0.9118800E+02  0.7818608E-02  0.1180000E+00
       11   -1    0    0    0    0  0.00000000000E+00  0.00000000000E+00  0.39999999673E+01  0.40000000000E+01  0.51109989000E-03 0. -1.
     -623   -1    0    0    0    0  0.00000000000E+00  0.00000000000E+00  0.12525980253E-10  0.17130000000E+03  0.17130000000E+03 0. -1.
       11    1    1    2    0    0  0.74884758329E-02  0.15585613790E-01  0.17052173733E+01  0.17053051164E+01  0.51109989000E-03 0. -1.
     -623    1    1    2    0    0 -0.52571810679E-02  0.42705391467E-02  0.52350993662E-03  0.17130000013E+03  0.17130000000E+03 0. -1.
      622    1    1    2    0    0 -0.22312947650E-02 -0.19856152936E-01  0.22942590842E+01  0.22946947489E+01  0.40000000000E-01 0. -1.
</event>
<event>
 5   0  0.6200596E+07  0.9118800E+02  0.7818608E-02  0.1180000E+00
       11   -1    0    0    0    0  0.00000000000E+00  0.00000000000E+00  0.39999999673E+01  0.40000000000E+01  0.51109989000E-03 0.  1.
     -623   -1    0    0    0    0  0.00000000000E+00  0.00000000000E+00  0.12525980253E-10  0.17130000000E+03  0.17130000000E+03 0. -1.
       11    1    1    2    0    0 -0.69785663494E-03  0.20031009014E-02  0.22695044912E-01  0.22799686432E-01  0.51109989000E-03 0.  1.
     -623    1    1    2    0    0 -0.94927351970E-03 -0.17194552033E-03  0.30652613320E-03  0.17130000000E+03  0.17130000000E+03 0. -1.
      622    1    1    2    0    0  0.16471301546E-02 -0.18311553811E-02  0.39769983963E+01  0.39772003106E+01  0.40000000000E-01 0.  1.
</event>
<event>
 5   0  0.6200596E+07  0.9118800E+02  0.7818608E-02  0.1180000E+00
       11   -1    0    0    0    0  0.00000000000E+00  0.00000000000E+00  0.39999999673E+01  0.40000000000E+01  0.51109989000E-03 0.  1.
     -623   -1    0    0    0    0  0.00000000000E+00  0.00000000000E+00  0.12525980253E-10  0.17130000000E+03  0.17130000000E+03 0. -1.
       11    1    1    2    0    0 -0.30901939841E-03 -0.27491029213E-02  0.16215211612E+00  0.16217651817E+00  0.51109989000E-03 0.  1.
     -623    1    1    2    0    0  0.94168742718E-02 -0.28202120693E-02  0.24795793088E-03  0.17130000028E+03  0.17130000000E+03 0. -1.
      622    1    1    2    0    0 -0.91078548734E-02  0.55693149906E-02  0.38375998933E+01  0.38378231996E+01  0.40000000000E-01 0.  1.
</event>
<event>
 5   0  0.6200596E+07  0.9118800E+02  0.7818608E-02  0.1180000E+00
       11   -1    0    0    0    0  0.00000000000E+00  0.00000000000E+00  0.39999999673E+01  0.40000000000E+01  0.51109989000E-03 0. -1.
     -623   -1    0    0    0    0  0.00000000000E+00  0.00000000000E+00  0.12525980253E-10  0.17130000000E+03  0.17130000000E+03 0. -1.
       11    1    1    2    0    0  0.40694468526E-02 -0.36361473554E-02  0.10654809539E+00  0.10668898639E+00  0.51109989000E-03 0. -1.
     -623    1    1    2    0    0  0.41760696309E-03  0.90492712533E-03  0.34989153066E-03  0.17130000000E+03  0.17130000000E+03 0. -1.
      622    1    1    2    0    0 -0.44870538156E-02  0.27312202301E-02  0.38931019804E+01  0.38933110103E+01  0.40000000000E-01 0. -1.
</event>
<event>
 5   0  0.6200596E+07  0.9118800E+02  0.7818608E-02  0.1180000E+00
       11   -1    0    0    0    0  0.00000000000E+00  0.00000000000E+00  0.39999999673E+01  0.40000000000E+01  0.51109989000E-03 0. -1.
     -623   -1    0    0    0    0  0.00000000000E+00  0.00000000000E+00  0.12525980253E-10  0.17130000000E+03  0.17130000000E+03 0. -1.
       11    1    1    2    0    0 -0.38846909180E-02 -0.64625892121E-03  0.10207118522E+01  0.10207195770E+01  0.51109989000E-03 0. -1.
     -623    1    1    2    0    0  0.56765033988E-03 -0.20734007320E-02  0.27932737425E-03  0.17130000001E+03  0.17130000000E+03 0. -1.
      622    1    1    2    0    0  0.33170405782E-02  0.27196596532E-02  0.29790087878E+01  0.29792804093E+01  0.40000000000E-01 0. -1.
</event>
<event>
 5   0  0.6200596E+07  0.9118800E+02  0.7818608E-02  0.1180000E+00
       11   -1    0    0    0    0  0.00000000000E+00  0.00000000000E+00  0.39999999673E+01  0.40000000000E+01  0.51109989000E-03 0. -1.
     -623   -1    0    0    0    0  0.00000000000E+00  0.00000000000E+00  0.12525980253E-10  0.17130000000E+03  0.17130000000E+03 0.  1.
       11    1    1    2    0    0 -0.28131674908E-02  0.71892614675E-02  0.48189395502E+00  0.48195606075E+00  0.51109989000E-03 0. -1.
     -623    1    1    2    0    0  0.46662225600E-03 -0.11317104727E-03  0.29737988391E-03  0.17130000000E+03  0.17130000000E+03 0.  1.
      622    1    1    2    0    0  0.23465452348E-02 -0.70760904203E-02  0.35178086325E+01  0.35180439383E+01  0.40000000000E-01 0. -1.
</event>
<event>
 5   0  0.6200596E+07  0.9118800E+02  0.7818608E-02  0.1180000E+00
       11   -1    0    0    0    0  0.00000000000E+00  0.00000000000E+00  0.39999999673E+01  0.40000000000E+01  0.51109989000E-03 0.  1.
     -623   -1    0    0    0    0  0.00000000000E+00  0.00000000000E+00  0.12525980253E-10  0.17130000000E+03  0.17130000000E+03 0. -1.
       11    1    1    2    0    0 -0.10150417799E-02  0.46113455983E-02  0.17873461175E+00  0.17879769986E+00  0.51109989000E-03 0.  1.
     -623    1    1    2    0    0  0.13893408352E-02 -0.39836413414E-03  0.27476664507E-03  0.17130000001E+03  0.17130000000E+03 0. -1.
      622    1    1    2    0    0 -0.37429905537E-03 -0.42129814642E-02  0.38209905890E+01  0.38212022938E+01  0.40000000000E-01 0.  1.
</event>
<event>
 5   0  0.6200596E+07  0.9118800E+02  0.7818608E-02  0.1180000E+00
       11   -1    0    0    0    0  0.00000000000E+00  0.00000000000E+00  0.39999999673E+01  0.40000000000E+01  0.51109989000E-03 0.  1.
     -623   -1    0    0    0    0  0.00000000000E+00  0.00000000000E+00  0.12525980253E-10  0.17130000000E+03  0.17130000000E+03 0. -1.
       11    1    1    2    0    0  0.12182162876E-01 -0.21512877246E-01  0.22450523866E+00  0.22586295045E+00  0.51109989000E-03 0.  1.
     -623    1    1    2    0    0 -0.31474918611E-03  0.21418052081E-01  0.15896610728E-02  0.17130000135E+03  0.17130000000E+03 0. -1.
      622    1    1    2    0    0 -0.11867413690E-01  0.94825164239E-04  0.37739050676E+01  0.37741357029E+01  0.40000000000E-01 0.  1.
</event>
<event>
 5   0  0.6200596E+07  0.9118800E+02  0.7818608E-02  0.1180000E+00
       11   -1    0    0    0    0  0.00000000000E+00  0.00000000000E+00  0.39999999673E+01  0.40000000000E+01  0.51109989000E-03 0. -1.
     -623   -1    0    0    0    0  0.00000000000E+00  0.00000000000E+00  0.12525980253E-10  0.17130000000E+03  0.17130000000E+03 0. -1.
       11    1    1    2    0    0  0.24567458340E-01  0.71524860857E-02  0.64787520434E+00  0.64838048990E+00  0.51109989000E-03 0. -1.
     -623    1    1    2    0    0  0.11370822075E-02  0.87573194874E-02  0.88052331348E-03  0.17130000023E+03  0.17130000000E+03 0. -1.
      622    1    1    2    0    0 -0.25704540547E-01 -0.15909805573E-01  0.33512442397E+01  0.33516192802E+01  0.40000000000E-01 0. -1.
</event>
<event>
 5   0  0.6200596E+07  0.9118800E+02  0.7818608E-02  0.1180000E+00
       11   -1    0    0    0    0  0.00000000000E+00  0.00000000000E+00  0.39999999673E+01  0.40000000000E+01  0.51109989000E-03 0.  1.
     -623   -1    0    0    0    0  0.00000000000E+00  0.00000000000E+00  0.12525980253E-10  0.17130000000E+03  0.17130000000E+03 0. -1.
       11    1    1    2    0    0 -0.61464585321E-01  0.23615253649E-01  0.20553404733E+01  0.20563949761E+01  0.51109989000E-03 0.  1.
     -623    1    1    2    0    0  0.51015306285E-02 -0.26859882726E-02  0.23965822984E-02  0.17130000011E+03  0.17130000000E+03 0. -1.
      622    1    1    2    0    0  0.56363054692E-01 -0.20929265377E-01  0.19422629118E+01  0.19436049101E+01  0.40000000000E-01 0.  1.
</event>
<event>
 5   0  0.6200596E+07  0.9118800E+02  0.7818608E-02  0.1180000E+00
       11   -1    0    0    0    0  0.00000000000E+00  0.00000000000E+00  0.39999999673E+01  0.40000000000E+01  0.51109989000E-03 0. -1.
     -623   -1    0    0    0    0  0.00000000000E+00  0.00000000000E+00  0.12525980253E-10  0.17130000000E+03  0.17130000000E+03 0.  1.
       11    1    1    2    0    0  0.25816494417E-02 -0.53572617097E-02  0.15050636906E+00  0.15062467765E+00  0.51109989000E-03 0. -1.
     -623    1    1    2    0    0 -0.28743840934E-02 -0.52297365032E-04  0.32994431836E-03  0.17130000002E+03  0.17130000000E+03 0.  1.
      622    1    1    2    0    0  0.29273465161E-03  0.54095590748E-02  0.38491636540E+01  0.38493752979E+01  0.40000000000E-01 0. -1.
</event>
<event>
 5   0  0.6200596E+07  0.9118800E+02  0.7818608E-02  0.1180000E+00
       11   -1    0    0    0    0  0.00000000000E+00  0.00000000000E+00  0.39999999673E+01  0.40000000000E+01  0.51109989000E-03 0. -1.
     -623   -1    0    0    0    0  0.00000000000E+00  0.00000000000E+00  0.12525980253E-10  0.17130000000E+03  0.17130000000E+03 0.  1.
       11    1    1    2    0    0  0.11319822674E-02 -0.24111417040E-02  0.66584307242E-01  0.66639524153E-01  0.51109989000E-03 0. -1.
     -623    1    1    2    0    0 -0.15771722228E-04  0.72542909418E-03  0.25909931658E-03  0.17130000000E+03  0.17130000000E+03 0.  1.
      622    1    1    2    0    0 -0.11162105452E-02  0.16857126098E-02  0.39331565608E+01  0.39333604741E+01  0.40000000000E-01 0. -1.
</event>
<event>
 5   0  0.6200596E+07  0.9118800E+02  0.7818608E-02  0.1180000E+00
       11   -1    0    0    0    0  0.00000000000E+00  0.00000000000E+00  0.39999999673E+01  0.40000000000E+01  0.51109989000E-03 0.  1.
     -623   -1    0    0    0    0  0.00000000000E+00  0.00000000000E+00  0.12525980253E-10  0.17130000000E+03  0.17130000000E+03 0. -1.
       11    1    1    2    0    0 -0.48980939029E-02 -0.22776055099E-02  0.12701468812E+00  0.12713052753E+00  0.51109989000E-03 0.  1.
     -623    1    1    2    0    0  0.78926205438E-02  0.28345099963E-02  0.32378085684E-03  0.17130000021E+03  0.17130000000E+03 0. -1.
      622    1    1    2    0    0 -0.29945266409E-02 -0.55690448640E-03  0.38726614984E+01  0.38728692669E+01  0.40000000000E-01 0.  1.
</event>
<event>
 5   0  0.6200596E+07  0.9118800E+02  0.7818608E-02  0.1180000E+00
       11   -1    0    0    0    0  0.00000000000E+00  0.00000000000E+00  0.39999999673E+01  0.40000000000E+01  0.51109989000E-03 0.  1.
     -623   -1    0    0    0    0  0.00000000000E+00  0.00000000000E+00  0.12525980253E-10  0.17130000000E+03  0.17130000000E+03 0. -1.
       11    1    1    2    0    0  0.41049785419E-02 -0.58101900946E-02  0.56567585943E+00  0.56572082189E+00  0.51109989000E-03 0.  1.
     -623    1    1    2    0    0 -0.24288448513E-03 -0.78916776043E-03  0.28639838430E-03  0.17130000000E+03  0.17130000000E+03 0. -1.
      622    1    1    2    0    0 -0.38620940568E-02  0.65993578550E-02  0.34340377096E+01  0.34342791759E+01  0.40000000000E-01 0.  1.
</event>
<event>
 5   0  0.6200596E+07  0.9118800E+02  0.7818608E-02  0.1180000E+00
       11   -1    0    0    0    0  0.00000000000E+00  0.00000000000E+00  0.39999999673E+01  0.40000000000E+01  0.51109989000E-03 0. -1.
     -623   -1    0    0    0    0  0.00000000000E+00  0.00000000000E+00  0.12525980253E-10  0.17130000000E+03  0.17130000000E+03 0. -1.
       11    1    1    2    0    0  0.92203838741E-02 -0.12272714950E-01  0.54728858387E+00  0.54750405502E+00  0.51109989000E-03 0. -1.
     -623    1    1    2    0    0 -0.12388939053E-02  0.13736547472E-03  0.47772348483E-03  0.17130000001E+03  0.17130000000E+03 0. -1.
      622    1    1    2    0    0 -0.79814899688E-02  0.12135349475E-01  0.34522336600E+01  0.34524959398E+01  0.40000000000E-01 0. -1.
</event>
<event>
 5   0  0.6200596E+07  0.9118800E+02  0.7818608E-02  0.1180000E+00
       11   -1    0    0    0    0  0.00000000000E+00  0.00000000000E+00  0.39999999673E+01  0.40000000000E+01  0.51109989000E-03 0.  1.
     -623   -1    0    0    0    0  0.00000000000E+00  0.00000000000E+00  0.12525980253E-10  0.17130000000E+03  0.17130000000E+03 0.  1.
       11    1    1    2    0    0 -0.48344829610E-01 -0.36569760846E-01  0.21544514373E+01  0.21553041147E+01  0.51109989000E-03 0.  1.
     -623    1    1    2    0    0  0.28355627903E-01 -0.18721840110E-01  0.22271545557E-02  0.17130000338E+03  0.17130000000E+03 0.  1.
      622    1    1    2    0    0  0.19989201706E-01  0.55291600957E-01  0.18433213755E+01  0.18446925008E+01  0.40000000000E-01 0.  1.
</event>
<event>
 5   0  0.6200596E+07  0.9118800E+02  0.7818608E-02  0.1180000E+00
       11   -1    0    0    0    0  0.00000000000E+00  0.00000000000E+00  0.39999999673E+01  0.40000000000E+01  0.51109989000E-03 0.  1.
     -623   -1    0    0    0    0  0.00000000000E+00  0.00000000000E+00  0.12525980253E-10  0.17130000000E+03  0.17130000000E+03 0. -1.
       11    1    1    2    0    0  0.17759866861E-01 -0.21455981379E-01  0.15776120783E+01  0.15778580110E+01  0.51109989000E-03 0.  1.
     -623    1    1    2    0    0 -0.52264406709E-02 -0.20371747688E-02  0.72268769664E-03  0.17130000009E+03  0.17130000000E+03 0. -1.
      622    1    1    2    0    0 -0.12533426190E-01  0.23493156148E-01  0.24216652014E+01  0.24221418957E+01  0.40000000000E-01 0.  1.
</event>
<event>
 5   0  0.6200596E+07  0.9118800E+02  0.7818608E-02  0.1180000E+00
       11   -1    0    0    0    0  0.00000000000E+00  0.00000000000E+00  0.39999999673E+01  0.40000000000E+01  0.51109989000E-03 0. -1.
     -623   -1    0    0    0    0  0.00000000000E+00  0.00000000000E+00  0.12525980253E-10  0.17130000000E+03  0.17130000000E+03 0. -1.
       11    1    1    2    0    0  0.79279666226E-02 -0.30349511329E-01  0.82000850044E+00  0.82060840082E+00  0.51109989000E-03 0. -1.
     -623    1    1    2    0    0 -0.12279010673E-01  0.30374431102E-01  0.85761118139E-03  0.17130000314E+03  0.17130000000E+03 0. -1.
      622    1    1    2    0    0  0.43510440500E-02 -0.24919773798E-04  0.31791338557E+01  0.31793884640E+01  0.40000000000E-01 0.  0.
</event>
<event>
 5   0  0.6200596E+07  0.9118800E+02  0.7818608E-02  0.1180000E+00
       11   -1    0    0    0    0  0.00000000000E+00  0.00000000000E+00  0.39999999673E+01  0.40000000000E+01  0.51109989000E-03 0. -1.
     -623   -1    0    0    0    0  0.00000000000E+00  0.00000000000E+00  0.12525980253E-10  0.17130000000E+03  0.17130000000E+03 0. -1.
       11    1    1    2    0    0 -0.17579845033E-02  0.89769921474E-02  0.32800272050E+00  0.32813064894E+00  0.51109989000E-03 0. -1.
     -623    1    1    2    0    0  0.67032010617E-02 -0.30387759438E-02  0.35406567973E-03  0.17130000016E+03  0.17130000000E+03 0. -1.
      622    1    1    2    0    0 -0.49452165584E-02 -0.59382162036E-02  0.36716431812E+01  0.36718691926E+01  0.40000000000E-01 0. -1.
</event>
<event>
 5   0  0.6200596E+07  0.9118800E+02  0.7818608E-02  0.1180000E+00
       11   -1    0    0    0    0  0.00000000000E+00  0.00000000000E+00  0.39999999673E+01  0.40000000000E+01  0.51109989000E-03 0.  1.
     -623   -1    0    0    0    0  0.00000000000E+00  0.00000000000E+00  0.12525980253E-10  0.17130000000E+03  0.17130000000E+03 0.  1.
       11    1    1    2    0    0  0.75992729432E-02 -0.95391634357E-02  0.19482872635E+01  0.19483255034E+01  0.51109989000E-03 0.  1.
     -623    1    1    2    0    0 -0.22232135800E-01  0.19199224836E-01  0.50562874360E-03  0.17130000252E+03  0.17130000000E+03 0.  1.
      622    1    1    2    0    0  0.14632862857E-01 -0.96600614002E-02  0.20512070751E+01  0.20516719773E+01  0.40000000000E-01 0.  1.
</event>
<event>
 5   0  0.6200596E+07  0.9118800E+02  0.7818608E-02  0.1180000E+00
       11   -1    0    0    0    0  0.00000000000E+00  0.00000000000E+00  0.39999999673E+01  0.40000000000E+01  0.51109989000E-03 0.  1.
     -623   -1    0    0    0    0  0.00000000000E+00  0.00000000000E+00  0.12525980253E-10  0.17130000000E+03  0.17130000000E+03 0. -1.
       11    1    1    2    0    0 -0.62655357604E-03 -0.14360073036E-01  0.36104622863E+00  0.36133259568E+00  0.51109989000E-03 0.  1.
     -623    1    1    2    0    0 -0.21530682628E-01 -0.17605654769E-01  0.71635139375E-03  0.17130000226E+03  0.17130000000E+03 0. -1.
      622    1    1    2    0    0  0.22157236204E-01  0.31965727806E-01  0.36382373873E+01  0.36386651450E+01  0.40000000000E-01 0.  1.
</event>
<event>
 5   0  0.6200596E+07  0.9118800E+02  0.7818608E-02  0.1180000E+00
       11   -1    0    0    0    0  0.00000000000E+00  0.00000000000E+00  0.39999999673E+01  0.40000000000E+01  0.51109989000E-03 0. -1.
     -623   -1    0    0    0    0  0.00000000000E+00  0.00000000000E+00  0.12525980253E-10  0.17130000000E+03  0.17130000000E+03 0.  1.
       11    1    1    2    0    0  0.12342914382E-01  0.14750754267E-02  0.84808669707E+00  0.84817794734E+00  0.51109989000E-03 0. -1.
     -623    1    1    2    0    0 -0.17154921895E-02 -0.77468825051E-03  0.36305628711E-03  0.17130000001E+03  0.17130000000E+03 0.  1.
      622    1    1    2    0    0 -0.10627422192E-01 -0.70038717617E-03  0.31515502140E+01  0.31518220419E+01  0.40000000000E-01 0. -1.
</event>
<event>
 5   0  0.6200596E+07  0.9118800E+02  0.7818608E-02  0.1180000E+00
       11   -1    0    0    0    0  0.00000000000E+00  0.00000000000E+00  0.39999999673E+01  0.40000000000E+01  0.51109989000E-03 0. -1.
     -623   -1    0    0    0    0  0.00000000000E+00  0.00000000000E+00  0.12525980253E-10  0.17130000000E+03  0.17130000000E+03 0. -1.
       11    1    1    2    0    0  0.13254939337E-02  0.17670268654E-03  0.14976688566E-01  0.15044951953E-01  0.51109989000E-03 0. -1.
     -623    1    1    2    0    0  0.47983901409E-03  0.96394024950E-04  0.26941012250E-03  0.17130000000E+03  0.17130000000E+03 0. -1.
      622    1    1    2    0    0 -0.18053329478E-02 -0.27309671149E-03  0.39847538687E+01  0.39849550471E+01  0.40000000000E-01 0. -1.
</event>
<event>
 5   0  0.6200596E+07  0.9118800E+02  0.7818608E-02  0.1180000E+00
       11   -1    0    0    0    0  0.00000000000E+00  0.00000000000E+00  0.39999999673E+01  0.40000000000E+01  0.51109989000E-03 0.  1.
     -623   -1    0    0    0    0  0.00000000000E+00  0.00000000000E+00  0.12525980253E-10  0.17130000000E+03  0.17130000000E+03 0.  1.
       11    1    1    2    0    0 -0.37051291129E-02  0.61239185046E-02  0.98030471036E+00  0.98033097305E+00  0.51109989000E-03 0.  1.
     -623    1    1    2    0    0 -0.88902647956E-03  0.13357325620E-03  0.30115321623E-03  0.17130000000E+03  0.17130000000E+03 0.  1.
      622    1    1    2    0    0  0.45941555925E-02 -0.62574917608E-02  0.30193941038E+01  0.30196690243E+01  0.40000000000E-01 0.  1.
</event>
<event>
 5   0  0.6200596E+07  0.9118800E+02  0.7818608E-02  0.1180000E+00
       11   -1    0    0    0    0  0.00000000000E+00  0.00000000000E+00  0.39999999673E+01  0.40000000000E+01  0.51109989000E-03 0. -1.
     -623   -1    0    0    0    0  0.00000000000E+00  0.00000000000E+00  0.12525980253E-10  0.17130000000E+03  0.17130000000E+03 0. -1.
       11    1    1    2    0    0  0.61650121454E-02 -0.19188618137E-02  0.25549075999E+00  0.25557284493E+00  0.51109989000E-03 0. -1.
     -623    1    1    2    0    0 -0.24193737528E-03 -0.60351587471E-03  0.30124530652E-03  0.17130000000E+03  0.17130000000E+03 0. -1.
      622    1    1    2    0    0 -0.59230747701E-02  0.25223776884E-02  0.37442079621E+01  0.37444271536E+01  0.40000000000E-01 0. -1.
</event>
<event>
 5   0  0.6200596E+07  0.9118800E+02  0.7818608E-02  0.1180000E+00
       11   -1    0    0    0    0  0.00000000000E+00  0.00000000000E+00  0.39999999673E+01  0.40000000000E+01  0.51109989000E-03 0. -1.
     -623   -1    0    0    0    0  0.00000000000E+00  0.00000000000E+00  0.12525980253E-10  0.17130000000E+03  0.17130000000E+03 0.  1.
       11    1    1    2    0    0  0.79431720743E-02 -0.69980621766E-02  0.81333367598E+00  0.81340272717E+00  0.51109989000E-03 0. -1.
     -623    1    1    2    0    0 -0.16576230562E-02  0.79969043198E-02  0.32663109755E-03  0.17130000019E+03  0.17130000000E+03 0.  1.
      622    1    1    2    0    0 -0.62855490181E-02 -0.99884214321E-03  0.31863396603E+01  0.31865970778E+01  0.40000000000E-01 0.  1.
</event>
<event>
 5   0  0.6200596E+07  0.9118800E+02  0.7818608E-02  0.1180000E+00
       11   -1    0    0    0    0  0.00000000000E+00  0.00000000000E+00  0.39999999673E+01  0.40000000000E+01  0.51109989000E-03 0. -1.
     -623   -1    0    0    0    0  0.00000000000E+00  0.00000000000E+00  0.12525980253E-10  0.17130000000E+03  0.17130000000E+03 0. -1.
       11    1    1    2    0    0  0.80123088039E-02  0.10643081985E-01  0.87739230711E-01  0.88746301983E-01  0.51109989000E-03 0. -1.
     -623    1    1    2    0    0 -0.10376126376E-02  0.15398084645E-02  0.12367904931E-02  0.17130000001E+03  0.17130000000E+03 0. -1.
      622    1    1    2    0    0 -0.69746961663E-02 -0.12182890450E-01  0.39110239462E+01  0.39112536835E+01  0.40000000000E-01 0. -1.
</event>
<event>
 5   0  0.6200596E+07  0.9118800E+02  0.7818608E-02  0.1180000E+00
       11   -1    0    0    0    0  0.00000000000E+00  0.00000000000E+00  0.39999999673E+01  0.40000000000E+01  0.51109989000E-03 0. -1.
     -623   -1    0    0    0    0  0.00000000000E+00  0.00000000000E+00  0.12525980253E-10  0.17130000000E+03  0.17130000000E+03 0. -1.
       11    1    1    2    0    0  0.30236212735E-02 -0.53256492195E-02  0.10734857964E+00  0.10752433956E+00  0.51109989000E-03 0. -1.
     -623    1    1    2    0    0  0.53540139381E-02  0.18569243762E-02  0.39191318335E-03  0.17130000009E+03  0.17130000000E+03 0. -1.
      622    1    1    2    0    0 -0.83776352116E-02  0.34687248433E-02  0.38922594745E+01  0.38924755663E+01  0.40000000000E-01 0. -1.
</event>
<event>
 5   0  0.6200596E+07  0.9118800E+02  0.7818608E-02  0.1180000E+00
       11   -1    0    0    0    0  0.00000000000E+00  0.00000000000E+00  0.39999999673E+01  0.40000000000E+01  0.51109989000E-03 0.  1.
     -623   -1    0    0    0    0  0.00000000000E+00  0.00000000000E+00  0.12525980253E-10  0.17130000000E+03  0.17130000000E+03 0. -1.
       11    1    1    2    0    0 -0.14235520726E-02 -0.16458730093E-02  0.39300965333E+00  0.39301601015E+00  0.51109989000E-03 0.  1.
     -623    1    1    2    0    0  0.14854366831E-03  0.54531452722E-04  0.22869958669E-03  0.17130000000E+03  0.17130000000E+03 0. -1.
      622    1    1    2    0    0  0.12750084043E-02  0.15913415566E-02  0.36067616144E+01  0.36069839896E+01  0.40000000000E-01 0.  1.
</event>
<event>
 5   0  0.6200596E+07  0.9118800E+02  0.7818608E-02  0.1180000E+00
       11   -1    0    0    0    0  0.00000000000E+00  0.00000000000E+00  0.39999999673E+01  0.40000000000E+01  0.51109989000E-03 0. -1.
     -623   -1    0    0    0    0  0.00000000000E+00  0.00000000000E+00  0.12525980253E-10  0.17130000000E+03  0.17130000000E+03 0.  1.
       11    1    1    2    0    0 -0.52573716710E-02 -0.11620946299E-01  0.28905466887E+00  0.28933639447E+00  0.51109989000E-03 0. -1.
     -623    1    1    2    0    0 -0.62058216463E-02 -0.82560721177E-02  0.56855549611E-03  0.17130000031E+03  0.17130000000E+03 0.  1.
      622    1    1    2    0    0  0.11463193317E-01  0.19877018417E-01  0.37103767430E+01  0.37106632932E+01  0.40000000000E-01 0.  0.
</event>
<event>
 5   0  0.6200596E+07  0.9118800E+02  0.7818608E-02  0.1180000E+00
       11   -1    0    0    0    0  0.00000000000E+00  0.00000000000E+00  0.39999999673E+01  0.40000000000E+01  0.51109989000E-03 0.  1.
     -623   -1    0    0    0    0  0.00000000000E+00  0.00000000000E+00  0.12525980253E-10  0.17130000000E+03  0.17130000000E+03 0. -1.
       11    1    1    2    0    0  0.72853767085E-02 -0.11998423087E-02  0.35346438448E-01  0.36112993061E-01  0.51109989000E-03 0.  1.
     -623    1    1    2    0    0 -0.35487000855E-03  0.15568834152E-02  0.97443450876E-03  0.17130000001E+03  0.17130000000E+03 0. -1.
      622    1    1    2    0    0 -0.69305066999E-02 -0.35704110652E-03  0.39636790944E+01  0.39638869967E+01  0.40000000000E-01 0.  1.
</event>
<event>
 5   0  0.6200596E+07  0.9118800E+02  0.7818608E-02  0.1180000E+00
       11   -1    0    0    0    0  0.00000000000E+00  0.00000000000E+00  0.39999999673E+01  0.40000000000E+01  0.51109989000E-03 0. -1.
     -623   -1    0    0    0    0  0.00000000000E+00  0.00000000000E+00  0.12525980253E-10  0.17130000000E+03  0.17130000000E+03 0. -1.
       11    1    1    2    0    0 -0.46658600478E-02  0.39810135303E-02  0.34818716396E-01  0.35358491944E-01  0.51109989000E-03 0. -1.
     -623    1    1    2    0    0 -0.37172742024E-03 -0.11673450747E-02  0.74573682462E-03  0.17130000001E+03  0.17130000000E+03 0. -1.
      622    1    1    2    0    0  0.50375874680E-02 -0.28136684556E-02  0.39644355141E+01  0.39646415021E+01  0.40000000000E-01 0. -1.
</event>
<event>
 5   0  0.6200596E+07  0.9118800E+02  0.7818608E-02  0.1180000E+00
       11   -1    0    0    0    0  0.00000000000E+00  0.00000000000E+00  0.39999999673E+01  0.40000000000E+01  0.51109989000E-03 0. -1.
     -623   -1    0    0    0    0  0.00000000000E+00  0.00000000000E+00  0.12525980253E-10  0.17130000000E+03  0.17130000000E+03 0.  1.
       11    1    1    2    0    0 -0.18835292894E-03  0.68640316315E-03  0.17431154129E+00  0.17431374379E+00  0.51109989000E-03 0. -1.
     -623    1    1    2    0    0 -0.27822907720E-03  0.94389931989E-04  0.21139690124E-03  0.17130000000E+03  0.17130000000E+03 0.  1.
      622    1    1    2    0    0  0.46658200614E-03 -0.78079309514E-03  0.38254770292E+01  0.38256862558E+01  0.40000000000E-01 0. -1.
</event>
<event>
 5   0  0.6200596E+07  0.9118800E+02  0.7818608E-02  0.1180000E+00
       11   -1    0    0    0    0  0.00000000000E+00  0.00000000000E+00  0.39999999673E+01  0.40000000000E+01  0.51109989000E-03 0.  1.
     -623   -1    0    0    0    0  0.00000000000E+00  0.00000000000E+00  0.12525980253E-10  0.17130000000E+03  0.17130000000E+03 0. -1.
       11    1    1    2    0    0 -0.82356017923E-02  0.12163298449E-01  0.14331961570E+01  0.14332715223E+01  0.51109989000E-03 0.  1.
     -623    1    1    2    0    0 -0.10583381565E-02 -0.14516299752E-02  0.42622512176E-03  0.17130000001E+03  0.17130000000E+03 0. -1.
      622    1    1    2    0    0  0.92939399488E-02 -0.10711668474E-01  0.25663775852E+01  0.25667284677E+01  0.40000000000E-01 0.  1.
</event>
<event>
 5   0  0.6200596E+07  0.9118800E+02  0.7818608E-02  0.1180000E+00
       11   -1    0    0    0    0  0.00000000000E+00  0.00000000000E+00  0.39999999673E+01  0.40000000000E+01  0.51109989000E-03 0.  1.
     -623   -1    0    0    0    0  0.00000000000E+00  0.00000000000E+00  0.12525980253E-10  0.17130000000E+03  0.17130000000E+03 0.  1.
       11    1    1    2    0    0  0.36039520395E-02  0.38846639616E-02  0.93861492156E+00  0.93863001831E+00  0.51109989000E-03 0.  1.
     -623    1    1    2    0    0 -0.15185610290E-03 -0.87248801943E-02  0.28239188084E-03  0.17130000022E+03  0.17130000000E+03 0.  1.
      622    1    1    2    0    0 -0.34520959366E-02  0.48402162327E-02  0.30611026539E+01  0.30613697592E+01  0.40000000000E-01 0.  1.
</event>
<event>
 5   0  0.6200596E+07  0.9118800E+02  0.7818608E-02  0.1180000E+00
       11   -1    0    0    0    0  0.00000000000E+00  0.00000000000E+00  0.39999999673E+01  0.40000000000E+01  0.51109989000E-03 0.  1.
     -623   -1    0    0    0    0  0.00000000000E+00  0.00000000000E+00  0.12525980253E-10  0.17130000000E+03  0.17130000000E+03 0.  1.
       11    1    1    2    0    0  0.61662050067E-02  0.65992960678E-03  0.59954510520E-01  0.60276547211E-01  0.51109989000E-03 0.  1.
     -623    1    1    2    0    0 -0.16393341011E-01  0.69297709671E-02  0.54658077888E-03  0.17130000093E+03  0.17130000000E+03 0.  1.
      622    1    1    2    0    0  0.10227136004E-01 -0.75897005739E-02  0.39394988761E+01  0.39397225273E+01  0.40000000000E-01 0.  1.
</event>
<event>
 5   0  0.6200596E+07  0.9118800E+02  0.7818608E-02  0.1180000E+00
       11   -1    0    0    0    0  0.00000000000E+00  0.00000000000E+00  0.39999999673E+01  0.40000000000E+01  0.51109989000E-03 0. -1.
     -623   -1    0    0    0    0  0.00000000000E+00  0.00000000000E+00  0.12525980253E-10  0.17130000000E+03  0.17130000000E+03 0. -1.
       11    1    1    2    0    0 -0.18259754041E-02  0.39484069528E-02  0.51098077046E-01  0.51285463865E-01  0.51109989000E-03 0. -1.
     -623    1    1    2    0    0 -0.26727760572E-03 -0.20020824826E-03  0.39229160877E-03  0.17130000000E+03  0.17130000000E+03 0. -1.
      622    1    1    2    0    0  0.20932530098E-02 -0.37481987046E-02  0.39485095987E+01  0.39487145354E+01  0.40000000000E-01 0. -1.
</event>
<event>
 5   0  0.6200596E+07  0.9118800E+02  0.7818608E-02  0.1180000E+00
       11   -1    0    0    0    0  0.00000000000E+00  0.00000000000E+00  0.39999999673E+01  0.40000000000E+01  0.51109989000E-03 0.  1.
     -623   -1    0    0    0    0  0.00000000000E+00  0.00000000000E+00  0.12525980253E-10  0.17130000000E+03  0.17130000000E+03 0.  1.
       11    1    1    2    0    0  0.77015422964E-03  0.19670029460E-02  0.29902262952E-01  0.29981140546E-01  0.51109989000E-03 0.  1.
     -623    1    1    2    0    0  0.21072019938E-02 -0.29382708166E-02  0.28156042231E-03  0.17130000004E+03  0.17130000000E+03 0.  1.
      622    1    1    2    0    0 -0.28773562234E-02  0.97126787067E-03  0.39698161440E+01  0.39700188211E+01  0.40000000000E-01 0.  1.
</event>
<event>
 5   0  0.6200596E+07  0.9118800E+02  0.7818608E-02  0.1180000E+00
       11   -1    0    0    0    0  0.00000000000E+00  0.00000000000E+00  0.39999999673E+01  0.40000000000E+01  0.51109989000E-03 0. -1.
     -623   -1    0    0    0    0  0.00000000000E+00  0.00000000000E+00  0.12525980253E-10  0.17130000000E+03  0.17130000000E+03 0.  1.
       11    1    1    2    0    0 -0.36722041482E-02  0.30577635026E-02  0.33277818434E+00  0.33281288466E+00  0.51109989000E-03 0. -1.
     -623    1    1    2    0    0  0.18385379441E-03  0.17558998653E-02  0.25765300375E-03  0.17130000001E+03  0.17130000000E+03 0.  1.
      622    1    1    2    0    0  0.34883503538E-02 -0.48136633679E-02  0.36669641300E+01  0.36671871060E+01  0.40000000000E-01 0. -1.
</event>
<event>
 5   0  0.6200596E+07  0.9118800E+02  0.7818608E-02  0.1180000E+00
       11   -1    0    0    0    0  0.00000000000E+00  0.00000000000E+00  0.39999999673E+01  0.40000000000E+01  0.51109989000E-03 0.  1.
     -623   -1    0    0    0    0  0.00000000000E+00  0.00000000000E+00  0.12525980253E-10  0.17130000000E+03  0.17130000000E+03 0.  1.
       11    1    1    2    0    0  0.14250017258E-01  0.39187630869E-01  0.90522833914E+00  0.90618835824E+00  0.51109989000E-03 0.  1.
     -623    1    1    2    0    0 -0.21927200086E-02  0.24705995418E-03  0.14934523657E-02  0.17130000002E+03  0.17130000000E+03 0.  1.
      622    1    1    2    0    0 -0.12057297249E-01 -0.39434690824E-01  0.30932781759E+01  0.30938116210E+01  0.40000000000E-01 0.  1.
</event>
<event>
 5   0  0.6200596E+07  0.9118800E+02  0.7818608E-02  0.1180000E+00
       11   -1    0    0    0    0  0.00000000000E+00  0.00000000000E+00  0.39999999673E+01  0.40000000000E+01  0.51109989000E-03 0.  1.
     -623   -1    0    0    0    0  0.00000000000E+00  0.00000000000E+00  0.12525980253E-10  0.17130000000E+03  0.17130000000E+03 0.  1.
       11    1    1    2    0    0 -0.93505704392E-03 -0.19723425790E-02  0.42107096555E+00  0.42107693325E+00  0.51109989000E-03 0.  1.
     -623    1    1    2    0    0  0.25267260346E-04 -0.16852036774E-03  0.23022921422E-03  0.17130000000E+03  0.17130000000E+03 0.  1.
      622    1    1    2    0    0  0.90978978357E-03  0.21408629467E-02  0.35786987726E+01  0.35789230665E+01  0.40000000000E-01 0.  1.
</event>
<event>
 5   0  0.6200596E+07  0.9118800E+02  0.7818608E-02  0.1180000E+00
       11   -1    0    0    0    0  0.00000000000E+00  0.00000000000E+00  0.39999999673E+01  0.40000000000E+01  0.51109989000E-03 0.  1.
     -623   -1    0    0    0    0  0.00000000000E+00  0.00000000000E+00  0.12525980253E-10  0.17130000000E+03  0.17130000000E+03 0. -1.
       11    1    1    2    0    0  0.91390856963E-02 -0.93178941637E-02  0.58031422612E-01  0.59483218400E-01  0.51109989000E-03 0.  1.
     -623    1    1    2    0    0 -0.56843970239E-02  0.88217511175E-02  0.16566626262E-02  0.17130000033E+03  0.17130000000E+03 0. -1.
      622    1    1    2    0    0 -0.34546886725E-02  0.49614304620E-03  0.39403118821E+01  0.39405164521E+01  0.40000000000E-01 0.  1.
</event>
<event>
 5   0  0.6200596E+07  0.9118800E+02  0.7818608E-02  0.1180000E+00
       11   -1    0    0    0    0  0.00000000000E+00  0.00000000000E+00  0.39999999673E+01  0.40000000000E+01  0.51109989000E-03 0. -1.
     -623   -1    0    0    0    0  0.00000000000E+00  0.00000000000E+00  0.12525980253E-10  0.17130000000E+03  0.17130000000E+03 0.  1.
       11    1    1    2    0    0  0.23605711255E-02  0.80459432380E-02  0.19407277384E+00  0.19425450385E+00  0.51109989000E-03 0. -1.
     -623    1    1    2    0    0  0.15428795771E-02 -0.14791063207E-02  0.39959328589E-03  0.17130000001E+03  0.17130000000E+03 0.  1.
      622    1    1    2    0    0 -0.39034507026E-02 -0.65668369173E-02  0.38055276002E+01  0.38057454824E+01  0.40000000000E-01 0. -1.
</event>
<event>
 5   0  0.6200596E+07  0.9118800E+02  0.7818608E-02  0.1180000E+00
       11   -1    0    0    0    0  0.00000000000E+00  0.00000000000E+00  0.39999999673E+01  0.40000000000E+01  0.51109989000E-03 0.  1.
     -623   -1    0    0    0    0  0.00000000000E+00  0.00000000000E+00  0.12525980253E-10  0.17130000000E+03  0.17130000000E+03 0.  1.
       11    1    1    2    0    0  0.73700299034E-02 -0.12579234427E-02  0.36577348416E-01  0.37337157784E-01  0.51109989000E-03 0.  1.
     -623    1    1    2    0    0 -0.18483870380E-02  0.56040101647E-02  0.96800130210E-03  0.17130000010E+03  0.17130000000E+03 0.  1.
      622    1    1    2    0    0 -0.55216428654E-02 -0.43460867221E-02  0.39624546176E+01  0.39626627378E+01  0.40000000000E-01 0.  1.
</event>
<event>
 5   0  0.6200596E+07  0.9118800E+02  0.7818608E-02  0.1180000E+00
       11   -1    0    0    0    0  0.00000000000E+00  0.00000000000E+00  0.39999999673E+01  0.40000000000E+01  0.51109989000E-03 0.  1.
     -623   -1    0    0    0    0  0.00000000000E+00  0.00000000000E+00  0.12525980253E-10  0.17130000000E+03  0.17130000000E+03 0.  1.
       11    1    1    2    0    0  0.24905879297E-02 -0.28682669072E-01  0.23748530516E+01  0.23750276160E+01  0.51109989000E-03 0.  1.
     -623    1    1    2    0    0 -0.12184177782E-03  0.23378007347E-02  0.88230475591E-03  0.17130000002E+03  0.17130000000E+03 0.  1.
      622    1    1    2    0    0 -0.23687461519E-02  0.26344868338E-01  0.16242646110E+01  0.16249723658E+01  0.40000000000E-01 0.  0.
</event>
<event>
 5   0  0.6200596E+07  0.9118800E+02  0.7818608E-02  0.1180000E+00
       11   -1    0    0    0    0  0.00000000000E+00  0.00000000000E+00  0.39999999673E+01  0.40000000000E+01  0.51109989000E-03 0. -1.
     -623   -1    0    0    0    0  0.00000000000E+00  0.00000000000E+00  0.12525980253E-10  0.17130000000E+03  0.17130000000E+03 0.  1.
       11    1    1    2    0    0  0.25849043315E-02 -0.67724223153E-02  0.15029011491E+01  0.15029187179E+01  0.51109989000E-03 0. -1.
     -623    1    1    2    0    0  0.24305848950E-02  0.25176931470E-02  0.34662966064E-03  0.17130000004E+03  0.17130000000E+03 0.  1.
      622    1    1    2    0    0 -0.50154892265E-02  0.42547291683E-02  0.24967521886E+01  0.24970812460E+01  0.40000000000E-01 0. -1.
</event>
<event>
 5   0  0.6200596E+07  0.9118800E+02  0.7818608E-02  0.1180000E+00
       11   -1    0    0    0    0  0.00000000000E+00  0.00000000000E+00  0.39999999673E+01  0.40000000000E+01  0.51109989000E-03 0. -1.
     -623   -1    0    0    0    0  0.00000000000E+00  0.00000000000E+00  0.12525980253E-10  0.17130000000E+03  0.17130000000E+03 0.  1.
       11    1    1    2    0    0  0.46511709818E-01 -0.42381306200E-01  0.27095148302E+01  0.27102454484E+01  0.51109989000E-03 0. -1.
     -623    1    1    2    0    0 -0.19670748342E-01  0.21753044861E-01  0.17980764138E-02  0.17130000252E+03  0.17130000000E+03 0.  1.
      622    1    1    2    0    0 -0.26840961476E-01  0.20628261339E-01  0.12886870608E+01  0.12897520316E+01  0.40000000000E-01 0.  0.
</event>
<event>
 5   0  0.6200596E+07  0.9118800E+02  0.7818608E-02  0.1180000E+00
       11   -1    0    0    0    0  0.00000000000E+00  0.00000000000E+00  0.39999999673E+01  0.40000000000E+01  0.51109989000E-03 0. -1.
     -623   -1    0    0    0    0  0.00000000000E+00  0.00000000000E+00  0.12525980253E-10  0.17130000000E+03  0.17130000000E+03 0. -1.
       11    1    1    2    0    0  0.38117608621E-02  0.16412976789E-03  0.35677998686E-01  0.35885056375E-01  0.51109989000E-03 0. -1.
     -623    1    1    2    0    0 -0.11958127049E-02 -0.38414174857E-03  0.40971506775E-03  0.17130000001E+03  0.17130000000E+03 0. -1.
      622    1    1    2    0    0 -0.26159481572E-02  0.22001198068E-03  0.39639122536E+01  0.39641149385E+01  0.40000000000E-01 0. -1.
</event>
<event>
 5   0  0.6200596E+07  0.9118800E+02  0.7818608E-02  0.1180000E+00
       11   -1    0    0    0    0  0.00000000000E+00  0.00000000000E+00  0.39999999673E+01  0.40000000000E+01  0.51109989000E-03 0. -1.
     -623   -1    0    0    0    0  0.00000000000E+00  0.00000000000E+00  0.12525980253E-10  0.17130000000E+03  0.17130000000E+03 0. -1.
       11    1    1    2    0    0 -0.81818644640E-03  0.83315945635E-02  0.40015955075E-01  0.40885483712E-01  0.51109989000E-03 0. -1.
     -623    1    1    2    0    0 -0.82972354818E-04 -0.11199353887E-01  0.10730772770E-02  0.17130000037E+03  0.17130000000E+03 0. -1.
      622    1    1    2    0    0  0.90115880122E-03  0.28677593237E-02  0.39589109350E+01  0.39591141468E+01  0.40000000000E-01 0. -1.
</event>
<event>
 5   0  0.6200596E+07  0.9118800E+02  0.7818608E-02  0.1180000E+00
       11   -1    0    0    0    0  0.00000000000E+00  0.00000000000E+00  0.39999999673E+01  0.40000000000E+01  0.51109989000E-03 0.  1.
     -623   -1    0    0    0    0  0.00000000000E+00  0.00000000000E+00  0.12525980253E-10  0.17130000000E+03  0.17130000000E+03 0. -1.
       11    1    1    2    0    0  0.12881755147E-02 -0.17620352076E-03  0.11758271371E-01  0.11840971689E-01  0.51109989000E-03 0.  1.
     -623    1    1    2    0    0 -0.34356362806E-03  0.63598679667E-03  0.28340666691E-03  0.17130000000E+03  0.17130000000E+03 0. -1.
      622    1    1    2    0    0 -0.94461188661E-03 -0.45978327591E-03  0.39879582893E+01  0.39881590266E+01  0.40000000000E-01 0.  1.
</event>
<event>
 5   0  0.6200596E+07  0.9118800E+02  0.7818608E-02  0.1180000E+00
       11   -1    0    0    0    0  0.00000000000E+00  0.00000000000E+00  0.39999999673E+01  0.40000000000E+01  0.51109989000E-03 0. -1.
     -623   -1    0    0    0    0  0.00000000000E+00  0.00000000000E+00  0.12525980253E-10  0.17130000000E+03  0.17130000000E+03 0.  1.
       11    1    1    2    0    0  0.38520408303E-03 -0.10689155318E-02  0.75521712176E-02  0.76542454791E-02  0.51109989000E-03 0. -1.
     -623    1    1    2    0    0  0.63720319473E-03  0.68726350909E-03  0.30258209254E-03  0.17130000000E+03  0.17130000000E+03 0.  1.
      622    1    1    2    0    0 -0.10224072778E-02  0.38165202267E-03  0.39921452140E+01  0.39923457517E+01  0.40000000000E-01 0. -1.
</event>
<event>
 5   0  0.6200596E+07  0.9118800E+02  0.7818608E-02  0.1180000E+00
       11   -1    0    0    0    0  0.00000000000E+00  0.00000000000E+00  0.39999999673E+01  0.40000000000E+01  0.51109989000E-03 0. -1.
     -623   -1    0    0    0    0  0.00000000000E+00  0.00000000000E+00  0.12525980253E-10  0.17130000000E+03  0.17130000000E+03 0. -1.
       11    1    1    2    0    0  0.27531903572E-01 -0.22515522670E-01  0.11264169247E+01  0.11269783955E+01  0.51109989000E-03 0. -1.
     -623    1    1    2    0    0  0.29825589434E-02  0.96102282826E-04  0.10894904009E-02  0.17130000003E+03  0.17130000000E+03 0. -1.
      622    1    1    2    0    0 -0.30514462515E-01  0.22419420387E-01  0.28724935522E+01  0.28730215750E+01  0.40000000000E-01 0.  0.
</event>
<event>
 5   0  0.6200596E+07  0.9118800E+02  0.7818608E-02  0.1180000E+00
       11   -1    0    0    0    0  0.00000000000E+00  0.00000000000E+00  0.39999999673E+01  0.40000000000E+01  0.51109989000E-03 0. -1.
     -623   -1    0    0    0    0  0.00000000000E+00  0.00000000000E+00  0.12525980253E-10  0.17130000000E+03  0.17130000000E+03 0.  1.
       11    1    1    2    0    0 -0.50831231845E-02  0.13721261949E-01  0.36966769015E+00  0.36995752936E+00  0.51109989000E-03 0. -1.
     -623    1    1    2    0    0  0.39293744390E-02  0.20470545773E-02  0.54468763897E-03  0.17130000006E+03  0.17130000000E+03 0.  1.
      622    1    1    2    0    0  0.11537487455E-02 -0.15768316527E-01  0.36297875896E+01  0.36300424125E+01  0.40000000000E-01 0. -1.
</event>
<event>
 5   0  0.6200596E+07  0.9118800E+02  0.7818608E-02  0.1180000E+00
       11   -1    0    0    0    0  0.00000000000E+00  0.00000000000E+00  0.39999999673E+01  0.40000000000E+01  0.51109989000E-03 0.  1.
     -623   -1    0    0    0    0  0.00000000000E+00  0.00000000000E+00  0.12525980253E-10  0.17130000000E+03  0.17130000000E+03 0.  1.
       11    1    1    2    0    0  0.12694218703E-02  0.65116460219E-03  0.10215956835E-02  0.18276557966E-02  0.51109989000E-03 0.  1.
     -623    1    1    2    0    0 -0.37796603861E-02  0.32636864616E-02  0.10089044601E-02  0.17130000008E+03  0.17130000000E+03 0.  1.
      622    1    1    2    0    0  0.25102385157E-02 -0.39148510638E-02  0.39979694672E+01  0.39981722684E+01  0.40000000000E-01 0.  1.
</event>
<event>
 5   0  0.6200596E+07  0.9118800E+02  0.7818608E-02  0.1180000E+00
       11   -1    0    0    0    0  0.00000000000E+00  0.00000000000E+00  0.39999999673E+01  0.40000000000E+01  0.51109989000E-03 0. -1.
     -623   -1    0    0    0    0  0.00000000000E+00  0.00000000000E+00  0.12525980253E-10  0.17130000000E+03  0.17130000000E+03 0.  1.
       11    1    1    2    0    0 -0.13170467364E-02 -0.11134866855E-03  0.16571118169E-01  0.16631602133E-01  0.51109989000E-03 0. -1.
     -623    1    1    2    0    0  0.59553177207E-03  0.36181260727E-03  0.26136627868E-03  0.17130000000E+03  0.17130000000E+03 0.  1.
      622    1    1    2    0    0  0.72151496434E-03 -0.25046393872E-03  0.39831674829E+01  0.39833683962E+01  0.40000000000E-01 0. -1.
</event>
<event>
 5   0  0.6200596E+07  0.9118800E+02  0.7818608E-02  0.1180000E+00
       11   -1    0    0    0    0  0.00000000000E+00  0.00000000000E+00  0.39999999673E+01  0.40000000000E+01  0.51109989000E-03 0.  1.
     -623   -1    0    0    0    0  0.00000000000E+00  0.00000000000E+00  0.12525980253E-10  0.17130000000E+03  0.17130000000E+03 0. -1.
       11    1    1    2    0    0  0.57268832478E-02  0.26037199162E-02  0.85632428272E-01  0.85864722329E-01  0.51109989000E-03 0.  1.
     -623    1    1    2    0    0 -0.19304516997E-02 -0.13205987166E-02  0.43872225717E-03  0.17130000002E+03  0.17130000000E+03 0. -1.
      622    1    1    2    0    0 -0.37964315482E-02 -0.12831211996E-02  0.39139288168E+01  0.39141352611E+01  0.40000000000E-01 0.  1.
</event>
<event>
 5   0  0.6200596E+07  0.9118800E+02  0.7818608E-02  0.1180000E+00
       11   -1    0    0    0    0  0.00000000000E+00  0.00000000000E+00  0.39999999673E+01  0.40000000000E+01  0.51109989000E-03 0. -1.
     -623   -1    0    0    0    0  0.00000000000E+00  0.00000000000E+00  0.12525980253E-10  0.17130000000E+03  0.17130000000E+03 0. -1.
       11    1    1    2    0    0 -0.71591180664E-01 -0.70327760985E-01  0.30431123396E+00  0.32043233209E+00  0.51109989000E-03 0. -1.
     -623    1    1    2    0    0  0.15544121471E-03  0.25946132484E-01  0.17302601264E-01  0.17130000284E+03  0.17130000000E+03 0. -1.
      622    1    1    2    0    0  0.71435739450E-01  0.44381628502E-01  0.36783861321E+01  0.36795648290E+01  0.40000000000E-01 0. -1.
</event>
<event>
 5   0  0.6200596E+07  0.9118800E+02  0.7818608E-02  0.1180000E+00
       11   -1    0    0    0    0  0.00000000000E+00  0.00000000000E+00  0.39999999673E+01  0.40000000000E+01  0.51109989000E-03 0. -1.
     -623   -1    0    0    0    0  0.00000000000E+00  0.00000000000E+00  0.12525980253E-10  0.17130000000E+03  0.17130000000E+03 0.  1.
       11    1    1    2    0    0 -0.30180144374E-02  0.51944210563E-03  0.13640289161E-01  0.13989172294E-01  0.51109989000E-03 0. -1.
     -623    1    1    2    0    0  0.49602041405E-03 -0.20551999527E-02  0.55066514803E-03  0.17130000001E+03  0.17130000000E+03 0.  1.
      622    1    1    2    0    0  0.25219940233E-02  0.15357578471E-02  0.39858090131E+01  0.39860108138E+01  0.40000000000E-01 0. -1.
</event>
<event>
 5   0  0.6200596E+07  0.9118800E+02  0.7818608E-02  0.1180000E+00
       11   -1    0    0    0    0  0.00000000000E+00  0.00000000000E+00  0.39999999673E+01  0.40000000000E+01  0.51109989000E-03 0. -1.
     -623   -1    0    0    0    0  0.00000000000E+00  0.00000000000E+00  0.12525980253E-10  0.17130000000E+03  0.17130000000E+03 0.  1.
       11    1    1    2    0    0 -0.27625207279E-02  0.55230958981E-02  0.12228171457E+00  0.12243861747E+00  0.51109989000E-03 0. -1.
     -623    1    1    2    0    0 -0.17581558743E-02  0.28871633879E-02  0.37498136377E-03  0.17130000003E+03  0.17130000000E+03 0.  1.
      622    1    1    2    0    0  0.45206766022E-02 -0.84102592860E-02  0.38773432714E+01  0.38775613488E+01  0.40000000000E-01 0.  0.
</event>
<event>
 5   0  0.6200596E+07  0.9118800E+02  0.7818608E-02  0.1180000E+00
       11   -1    0    0    0    0  0.00000000000E+00  0.00000000000E+00  0.39999999673E+01  0.40000000000E+01  0.51109989000E-03 0.  1.
     -623   -1    0    0    0    0  0.00000000000E+00  0.00000000000E+00  0.12525980253E-10  0.17130000000E+03  0.17130000000E+03 0. -1.
       11    1    1    2    0    0  0.81319276232E-02 -0.95943363671E-03  0.13276958429E+00  0.13302282697E+00  0.51109989000E-03 0.  1.
     -623    1    1    2    0    0  0.35379923198E-02  0.11853915239E-02  0.47775338163E-03  0.17130000004E+03  0.17130000000E+03 0. -1.
      622    1    1    2    0    0 -0.11669919943E-01 -0.22595788718E-03  0.38667526297E+01  0.38669771317E+01  0.40000000000E-01 0.  1.
</event>
<event>
 5   0  0.6200596E+07  0.9118800E+02  0.7818608E-02  0.1180000E+00
       11   -1    0    0    0    0  0.00000000000E+00  0.00000000000E+00  0.39999999673E+01  0.40000000000E+01  0.51109989000E-03 0.  1.
     -623   -1    0    0    0    0  0.00000000000E+00  0.00000000000E+00  0.12525980253E-10  0.17130000000E+03  0.17130000000E+03 0.  1.
       11    1    1    2    0    0  0.18104502017E-01  0.69597056813E-02  0.13035206562E+01  0.13036650539E+01  0.51109989000E-03 0.  1.
     -623    1    1    2    0    0 -0.12879647497E-02  0.87459829679E-02  0.53950432780E-03  0.17130000023E+03  0.17130000000E+03 0.  1.
      622    1    1    2    0    0 -0.16816537267E-01 -0.15705688649E-01  0.26959398068E+01  0.26963347171E+01  0.40000000000E-01 0.  1.
</event>
<event>
 5   0  0.6200596E+07  0.9118800E+02  0.7818608E-02  0.1180000E+00
       11   -1    0    0    0    0  0.00000000000E+00  0.00000000000E+00  0.39999999673E+01  0.40000000000E+01  0.51109989000E-03 0. -1.
     -623   -1    0    0    0    0  0.00000000000E+00  0.00000000000E+00  0.12525980253E-10  0.17130000000E+03  0.17130000000E+03 0.  1.
       11    1    1    2    0    0 -0.60446627760E-02  0.54462246675E-03  0.84212319764E+00  0.84214522251E+00  0.51109989000E-03 0. -1.
     -623    1    1    2    0    0  0.11406346757E-01  0.30673535969E-02  0.28236442092E-03  0.17130000041E+03  0.17130000000E+03 0.  1.
      622    1    1    2    0    0 -0.53616839811E-02 -0.36119760636E-02  0.31575944053E+01  0.31578543700E+01  0.40000000000E-01 0. -1.
</event>
<event>
 5   0  0.6200596E+07  0.9118800E+02  0.7818608E-02  0.1180000E+00
       11   -1    0    0    0    0  0.00000000000E+00  0.00000000000E+00  0.39999999673E+01  0.40000000000E+01  0.51109989000E-03 0.  1.
     -623   -1    0    0    0    0  0.00000000000E+00  0.00000000000E+00  0.12525980253E-10  0.17130000000E+03  0.17130000000E+03 0.  1.
       11    1    1    2    0    0  0.96117375858E-03 -0.32201386259E-01  0.11068513571E+01  0.11073202071E+01  0.51109989000E-03 0.  1.
     -623    1    1    2    0    0  0.11702252700E-02 -0.94956797456E-03  0.93616950927E-03  0.17130000001E+03  0.17130000000E+03 0.  1.
      622    1    1    2    0    0 -0.21313990285E-02  0.33150954233E-01  0.28922124408E+01  0.28926797837E+01  0.40000000000E-01 0.  1.
</event>
<event>
 5   0  0.6200596E+07  0.9118800E+02  0.7818608E-02  0.1180000E+00
       11   -1    0    0    0    0  0.00000000000E+00  0.00000000000E+00  0.39999999673E+01  0.40000000000E+01  0.51109989000E-03 0. -1.
     -623   -1    0    0    0    0  0.00000000000E+00  0.00000000000E+00  0.12525980253E-10  0.17130000000E+03  0.17130000000E+03 0. -1.
       11    1    1    2    0    0 -0.10856186285E-01  0.82312919478E-03  0.11495151112E+01  0.11495667820E+01  0.51109989000E-03 0. -1.
     -623    1    1    2    0    0 -0.51890393953E-02 -0.29322466149E-02  0.37836011864E-03  0.17130000010E+03  0.17130000000E+03 0. -1.
      622    1    1    2    0    0  0.16045225681E-01  0.21091174201E-02  0.28501064961E+01  0.28504331138E+01  0.40000000000E-01 0.  0.
</event>
<event>
 5   0  0.6200596E+07  0.9118800E+02  0.7818608E-02  0.1180000E+00
       11   -1    0    0    0    0  0.00000000000E+00  0.00000000000E+00  0.39999999673E+01  0.40000000000E+01  0.51109989000E-03 0. -1.
     -623   -1    0    0    0    0  0.00000000000E+00  0.00000000000E+00  0.12525980253E-10  0.17130000000E+03  0.17130000000E+03 0. -1.
       11    1    1    2    0    0  0.11396432686E-02  0.17219215673E-02  0.72661396027E-01  0.72692527087E-01  0.51109989000E-03 0. -1.
     -623    1    1    2    0    0 -0.17941378636E-03 -0.38252587602E-04  0.23528417830E-03  0.17130000000E+03  0.17130000000E+03 0. -1.
      622    1    1    2    0    0 -0.96022948226E-03 -0.16836689797E-02  0.39271032872E+01  0.39273074727E+01  0.40000000000E-01 0. -1.
</event>
<event>
 5   0  0.6200596E+07  0.9118800E+02  0.7818608E-02  0.1180000E+00
       11   -1    0    0    0    0  0.00000000000E+00  0.00000000000E+00  0.39999999673E+01  0.40000000000E+01  0.51109989000E-03 0.  1.
     -623   -1    0    0    0    0  0.00000000000E+00  0.00000000000E+00  0.12525980253E-10  0.17130000000E+03  0.17130000000E+03 0.  1.
       11    1    1    2    0    0  0.62592595442E-02 -0.31193093946E-03  0.28007618411E+00  0.28014675753E+00  0.51109989000E-03 0.  1.
     -623    1    1    2    0    0 -0.10425876908E-02  0.26089644688E-02  0.28999990237E-03  0.17130000002E+03  0.17130000000E+03 0.  1.
      622    1    1    2    0    0 -0.52166718534E-02 -0.22970335294E-02  0.37196337834E+01  0.37198532192E+01  0.40000000000E-01 0.  1.
</event>
<event>
 5   0  0.6200596E+07  0.9118800E+02  0.7818608E-02  0.1180000E+00
       11   -1    0    0    0    0  0.00000000000E+00  0.00000000000E+00  0.39999999673E+01  0.40000000000E+01  0.51109989000E-03 0.  1.
     -623   -1    0    0    0    0  0.00000000000E+00  0.00000000000E+00  0.12525980253E-10  0.17130000000E+03  0.17130000000E+03 0.  1.
       11    1    1    2    0    0  0.37415645441E-02 -0.16348976783E-02  0.20845359519E-02  0.46128849909E-02  0.51109989000E-03 0.  1.
     -623    1    1    2    0    0 -0.27817844625E-02  0.43396984884E-02  0.27296825199E-02  0.17130000010E+03  0.17130000000E+03 0.  1.
      622    1    1    2    0    0 -0.95978008151E-03 -0.27048008101E-02  0.39951857489E+01  0.39953870157E+01  0.40000000000E-01 0.  1.
</event>
<event>
 5   0  0.6200596E+07  0.9118800E+02  0.7818608E-02  0.1180000E+00
       11   -1    0    0    0    0  0.00000000000E+00  0.00000000000E+00  0.39999999673E+01  0.40000000000E+01  0.51109989000E-03 0. -1.
     -623   -1    0    0    0    0  0.00000000000E+00  0.00000000000E+00  0.12525980253E-10  0.17130000000E+03  0.17130000000E+03 0.  1.
       11    1    1    2    0    0  0.50167453781E-02 -0.19074874922E-01  0.10493208318E+01  0.10495063067E+01  0.51109989000E-03 0. -1.
     -623    1    1    2    0    0 -0.91029741723E-03  0.35945281492E-03  0.51882076844E-03  0.17130000000E+03  0.17130000000E+03 0.  1.
      622    1    1    2    0    0 -0.41064479609E-02  0.18715422107E-01  0.29501603148E+01  0.29504936897E+01  0.40000000000E-01 0.  0.
</event>
<event>
 5   0  0.6200596E+07  0.9118800E+02  0.7818608E-02  0.1180000E+00
       11   -1    0    0    0    0  0.00000000000E+00  0.00000000000E+00  0.39999999673E+01  0.40000000000E+01  0.51109989000E-03 0. -1.
     -623   -1    0    0    0    0  0.00000000000E+00  0.00000000000E+00  0.12525980253E-10  0.17130000000E+03  0.17130000000E+03 0.  1.
       11    1    1    2    0    0  0.21216594900E-01  0.47321206730E-01  0.53063443179E+00  0.53316282872E+00  0.51109989000E-03 0. -1.
     -623    1    1    2    0    0 -0.27491384254E-01 -0.33997530426E-01  0.27960161784E-02  0.17130000560E+03  0.17130000000E+03 0.  1.
      622    1    1    2    0    0  0.62747893538E-02 -0.13323676304E-01  0.34665695194E+01  0.34668315688E+01  0.40000000000E-01 0. -1.
</event>
<event>
 5   0  0.6200596E+07  0.9118800E+02  0.7818608E-02  0.1180000E+00
       11   -1    0    0    0    0  0.00000000000E+00  0.00000000000E+00  0.39999999673E+01  0.40000000000E+01  0.51109989000E-03 0.  1.
     -623   -1    0    0    0    0  0.00000000000E+00  0.00000000000E+00  0.12525980253E-10  0.17130000000E+03  0.17130000000E+03 0.  1.
       11    1    1    2    0    0 -0.27570797051E-02 -0.36332021247E-02  0.48782319912E+00  0.48784478727E+00  0.51109989000E-03 0.  1.
     -623    1    1    2    0    0 -0.75961618380E-02  0.11871163498E-02  0.26562870963E-03  0.17130000017E+03  0.17130000000E+03 0.  1.
      622    1    1    2    0    0  0.10353241543E-01  0.24460857749E-02  0.35119111395E+01  0.35121550400E+01  0.40000000000E-01 0.  1.
</event>
<event>
 5   0  0.6200596E+07  0.9118800E+02  0.7818608E-02  0.1180000E+00
       11   -1    0    0    0    0  0.00000000000E+00  0.00000000000E+00  0.39999999673E+01  0.40000000000E+01  0.51109989000E-03 0.  1.
     -623   -1    0    0    0    0  0.00000000000E+00  0.00000000000E+00  0.12525980253E-10  0.17130000000E+03  0.17130000000E+03 0. -1.
       11    1    1    2    0    0  0.56609688830E-03 -0.97836128215E-03  0.73597173370E-02  0.74635324126E-02  0.51109989000E-03 0.  1.
     -623    1    1    2    0    0 -0.13106289855E-02  0.17729888195E-03  0.30431650493E-03  0.17130000001E+03  0.17130000000E+03 0. -1.
      622    1    1    2    0    0  0.74453209716E-03  0.80106240021E-03  0.39923359335E+01  0.39925364622E+01  0.40000000000E-01 0.  1.
</event>
<event>
 5   0  0.6200596E+07  0.9118800E+02  0.7818608E-02  0.1180000E+00
       11   -1    0    0    0    0  0.00000000000E+00  0.00000000000E+00  0.39999999673E+01  0.40000000000E+01  0.51109989000E-03 0. -1.
     -623   -1    0    0    0    0  0.00000000000E+00  0.00000000000E+00  0.12525980253E-10  0.17130000000E+03  0.17130000000E+03 0.  1.
       11    1    1    2    0    0 -0.89760525927E-02  0.38542950441E-02  0.12665612727E+00  0.12703330628E+00  0.51109989000E-03 0. -1.
     -623    1    1    2    0    0 -0.20969409836E-02 -0.10367156707E-01  0.60534590441E-03  0.17130000033E+03  0.17130000000E+03 0.  1.
      622    1    1    2    0    0  0.11072993576E-01  0.65128616633E-02  0.38727384942E+01  0.38729663661E+01  0.40000000000E-01 0. -1.
</event>
<event>
 5   0  0.6200596E+07  0.9118800E+02  0.7818608E-02  0.1180000E+00
       11   -1    0    0    0    0  0.00000000000E+00  0.00000000000E+00  0.39999999673E+01  0.40000000000E+01  0.51109989000E-03 0. -1.
     -623   -1    0    0    0    0  0.00000000000E+00  0.00000000000E+00  0.12525980253E-10  0.17130000000E+03  0.17130000000E+03 0. -1.
       11    1    1    2    0    0 -0.20209950160E-02 -0.32659501169E-01  0.22548340443E+01  0.22550715191E+01  0.51109989000E-03 0. -1.
     -623    1    1    2    0    0  0.30869427265E-02 -0.80348192937E-02  0.11712352702E-02  0.17130000022E+03  0.17130000000E+03 0. -1.
      622    1    1    2    0    0 -0.10659477105E-02  0.40694320463E-01  0.17439946877E+01  0.17449282607E+01  0.40000000000E-01 0.  0.
</event>
<event>
 5   0  0.6200596E+07  0.9118800E+02  0.7818608E-02  0.1180000E+00
       11   -1    0    0    0    0  0.00000000000E+00  0.00000000000E+00  0.39999999673E+01  0.40000000000E+01  0.51109989000E-03 0.  1.
     -623   -1    0    0    0    0  0.00000000000E+00  0.00000000000E+00  0.12525980253E-10  0.17130000000E+03  0.17130000000E+03 0. -1.
       11    1    1    2    0    0  0.92681884828E-03 -0.25577345676E-03  0.75745540898E-02  0.76524182659E-02  0.51109989000E-03 0.  1.
     -623    1    1    2    0    0  0.94322982427E-03  0.26854532606E-03  0.27866096914E-03  0.17130000000E+03  0.17130000000E+03 0. -1.
      622    1    1    2    0    0 -0.18700486726E-02 -0.12771869304E-04  0.39921467523E+01  0.39923475787E+01  0.40000000000E-01 0.  1.
</event>
<event>
 5   0  0.6200596E+07  0.9118800E+02  0.7818608E-02  0.1180000E+00
       11   -1    0    0    0    0  0.00000000000E+00  0.00000000000E+00  0.39999999673E+01  0.40000000000E+01  0.51109989000E-03 0. -1.
     -623   -1    0    0    0    0  0.00000000000E+00  0.00000000000E+00  0.12525980253E-10  0.17130000000E+03  0.17130000000E+03 0.  1.
       11    1    1    2    0    0 -0.24754509617E-03  0.16018562345E-02  0.14920104811E+00  0.14921072749E+00  0.51109989000E-03 0. -1.
     -623    1    1    2    0    0  0.12370547597E-02 -0.38756268403E-03  0.21772561738E-03  0.17130000001E+03  0.17130000000E+03 0.  1.
      622    1    1    2    0    0 -0.98950966356E-03 -0.12142935505E-02  0.38505811936E+01  0.38507892675E+01  0.40000000000E-01 0. -1.
</event>
<event>
 5   0  0.6200596E+07  0.9118800E+02  0.7818608E-02  0.1180000E+00
       11   -1    0    0    0    0  0.00000000000E+00  0.00000000000E+00  0.39999999673E+01  0.40000000000E+01  0.51109989000E-03 0. -1.
     -623   -1    0    0    0    0  0.00000000000E+00  0.00000000000E+00  0.12525980253E-10  0.17130000000E+03  0.17130000000E+03 0.  1.
       11    1    1    2    0    0  0.68703467844E-02  0.15309427126E-02  0.47501517618E-01  0.48022920020E-01  0.51109989000E-03 0. -1.
     -623    1    1    2    0    0  0.57286658441E-04 -0.38627663853E-03  0.73004527939E-03  0.17130000000E+03  0.17130000000E+03 0.  1.
      622    1    1    2    0    0 -0.69276334428E-02 -0.11446660741E-02  0.39517684045E+01  0.39519770780E+01  0.40000000000E-01 0. -1.
</event>
<event>
 5   0  0.6200596E+07  0.9118800E+02  0.7818608E-02  0.1180000E+00
       11   -1    0    0    0    0  0.00000000000E+00  0.00000000000E+00  0.39999999673E+01  0.40000000000E+01  0.51109989000E-03 0.  1.
     -623   -1    0    0    0    0  0.00000000000E+00  0.00000000000E+00  0.12525980253E-10  0.17130000000E+03  0.17130000000E+03 0.  1.
       11    1    1    2    0    0  0.11238265116E-02  0.28151885490E-02  0.34452538507E-01  0.34589404513E-01  0.51109989000E-03 0.  1.
     -623    1    1    2    0    0  0.20574597429E-02 -0.32981444904E-02  0.33993308496E-03  0.17130000004E+03  0.17130000000E+03 0.  1.
      622    1    1    2    0    0 -0.31812862545E-02  0.48295594142E-03  0.39652074958E+01  0.39654105510E+01  0.40000000000E-01 0.  1.
</event>
<event>
 5   0  0.6200596E+07  0.9118800E+02  0.7818608E-02  0.1180000E+00
       11   -1    0    0    0    0  0.00000000000E+00  0.00000000000E+00  0.39999999673E+01  0.40000000000E+01  0.51109989000E-03 0. -1.
     -623   -1    0    0    0    0  0.00000000000E+00  0.00000000000E+00  0.12525980253E-10  0.17130000000E+03  0.17130000000E+03 0. -1.
       11    1    1    2    0    0 -0.51040571928E-01 -0.41407208551E-01  0.14100247556E+01  0.14115557976E+01  0.51109989000E-03 0. -1.
     -623    1    1    2    0    0  0.36720835423E-01  0.39132792030E-02  0.21553063691E-02  0.17130000399E+03  0.17130000000E+03 0. -1.
      622    1    1    2    0    0  0.14319736505E-01  0.37493929348E-01  0.25878199053E+01  0.25884402083E+01  0.40000000000E-01 0. -1.
</event>
<event>
 5   0  0.6200596E+07  0.9118800E+02  0.7818608E-02  0.1180000E+00
       11   -1    0    0    0    0  0.00000000000E+00  0.00000000000E+00  0.39999999673E+01  0.40000000000E+01  0.51109989000E-03 0. -1.
     -623   -1    0    0    0    0  0.00000000000E+00  0.00000000000E+00  0.12525980253E-10  0.17130000000E+03  0.17130000000E+03 0.  1.
       11    1    1    2    0    0 -0.69177019699E-03 -0.41977454692E-03  0.42853244531E-02  0.43908979015E-02  0.51109989000E-03 0. -1.
     -623    1    1    2    0    0  0.43287393445E-03 -0.14279821284E-03  0.30581448513E-03  0.17130000000E+03  0.17130000000E+03 0.  1.
      622    1    1    2    0    0  0.25889626254E-03  0.56257275976E-03  0.39954088284E+01  0.39956091012E+01  0.40000000000E-01 0. -1.
</event>
<event>
 5   0  0.6200596E+07  0.9118800E+02  0.7818608E-02  0.1180000E+00
       11   -1    0    0    0    0  0.00000000000E+00  0.00000000000E+00  0.39999999673E+01  0.40000000000E+01  0.51109989000E-03 0.  1.
     -623   -1    0    0    0    0  0.00000000000E+00  0.00000000000E+00  0.12525980253E-10  0.17130000000E+03  0.17130000000E+03 0. -1.
       11    1    1    2    0    0  0.87590644863E-02 -0.21776978735E-02  0.32651142540E+00  0.32663654988E+00  0.51109989000E-03 0.  1.
     -623    1    1    2    0    0 -0.54993900823E-02  0.50782536305E-02  0.34563786836E-03  0.17130000016E+03  0.17130000000E+03 0. -1.
      622    1    1    2    0    0 -0.32596744040E-02 -0.29005557570E-02  0.36731429041E+01  0.36733632862E+01  0.40000000000E-01 0.  1.
</event>
<event>
 5   0  0.6200596E+07  0.9118800E+02  0.7818608E-02  0.1180000E+00
       11   -1    0    0    0    0  0.00000000000E+00  0.00000000000E+00  0.39999999673E+01  0.40000000000E+01  0.51109989000E-03 0.  1.
     -623   -1    0    0    0    0  0.00000000000E+00  0.00000000000E+00  0.12525980253E-10  0.17130000000E+03  0.17130000000E+03 0. -1.
       11    1    1    2    0    0 -0.41050821418E-01 -0.21946949005E-01  0.20268310123E+01  0.20273655448E+01  0.51109989000E-03 0.  1.
     -623    1    1    2    0    0  0.84307833186E-02 -0.21117134113E-02  0.13568654479E-02  0.17130000023E+03  0.17130000000E+03 0. -1.
      622    1    1    2    0    0  0.32620038100E-01  0.24058662416E-01  0.19718120896E+01  0.19726342294E+01  0.40000000000E-01 0.  1.
</event>
<event>
 5   0  0.6200596E+07  0.9118800E+02  0.7818608E-02  0.1180000E+00
       11   -1    0    0    0    0  0.00000000000E+00  0.00000000000E+00  0.39999999673E+01  0.40000000000E+01  0.51109989000E-03 0. -1.
     -623   -1    0    0    0    0  0.00000000000E+00  0.00000000000E+00  0.12525980253E-10  0.17130000000E+03  0.17130000000E+03 0. -1.
       11    1    1    2    0    0  0.61294360186E-02  0.22222509276E-02  0.47247626078E+00  0.47252151973E+00  0.51109989000E-03 0. -1.
     -623    1    1    2    0    0 -0.53272215544E-03 -0.21431469410E-02  0.27648001589E-03  0.17130000001E+03  0.17130000000E+03 0. -1.
      622    1    1    2    0    0 -0.55967138632E-02 -0.79103986573E-04  0.35272472266E+01  0.35274784658E+01  0.40000000000E-01 0. -1.
</event>
<event>
 5   0  0.6200596E+07  0.9118800E+02  0.7818608E-02  0.1180000E+00
       11   -1    0    0    0    0  0.00000000000E+00  0.00000000000E+00  0.39999999673E+01  0.40000000000E+01  0.51109989000E-03 0. -1.
     -623   -1    0    0    0    0  0.00000000000E+00  0.00000000000E+00  0.12525980253E-10  0.17130000000E+03  0.17130000000E+03 0.  1.
       11    1    1    2    0    0 -0.40080059861E-01  0.12787772380E-01  0.11708986693E+01  0.11716543404E+01  0.51109989000E-03 0. -1.
     -623    1    1    2    0    0  0.37766675456E-01  0.17270678779E-01  0.12042332364E-02  0.17130000504E+03  0.17130000000E+03 0.  1.
      622    1    1    2    0    0  0.23133844051E-02 -0.30058451158E-01  0.28278970648E+01  0.28283406215E+01  0.40000000000E-01 0. -1.
</event>
<event>
 5   0  0.6200596E+07  0.9118800E+02  0.7818608E-02  0.1180000E+00
       11   -1    0    0    0    0  0.00000000000E+00  0.00000000000E+00  0.39999999673E+01  0.40000000000E+01  0.51109989000E-03 0. -1.
     -623   -1    0    0    0    0  0.00000000000E+00  0.00000000000E+00  0.12525980253E-10  0.17130000000E+03  0.17130000000E+03 0. -1.
       11    1    1    2    0    0  0.21303864256E-02 -0.15966610132E-02  0.52903740344E-02  0.59445058802E-02  0.51109989000E-03 0. -1.
     -623    1    1    2    0    0 -0.15689044942E-02  0.41587907937E-02  0.85532299679E-03  0.17130000006E+03  0.17130000000E+03 0. -1.
      622    1    1    2    0    0 -0.56148193145E-03 -0.25621297805E-02  0.39938542703E+01  0.39940554343E+01  0.40000000000E-01 0. -1.
</event>
<event>
 5   0  0.6200596E+07  0.9118800E+02  0.7818608E-02  0.1180000E+00
       11   -1    0    0    0    0  0.00000000000E+00  0.00000000000E+00  0.39999999673E+01  0.40000000000E+01  0.51109989000E-03 0. -1.
     -623   -1    0    0    0    0  0.00000000000E+00  0.00000000000E+00  0.12525980253E-10  0.17130000000E+03  0.17130000000E+03 0. -1.
       11    1    1    2    0    0 -0.14155727934E-01  0.28367866508E-01  0.51426266412E-01  0.60415582273E-01  0.51109989000E-03 0. -1.
     -623    1    1    2    0    0  0.19808746439E-02 -0.30303874305E-01  0.92145847376E-02  0.17130000294E+03  0.17130000000E+03 0. -1.
      622    1    1    2    0    0  0.12174853290E-01  0.19360077967E-02  0.39393591162E+01  0.39395814780E+01  0.40000000000E-01 0. -1.
</event>
<event>
 5   0  0.6200596E+07  0.9118800E+02  0.7818608E-02  0.1180000E+00
       11   -1    0    0    0    0  0.00000000000E+00  0.00000000000E+00  0.39999999673E+01  0.40000000000E+01  0.51109989000E-03 0.  1.
     -623   -1    0    0    0    0  0.00000000000E+00  0.00000000000E+00  0.12525980253E-10  0.17130000000E+03  0.17130000000E+03 0.  1.
       11    1    1    2    0    0 -0.90344652124E-04  0.12569621986E-02  0.27062970520E-01  0.27097116300E-01  0.51109989000E-03 0.  1.
     -623    1    1    2    0    0 -0.10992642662E-03  0.51319600096E-03  0.23588272811E-03  0.17130000000E+03  0.17130000000E+03 0.  1.
      622    1    1    2    0    0  0.20027107875E-03 -0.17701581995E-02  0.39727011141E+01  0.39729028827E+01  0.40000000000E-01 0.  1.
</event>
<event>
 5   0  0.6200596E+07  0.9118800E+02  0.7818608E-02  0.1180000E+00
       11   -1    0    0    0    0  0.00000000000E+00  0.00000000000E+00  0.39999999673E+01  0.40000000000E+01  0.51109989000E-03 0.  1.
     -623   -1    0    0    0    0  0.00000000000E+00  0.00000000000E+00  0.12525980253E-10  0.17130000000E+03  0.17130000000E+03 0.  1.
       11    1    1    2    0    0 -0.61332595304E-02  0.69876223412E-02  0.23764294588E+00  0.23782530287E+00  0.51109989000E-03 0.  1.
     -623    1    1    2    0    0 -0.13529283238E-02 -0.11532940516E-01  0.40556196183E-03  0.17130000039E+03  0.17130000000E+03 0.  1.
      622    1    1    2    0    0  0.74861878543E-02  0.45453181745E-02  0.37619514595E+01  0.37621743031E+01  0.40000000000E-01 0.  1.
</event>
<event>
 5   0  0.6200596E+07  0.9118800E+02  0.7818608E-02  0.1180000E+00
       11   -1    0    0    0    0  0.00000000000E+00  0.00000000000E+00  0.39999999673E+01  0.40000000000E+01  0.51109989000E-03 0.  1.
     -623   -1    0    0    0    0  0.00000000000E+00  0.00000000000E+00  0.12525980253E-10  0.17130000000E+03  0.17130000000E+03 0. -1.
       11    1    1    2    0    0  0.49488688667E-02  0.56076798021E-02  0.47235620318E-01  0.47826796095E-01  0.51109989000E-03 0.  1.
     -623    1    1    2    0    0  0.17228078553E-03 -0.42704447248E-02  0.79716812999E-03  0.17130000006E+03  0.17130000000E+03 0. -1.
      622    1    1    2    0    0 -0.51211496523E-02 -0.13372350773E-02  0.39519671789E+01  0.39521731487E+01  0.40000000000E-01 0.  1.
</event>
<event>
 5   0  0.6200596E+07  0.9118800E+02  0.7818608E-02  0.1180000E+00
       11   -1    0    0    0    0  0.00000000000E+00  0.00000000000E+00  0.39999999673E+01  0.40000000000E+01  0.51109989000E-03 0. -1.
     -623   -1    0    0    0    0  0.00000000000E+00  0.00000000000E+00  0.12525980253E-10  0.17130000000E+03  0.17130000000E+03 0. -1.
       11    1    1    2    0    0  0.52404928242E-03  0.35330399095E-03  0.47018434406E-02  0.47715828855E-02  0.51109989000E-03 0. -1.
     -623    1    1    2    0    0 -0.18797155342E-03  0.25147655819E-03  0.27001110062E-03  0.17130000000E+03  0.17130000000E+03 0. -1.
      622    1    1    2    0    0 -0.33607772900E-03 -0.60478054914E-03  0.39950281128E+01  0.39952284166E+01  0.40000000000E-01 0. -1.
</event>
<event>
 5   0  0.6200596E+07  0.9118800E+02  0.7818608E-02  0.1180000E+00
       11   -1    0    0    0    0  0.00000000000E+00  0.00000000000E+00  0.39999999673E+01  0.40000000000E+01  0.51109989000E-03 0. -1.
     -623   -1    0    0    0    0  0.00000000000E+00  0.00000000000E+00  0.12525980253E-10  0.17130000000E+03  0.17130000000E+03 0. -1.
       11    1    1    2    0    0 -0.20396986007E-02  0.91421732629E-03  0.22550726334E-01  0.22666994593E-01  0.51109989000E-03 0. -1.
     -623    1    1    2    0    0 -0.36403630965E-03  0.14645440298E-02  0.31882523483E-03  0.17130000001E+03  0.17130000000E+03 0. -1.
      622    1    1    2    0    0  0.24037349104E-02 -0.23787613561E-02  0.39771304158E+01  0.39773329985E+01  0.40000000000E-01 0. -1.
</event>
<event>
 5   0  0.6200596E+07  0.9118800E+02  0.7818608E-02  0.1180000E+00
       11   -1    0    0    0    0  0.00000000000E+00  0.00000000000E+00  0.39999999673E+01  0.40000000000E+01  0.51109989000E-03 0. -1.
     -623   -1    0    0    0    0  0.00000000000E+00  0.00000000000E+00  0.12525980253E-10  0.17130000000E+03  0.17130000000E+03 0. -1.
       11    1    1    2    0    0  0.21330632977E-02  0.50493468229E-02  0.15132677398E+00  0.15142687874E+00  0.51109989000E-03 0. -1.
     -623    1    1    2    0    0  0.14316821258E-02 -0.28536391295E-02  0.31025442450E-03  0.17130000003E+03  0.17130000000E+03 0. -1.
      622    1    1    2    0    0 -0.35647454235E-02 -0.21957076934E-02  0.38483629390E+01  0.38485730912E+01  0.40000000000E-01 0. -1.
</event>
<event>
 5   0  0.6200596E+07  0.9118800E+02  0.7818608E-02  0.1180000E+00
       11   -1    0    0    0    0  0.00000000000E+00  0.00000000000E+00  0.39999999673E+01  0.40000000000E+01  0.51109989000E-03 0. -1.
     -623   -1    0    0    0    0  0.00000000000E+00  0.00000000000E+00  0.12525980253E-10  0.17130000000E+03  0.17130000000E+03 0. -1.
       11    1    1    2    0    0  0.38115853891E-03 -0.84795117432E-03  0.84766759849E+00  0.84766826238E+00  0.51109989000E-03 0. -1.
     -623    1    1    2    0    0  0.26868890511E-02  0.18602981964E-03  0.25600586272E-03  0.17130000002E+03  0.17130000000E+03 0. -1.
      622    1    1    2    0    0 -0.30680475900E-02  0.66192135468E-03  0.31520763630E+01  0.31523317163E+01  0.40000000000E-01 0. -1.
</event>
<event>
 5   0  0.6200596E+07  0.9118800E+02  0.7818608E-02  0.1180000E+00
       11   -1    0    0    0    0  0.00000000000E+00  0.00000000000E+00  0.39999999673E+01  0.40000000000E+01  0.51109989000E-03 0. -1.
     -623   -1    0    0    0    0  0.00000000000E+00  0.00000000000E+00  0.12525980253E-10  0.17130000000E+03  0.17130000000E+03 0.  1.
       11    1    1    2    0    0 -0.11168563219E-01  0.77261299550E-02  0.13517794977E+01  0.13518478100E+01  0.51109989000E-03 0. -1.
     -623    1    1    2    0    0 -0.36169993527E-03  0.38840913504E-02  0.42099859004E-03  0.17130000004E+03  0.17130000000E+03 0.  1.
      622    1    1    2    0    0  0.11530263154E-01 -0.11610221305E-01  0.26477994711E+01  0.26481521450E+01  0.40000000000E-01 0. -1.
</event>
<event>
 5   0  0.6200596E+07  0.9118800E+02  0.7818608E-02  0.1180000E+00
       11   -1    0    0    0    0  0.00000000000E+00  0.00000000000E+00  0.39999999673E+01  0.40000000000E+01  0.51109989000E-03 0. -1.
     -623   -1    0    0    0    0  0.00000000000E+00  0.00000000000E+00  0.12525980253E-10  0.17130000000E+03  0.17130000000E+03 0. -1.
       11    1    1    2    0    0 -0.73433426258E-02 -0.86699998730E-02  0.43493478971E+00  0.43508347027E+00  0.51109989000E-03 0. -1.
     -623    1    1    2    0    0  0.67047837432E-02  0.74148678237E-02  0.37363444461E-03  0.17130000029E+03  0.17130000000E+03 0. -1.
      622    1    1    2    0    0  0.63855888259E-03  0.12551320493E-02  0.35646915432E+01  0.35649162376E+01  0.40000000000E-01 0. -1.
</event>
<event>
 5   0  0.6200596E+07  0.9118800E+02  0.7818608E-02  0.1180000E+00
       11   -1    0    0    0    0  0.00000000000E+00  0.00000000000E+00  0.39999999673E+01  0.40000000000E+01  0.51109989000E-03 0. -1.
     -623   -1    0    0    0    0  0.00000000000E+00  0.00000000000E+00  0.12525980253E-10  0.17130000000E+03  0.17130000000E+03 0. -1.
       11    1    1    2    0    0 -0.15465691246E-02 -0.54680505517E-03  0.28268698205E-02  0.33080638192E-02  0.51109989000E-03 0. -1.
     -623    1    1    2    0    0  0.18630955655E-02  0.13604956851E-02  0.68144417115E-03  0.17130000002E+03  0.17130000000E+03 0. -1.
      622    1    1    2    0    0 -0.31652644093E-03 -0.81369062996E-03  0.39964916534E+01  0.39966919193E+01  0.40000000000E-01 0. -1.
</event>
<event>
 5   0  0.6200596E+07  0.9118800E+02  0.7818608E-02  0.1180000E+00
       11   -1    0    0    0    0  0.00000000000E+00  0.00000000000E+00  0.39999999673E+01  0.40000000000E+01  0.51109989000E-03 0. -1.
     -623   -1    0    0    0    0  0.00000000000E+00  0.00000000000E+00  0.12525980253E-10  0.17130000000E+03  0.17130000000E+03 0.  1.
       11    1    1    2    0    0 -0.15666377416E-02 -0.37098724995E-02  0.39920657385E-01  0.40126520086E-01  0.51109989000E-03 0. -1.
     -623    1    1    2    0    0 -0.70122758448E-02  0.50822651908E-02  0.41761256955E-03  0.17130000022E+03  0.17130000000E+03 0.  1.
      622    1    1    2    0    0  0.85789135864E-02 -0.13723926913E-02  0.39596616974E+01  0.39598732605E+01  0.40000000000E-01 0. -1.
</event>
<event>
 5   0  0.6200596E+07  0.9118800E+02  0.7818608E-02  0.1180000E+00
       11   -1    0    0    0    0  0.00000000000E+00  0.00000000000E+00  0.39999999673E+01  0.40000000000E+01  0.51109989000E-03 0.  1.
     -623   -1    0    0    0    0  0.00000000000E+00  0.00000000000E+00  0.12525980253E-10  0.17130000000E+03  0.17130000000E+03 0. -1.
       11    1    1    2    0    0 -0.89166616581E-02 -0.16194745218E-01  0.97584448203E+00  0.97601971853E+00  0.51109989000E-03 0.  1.
     -623    1    1    2    0    0 -0.62638276947E-02  0.20904675303E-02  0.51089800800E-03  0.17130000013E+03  0.17130000000E+03 0. -1.
      622    1    1    2    0    0  0.15180489353E-01  0.14104277687E-01  0.30236445873E+01  0.30239801534E+01  0.40000000000E-01 0.  1.
</event>
<event>
 5   0  0.6200596E+07  0.9118800E+02  0.7818608E-02  0.1180000E+00
       11   -1    0    0    0    0  0.00000000000E+00  0.00000000000E+00  0.39999999673E+01  0.40000000000E+01  0.51109989000E-03 0.  1.
     -623   -1    0    0    0    0  0.00000000000E+00  0.00000000000E+00  0.12525980253E-10  0.17130000000E+03  0.17130000000E+03 0.  1.
       11    1    1    2    0    0  0.44409888573E-02  0.16673300374E-02  0.21078393530E+01  0.21078447528E+01  0.51109989000E-03 0.  1.
     -623    1    1    2    0    0 -0.49767878071E-01 -0.22426896805E-01  0.10939667844E-02  0.17130000870E+03  0.17130000000E+03 0.  1.
      622    1    1    2    0    0  0.45326889213E-01  0.20759566768E-01  0.18910666476E+01  0.18921465461E+01  0.40000000000E-01 0.  0.
</event>
<event>
 5   0  0.6200596E+07  0.9118800E+02  0.7818608E-02  0.1180000E+00
       11   -1    0    0    0    0  0.00000000000E+00  0.00000000000E+00  0.39999999673E+01  0.40000000000E+01  0.51109989000E-03 0. -1.
     -623   -1    0    0    0    0  0.00000000000E+00  0.00000000000E+00  0.12525980253E-10  0.17130000000E+03  0.17130000000E+03 0.  1.
       11    1    1    2    0    0 -0.10177039784E-01  0.13691437872E-01  0.33374045601E+00  0.33417657130E+00  0.51109989000E-03 0. -1.
     -623    1    1    2    0    0  0.15437001600E-01 -0.24498088697E-01  0.67647359460E-03  0.17130000245E+03  0.17130000000E+03 0.  1.
      622    1    1    2    0    0 -0.52599618158E-02  0.10806650825E-01  0.36655830378E+01  0.36658209800E+01  0.40000000000E-01 0. -1.
</event>
<event>
 5   0  0.6200596E+07  0.9118800E+02  0.7818608E-02  0.1180000E+00
       11   -1    0    0    0    0  0.00000000000E+00  0.00000000000E+00  0.39999999673E+01  0.40000000000E+01  0.51109989000E-03 0.  1.
     -623   -1    0    0    0    0  0.00000000000E+00  0.00000000000E+00  0.12525980253E-10  0.17130000000E+03  0.17130000000E+03 0. -1.
       11    1    1    2    0    0  0.39529992847E-02  0.18852138889E-02  0.43961151598E-01  0.44181719146E-01  0.51109989000E-03 0.  1.
     -623    1    1    2    0    0 -0.13531207051E-02  0.18035339444E-02  0.42536354812E-03  0.17130000002E+03  0.17130000000E+03 0. -1.
      622    1    1    2    0    0 -0.25998785796E-02 -0.36887478333E-02  0.39556134522E+01  0.39558182655E+01  0.40000000000E-01 0.  1.
</event>
<event>
 5   0  0.6200596E+07  0.9118800E+02  0.7818608E-02  0.1180000E+00
       11   -1    0    0    0    0  0.00000000000E+00  0.00000000000E+00  0.39999999673E+01  0.40000000000E+01  0.51109989000E-03 0. -1.
     -623   -1    0    0    0    0  0.00000000000E+00  0.00000000000E+00  0.12525980253E-10  0.17130000000E+03  0.17130000000E+03 0.  1.
       11    1    1    2    0    0  0.32498988986E-02 -0.12278695996E-01  0.46892441916E+00  0.46909668548E+00  0.51109989000E-03 0. -1.
     -623    1    1    2    0    0  0.50320719246E-02  0.34039743392E-02  0.41978752585E-03  0.17130000011E+03  0.17130000000E+03 0.  1.
      622    1    1    2    0    0 -0.82819708232E-02  0.88747216564E-02  0.35306557607E+01  0.35309032063E+01  0.40000000000E-01 0. -1.
</event>
<event>
 5   0  0.6200596E+07  0.9118800E+02  0.7818608E-02  0.1180000E+00
       11   -1    0    0    0    0  0.00000000000E+00  0.00000000000E+00  0.39999999673E+01  0.40000000000E+01  0.51109989000E-03 0.  1.
     -623   -1    0    0    0    0  0.00000000000E+00  0.00000000000E+00  0.12525980253E-10  0.17130000000E+03  0.17130000000E+03 0.  1.
       11    1    1    2    0    0 -0.26917994407E-03 -0.36159023702E-03  0.73612567894E-02  0.73927347509E-02  0.51109989000E-03 0.  1.
     -623    1    1    2    0    0 -0.87593090283E-03 -0.42106722270E-03  0.23206452137E-03  0.17130000000E+03  0.17130000000E+03 0.  1.
      622    1    1    2    0    0  0.11451108469E-02  0.78265745972E-03  0.39924066460E+01  0.39926072623E+01  0.40000000000E-01 0.  1.
</event>
<event>
 5   0  0.6200596E+07  0.9118800E+02  0.7818608E-02  0.1180000E+00
       11   -1    0    0    0    0  0.00000000000E+00  0.00000000000E+00  0.39999999673E+01  0.40000000000E+01  0.51109989000E-03 0. -1.
     -623   -1    0    0    0    0  0.00000000000E+00  0.00000000000E+00  0.12525980253E-10  0.17130000000E+03  0.17130000000E+03 0. -1.
       11    1    1    2    0    0  0.10761557635E-02  0.17698435790E-02  0.28151439897E+00  0.28152248313E+00  0.51109989000E-03 0. -1.
     -623    1    1    2    0    0  0.15181437087E-02 -0.24170992993E-02  0.22418486711E-03  0.17130000002E+03  0.17130000000E+03 0. -1.
      622    1    1    2    0    0 -0.25942994721E-02  0.64725572028E-03  0.37182613835E+01  0.37184774929E+01  0.40000000000E-01 0. -1.
</event>
<event>
 5   0  0.6200596E+07  0.9118800E+02  0.7818608E-02  0.1180000E+00
       11   -1    0    0    0    0  0.00000000000E+00  0.00000000000E+00  0.39999999673E+01  0.40000000000E+01  0.51109989000E-03 0.  1.
     -623   -1    0    0    0    0  0.00000000000E+00  0.00000000000E+00  0.12525980253E-10  0.17130000000E+03  0.17130000000E+03 0. -1.
       11    1    1    2    0    0  0.86166986958E-03  0.29051935820E-02  0.36556628237E-01  0.36685568200E-01  0.51109989000E-03 0.  1.
     -623    1    1    2    0    0  0.21675021112E-02 -0.17004818066E-02  0.33212696224E-03  0.17130000002E+03  0.17130000000E+03 0. -1.
      622    1    1    2    0    0 -0.30291719808E-02 -0.12047117754E-02  0.39631112122E+01  0.39633144093E+01  0.40000000000E-01 0.  1.
</event>
<event>
 5   0  0.6200596E+07  0.9118800E+02  0.7818608E-02  0.1180000E+00
       11   -1    0    0    0    0  0.00000000000E+00  0.00000000000E+00  0.39999999673E+01  0.40000000000E+01  0.51109989000E-03 0. -1.
     -623   -1    0    0    0    0  0.00000000000E+00  0.00000000000E+00  0.12525980253E-10  0.17130000000E+03  0.17130000000E+03 0.  1.
       11    1    1    2    0    0  0.13730266730E-03  0.66638851516E-02  0.21233811038E+00  0.21244331140E+00  0.51109989000E-03 0. -1.
     -623    1    1    2    0    0  0.98726979294E-03  0.18206972572E-02  0.32607580876E-03  0.17130000001E+03  0.17130000000E+03 0.  1.
      622    1    1    2    0    0 -0.11245724602E-02 -0.84845824088E-02  0.37873357812E+01  0.37875566758E+01  0.40000000000E-01 0. -1.
</event>
<event>
 5   0  0.6200596E+07  0.9118800E+02  0.7818608E-02  0.1180000E+00
       11   -1    0    0    0    0  0.00000000000E+00  0.00000000000E+00  0.39999999673E+01  0.40000000000E+01  0.51109989000E-03 0.  1.
     -623   -1    0    0    0    0  0.00000000000E+00  0.00000000000E+00  0.12525980253E-10  0.17130000000E+03  0.17130000000E+03 0.  1.
       11    1    1    2    0    0  0.25486955306E-01 -0.11547090638E-01  0.12085259266E+01  0.12088499066E+01  0.51109989000E-03 0.  1.
     -623    1    1    2    0    0 -0.35086070200E-01  0.15221445307E-01  0.63378020107E-03  0.17130000427E+03  0.17130000000E+03 0.  1.
      622    1    1    2    0    0  0.95991148943E-02 -0.36743546693E-02  0.27908402605E+01  0.27911458227E+01  0.40000000000E-01 0.  1.
</event>
<event>
 5   0  0.6200596E+07  0.9118800E+02  0.7818608E-02  0.1180000E+00
       11   -1    0    0    0    0  0.00000000000E+00  0.00000000000E+00  0.39999999673E+01  0.40000000000E+01  0.51109989000E-03 0.  1.
     -623   -1    0    0    0    0  0.00000000000E+00  0.00000000000E+00  0.12525980253E-10  0.17130000000E+03  0.17130000000E+03 0.  1.
       11    1    1    2    0    0 -0.83194416880E-03 -0.28346655507E-02  0.27599837401E+00  0.27601465746E+00  0.51109989000E-03 0.  1.
     -623    1    1    2    0    0  0.83535547723E-03 -0.15101433666E-03  0.23227983602E-03  0.17130000000E+03  0.17130000000E+03 0.  1.
      622    1    1    2    0    0 -0.34113084347E-05  0.29856798873E-02  0.37237693135E+01  0.37239853403E+01  0.40000000000E-01 0.  1.
</event>
<event>
 5   0  0.6200596E+07  0.9118800E+02  0.7818608E-02  0.1180000E+00
       11   -1    0    0    0    0  0.00000000000E+00  0.00000000000E+00  0.39999999673E+01  0.40000000000E+01  0.51109989000E-03 0.  1.
     -623   -1    0    0    0    0  0.00000000000E+00  0.00000000000E+00  0.12525980253E-10  0.17130000000E+03  0.17130000000E+03 0. -1.
       11    1    1    2    0    0 -0.13654331921E-01 -0.10941410056E-01  0.37898766240E-01  0.41746052954E-01  0.51109989000E-03 0.  1.
     -623    1    1    2    0    0  0.45065505018E-02  0.45087612490E-02  0.40653337338E-02  0.17130000017E+03  0.17130000000E+03 0. -1.
      622    1    1    2    0    0  0.91477814192E-02  0.64326488072E-02  0.39580358674E+01  0.39582537802E+01  0.40000000000E-01 0.  1.
</event>
<event>
 5   0  0.6200596E+07  0.9118800E+02  0.7818608E-02  0.1180000E+00
       11   -1    0    0    0    0  0.00000000000E+00  0.00000000000E+00  0.39999999673E+01  0.40000000000E+01  0.51109989000E-03 0. -1.
     -623   -1    0    0    0    0  0.00000000000E+00  0.00000000000E+00  0.12525980253E-10  0.17130000000E+03  0.17130000000E+03 0.  1.
       11    1    1    2    0    0 -0.42846623546E-02  0.57496707333E-02  0.18394440223E+00  0.18408482115E+00  0.51109989000E-03 0. -1.
     -623    1    1    2    0    0 -0.62752948375E-04 -0.20064077063E-03  0.35655228638E-03  0.17130000000E+03  0.17130000000E+03 0.  1.
      622    1    1    2    0    0  0.43474153030E-02 -0.55490299626E-02  0.38156990128E+01  0.38159151783E+01  0.40000000000E-01 0. -1.
</event>
<event>
 5   0  0.6200596E+07  0.9118800E+02  0.7818608E-02  0.1180000E+00
       11   -1    0    0    0    0  0.00000000000E+00  0.00000000000E+00  0.39999999673E+01  0.40000000000E+01  0.51109989000E-03 0. -1.
     -623   -1    0    0    0    0  0.00000000000E+00  0.00000000000E+00  0.12525980253E-10  0.17130000000E+03  0.17130000000E+03 0.  1.
       11    1    1    2    0    0  0.13055935833E-01 -0.25288576622E-02  0.79611565571E-01  0.80716263397E-01  0.51109989000E-03 0. -1.
     -623    1    1    2    0    0 -0.97777359386E-03 -0.60751239088E-03  0.13286652604E-02  0.17130000001E+03  0.17130000000E+03 0.  1.
      622    1    1    2    0    0 -0.12078162239E-01  0.31363700531E-02  0.39190597365E+01  0.39192837276E+01  0.40000000000E-01 0. -1.
</event>
<event>
 5   0  0.6200596E+07  0.9118800E+02  0.7818608E-02  0.1180000E+00
       11   -1    0    0    0    0  0.00000000000E+00  0.00000000000E+00  0.39999999673E+01  0.40000000000E+01  0.51109989000E-03 0.  1.
     -623   -1    0    0    0    0  0.00000000000E+00  0.00000000000E+00  0.12525980253E-10  0.17130000000E+03  0.17130000000E+03 0. -1.
       11    1    1    2    0    0  0.78035400385E-03 -0.39340386603E-03  0.14018434307E+00  0.14018799871E+00  0.51109989000E-03 0.  1.
     -623    1    1    2    0    0  0.21574457805E-02 -0.11986695945E-02  0.21235689798E-03  0.17130000002E+03  0.17130000000E+03 0. -1.
      622    1    1    2    0    0 -0.29377997844E-02  0.15920734605E-02  0.38596032674E+01  0.38598119834E+01  0.40000000000E-01 0.  1.
</event>
<event>
 5   0  0.6200596E+07  0.9118800E+02  0.7818608E-02  0.1180000E+00
       11   -1    0    0    0    0  0.00000000000E+00  0.00000000000E+00  0.39999999673E+01  0.40000000000E+01  0.51109989000E-03 0.  1.
     -623   -1    0    0    0    0  0.00000000000E+00  0.00000000000E+00  0.12525980253E-10  0.17130000000E+03  0.17130000000E+03 0. -1.
       11    1    1    2    0    0  0.30051818871E-02  0.44313960176E-02  0.10668078100E+00  0.10681628455E+00  0.51109989000E-03 0.  1.
     -623    1    1    2    0    0  0.60864335870E-02 -0.39648969037E-02  0.35176225341E-03  0.17130000015E+03  0.17130000000E+03 0. -1.
      622    1    1    2    0    0 -0.90916154741E-02 -0.46649911388E-03  0.38929674241E+01  0.38931835611E+01  0.40000000000E-01 0.  1.
</event>
<event>
 5   0  0.6200596E+07  0.9118800E+02  0.7818608E-02  0.1180000E+00
       11   -1    0    0    0    0  0.00000000000E+00  0.00000000000E+00  0.39999999673E+01  0.40000000000E+01  0.51109989000E-03 0. -1.
     -623   -1    0    0    0    0  0.00000000000E+00  0.00000000000E+00  0.12525980253E-10  0.17130000000E+03  0.17130000000E+03 0. -1.
       11    1    1    2    0    0 -0.21381740622E-03 -0.11130246389E-04  0.25823626225E+00  0.25823685679E+00  0.51109989000E-03 0. -1.
     -623    1    1    2    0    0  0.29360218460E-03  0.53066531670E-03  0.21440908395E-03  0.17130000000E+03  0.17130000000E+03 0. -1.
      622    1    1    2    0    0 -0.79784778377E-04 -0.51953507032E-03  0.37415492960E+01  0.37417631420E+01  0.40000000000E-01 0. -1.
</event>
<event>
 5   0  0.6200596E+07  0.9118800E+02  0.7818608E-02  0.1180000E+00
       11   -1    0    0    0    0  0.00000000000E+00  0.00000000000E+00  0.39999999673E+01  0.40000000000E+01  0.51109989000E-03 0. -1.
     -623   -1    0    0    0    0  0.00000000000E+00  0.00000000000E+00  0.12525980253E-10  0.17130000000E+03  0.17130000000E+03 0.  1.
       11    1    1    2    0    0 -0.20064717524E-02  0.29041074057E-02  0.82534694685E-01  0.82611723236E-01  0.51109989000E-03 0. -1.
     -623    1    1    2    0    0 -0.25156644564E-03 -0.12402019975E-02  0.28222804133E-03  0.17130000000E+03  0.17130000000E+03 0.  1.
      622    1    1    2    0    0  0.22580381980E-02 -0.16639054082E-02  0.39171830446E+01  0.39173882719E+01  0.40000000000E-01 0. -1.
</event>
<event>
 5   0  0.6200596E+07  0.9118800E+02  0.7818608E-02  0.1180000E+00
       11   -1    0    0    0    0  0.00000000000E+00  0.00000000000E+00  0.39999999673E+01  0.40000000000E+01  0.51109989000E-03 0.  1.
     -623   -1    0    0    0    0  0.00000000000E+00  0.00000000000E+00  0.12525980253E-10  0.17130000000E+03  0.17130000000E+03 0.  1.
       11    1    1    2    0    0 -0.63421060131E-02  0.12616586528E-01  0.72574897382E+00  0.72588651647E+00  0.51109989000E-03 0.  1.
     -623    1    1    2    0    0  0.34644148729E-01 -0.68892315746E-02  0.51284846139E-03  0.17130000364E+03  0.17130000000E+03 0.  1.
      622    1    1    2    0    0 -0.28302042716E-01 -0.57273549532E-02  0.32737381451E+01  0.32741098410E+01  0.40000000000E-01 0.  1.
</event>
<event>
 5   0  0.6200596E+07  0.9118800E+02  0.7818608E-02  0.1180000E+00
       11   -1    0    0    0    0  0.00000000000E+00  0.00000000000E+00  0.39999999673E+01  0.40000000000E+01  0.51109989000E-03 0.  1.
     -623   -1    0    0    0    0  0.00000000000E+00  0.00000000000E+00  0.12525980253E-10  0.17130000000E+03  0.17130000000E+03 0.  1.
       11    1    1    2    0    0 -0.53221600599E-02 -0.15610125816E-02  0.67849127463E-02  0.87782919695E-02  0.51109989000E-03 0.  1.
     -623    1    1    2    0    0  0.64151676694E-02 -0.17267846749E-03  0.21944519953E-02  0.17130000013E+03  0.17130000000E+03 0.  1.
      622    1    1    2    0    0 -0.10930076094E-02  0.17336910491E-02  0.39910206026E+01  0.39912215738E+01  0.40000000000E-01 0.  1.
</event>
<event>
 5   0  0.6200596E+07  0.9118800E+02  0.7818608E-02  0.1180000E+00
       11   -1    0    0    0    0  0.00000000000E+00  0.00000000000E+00  0.39999999673E+01  0.40000000000E+01  0.51109989000E-03 0.  1.
     -623   -1    0    0    0    0  0.00000000000E+00  0.00000000000E+00  0.12525980253E-10  0.17130000000E+03  0.17130000000E+03 0. -1.
       11    1    1    2    0    0  0.24435718212E-01  0.11040328447E-01  0.27516864304E+01  0.27518171207E+01  0.51109989000E-03 0.  1.
     -623    1    1    2    0    0  0.89175811771E-03  0.56360848343E-02  0.11404656949E-02  0.17130000010E+03  0.17130000000E+03 0. -1.
      622    1    1    2    0    0 -0.25327476330E-01 -0.16676413282E-01  0.12471730713E+01  0.12481827805E+01  0.40000000000E-01 0.  1.
</event>
<event>
 5   0  0.6200596E+07  0.9118800E+02  0.7818608E-02  0.1180000E+00
       11   -1    0    0    0    0  0.00000000000E+00  0.00000000000E+00  0.39999999673E+01  0.40000000000E+01  0.51109989000E-03 0. -1.
     -623   -1    0    0    0    0  0.00000000000E+00  0.00000000000E+00  0.12525980253E-10  0.17130000000E+03  0.17130000000E+03 0.  1.
       11    1    1    2    0    0 -0.18797414116E-02  0.52777508150E-02  0.69417213725E+00  0.69419493331E+00  0.51109989000E-03 0. -1.
     -623    1    1    2    0    0  0.14588206597E-01 -0.26979136418E-01  0.36318388767E-03  0.17130000275E+03  0.17130000000E+03 0.  1.
      622    1    1    2    0    0 -0.12708465185E-01  0.21701385603E-01  0.33054646462E+01  0.33058023206E+01  0.40000000000E-01 0. -1.
</event>
<event>
 5   0  0.6200596E+07  0.9118800E+02  0.7818608E-02  0.1180000E+00
       11   -1    0    0    0    0  0.00000000000E+00  0.00000000000E+00  0.39999999673E+01  0.40000000000E+01  0.51109989000E-03 0. -1.
     -623   -1    0    0    0    0  0.00000000000E+00  0.00000000000E+00  0.12525980253E-10  0.17130000000E+03  0.17130000000E+03 0.  1.
       11    1    1    2    0    0 -0.75483300648E-03 -0.11998846641E-02  0.17267129139E-01  0.17332757055E-01  0.51109989000E-03 0. -1.
     -623    1    1    2    0    0 -0.57991033027E-02 -0.11419539323E-01  0.29233667774E-03  0.17130000048E+03  0.17130000000E+03 0.  1.
      622    1    1    2    0    0  0.65539363092E-02  0.12619423987E-01  0.39824405015E+01  0.39826667639E+01  0.40000000000E-01 0. -1.
</event>
<event>
 5   0  0.6200596E+07  0.9118800E+02  0.7818608E-02  0.1180000E+00
       11   -1    0    0    0    0  0.00000000000E+00  0.00000000000E+00  0.39999999673E+01  0.40000000000E+01  0.51109989000E-03 0.  1.
     -623   -1    0    0    0    0  0.00000000000E+00  0.00000000000E+00  0.12525980253E-10  0.17130000000E+03  0.17130000000E+03 0.  1.
       11    1    1    2    0    0  0.39187703697E-01 -0.18667429213E-02  0.29384356763E+01  0.29386976105E+01  0.51109989000E-03 0.  1.
     -623    1    1    2    0    0 -0.39855302040E-02  0.13801411178E-01  0.16681466650E-02  0.17130000061E+03  0.17130000000E+03 0.  1.
      622    1    1    2    0    0 -0.35202173494E-01 -0.11934668257E-01  0.10598961444E+01  0.10613017791E+01  0.40000000000E-01 0.  1.
</event>
<event>
 5   0  0.6200596E+07  0.9118800E+02  0.7818608E-02  0.1180000E+00
       11   -1    0    0    0    0  0.00000000000E+00  0.00000000000E+00  0.39999999673E+01  0.40000000000E+01  0.51109989000E-03 0.  1.
     -623   -1    0    0    0    0  0.00000000000E+00  0.00000000000E+00  0.12525980253E-10  0.17130000000E+03  0.17130000000E+03 0. -1.
       11    1    1    2    0    0  0.40755343191E-01 -0.13108210848E-01  0.70490958058E+00  0.70620861026E+00  0.51109989000E-03 0.  1.
     -623    1    1    2    0    0 -0.40509156317E-01  0.18992569427E-01  0.15530031717E-02  0.17130000585E+03  0.17130000000E+03 0. -1.
      622    1    1    2    0    0 -0.24618687393E-03 -0.58843585788E-02  0.32935373836E+01  0.32937855400E+01  0.40000000000E-01 0.  1.
</event>
<event>
 5   0  0.6200596E+07  0.9118800E+02  0.7818608E-02  0.1180000E+00
       11   -1    0    0    0    0  0.00000000000E+00  0.00000000000E+00  0.39999999673E+01  0.40000000000E+01  0.51109989000E-03 0.  1.
     -623   -1    0    0    0    0  0.00000000000E+00  0.00000000000E+00  0.12525980253E-10  0.17130000000E+03  0.17130000000E+03 0. -1.
       11    1    1    2    0    0  0.50583951054E-02  0.82650355340E-02  0.68538974026E+00  0.68545842722E+00  0.51109989000E-03 0.  1.
     -623    1    1    2    0    0 -0.52919367820E-03 -0.10385561627E-03  0.32316779049E-03  0.17130000000E+03  0.17130000000E+03 0. -1.
      622    1    1    2    0    0 -0.45292014272E-02 -0.81611799178E-02  0.33142870593E+01  0.33145415716E+01  0.40000000000E-01 0.  1.
</event>
<event>
 5   0  0.6200596E+07  0.9118800E+02  0.7818608E-02  0.1180000E+00
       11   -1    0    0    0    0  0.00000000000E+00  0.00000000000E+00  0.39999999673E+01  0.40000000000E+01  0.51109989000E-03 0. -1.
     -623   -1    0    0    0    0  0.00000000000E+00  0.00000000000E+00  0.12525980253E-10  0.17130000000E+03  0.17130000000E+03 0.  1.
       11    1    1    2    0    0  0.24644217800E-03 -0.18880888882E-02  0.45883389778E-02  0.49939653621E-02  0.51109989000E-03 0. -1.
     -623    1    1    2    0    0 -0.18563688088E-02  0.19787276326E-02  0.60619676693E-03  0.17130000002E+03  0.17130000000E+03 0.  1.
      622    1    1    2    0    0  0.16099266308E-02 -0.90638744354E-04  0.39948054316E+01  0.39950060121E+01  0.40000000000E-01 0. -1.
</event>
<event>
 5   0  0.6200596E+07  0.9118800E+02  0.7818608E-02  0.1180000E+00
       11   -1    0    0    0    0  0.00000000000E+00  0.00000000000E+00  0.39999999673E+01  0.40000000000E+01  0.51109989000E-03 0. -1.
     -623   -1    0    0    0    0  0.00000000000E+00  0.00000000000E+00  0.12525980253E-10  0.17130000000E+03  0.17130000000E+03 0. -1.
       11    1    1    2    0    0 -0.21882413486E-02 -0.38861641700E-02  0.35523888168E-01  0.35806403383E-01  0.51109989000E-03 0. -1.
     -623    1    1    2    0    0  0.65945919023E-02  0.45827293774E-02  0.48699338131E-03  0.17130000019E+03  0.17130000000E+03 0. -1.
      622    1    1    2    0    0 -0.44063505537E-02 -0.69656520737E-03  0.39639890858E+01  0.39641934077E+01  0.40000000000E-01 0. -1.
</event>
<event>
 5   0  0.6200596E+07  0.9118800E+02  0.7818608E-02  0.1180000E+00
       11   -1    0    0    0    0  0.00000000000E+00  0.00000000000E+00  0.39999999673E+01  0.40000000000E+01  0.51109989000E-03 0.  1.
     -623   -1    0    0    0    0  0.00000000000E+00  0.00000000000E+00  0.12525980253E-10  0.17130000000E+03  0.17130000000E+03 0. -1.
       11    1    1    2    0    0  0.30926597000E-01  0.16871644465E-01  0.46490720994E+00  0.46624036919E+00  0.51109989000E-03 0.  1.
     -623    1    1    2    0    0 -0.49724626133E-01 -0.41019439827E-01  0.17041756004E-02  0.17130001214E+03  0.17130000000E+03 0. -1.
      622    1    1    2    0    0  0.18798029133E-01  0.24147795362E-01  0.35333885818E+01  0.35337474941E+01  0.40000000000E-01 0.  1.
</event>
<event>
 5   0  0.6200596E+07  0.9118800E+02  0.7818608E-02  0.1180000E+00
       11   -1    0    0    0    0  0.00000000000E+00  0.00000000000E+00  0.39999999673E+01  0.40000000000E+01  0.51109989000E-03 0.  1.
     -623   -1    0    0    0    0  0.00000000000E+00  0.00000000000E+00  0.12525980253E-10  0.17130000000E+03  0.17130000000E+03 0. -1.
       11    1    1    2    0    0 -0.14386301553E-02  0.64307374369E-02  0.95262385315E-01  0.95491399182E-01  0.51109989000E-03 0.  1.
     -623    1    1    2    0    0  0.21616420944E-02 -0.17026249213E-02  0.43683042076E-03  0.17130000002E+03  0.17130000000E+03 0. -1.
      622    1    1    2    0    0 -0.72301193910E-03 -0.47281125156E-02  0.39043007516E+01  0.39045085782E+01  0.40000000000E-01 0.  1.
</event>
<event>
 5   0  0.6200596E+07  0.9118800E+02  0.7818608E-02  0.1180000E+00
       11   -1    0    0    0    0  0.00000000000E+00  0.00000000000E+00  0.39999999673E+01  0.40000000000E+01  0.51109989000E-03 0. -1.
     -623   -1    0    0    0    0  0.00000000000E+00  0.00000000000E+00  0.12525980253E-10  0.17130000000E+03  0.17130000000E+03 0. -1.
       11    1    1    2    0    0 -0.80613296728E-03  0.13369901082E-02  0.29208607931E-01  0.29254766992E-01  0.51109989000E-03 0. -1.
     -623    1    1    2    0    0  0.12475780644E-02  0.31483790338E-03  0.24797819722E-03  0.17130000001E+03  0.17130000000E+03 0. -1.
      622    1    1    2    0    0 -0.44144509716E-03 -0.16518280115E-02  0.39705433812E+01  0.39707452280E+01  0.40000000000E-01 0. -1.
</event>
<event>
 5   0  0.6200596E+07  0.9118800E+02  0.7818608E-02  0.1180000E+00
       11   -1    0    0    0    0  0.00000000000E+00  0.00000000000E+00  0.39999999673E+01  0.40000000000E+01  0.51109989000E-03 0.  1.
     -623   -1    0    0    0    0  0.00000000000E+00  0.00000000000E+00  0.12525980253E-10  0.17130000000E+03  0.17130000000E+03 0.  1.
       11    1    1    2    0    0 -0.10680283899E-02  0.10182269723E-02  0.11224923095E-01  0.11333030948E-01  0.51109989000E-03 0.  1.
     -623    1    1    2    0    0 -0.74955655363E-03 -0.12552536591E-02  0.30907622485E-03  0.17130000001E+03  0.17130000000E+03 0.  1.
      622    1    1    2    0    0  0.18175849436E-02  0.23702668675E-03  0.39884659680E+01  0.39886669625E+01  0.40000000000E-01 0.  1.
</event>
<event>
 5   0  0.6200596E+07  0.9118800E+02  0.7818608E-02  0.1180000E+00
       11   -1    0    0    0    0  0.00000000000E+00  0.00000000000E+00  0.39999999673E+01  0.40000000000E+01  0.51109989000E-03 0. -1.
     -623   -1    0    0    0    0  0.00000000000E+00  0.00000000000E+00  0.12525980253E-10  0.17130000000E+03  0.17130000000E+03 0.  1.
       11    1    1    2    0    0  0.25091816952E-02  0.10022860248E-03  0.38374901390E-01  0.38460373344E-01  0.51109989000E-03 0. -1.
     -623    1    1    2    0    0 -0.18222795414E-02 -0.32306387171E-02  0.28872299509E-03  0.17130000004E+03  0.17130000000E+03 0.  1.
      622    1    1    2    0    0 -0.68690215374E-03  0.31304101146E-02  0.39613363430E+01  0.39615395863E+01  0.40000000000E-01 0. -1.
</event>
<event>
 5   0  0.6200596E+07  0.9118800E+02  0.7818608E-02  0.1180000E+00
       11   -1    0    0    0    0  0.00000000000E+00  0.00000000000E+00  0.39999999673E+01  0.40000000000E+01  0.51109989000E-03 0. -1.
     -623   -1    0    0    0    0  0.00000000000E+00  0.00000000000E+00  0.12525980253E-10  0.17130000000E+03  0.17130000000E+03 0. -1.
       11    1    1    2    0    0 -0.22383407682E-02  0.15348310140E-01  0.75842202933E+00  0.75858079108E+00  0.51109989000E-03 0. -1.
     -623    1    1    2    0    0  0.27456597174E-02  0.37764429457E-02  0.46207186777E-03  0.17130000006E+03  0.17130000000E+03 0. -1.
      622    1    1    2    0    0 -0.50731894923E-03 -0.19124753086E-01  0.32411158662E+01  0.32414191447E+01  0.40000000000E-01 0. -1.
</event>
<event>
 5   0  0.6200596E+07  0.9118800E+02  0.7818608E-02  0.1180000E+00
       11   -1    0    0    0    0  0.00000000000E+00  0.00000000000E+00  0.39999999673E+01  0.40000000000E+01  0.51109989000E-03 0. -1.
     -623   -1    0    0    0    0  0.00000000000E+00  0.00000000000E+00  0.12525980253E-10  0.17130000000E+03  0.17130000000E+03 0.  1.
       11    1    1    2    0    0 -0.73690717979E-02  0.92622021895E-02  0.17846063903E+01  0.17846457131E+01  0.51109989000E-03 0. -1.
     -623    1    1    2    0    0 -0.84620252281E-03  0.77607116839E-03  0.43842187459E-03  0.17130000000E+03  0.17130000000E+03 0.  1.
      622    1    1    2    0    0  0.82152743207E-02 -0.10038273358E-01  0.22149551552E+01  0.22153542825E+01  0.40000000000E-01 0.  0.
</event>
<event>
 5   0  0.6200596E+07  0.9118800E+02  0.7818608E-02  0.1180000E+00
       11   -1    0    0    0    0  0.00000000000E+00  0.00000000000E+00  0.39999999673E+01  0.40000000000E+01  0.51109989000E-03 0. -1.
     -623   -1    0    0    0    0  0.00000000000E+00  0.00000000000E+00  0.12525980253E-10  0.17130000000E+03  0.17130000000E+03 0. -1.
       11    1    1    2    0    0  0.57458585163E-02  0.76054824031E-03  0.82272137136E+00  0.82274194584E+00  0.51109989000E-03 0. -1.
     -623    1    1    2    0    0 -0.11358853340E-01 -0.55305275901E-02  0.28134664129E-03  0.17130000047E+03  0.17130000000E+03 0. -1.
      622    1    1    2    0    0  0.56129948238E-02  0.47699793498E-02  0.31769972494E+01  0.31772575880E+01  0.40000000000E-01 0. -1.
</event>
<event>
 5   0  0.6200596E+07  0.9118800E+02  0.7818608E-02  0.1180000E+00
       11   -1    0    0    0    0  0.00000000000E+00  0.00000000000E+00  0.39999999673E+01  0.40000000000E+01  0.51109989000E-03 0.  1.
     -623   -1    0    0    0    0  0.00000000000E+00  0.00000000000E+00  0.12525980253E-10  0.17130000000E+03  0.17130000000E+03 0.  1.
       11    1    1    2    0    0 -0.13133667307E-02 -0.48679014330E-03  0.14282902342E-01  0.14360515937E-01  0.51109989000E-03 0.  1.
     -623    1    1    2    0    0 -0.41625903608E-03 -0.21453819645E-02  0.27956531430E-03  0.17130000001E+03  0.17130000000E+03 0.  1.
      622    1    1    2    0    0  0.17296257667E-02  0.26321721078E-02  0.39854374997E+01  0.39856394699E+01  0.40000000000E-01 0.  1.
</event>
<event>
 5   0  0.6200596E+07  0.9118800E+02  0.7818608E-02  0.1180000E+00
       11   -1    0    0    0    0  0.00000000000E+00  0.00000000000E+00  0.39999999673E+01  0.40000000000E+01  0.51109989000E-03 0.  1.
     -623   -1    0    0    0    0  0.00000000000E+00  0.00000000000E+00  0.12525980253E-10  0.17130000000E+03  0.17130000000E+03 0. -1.
       11    1    1    2    0    0  0.18396448379E-01 -0.10448265099E-01  0.53740977836E+00  0.53782629784E+00  0.51109989000E-03 0.  1.
     -623    1    1    2    0    0 -0.82035914450E-02 -0.13726158450E-02  0.68295329478E-03  0.17130000020E+03  0.17130000000E+03 0. -1.
      622    1    1    2    0    0 -0.10192856934E-01  0.11820880944E-01  0.34619072357E+01  0.34621734989E+01  0.40000000000E-01 0.  1.
</event>
<event>
 5   0  0.6200596E+07  0.9118800E+02  0.7818608E-02  0.1180000E+00
       11   -1    0    0    0    0  0.00000000000E+00  0.00000000000E+00  0.39999999673E+01  0.40000000000E+01  0.51109989000E-03 0.  1.
     -623   -1    0    0    0    0  0.00000000000E+00  0.00000000000E+00  0.12525980253E-10  0.17130000000E+03  0.17130000000E+03 0. -1.
       11    1    1    2    0    0  0.82715722891E-02 -0.98131036921E-02  0.83094885800E+00  0.83104812240E+00  0.51109989000E-03 0.  1.
     -623    1    1    2    0    0  0.93051108670E-03  0.72228094085E-02  0.36626687656E-03  0.17130000016E+03  0.17130000000E+03 0. -1.
      622    1    1    2    0    0 -0.92020833758E-02  0.25902942836E-02  0.31686848425E+01  0.31689517224E+01  0.40000000000E-01 0.  1.
</event>
<event>
 5   0  0.6200596E+07  0.9118800E+02  0.7818608E-02  0.1180000E+00
       11   -1    0    0    0    0  0.00000000000E+00  0.00000000000E+00  0.39999999673E+01  0.40000000000E+01  0.51109989000E-03 0.  1.
     -623   -1    0    0    0    0  0.00000000000E+00  0.00000000000E+00  0.12525980253E-10  0.17130000000E+03  0.17130000000E+03 0.  1.
       11    1    1    2    0    0 -0.16368853999E-02 -0.17944510215E-02  0.95356043440E-01  0.95388341483E-01  0.51109989000E-03 0.  1.
     -623    1    1    2    0    0 -0.62813447984E-03 -0.44066687110E-03  0.23845534395E-03  0.17130000000E+03  0.17130000000E+03 0.  1.
      622    1    1    2    0    0  0.22650198798E-02  0.22351178926E-02  0.39044054686E+01  0.39046116566E+01  0.40000000000E-01 0.  1.
</event>
<event>
 5   0  0.6200596E+07  0.9118800E+02  0.7818608E-02  0.1180000E+00
       11   -1    0    0    0    0  0.00000000000E+00  0.00000000000E+00  0.39999999673E+01  0.40000000000E+01  0.51109989000E-03 0. -1.
     -623   -1    0    0    0    0  0.00000000000E+00  0.00000000000E+00  0.12525980253E-10  0.17130000000E+03  0.17130000000E+03 0.  1.
       11    1    1    2    0    0  0.10022363601E-02  0.10932348028E-02  0.12949264872E+01  0.12949274374E+01  0.51109989000E-03 0. -1.
     -623    1    1    2    0    0 -0.16527971781E-03  0.14083243569E-02  0.29796682779E-03  0.17130000001E+03  0.17130000000E+03 0.  1.
      622    1    1    2    0    0 -0.83695664234E-03 -0.25015591597E-02  0.27047755133E+01  0.27050725564E+01  0.40000000000E-01 0.  0.
</event>
<event>
 5   0  0.6200596E+07  0.9118800E+02  0.7818608E-02  0.1180000E+00
       11   -1    0    0    0    0  0.00000000000E+00  0.00000000000E+00  0.39999999673E+01  0.40000000000E+01  0.51109989000E-03 0.  1.
     -623   -1    0    0    0    0  0.00000000000E+00  0.00000000000E+00  0.12525980253E-10  0.17130000000E+03  0.17130000000E+03 0.  1.
       11    1    1    2    0    0 -0.11205498798E-01 -0.29531719953E-02  0.52465347176E-01  0.53732283626E-01  0.51109989000E-03 0.  1.
     -623    1    1    2    0    0  0.14933256131E-01  0.32973524949E-02  0.14720969932E-02  0.17130000069E+03  0.17130000000E+03 0.  1.
      622    1    1    2    0    0 -0.37277573332E-02 -0.34418049957E-03  0.39460625232E+01  0.39462670274E+01  0.40000000000E-01 0.  1.
</event>
<event>
 5   0  0.6200596E+07  0.9118800E+02  0.7818608E-02  0.1180000E+00
       11   -1    0    0    0    0  0.00000000000E+00  0.00000000000E+00  0.39999999673E+01  0.40000000000E+01  0.51109989000E-03 0. -1.
     -623   -1    0    0    0    0  0.00000000000E+00  0.00000000000E+00  0.12525980253E-10  0.17130000000E+03  0.17130000000E+03 0. -1.
       11    1    1    2    0    0 -0.10053178053E-02 -0.10416748902E-02  0.28810656478E-02  0.32645842658E-02  0.51109989000E-03 0. -1.
     -623    1    1    2    0    0  0.27551600560E-02  0.17794199071E-02  0.58413791709E-03  0.17130000003E+03  0.17130000000E+03 0. -1.
      622    1    1    2    0    0 -0.17498422507E-02 -0.73774501689E-03  0.39965347638E+01  0.39967353833E+01  0.40000000000E-01 0. -1.
</event>
<event>
 5   0  0.6200596E+07  0.9118800E+02  0.7818608E-02  0.1180000E+00
       11   -1    0    0    0    0  0.00000000000E+00  0.00000000000E+00  0.39999999673E+01  0.40000000000E+01  0.51109989000E-03 0. -1.
     -623   -1    0    0    0    0  0.00000000000E+00  0.00000000000E+00  0.12525980253E-10  0.17130000000E+03  0.17130000000E+03 0.  1.
       11    1    1    2    0    0  0.70544384899E-02  0.13038486721E-01  0.10727875101E+00  0.10829939463E+00  0.51109989000E-03 0. -1.
     -623    1    1    2    0    0 -0.23744781721E-03  0.14619625165E-02  0.12591798424E-02  0.17130000001E+03  0.17130000000E+03 0.  1.
      622    1    1    2    0    0 -0.68169906727E-02 -0.14500449238E-01  0.38914620365E+01  0.38917005943E+01  0.40000000000E-01 0. -1.
</event>
<event>
 5   0  0.6200596E+07  0.9118800E+02  0.7818608E-02  0.1180000E+00
       11   -1    0    0    0    0  0.00000000000E+00  0.00000000000E+00  0.39999999673E+01  0.40000000000E+01  0.51109989000E-03 0. -1.
     -623   -1    0    0    0    0  0.00000000000E+00  0.00000000000E+00  0.12525980253E-10  0.17130000000E+03  0.17130000000E+03 0.  1.
       11    1    1    2    0    0 -0.12110380724E-01 -0.13041619554E-01  0.59924219324E+00  0.59950664095E+00  0.51109989000E-03 0. -1.
     -623    1    1    2    0    0  0.21077603746E-02  0.93418161059E-02  0.51667706489E-03  0.17130000027E+03  0.17130000000E+03 0.  1.
      622    1    1    2    0    0  0.10002620350E-01  0.36998034483E-02  0.34002410971E+01  0.34004930906E+01  0.40000000000E-01 0. -1.
</event>
<event>
 5   0  0.6200596E+07  0.9118800E+02  0.7818608E-02  0.1180000E+00
       11   -1    0    0    0    0  0.00000000000E+00  0.00000000000E+00  0.39999999673E+01  0.40000000000E+01  0.51109989000E-03 0. -1.
     -623   -1    0    0    0    0  0.00000000000E+00  0.00000000000E+00  0.12525980253E-10  0.17130000000E+03  0.17130000000E+03 0.  1.
       11    1    1    2    0    0 -0.34821089051E-02  0.13267033040E-03  0.55652693884E-03  0.35656173519E-02  0.51109989000E-03 0. -1.
     -623    1    1    2    0    0  0.58014924570E-02 -0.35948830738E-02  0.32115801557E-02  0.17130000017E+03  0.17130000000E+03 0.  1.
      622    1    1    2    0    0 -0.23193835519E-02  0.34622127434E-02  0.39962318603E+01  0.39964342166E+01  0.40000000000E-01 0. -1.
</event>
<event>
 5   0  0.6200596E+07  0.9118800E+02  0.7818608E-02  0.1180000E+00
       11   -1    0    0    0    0  0.00000000000E+00  0.00000000000E+00  0.39999999673E+01  0.40000000000E+01  0.51109989000E-03 0.  1.
     -623   -1    0    0    0    0  0.00000000000E+00  0.00000000000E+00  0.12525980253E-10  0.17130000000E+03  0.17130000000E+03 0.  1.
       11    1    1    2    0    0 -0.36989150716E-01  0.27482653029E-01  0.23429329470E+01  0.23433861289E+01  0.51109989000E-03 0.  1.
     -623    1    1    2    0    0 -0.13744611179E-02  0.30506587990E-02  0.16621353605E-02  0.17130000004E+03  0.17130000000E+03 0.  1.
      622    1    1    2    0    0  0.38363611833E-01 -0.30533311828E-01  0.16554048850E+01  0.16566138304E+01  0.40000000000E-01 0.  0.
</event>
<event>
 5   0  0.6200596E+07  0.9118800E+02  0.7818608E-02  0.1180000E+00
       11   -1    0    0    0    0  0.00000000000E+00  0.00000000000E+00  0.39999999673E+01  0.40000000000E+01  0.51109989000E-03 0. -1.
     -623   -1    0    0    0    0  0.00000000000E+00  0.00000000000E+00  0.12525980253E-10  0.17130000000E+03  0.17130000000E+03 0.  1.
       11    1    1    2    0    0  0.75210972907E-02 -0.46729156670E-02  0.65878471027E-01  0.66472830622E-01  0.51109989000E-03 0. -1.
     -623    1    1    2    0    0 -0.93240866235E-02  0.71372157979E-02  0.79930155391E-03  0.17130000040E+03  0.17130000000E+03 0.  1.
      622    1    1    2    0    0  0.18029893327E-02 -0.24643001309E-02  0.39333221948E+01  0.39335267651E+01  0.40000000000E-01 0.  0.
</event>
<event>
 5   0  0.6200596E+07  0.9118800E+02  0.7818608E-02  0.1180000E+00
       11   -1    0    0    0    0  0.00000000000E+00  0.00000000000E+00  0.39999999673E+01  0.40000000000E+01  0.51109989000E-03 0.  1.
     -623   -1    0    0    0    0  0.00000000000E+00  0.00000000000E+00  0.12525980253E-10  0.17130000000E+03  0.17130000000E+03 0. -1.
       11    1    1    2    0    0 -0.40095193192E-02 -0.50484488571E-02  0.10477027035E+00  0.10496968063E+00  0.51109989000E-03 0.  1.
     -623    1    1    2    0    0  0.59606260092E-02  0.36809039978E-02  0.40564550693E-03  0.17130000014E+03  0.17130000000E+03 0. -1.
      622    1    1    2    0    0 -0.19511066900E-02  0.13675448593E-02  0.38948240515E+01  0.38950301756E+01  0.40000000000E-01 0.  1.
</event>
<event>
 5   0  0.6200596E+07  0.9118800E+02  0.7818608E-02  0.1180000E+00
       11   -1    0    0    0    0  0.00000000000E+00  0.00000000000E+00  0.39999999673E+01  0.40000000000E+01  0.51109989000E-03 0.  1.
     -623   -1    0    0    0    0  0.00000000000E+00  0.00000000000E+00  0.12525980253E-10  0.17130000000E+03  0.17130000000E+03 0. -1.
       11    1    1    2    0    0  0.76486511181E-03  0.12030191809E-02  0.15070101553E-01  0.15146004601E-01  0.51109989000E-03 0.  1.
     -623    1    1    2    0    0  0.74076283674E-03 -0.25200070576E-03  0.27703560054E-03  0.17130000000E+03  0.17130000000E+03 0. -1.
      622    1    1    2    0    0 -0.15056279485E-02 -0.95101847514E-03  0.39846528302E+01  0.39848539934E+01  0.40000000000E-01 0.  1.
</event>
<event>
 5   0  0.6200596E+07  0.9118800E+02  0.7818608E-02  0.1180000E+00
       11   -1    0    0    0    0  0.00000000000E+00  0.00000000000E+00  0.39999999673E+01  0.40000000000E+01  0.51109989000E-03 0. -1.
     -623   -1    0    0    0    0  0.00000000000E+00  0.00000000000E+00  0.12525980253E-10  0.17130000000E+03  0.17130000000E+03 0.  1.
       11    1    1    2    0    0 -0.16624754243E-02  0.19784782538E-02  0.14411402249E+00  0.14413809663E+00  0.51109989000E-03 0. -1.
     -623    1    1    2    0    0  0.37451555437E-02 -0.59808278053E-02  0.23430871354E-03  0.17130000015E+03  0.17130000000E+03 0.  1.
      622    1    1    2    0    0 -0.20826801193E-02  0.40023495515E-02  0.38556516362E+01  0.38558617579E+01  0.40000000000E-01 0. -1.
</event>
<event>
 5   0  0.6200596E+07  0.9118800E+02  0.7818608E-02  0.1180000E+00
       11   -1    0    0    0    0  0.00000000000E+00  0.00000000000E+00  0.39999999673E+01  0.40000000000E+01  0.51109989000E-03 0. -1.
     -623   -1    0    0    0    0  0.00000000000E+00  0.00000000000E+00  0.12525980253E-10  0.17130000000E+03  0.17130000000E+03 0.  1.
       11    1    1    2    0    0 -0.12394526565E-02  0.13696449326E-02  0.27986928797E+00  0.27987585058E+00  0.51109989000E-03 0. -1.
     -623    1    1    2    0    0 -0.12461885601E-02 -0.10508194498E-02  0.22243479483E-03  0.17130000001E+03  0.17130000000E+03 0.  1.
      622    1    1    2    0    0  0.24856412166E-02 -0.31882548274E-03  0.37199082446E+01  0.37201241415E+01  0.40000000000E-01 0. -1.
</event>
<event>
 5   0  0.6200596E+07  0.9118800E+02  0.7818608E-02  0.1180000E+00
       11   -1    0    0    0    0  0.00000000000E+00  0.00000000000E+00  0.39999999673E+01  0.40000000000E+01  0.51109989000E-03 0. -1.
     -623   -1    0    0    0    0  0.00000000000E+00  0.00000000000E+00  0.12525980253E-10  0.17130000000E+03  0.17130000000E+03 0. -1.
       11    1    1    2    0    0 -0.44679817346E-01 -0.36783486616E-02  0.14296671771E+01  0.14303699923E+01  0.51109989000E-03 0. -1.
     -623    1    1    2    0    0  0.96839534762E-03  0.12472189586E-03  0.13884513025E-02  0.17130000001E+03  0.17130000000E+03 0. -1.
      622    1    1    2    0    0  0.43711421998E-01  0.35536267657E-02  0.25689443389E+01  0.25696299993E+01  0.40000000000E-01 0. -1.
</event>
<event>
 5   0  0.6200596E+07  0.9118800E+02  0.7818608E-02  0.1180000E+00
       11   -1    0    0    0    0  0.00000000000E+00  0.00000000000E+00  0.39999999673E+01  0.40000000000E+01  0.51109989000E-03 0. -1.
     -623   -1    0    0    0    0  0.00000000000E+00  0.00000000000E+00  0.12525980253E-10  0.17130000000E+03  0.17130000000E+03 0. -1.
       11    1    1    2    0    0 -0.28980750369E-03 -0.16735066794E-02  0.33699595824E-02  0.38082098278E-02  0.51109989000E-03 0. -1.
     -623    1    1    2    0    0  0.10537944250E-02  0.13913264810E-02  0.63850628960E-03  0.17130000001E+03  0.17130000000E+03 0. -1.
      622    1    1    2    0    0 -0.76398692127E-03  0.28218019840E-03  0.39959915015E+01  0.39961917801E+01  0.40000000000E-01 0. -1.
</event>
<event>
 5   0  0.6200596E+07  0.9118800E+02  0.7818608E-02  0.1180000E+00
       11   -1    0    0    0    0  0.00000000000E+00  0.00000000000E+00  0.39999999673E+01  0.40000000000E+01  0.51109989000E-03 0.  1.
     -623   -1    0    0    0    0  0.00000000000E+00  0.00000000000E+00  0.12525980253E-10  0.17130000000E+03  0.17130000000E+03 0. -1.
       11    1    1    2    0    0  0.22261404288E-01 -0.17384724825E-01  0.14936491955E+01  0.14939163227E+01  0.51109989000E-03 0.  1.
     -623    1    1    2    0    0 -0.38068749284E-01  0.49755893732E-01  0.85676824575E-03  0.17130001146E+03  0.17130000000E+03 0. -1.
      622    1    1    2    0    0  0.15807344996E-01 -0.32371168907E-01  0.25054940037E+01  0.25060722190E+01  0.40000000000E-01 0. -1.
</event>
<event>
 5   0  0.6200596E+07  0.9118800E+02  0.7818608E-02  0.1180000E+00
       11   -1    0    0    0    0  0.00000000000E+00  0.00000000000E+00  0.39999999673E+01  0.40000000000E+01  0.51109989000E-03 0. -1.
     -623   -1    0    0    0    0  0.00000000000E+00  0.00000000000E+00  0.12525980253E-10  0.17130000000E+03  0.17130000000E+03 0.  1.
       11    1    1    2    0    0  0.23879506416E-02  0.29314107211E-01  0.83143968065E+00  0.83195986860E+00  0.51109989000E-03 0. -1.
     -623    1    1    2    0    0 -0.12325396131E-02 -0.39173693748E-03  0.90494094185E-03  0.17130000001E+03  0.17130000000E+03 0.  1.
      622    1    1    2    0    0 -0.11554110285E-02 -0.28922370274E-01  0.31676553458E+01  0.31680401241E+01  0.40000000000E-01 0. -1.
</event>
<event>
 5   0  0.6200596E+07  0.9118800E+02  0.7818608E-02  0.1180000E+00
       11   -1    0    0    0    0  0.00000000000E+00  0.00000000000E+00  0.39999999673E+01  0.40000000000E+01  0.51109989000E-03 0.  1.
     -623   -1    0    0    0    0  0.00000000000E+00  0.00000000000E+00  0.12525980253E-10  0.17130000000E+03  0.17130000000E+03 0.  1.
       11    1    1    2    0    0  0.21141062861E-02 -0.51399885760E-02  0.22011321207E+00  0.22018396008E+00  0.51109989000E-03 0.  1.
     -623    1    1    2    0    0 -0.17299707533E-03  0.15612664756E-03  0.28615656942E-03  0.17130000000E+03  0.17130000000E+03 0.  1.
      622    1    1    2    0    0 -0.19411092108E-02  0.49838619285E-02  0.37796005987E+01  0.37798160395E+01  0.40000000000E-01 0.  0.
</event>
<event>
 5   0  0.6200596E+07  0.9118800E+02  0.7818608E-02  0.1180000E+00
       11   -1    0    0    0    0  0.00000000000E+00  0.00000000000E+00  0.39999999673E+01  0.40000000000E+01  0.51109989000E-03 0. -1.
     -623   -1    0    0    0    0  0.00000000000E+00  0.00000000000E+00  0.12525980253E-10  0.17130000000E+03  0.17130000000E+03 0. -1.
       11    1    1    2    0    0 -0.11270094209E-01 -0.67635038517E-03  0.51422722378E+00  0.51435140844E+00  0.51109989000E-03 0. -1.
     -623    1    1    2    0    0  0.12492870880E-02  0.66059787036E-03  0.36808363358E-03  0.17130000001E+03  0.17130000000E+03 0. -1.
      622    1    1    2    0    0  0.10020807121E-01  0.15752514809E-04  0.34854046600E+01  0.34856485853E+01  0.40000000000E-01 0. -1.
</event>
<event>
 5   0  0.6200596E+07  0.9118800E+02  0.7818608E-02  0.1180000E+00
       11   -1    0    0    0    0  0.00000000000E+00  0.00000000000E+00  0.39999999673E+01  0.40000000000E+01  0.51109989000E-03 0.  1.
     -623   -1    0    0    0    0  0.00000000000E+00  0.00000000000E+00  0.12525980253E-10  0.17130000000E+03  0.17130000000E+03 0. -1.
       11    1    1    2    0    0  0.10167412360E-02  0.14126922058E-01  0.32264595899E+00  0.32295708657E+00  0.51109989000E-03 0.  1.
     -623    1    1    2    0    0 -0.11679985735E-01 -0.48608715374E-02  0.55627385349E-03  0.17130000047E+03  0.17130000000E+03 0. -1.
      622    1    1    2    0    0  0.10663244499E-01 -0.92660505205E-02  0.36767977345E+01  0.36770424454E+01  0.40000000000E-01 0.  1.
</event>
<event>
 5   0  0.6200596E+07  0.9118800E+02  0.7818608E-02  0.1180000E+00
       11   -1    0    0    0    0  0.00000000000E+00  0.00000000000E+00  0.39999999673E+01  0.40000000000E+01  0.51109989000E-03 0. -1.
     -623   -1    0    0    0    0  0.00000000000E+00  0.00000000000E+00  0.12525980253E-10  0.17130000000E+03  0.17130000000E+03 0. -1.
       11    1    1    2    0    0  0.72412992171E-03  0.77435520780E-03  0.27973207132E-01  0.27997955775E-01  0.51109989000E-03 0. -1.
     -623    1    1    2    0    0  0.57821945500E-03 -0.17480010541E-03  0.22639086102E-03  0.17130000000E+03  0.17130000000E+03 0. -1.
      622    1    1    2    0    0 -0.13023493767E-02 -0.59955510239E-03  0.39718003694E+01  0.39720020430E+01  0.40000000000E-01 0. -1.
</event>
<event>
 5   0  0.6200596E+07  0.9118800E+02  0.7818608E-02  0.1180000E+00
       11   -1    0    0    0    0  0.00000000000E+00  0.00000000000E+00  0.39999999673E+01  0.40000000000E+01  0.51109989000E-03 0. -1.
     -623   -1    0    0    0    0  0.00000000000E+00  0.00000000000E+00  0.12525980253E-10  0.17130000000E+03  0.17130000000E+03 0.  1.
       11    1    1    2    0    0 -0.13187032882E-01  0.16326975065E-01  0.30227372405E+00  0.30300187033E+00  0.51109989000E-03 0. -1.
     -623    1    1    2    0    0  0.89492035295E-02 -0.21114095009E-01  0.95157805023E-03  0.17130000154E+03  0.17130000000E+03 0.  1.
      622    1    1    2    0    0  0.42378293525E-02  0.47871199441E-02  0.36967746653E+01  0.36969965920E+01  0.40000000000E-01 0. -1.
</event>
<event>
 5   0  0.6200596E+07  0.9118800E+02  0.7818608E-02  0.1180000E+00
       11   -1    0    0    0    0  0.00000000000E+00  0.00000000000E+00  0.39999999673E+01  0.40000000000E+01  0.51109989000E-03 0.  1.
     -623   -1    0    0    0    0  0.00000000000E+00  0.00000000000E+00  0.12525980253E-10  0.17130000000E+03  0.17130000000E+03 0. -1.
       11    1    1    2    0    0  0.23268795124E-01 -0.27824980947E-01  0.75090890524E+00  0.75178461782E+00  0.51109989000E-03 0.  1.
     -623    1    1    2    0    0  0.68340844955E-02  0.17819949658E-02  0.13660479953E-02  0.17130000015E+03  0.17130000000E+03 0. -1.
      622    1    1    2    0    0 -0.30102879619E-01  0.26042985981E-01  0.32477250141E+01  0.32482152311E+01  0.40000000000E-01 0.  1.
</event>
<event>
 5   0  0.6200596E+07  0.9118800E+02  0.7818608E-02  0.1180000E+00
       11   -1    0    0    0    0  0.00000000000E+00  0.00000000000E+00  0.39999999673E+01  0.40000000000E+01  0.51109989000E-03 0. -1.
     -623   -1    0    0    0    0  0.00000000000E+00  0.00000000000E+00  0.12525980253E-10  0.17130000000E+03  0.17130000000E+03 0.  1.
       11    1    1    2    0    0 -0.64007758090E-03 -0.12650865844E-02  0.29019675906E-01  0.29058784467E-01  0.51109989000E-03 0. -1.
     -623    1    1    2    0    0 -0.55635805904E-03  0.16842987616E-04  0.24092212672E-03  0.17130000000E+03  0.17130000000E+03 0.  1.
      622    1    1    2    0    0  0.11964356399E-02  0.12482435968E-02  0.39707393693E+01  0.39709412145E+01  0.40000000000E-01 0. -1.
</event>
<event>
 5   0  0.6200596E+07  0.9118800E+02  0.7818608E-02  0.1180000E+00
       11   -1    0    0    0    0  0.00000000000E+00  0.00000000000E+00  0.39999999673E+01  0.40000000000E+01  0.51109989000E-03 0. -1.
     -623   -1    0    0    0    0  0.00000000000E+00  0.00000000000E+00  0.12525980253E-10  0.17130000000E+03  0.17130000000E+03 0.  1.
       11    1    1    2    0    0 -0.74807554344E-04 -0.31705516079E-02  0.17894365262E+01  0.17894394095E+01  0.51109989000E-03 0. -1.
     -623    1    1    2    0    0 -0.17301081062E-01  0.25681497066E-02  0.43405822043E-03  0.17130000089E+03  0.17130000000E+03 0.  1.
      622    1    1    2    0    0  0.17375888616E-01  0.60240190132E-03  0.22101293830E+01  0.22105596970E+01  0.40000000000E-01 0. -1.
</event>
<event>
 5   0  0.6200596E+07  0.9118800E+02  0.7818608E-02  0.1180000E+00
       11   -1    0    0    0    0  0.00000000000E+00  0.00000000000E+00  0.39999999673E+01  0.40000000000E+01  0.51109989000E-03 0.  1.
     -623   -1    0    0    0    0  0.00000000000E+00  0.00000000000E+00  0.12525980253E-10  0.17130000000E+03  0.17130000000E+03 0. -1.
       11    1    1    2    0    0 -0.12433911741E-01  0.25835309820E-01  0.24310035457E+00  0.24478584315E+00  0.51109989000E-03 0.  1.
     -623    1    1    2    0    0  0.31462043493E-02  0.13565190295E-01  0.21172817276E-02  0.17130000058E+03  0.17130000000E+03 0. -1.
      622    1    1    2    0    0  0.92877073915E-02 -0.39400500116E-01  0.37547823311E+01  0.37552135778E+01  0.40000000000E-01 0.  1.
</event>
<event>
 5   0  0.6200596E+07  0.9118800E+02  0.7818608E-02  0.1180000E+00
       11   -1    0    0    0    0  0.00000000000E+00  0.00000000000E+00  0.39999999673E+01  0.40000000000E+01  0.51109989000E-03 0. -1.
     -623   -1    0    0    0    0  0.00000000000E+00  0.00000000000E+00  0.12525980253E-10  0.17130000000E+03  0.17130000000E+03 0. -1.
       11    1    1    2    0    0  0.13711769235E-04  0.27379826318E-01  0.68436522372E+00  0.68491289646E+00  0.51109989000E-03 0. -1.
     -623    1    1    2    0    0  0.18238051442E-01 -0.44688635554E-02  0.91942781138E-03  0.17130000103E+03  0.17130000000E+03 0. -1.
      622    1    1    2    0    0 -0.18251763211E-01 -0.22910962763E-01  0.33147153158E+01  0.33150860719E+01  0.40000000000E-01 0. -1.
</event>
<event>
 5   0  0.6200596E+07  0.9118800E+02  0.7818608E-02  0.1180000E+00
       11   -1    0    0    0    0  0.00000000000E+00  0.00000000000E+00  0.39999999673E+01  0.40000000000E+01  0.51109989000E-03 0.  1.
     -623   -1    0    0    0    0  0.00000000000E+00  0.00000000000E+00  0.12525980253E-10  0.17130000000E+03  0.17130000000E+03 0.  1.
       11    1    1    2    0    0 -0.16300585588E-02 -0.16260436680E-01  0.62237204354E+00  0.62258676560E+00  0.51109989000E-03 0.  1.
     -623    1    1    2    0    0 -0.10586917866E-02  0.45090575959E-03  0.48964497230E-03  0.17130000000E+03  0.17130000000E+03 0.  1.
      622    1    1    2    0    0  0.26887503453E-02  0.15809530921E-01  0.33771382788E+01  0.33774132298E+01  0.40000000000E-01 0.  1.
</event>
<event>
 5   0  0.6200596E+07  0.9118800E+02  0.7818608E-02  0.1180000E+00
       11   -1    0    0    0    0  0.00000000000E+00  0.00000000000E+00  0.39999999673E+01  0.40000000000E+01  0.51109989000E-03 0.  1.
     -623   -1    0    0    0    0  0.00000000000E+00  0.00000000000E+00  0.12525980253E-10  0.17130000000E+03  0.17130000000E+03 0.  1.
       11    1    1    2    0    0  0.34467999729E-03  0.84486767862E-02  0.29098343136E-01  0.30306331636E-01  0.51109989000E-03 0.  1.
     -623    1    1    2    0    0 -0.71303245281E-02 -0.16089910801E-02  0.14213422014E-02  0.17130000016E+03  0.17130000000E+03 0.  1.
      622    1    1    2    0    0  0.67856445308E-02 -0.68396857061E-02  0.39694802820E+01  0.39696935065E+01  0.40000000000E-01 0.  1.
</event>
<event>
 5   0  0.6200596E+07  0.9118800E+02  0.7818608E-02  0.1180000E+00
       11   -1    0    0    0    0  0.00000000000E+00  0.00000000000E+00  0.39999999673E+01  0.40000000000E+01  0.51109989000E-03 0.  1.
     -623   -1    0    0    0    0  0.00000000000E+00  0.00000000000E+00  0.12525980253E-10  0.17130000000E+03  0.17130000000E+03 0. -1.
       11    1    1    2    0    0  0.27103528350E-02  0.14276277315E-02  0.50873451972E-01  0.50968161347E-01  0.51109989000E-03 0.  1.
     -623    1    1    2    0    0 -0.29268811757E-03  0.23496755621E-02  0.29982657932E-03  0.17130000002E+03  0.17130000000E+03 0. -1.
      622    1    1    2    0    0 -0.24176647175E-02 -0.37773032936E-02  0.39488266888E+01  0.39490318220E+01  0.40000000000E-01 0.  1.
</event>
<event>
 5   0  0.6200596E+07  0.9118800E+02  0.7818608E-02  0.1180000E+00
       11   -1    0    0    0    0  0.00000000000E+00  0.00000000000E+00  0.39999999673E+01  0.40000000000E+01  0.51109989000E-03 0. -1.
     -623   -1    0    0    0    0  0.00000000000E+00  0.00000000000E+00  0.12525980253E-10  0.17130000000E+03  0.17130000000E+03 0.  1.
       11    1    1    2    0    0 -0.74498044581E-02 -0.19502110634E-01  0.50081982798E+00  0.50125501816E+00  0.51109989000E-03 0. -1.
     -623    1    1    2    0    0  0.11836381603E-02  0.10319303411E-01  0.68179778871E-03  0.17130000032E+03  0.17130000000E+03 0.  1.
      622    1    1    2    0    0  0.62661662979E-02  0.91828072239E-02  0.34984983416E+01  0.34987446656E+01  0.40000000000E-01 0.  0.
</event>
<event>
 5   0  0.6200596E+07  0.9118800E+02  0.7818608E-02  0.1180000E+00
       11   -1    0    0    0    0  0.00000000000E+00  0.00000000000E+00  0.39999999673E+01  0.40000000000E+01  0.51109989000E-03 0.  1.
     -623   -1    0    0    0    0  0.00000000000E+00  0.00000000000E+00  0.12525980253E-10  0.17130000000E+03  0.17130000000E+03 0. -1.
       11    1    1    2    0    0 -0.65483182255E-04 -0.13025588678E-03  0.27999340532E+00  0.27999390976E+00  0.51109989000E-03 0.  1.
     -623    1    1    2    0    0  0.49627084910E-02 -0.48714245288E-02  0.22225907530E-03  0.17130000014E+03  0.17130000000E+03 0. -1.
      622    1    1    2    0    0 -0.48972253088E-02  0.50016804156E-02  0.37197843030E+01  0.37200059489E+01  0.40000000000E-01 0.  1.
</event>
<event>
 5   0  0.6200596E+07  0.9118800E+02  0.7818608E-02  0.1180000E+00
       11   -1    0    0    0    0  0.00000000000E+00  0.00000000000E+00  0.39999999673E+01  0.40000000000E+01  0.51109989000E-03 0. -1.
     -623   -1    0    0    0    0  0.00000000000E+00  0.00000000000E+00  0.12525980253E-10  0.17130000000E+03  0.17130000000E+03 0. -1.
       11    1    1    2    0    0 -0.36902642551E-02 -0.48456227931E-02  0.28296024736E+00  0.28302625483E+00  0.51109989000E-03 0. -1.
     -623    1    1    2    0    0 -0.18933295428E-02  0.10152327124E-01  0.28950393229E-03  0.17130000031E+03  0.17130000000E+03 0. -1.
      622    1    1    2    0    0  0.55835937979E-02 -0.53067043310E-02  0.37167502161E+01  0.37169734336E+01  0.40000000000E-01 0. -1.
</event>
<event>
 5   0  0.6200596E+07  0.9118800E+02  0.7818608E-02  0.1180000E+00
       11   -1    0    0    0    0  0.00000000000E+00  0.00000000000E+00  0.39999999673E+01  0.40000000000E+01  0.51109989000E-03 0.  1.
     -623   -1    0    0    0    0  0.00000000000E+00  0.00000000000E+00  0.12525980253E-10  0.17130000000E+03  0.17130000000E+03 0. -1.
       11    1    1    2    0    0  0.62459975543E-02  0.96696674893E-02  0.71041399780E+00  0.71050744152E+00  0.51109989000E-03 0.  1.
     -623    1    1    2    0    0 -0.12861311339E-02 -0.25463092790E-03  0.35383823597E-03  0.17130000001E+03  0.17130000000E+03 0. -1.
      622    1    1    2    0    0 -0.49598664204E-02 -0.94150365614E-02  0.32892321313E+01  0.32894925531E+01  0.40000000000E-01 0.  1.
</event>
<event>
 5   0  0.6200596E+07  0.9118800E+02  0.7818608E-02  0.1180000E+00
       11   -1    0    0    0    0  0.00000000000E+00  0.00000000000E+00  0.39999999673E+01  0.40000000000E+01  0.51109989000E-03 0.  1.
     -623   -1    0    0    0    0  0.00000000000E+00  0.00000000000E+00  0.12525980253E-10  0.17130000000E+03  0.17130000000E+03 0. -1.
       11    1    1    2    0    0  0.27230686074E-03  0.10947746503E-02  0.84222547304E-02  0.85128303315E-02  0.51109989000E-03 0.  1.
     -623    1    1    2    0    0  0.18121246905E-02 -0.67883723994E-03  0.29155168640E-03  0.17130000001E+03  0.17130000000E+03 0. -1.
      622    1    1    2    0    0 -0.20844315513E-02 -0.41593741037E-03  0.39912861609E+01  0.39914871585E+01  0.40000000000E-01 0.  1.
</event>
<event>
 5   0  0.6200596E+07  0.9118800E+02  0.7818608E-02  0.1180000E+00
       11   -1    0    0    0    0  0.00000000000E+00  0.00000000000E+00  0.39999999673E+01  0.40000000000E+01  0.51109989000E-03 0.  1.
     -623   -1    0    0    0    0  0.00000000000E+00  0.00000000000E+00  0.12525980253E-10  0.17130000000E+03  0.17130000000E+03 0.  1.
       11    1    1    2    0    0 -0.32274349620E-02 -0.11355534667E-02  0.21919991589E-01  0.22191283658E-01  0.51109989000E-03 0.  1.
     -623    1    1    2    0    0  0.58908556878E-03 -0.78216149994E-03  0.47372102306E-03  0.17130000000E+03  0.17130000000E+03 0.  1.
      622    1    1    2    0    0  0.26383493932E-02  0.19177149667E-02  0.39776062547E+01  0.39778087129E+01  0.40000000000E-01 0.  1.
</event>
<event>
 5   0  0.6200596E+07  0.9118800E+02  0.7818608E-02  0.1180000E+00
       11   -1    0    0    0    0  0.00000000000E+00  0.00000000000E+00  0.39999999673E+01  0.40000000000E+01  0.51109989000E-03 0. -1.
     -623   -1    0    0    0    0  0.00000000000E+00  0.00000000000E+00  0.12525980253E-10  0.17130000000E+03  0.17130000000E+03 0. -1.
       11    1    1    2    0    0 -0.57873621685E-03 -0.19486372071E-02  0.13707982556E+00  0.13709584938E+00  0.51109989000E-03 0. -1.
     -623    1    1    2    0    0  0.91956765828E-03  0.49202630537E-02  0.22432618202E-03  0.17130000007E+03  0.17130000000E+03 0. -1.
      622    1    1    2    0    0 -0.34083144143E-03 -0.29716258466E-02  0.38626958156E+01  0.38629040773E+01  0.40000000000E-01 0. -1.
</event>
<event>
 5   0  0.6200596E+07  0.9118800E+02  0.7818608E-02  0.1180000E+00
       11   -1    0    0    0    0  0.00000000000E+00  0.00000000000E+00  0.39999999673E+01  0.40000000000E+01  0.51109989000E-03 0.  1.
     -623   -1    0    0    0    0  0.00000000000E+00  0.00000000000E+00  0.12525980253E-10  0.17130000000E+03  0.17130000000E+03 0.  1.
       11    1    1    2    0    0 -0.11718160779E-02 -0.50758110678E-03  0.23905163998E-01  0.23944704595E-01  0.51109989000E-03 0.  1.
     -623    1    1    2    0    0  0.73934606350E-03 -0.45506165698E-03  0.24085992223E-03  0.17130000000E+03  0.17130000000E+03 0.  1.
      622    1    1    2    0    0  0.43247001442E-03  0.96264276376E-03  0.39758539434E+01  0.39760552930E+01  0.40000000000E-01 0.  1.
</event>
<event>
 5   0  0.6200596E+07  0.9118800E+02  0.7818608E-02  0.1180000E+00
       11   -1    0    0    0    0  0.00000000000E+00  0.00000000000E+00  0.39999999673E+01  0.40000000000E+01  0.51109989000E-03 0. -1.
     -623   -1    0    0    0    0  0.00000000000E+00  0.00000000000E+00  0.12525980253E-10  0.17130000000E+03  0.17130000000E+03 0.  1.
       11    1    1    2    0    0  0.43343244805E-01 -0.43625722284E-01  0.17653339534E+01  0.17664048428E+01  0.51109989000E-03 0. -1.
     -623    1    1    2    0    0 -0.31934785682E-01  0.36415483546E-01  0.14766873120E-02  0.17130000685E+03  0.17130000000E+03 0.  1.
      622    1    1    2    0    0 -0.11408459123E-01  0.72102387372E-02  0.22331893266E+01  0.22335883034E+01  0.40000000000E-01 0.  0.
</event>
<event>
 5   0  0.6200596E+07  0.9118800E+02  0.7818608E-02  0.1180000E+00
       11   -1    0    0    0    0  0.00000000000E+00  0.00000000000E+00  0.39999999673E+01  0.40000000000E+01  0.51109989000E-03 0. -1.
     -623   -1    0    0    0    0  0.00000000000E+00  0.00000000000E+00  0.12525980253E-10  0.17130000000E+03  0.17130000000E+03 0. -1.
       11    1    1    2    0    0  0.29980664276E-02 -0.35277812498E-03  0.40911669846E-01  0.41026074696E-01  0.51109989000E-03 0. -1.
     -623    1    1    2    0    0 -0.90465753071E-03  0.23089241320E-02  0.31750496846E-03  0.17130000002E+03  0.17130000000E+03 0. -1.
      622    1    1    2    0    0 -0.20934088968E-02 -0.19561460070E-02  0.39587707925E+01  0.39589739071E+01  0.40000000000E-01 0. -1.
</event>
<event>
 5   0  0.6200596E+07  0.9118800E+02  0.7818608E-02  0.1180000E+00
       11   -1    0    0    0    0  0.00000000000E+00  0.00000000000E+00  0.39999999673E+01  0.40000000000E+01  0.51109989000E-03 0.  1.
     -623   -1    0    0    0    0  0.00000000000E+00  0.00000000000E+00  0.12525980253E-10  0.17130000000E+03  0.17130000000E+03 0. -1.
       11    1    1    2    0    0 -0.28045162470E-02  0.15787052386E-01  0.12864513242E+01  0.12865513465E+01  0.51109989000E-03 0.  1.
     -623    1    1    2    0    0  0.59545920204E-03 -0.31415948536E-04  0.44148223997E-03  0.17130000000E+03  0.17130000000E+03 0. -1.
      622    1    1    2    0    0  0.22090570450E-02 -0.15755636437E-01  0.27131071609E+01  0.27134486519E+01  0.40000000000E-01 0.  1.
</event>
<event>
 5   0  0.6200596E+07  0.9118800E+02  0.7818608E-02  0.1180000E+00
       11   -1    0    0    0    0  0.00000000000E+00  0.00000000000E+00  0.39999999673E+01  0.40000000000E+01  0.51109989000E-03 0.  1.
     -623   -1    0    0    0    0  0.00000000000E+00  0.00000000000E+00  0.12525980253E-10  0.17130000000E+03  0.17130000000E+03 0.  1.
       11    1    1    2    0    0 -0.13766458810E-01  0.15136008133E-01  0.71394541038E+00  0.71423870264E+00  0.51109989000E-03 0.  1.
     -623    1    1    2    0    0 -0.90145866400E-03  0.43125773574E-02  0.62710715702E-03  0.17130000006E+03  0.17130000000E+03 0.  1.
      622    1    1    2    0    0  0.14667917474E-01 -0.19448585490E-01  0.32854274498E+01  0.32857612396E+01  0.40000000000E-01 0.  0.
</event>
<event>
 5   0  0.6200596E+07  0.9118800E+02  0.7818608E-02  0.1180000E+00
       11   -1    0    0    0    0  0.00000000000E+00  0.00000000000E+00  0.39999999673E+01  0.40000000000E+01  0.51109989000E-03 0.  1.
     -623   -1    0    0    0    0  0.00000000000E+00  0.00000000000E+00  0.12525980253E-10  0.17130000000E+03  0.17130000000E+03 0.  1.
       11    1    1    2    0    0  0.15762500527E-01  0.11503753657E-01  0.19504210859E+01  0.19505187685E+01  0.51109989000E-03 0.  1.
     -623    1    1    2    0    0  0.80479971151E-03  0.17591392786E-03  0.58829683229E-03  0.17130000000E+03  0.17130000000E+03 0.  1.
      622    1    1    2    0    0 -0.16567300239E-01 -0.11679667585E-01  0.20489905846E+01  0.20494812285E+01  0.40000000000E-01 0.  1.
</event>
<event>
 5   0  0.6200596E+07  0.9118800E+02  0.7818608E-02  0.1180000E+00
       11   -1    0    0    0    0  0.00000000000E+00  0.00000000000E+00  0.39999999673E+01  0.40000000000E+01  0.51109989000E-03 0.  1.
     -623   -1    0    0    0    0  0.00000000000E+00  0.00000000000E+00  0.12525980253E-10  0.17130000000E+03  0.17130000000E+03 0.  1.
       11    1    1    2    0    0 -0.16708642418E-01 -0.17919215520E-01  0.16363452001E+01  0.16365286896E+01  0.51109989000E-03 0.  1.
     -623    1    1    2    0    0  0.12477832630E-02  0.13625048102E-02  0.63055677967E-03  0.17130000001E+03  0.17130000000E+03 0.  1.
      622    1    1    2    0    0  0.15460859155E-01  0.16556710710E-01  0.23630242105E+01  0.23634712992E+01  0.40000000000E-01 0.  0.
</event>
<event>
 5   0  0.6200596E+07  0.9118800E+02  0.7818608E-02  0.1180000E+00
       11   -1    0    0    0    0  0.00000000000E+00  0.00000000000E+00  0.39999999673E+01  0.40000000000E+01  0.51109989000E-03 0.  1.
     -623   -1    0    0    0    0  0.00000000000E+00  0.00000000000E+00  0.12525980253E-10  0.17130000000E+03  0.17130000000E+03 0. -1.
       11    1    1    2    0    0 -0.10989450774E-03 -0.38005978666E-03  0.57564290827E-01  0.57567919211E-01  0.51109989000E-03 0.  1.
     -623    1    1    2    0    0 -0.83975270023E-03 -0.15582843580E-02  0.20712157511E-03  0.17130000001E+03  0.17130000000E+03 0. -1.
      622    1    1    2    0    0  0.94964720797E-03  0.19383441446E-02  0.39422285550E+01  0.39424320715E+01  0.40000000000E-01 0.  1.
</event>
<event>
 5   0  0.6200596E+07  0.9118800E+02  0.7818608E-02  0.1180000E+00
       11   -1    0    0    0    0  0.00000000000E+00  0.00000000000E+00  0.39999999673E+01  0.40000000000E+01  0.51109989000E-03 0. -1.
     -623   -1    0    0    0    0  0.00000000000E+00  0.00000000000E+00  0.12525980253E-10  0.17130000000E+03  0.17130000000E+03 0.  1.
       11    1    1    2    0    0 -0.20865621567E-01 -0.26891872108E-01  0.16374921355E+01  0.16378459335E+01  0.51109989000E-03 0. -1.
     -623    1    1    2    0    0 -0.11931107872E-01  0.41493921095E-01  0.97077512020E-03  0.17130000544E+03  0.17130000000E+03 0.  1.
      622    1    1    2    0    0  0.32796729439E-01 -0.14602048987E-01  0.23615370568E+01  0.23621486227E+01  0.40000000000E-01 0. -1.
</event>
<event>
 5   0  0.6200596E+07  0.9118800E+02  0.7818608E-02  0.1180000E+00
       11   -1    0    0    0    0  0.00000000000E+00  0.00000000000E+00  0.39999999673E+01  0.40000000000E+01  0.51109989000E-03 0.  1.
     -623   -1    0    0    0    0  0.00000000000E+00  0.00000000000E+00  0.12525980253E-10  0.17130000000E+03  0.17130000000E+03 0.  1.
       11    1    1    2    0    0  0.12805541557E-01 -0.35770979835E-01  0.63121027793E+00  0.63235292446E+00  0.51109989000E-03 0.  1.
     -623    1    1    2    0    0 -0.60317552584E-02  0.18450964662E-01  0.14326382878E-02  0.17130000111E+03  0.17130000000E+03 0.  1.
      622    1    1    2    0    0 -0.67737862989E-02  0.17320015173E-01  0.33673570511E+01  0.33676459697E+01  0.40000000000E-01 0.  0.
</event>
<event>
 5   0  0.6200596E+07  0.9118800E+02  0.7818608E-02  0.1180000E+00
       11   -1    0    0    0    0  0.00000000000E+00  0.00000000000E+00  0.39999999673E+01  0.40000000000E+01  0.51109989000E-03 0.  1.
     -623   -1    0    0    0    0  0.00000000000E+00  0.00000000000E+00  0.12525980253E-10  0.17130000000E+03  0.17130000000E+03 0.  1.
       11    1    1    2    0    0  0.25754196273E-01  0.19391494435E-01  0.46665032556E+00  0.46776286326E+00  0.51109989000E-03 0.  1.
     -623    1    1    2    0    0  0.13257535820E-02 -0.79665784921E-02  0.14614854777E-02  0.17130000020E+03  0.17130000000E+03 0.  1.
      622    1    1    2    0    0 -0.27079949855E-01 -0.11424915943E-01  0.35318881563E+01  0.35322369401E+01  0.40000000000E-01 0.  1.
</event>
<event>
 5   0  0.6200596E+07  0.9118800E+02  0.7818608E-02  0.1180000E+00
       11   -1    0    0    0    0  0.00000000000E+00  0.00000000000E+00  0.39999999673E+01  0.40000000000E+01  0.51109989000E-03 0. -1.
     -623   -1    0    0    0    0  0.00000000000E+00  0.00000000000E+00  0.12525980253E-10  0.17130000000E+03  0.17130000000E+03 0. -1.
       11    1    1    2    0    0  0.37473902605E-02 -0.43294757175E-02  0.90370559943E-01  0.90553225346E-01  0.51109989000E-03 0. -1.
     -623    1    1    2    0    0 -0.81604611288E-03  0.17635767363E-02  0.38922323732E-03  0.17130000001E+03  0.17130000000E+03 0. -1.
      622    1    1    2    0    0 -0.29313441476E-02  0.25658989813E-02  0.39092401842E+01  0.39094467632E+01  0.40000000000E-01 0. -1.
</event>
<event>
 5   0  0.6200596E+07  0.9118800E+02  0.7818608E-02  0.1180000E+00
       11   -1    0    0    0    0  0.00000000000E+00  0.00000000000E+00  0.39999999673E+01  0.40000000000E+01  0.51109989000E-03 0.  1.
     -623   -1    0    0    0    0  0.00000000000E+00  0.00000000000E+00  0.12525980253E-10  0.17130000000E+03  0.17130000000E+03 0. -1.
       11    1    1    2    0    0 -0.17905856981E-02  0.32537074474E-03  0.96772379900E-01  0.96790840463E-01  0.51109989000E-03 0.  1.
     -623    1    1    2    0    0  0.24943141461E-03 -0.33231854290E-03  0.22369778485E-03  0.17130000000E+03  0.17130000000E+03 0. -1.
      622    1    1    2    0    0  0.15411542834E-02  0.69477981559E-05  0.39030038897E+01  0.39032091589E+01  0.40000000000E-01 0.  1.
</event>
<event>
 5   0  0.6200596E+07  0.9118800E+02  0.7818608E-02  0.1180000E+00
       11   -1    0    0    0    0  0.00000000000E+00  0.00000000000E+00  0.39999999673E+01  0.40000000000E+01  0.51109989000E-03 0. -1.
     -623   -1    0    0    0    0  0.00000000000E+00  0.00000000000E+00  0.12525980253E-10  0.17130000000E+03  0.17130000000E+03 0. -1.
       11    1    1    2    0    0 -0.24797995440E-02 -0.12338446100E-02  0.34355889010E+00  0.34357043523E+00  0.51109989000E-03 0. -1.
     -623    1    1    2    0    0 -0.13928768134E-02  0.15811875626E-02  0.23239231053E-03  0.17130000001E+03  0.17130000000E+03 0. -1.
      622    1    1    2    0    0  0.38726763574E-02 -0.34734295260E-03  0.36562086849E+01  0.36564295516E+01  0.40000000000E-01 0. -1.
</event>
<event>
 5   0  0.6200596E+07  0.9118800E+02  0.7818608E-02  0.1180000E+00
       11   -1    0    0    0    0  0.00000000000E+00  0.00000000000E+00  0.39999999673E+01  0.40000000000E+01  0.51109989000E-03 0. -1.
     -623   -1    0    0    0    0  0.00000000000E+00  0.00000000000E+00  0.12525980253E-10  0.17130000000E+03  0.17130000000E+03 0. -1.
       11    1    1    2    0    0 -0.11309963105E-01 -0.14464448640E-02  0.29792998106E-01  0.31904410753E-01  0.51109989000E-03 0. -1.
     -623    1    1    2    0    0  0.78511774722E-03 -0.35652714406E-02  0.23301716163E-02  0.17130000005E+03  0.17130000000E+03 0. -1.
      622    1    1    2    0    0  0.10524845358E-01  0.50117163046E-02  0.39678767976E+01  0.39680955345E+01  0.40000000000E-01 0. -1.
</event>
<event>
 5   0  0.6200596E+07  0.9118800E+02  0.7818608E-02  0.1180000E+00
       11   -1    0    0    0    0  0.00000000000E+00  0.00000000000E+00  0.39999999673E+01  0.40000000000E+01  0.51109989000E-03 0.  1.
     -623   -1    0    0    0    0  0.00000000000E+00  0.00000000000E+00  0.12525980253E-10  0.17130000000E+03  0.17130000000E+03 0.  1.
       11    1    1    2    0    0  0.64736537822E-02  0.17418149403E-01  0.87543099373E+00  0.87562833790E+00  0.51109989000E-03 0.  1.
     -623    1    1    2    0    0 -0.10335113496E-01 -0.27961298448E-02  0.49031369834E-03  0.17130000034E+03  0.17130000000E+03 0.  1.
      622    1    1    2    0    0  0.38614597137E-02 -0.14622019558E-01  0.31240786599E+01  0.31243713268E+01  0.40000000000E-01 0.  1.
</event>
<event>
 5   0  0.6200596E+07  0.9118800E+02  0.7818608E-02  0.1180000E+00
       11   -1    0    0    0    0  0.00000000000E+00  0.00000000000E+00  0.39999999673E+01  0.40000000000E+01  0.51109989000E-03 0.  1.
     -623   -1    0    0    0    0  0.00000000000E+00  0.00000000000E+00  0.12525980253E-10  0.17130000000E+03  0.17130000000E+03 0.  1.
       11    1    1    2    0    0 -0.39600571354E-03 -0.97559403747E-03  0.12019267120E-01  0.12076117267E-01  0.51109989000E-03 0.  1.
     -623    1    1    2    0    0  0.74909626171E-03 -0.33091977277E-03  0.25765999944E-03  0.17130000000E+03  0.17130000000E+03 0.  1.
      622    1    1    2    0    0 -0.35309054817E-03  0.13065138102E-02  0.39877230402E+01  0.39879238806E+01  0.40000000000E-01 0.  1.
</event>
<event>
 5   0  0.6200596E+07  0.9118800E+02  0.7818608E-02  0.1180000E+00
       11   -1    0    0    0    0  0.00000000000E+00  0.00000000000E+00  0.39999999673E+01  0.40000000000E+01  0.51109989000E-03 0.  1.
     -623   -1    0    0    0    0  0.00000000000E+00  0.00000000000E+00  0.12525980253E-10  0.17130000000E+03  0.17130000000E+03 0.  1.
       11    1    1    2    0    0  0.47564481160E-02  0.74763401473E-02  0.26844316479E+00  0.26858986095E+00  0.51109989000E-03 0.  1.
     -623    1    1    2    0    0 -0.13017269529E-03  0.11672263813E-02  0.37395003513E-03  0.17130000000E+03  0.17130000000E+03 0.  1.
      622    1    1    2    0    0 -0.46262754207E-02 -0.86435665286E-02  0.37311828525E+01  0.37314101346E+01  0.40000000000E-01 0.  1.
</event>
<event>
 5   0  0.6200596E+07  0.9118800E+02  0.7818608E-02  0.1180000E+00
       11   -1    0    0    0    0  0.00000000000E+00  0.00000000000E+00  0.39999999673E+01  0.40000000000E+01  0.51109989000E-03 0.  1.
     -623   -1    0    0    0    0  0.00000000000E+00  0.00000000000E+00  0.12525980253E-10  0.17130000000E+03  0.17130000000E+03 0.  1.
       11    1    1    2    0    0 -0.18836755227E-02  0.29721031455E-02  0.73226809613E-02  0.81403014694E-02  0.51109989000E-03 0.  1.
     -623    1    1    2    0    0  0.41276234468E-02 -0.28789836367E-02  0.10187095134E-02  0.17130000008E+03  0.17130000000E+03 0.  1.
      622    1    1    2    0    0 -0.22439479240E-02 -0.93119508776E-04  0.39916585769E+01  0.39918596216E+01  0.40000000000E-01 0.  1.
</event>
<event>
 5   0  0.6200596E+07  0.9118800E+02  0.7818608E-02  0.1180000E+00
       11   -1    0    0    0    0  0.00000000000E+00  0.00000000000E+00  0.39999999673E+01  0.40000000000E+01  0.51109989000E-03 0.  1.
     -623   -1    0    0    0    0  0.00000000000E+00  0.00000000000E+00  0.12525980253E-10  0.17130000000E+03  0.17130000000E+03 0. -1.
       11    1    1    2    0    0  0.90445012298E-02  0.14032182332E-01  0.36967512963E-01  0.40565544240E-01  0.51109989000E-03 0.  1.
     -623    1    1    2    0    0 -0.18822452048E-02 -0.19646581041E-01  0.38116913406E-02  0.17130000118E+03  0.17130000000E+03 0. -1.
      622    1    1    2    0    0 -0.71622560250E-02  0.56143987090E-02  0.39592207631E+01  0.39594332764E+01  0.40000000000E-01 0.  1.
</event>
<event>
 5   0  0.6200596E+07  0.9118800E+02  0.7818608E-02  0.1180000E+00
       11   -1    0    0    0    0  0.00000000000E+00  0.00000000000E+00  0.39999999673E+01  0.40000000000E+01  0.51109989000E-03 0. -1.
     -623   -1    0    0    0    0  0.00000000000E+00  0.00000000000E+00  0.12525980253E-10  0.17130000000E+03  0.17130000000E+03 0.  1.
       11    1    1    2    0    0 -0.31797477355E-01 -0.22968645400E-01  0.20753868317E+01  0.20757575486E+01  0.51109989000E-03 0. -1.
     -623    1    1    2    0    0  0.92401623512E-03  0.97884659388E-03  0.11599247984E-02  0.17130000001E+03  0.17130000000E+03 0.  1.
      622    1    1    2    0    0  0.30873461120E-01  0.21989798806E-01  0.19234532109E+01  0.19242424422E+01  0.40000000000E-01 0.  0.
</event>
<event>
 5   0  0.6200596E+07  0.9118800E+02  0.7818608E-02  0.1180000E+00
       11   -1    0    0    0    0  0.00000000000E+00  0.00000000000E+00  0.39999999673E+01  0.40000000000E+01  0.51109989000E-03 0. -1.
     -623   -1    0    0    0    0  0.00000000000E+00  0.00000000000E+00  0.12525980253E-10  0.17130000000E+03  0.17130000000E+03 0. -1.
       11    1    1    2    0    0  0.81216726195E-04 -0.95389147827E-02  0.30535534480E-01  0.31994961757E-01  0.51109989000E-03 0. -1.
     -623    1    1    2    0    0  0.51354135057E-02  0.67383664028E-02  0.16656476231E-02  0.17130000022E+03  0.17130000000E+03 0. -1.
      622    1    1    2    0    0 -0.52166302319E-02  0.28005483799E-02  0.39677987853E+01  0.39680048206E+01  0.40000000000E-01 0. -1.
</event>
<event>
 5   0  0.6200596E+07  0.9118800E+02  0.7818608E-02  0.1180000E+00
       11   -1    0    0    0    0  0.00000000000E+00  0.00000000000E+00  0.39999999673E+01  0.40000000000E+01  0.51109989000E-03 0.  1.
     -623   -1    0    0    0    0  0.00000000000E+00  0.00000000000E+00  0.12525980253E-10  0.17130000000E+03  0.17130000000E+03 0. -1.
       11    1    1    2    0    0  0.62886332954E-02 -0.33751583487E-02  0.57374223358E+00  0.57378685103E+00  0.51109989000E-03 0.  1.
     -623    1    1    2    0    0  0.53969773842E-02  0.90801424075E-03  0.29899190941E-03  0.17130000009E+03  0.17130000000E+03 0. -1.
      622    1    1    2    0    0 -0.11685610680E-01  0.24671441080E-02  0.34259587419E+01  0.34262130613E+01  0.40000000000E-01 0.  1.
</event>
<event>
 5   0  0.6200596E+07  0.9118800E+02  0.7818608E-02  0.1180000E+00
       11   -1    0    0    0    0  0.00000000000E+00  0.00000000000E+00  0.39999999673E+01  0.40000000000E+01  0.51109989000E-03 0. -1.
     -623   -1    0    0    0    0  0.00000000000E+00  0.00000000000E+00  0.12525980253E-10  0.17130000000E+03  0.17130000000E+03 0. -1.
       11    1    1    2    0    0 -0.52201392271E-03  0.16286567762E-02  0.90543346088E-01  0.90560939505E-01  0.51109989000E-03 0. -1.
     -623    1    1    2    0    0 -0.22399470982E-03 -0.37547150883E-02  0.22288982926E-03  0.17130000004E+03  0.17130000000E+03 0. -1.
      622    1    1    2    0    0  0.74600863254E-03  0.21260583121E-02  0.39092337314E+01  0.39094390191E+01  0.40000000000E-01 0. -1.
</event>
<event>
 5   0  0.6200596E+07  0.9118800E+02  0.7818608E-02  0.1180000E+00
       11   -1    0    0    0    0  0.00000000000E+00  0.00000000000E+00  0.39999999673E+01  0.40000000000E+01  0.51109989000E-03 0.  1.
     -623   -1    0    0    0    0  0.00000000000E+00  0.00000000000E+00  0.12525980253E-10  0.17130000000E+03  0.17130000000E+03 0.  1.
       11    1    1    2    0    0 -0.90708486126E-02  0.26417876500E-01  0.12801584315E+01  0.12804632191E+01  0.51109989000E-03 0.  1.
     -623    1    1    2    0    0 -0.13680645929E-01 -0.17200175985E-01  0.71115465064E-03  0.17130000141E+03  0.17130000000E+03 0.  1.
      622    1    1    2    0    0  0.22751494542E-01 -0.92177005147E-02  0.27191303812E+01  0.27195353696E+01  0.40000000000E-01 0.  1.
</event>
<event>
 5   0  0.6200596E+07  0.9118800E+02  0.7818608E-02  0.1180000E+00
       11   -1    0    0    0    0  0.00000000000E+00  0.00000000000E+00  0.39999999673E+01  0.40000000000E+01  0.51109989000E-03 0.  1.
     -623   -1    0    0    0    0  0.00000000000E+00  0.00000000000E+00  0.12525980253E-10  0.17130000000E+03  0.17130000000E+03 0. -1.
       11    1    1    2    0    0 -0.13264781748E-03  0.31386997153E-04  0.20633381064E-01  0.20640160290E-01  0.51109989000E-03 0.  1.
     -623    1    1    2    0    0 -0.10856527231E-02  0.49391154968E-03  0.20801448067E-03  0.17130000000E+03  0.17130000000E+03 0. -1.
      622    1    1    2    0    0  0.12183005405E-02 -0.52529854683E-03  0.39791585718E+01  0.39793598354E+01  0.40000000000E-01 0.  1.
</event>
<event>
 5   0  0.6200596E+07  0.9118800E+02  0.7818608E-02  0.1180000E+00
       11   -1    0    0    0    0  0.00000000000E+00  0.00000000000E+00  0.39999999673E+01  0.40000000000E+01  0.51109989000E-03 0. -1.
     -623   -1    0    0    0    0  0.00000000000E+00  0.00000000000E+00  0.12525980253E-10  0.17130000000E+03  0.17130000000E+03 0.  1.
       11    1    1    2    0    0  0.84653689351E-03 -0.83859575043E-03  0.91488906192E-02  0.92403078654E-02  0.51109989000E-03 0. -1.
     -623    1    1    2    0    0 -0.36967440318E-03  0.43403078919E-03  0.29190292310E-03  0.17130000000E+03  0.17130000000E+03 0.  1.
      622    1    1    2    0    0 -0.47686249032E-03  0.40456496124E-03  0.39905591738E+01  0.39907596909E+01  0.40000000000E-01 0. -1.
</event>
<event>
 5   0  0.6200596E+07  0.9118800E+02  0.7818608E-02  0.1180000E+00
       11   -1    0    0    0    0  0.00000000000E+00  0.00000000000E+00  0.39999999673E+01  0.40000000000E+01  0.51109989000E-03 0. -1.
     -623   -1    0    0    0    0  0.00000000000E+00  0.00000000000E+00  0.12525980253E-10  0.17130000000E+03  0.17130000000E+03 0.  1.
       11    1    1    2    0    0  0.48554303884E-02 -0.71739481305E-01  0.24812941517E+00  0.25833814329E+00  0.51109989000E-03 0. -1.
     -623    1    1    2    0    0 -0.51263316620E-02  0.17774247917E-01  0.10813067784E-01  0.17130000134E+03  0.17130000000E+03 0.  1.
      622    1    1    2    0    0  0.27090127368E-03  0.53965233387E-01  0.37410574844E+01  0.37416605166E+01  0.40000000000E-01 0. -1.
</event>
<event>
 5   0  0.6200596E+07  0.9118800E+02  0.7818608E-02  0.1180000E+00
       11   -1    0    0    0    0  0.00000000000E+00  0.00000000000E+00  0.39999999673E+01  0.40000000000E+01  0.51109989000E-03 0.  1.
     -623   -1    0    0    0    0  0.00000000000E+00  0.00000000000E+00  0.12525980253E-10  0.17130000000E+03  0.17130000000E+03 0. -1.
       11    1    1    2    0    0 -0.19659674620E-01  0.79706344022E-02  0.12792591380E+01  0.12794351243E+01  0.51109989000E-03 0.  1.
     -623    1    1    2    0    0 -0.24862768330E-02  0.16109183096E-03  0.57234723084E-03  0.17130000002E+03  0.17130000000E+03 0. -1.
      622    1    1    2    0    0  0.22145951453E-01 -0.81317262332E-02  0.27201684821E+01  0.27205648566E+01  0.40000000000E-01 0.  0.
</event>
<event>
 5   0  0.6200596E+07  0.9118800E+02  0.7818608E-02  0.1180000E+00
       11   -1    0    0    0    0  0.00000000000E+00  0.00000000000E+00  0.39999999673E+01  0.40000000000E+01  0.51109989000E-03 0. -1.
     -623   -1    0    0    0    0  0.00000000000E+00  0.00000000000E+00  0.12525980253E-10  0.17130000000E+03  0.17130000000E+03 0.  1.
       11    1    1    2    0    0 -0.17495673164E-02 -0.61243076730E-02  0.75325862057E+00  0.75328572190E+00  0.51109989000E-03 0. -1.
     -623    1    1    2    0    0 -0.25343592779E-02  0.25477163388E-01  0.33590502216E-03  0.17130000191E+03  0.17130000000E+03 0.  1.
      622    1    1    2    0    0  0.42839265943E-02 -0.19352855715E-01  0.32464054418E+01  0.32467123644E+01  0.40000000000E-01 0. -1.
</event>
<event>
 5   0  0.6200596E+07  0.9118800E+02  0.7818608E-02  0.1180000E+00
       11   -1    0    0    0    0  0.00000000000E+00  0.00000000000E+00  0.39999999673E+01  0.40000000000E+01  0.51109989000E-03 0.  1.
     -623   -1    0    0    0    0  0.00000000000E+00  0.00000000000E+00  0.12525980253E-10  0.17130000000E+03  0.17130000000E+03 0.  1.
       11    1    1    2    0    0  0.45084725646E-02  0.46384591700E-02  0.17960545169E+00  0.17972262274E+00  0.51109989000E-03 0.  1.
     -623    1    1    2    0    0  0.27477020315E-02 -0.66524609745E-02  0.33412700283E-03  0.17130000015E+03  0.17130000000E+03 0.  1.
      622    1    1    2    0    0 -0.72561745961E-02  0.20140018044E-02  0.38200603887E+01  0.38202772257E+01  0.40000000000E-01 0.  1.
</event>
<event>
 5   0  0.6200596E+07  0.9118800E+02  0.7818608E-02  0.1180000E+00
       11   -1    0    0    0    0  0.00000000000E+00  0.00000000000E+00  0.39999999673E+01  0.40000000000E+01  0.51109989000E-03 0. -1.
     -623   -1    0    0    0    0  0.00000000000E+00  0.00000000000E+00  0.12525980253E-10  0.17130000000E+03  0.17130000000E+03 0. -1.
       11    1    1    2    0    0 -0.35126479226E-02 -0.33395445890E-01  0.22537000035E+01  0.22539502127E+01  0.51109989000E-03 0. -1.
     -623    1    1    2    0    0 -0.31762479631E-01  0.38134620532E-01  0.10785030904E-02  0.17130000719E+03  0.17130000000E+03 0. -1.
      622    1    1    2    0    0  0.35275127553E-01 -0.47391746419E-02  0.17452214608E+01  0.17460425945E+01  0.40000000000E-01 0. -1.
</event>
<event>
 5   0  0.6200596E+07  0.9118800E+02  0.7818608E-02  0.1180000E+00
       11   -1    0    0    0    0  0.00000000000E+00  0.00000000000E+00  0.39999999673E+01  0.40000000000E+01  0.51109989000E-03 0.  1.
     -623   -1    0    0    0    0  0.00000000000E+00  0.00000000000E+00  0.12525980253E-10  0.17130000000E+03  0.17130000000E+03 0. -1.
       11    1    1    2    0    0  0.20184067824E-02 -0.18454112809E-02  0.28393705550E+00  0.28395068624E+00  0.51109989000E-03 0.  1.
     -623    1    1    2    0    0  0.36262417062E-03 -0.10425691613E-03  0.23016165056E-03  0.17130000000E+03  0.17130000000E+03 0. -1.
      622    1    1    2    0    0 -0.23810309530E-02  0.19496681970E-02  0.37158327502E+01  0.37160493132E+01  0.40000000000E-01 0.  1.
</event>
<event>
 5   0  0.6200596E+07  0.9118800E+02  0.7818608E-02  0.1180000E+00
       11   -1    0    0    0    0  0.00000000000E+00  0.00000000000E+00  0.39999999673E+01  0.40000000000E+01  0.51109989000E-03 0.  1.
     -623   -1    0    0    0    0  0.00000000000E+00  0.00000000000E+00  0.12525980253E-10  0.17130000000E+03  0.17130000000E+03 0. -1.
       11    1    1    2    0    0 -0.37714809507E-02 -0.99337666950E-02  0.14129666357E+01  0.14130066803E+01  0.51109989000E-03 0.  1.
     -623    1    1    2    0    0 -0.35272564688E-03  0.40663849675E-03  0.37010379176E-03  0.17130000000E+03  0.17130000000E+03 0. -1.
      622    1    1    2    0    0  0.41242065976E-02  0.95271281982E-02  0.25866632279E+01  0.25869933185E+01  0.40000000000E-01 0.  1.
</event>
<event>
 5   0  0.6200596E+07  0.9118800E+02  0.7818608E-02  0.1180000E+00
       11   -1    0    0    0    0  0.00000000000E+00  0.00000000000E+00  0.39999999673E+01  0.40000000000E+01  0.51109989000E-03 0. -1.
     -623   -1    0    0    0    0  0.00000000000E+00  0.00000000000E+00  0.12525980253E-10  0.17130000000E+03  0.17130000000E+03 0.  1.
       11    1    1    2    0    0  0.70534263214E-02  0.26175258419E-03  0.27560247014E-01  0.28454310311E-01  0.51109989000E-03 0. -1.
     -623    1    1    2    0    0 -0.10027944352E-01  0.42046201405E-02  0.10994428470E-02  0.17130000035E+03  0.17130000000E+03 0.  1.
      622    1    1    2    0    0  0.29745180303E-02 -0.44663727247E-02  0.39713402775E+01  0.39715453410E+01  0.40000000000E-01 0. -1.
</event>
<event>
 5   0  0.6200596E+07  0.9118800E+02  0.7818608E-02  0.1180000E+00
       11   -1    0    0    0    0  0.00000000000E+00  0.00000000000E+00  0.39999999673E+01  0.40000000000E+01  0.51109989000E-03 0. -1.
     -623   -1    0    0    0    0  0.00000000000E+00  0.00000000000E+00  0.12525980253E-10  0.17130000000E+03  0.17130000000E+03 0.  1.
       11    1    1    2    0    0  0.54927839461E-01 -0.18284267486E-03  0.17131541286E+01  0.17140345477E+01  0.51109989000E-03 0. -1.
     -623    1    1    2    0    0  0.13619782476E-01  0.50372511296E-02  0.22642960893E-02  0.17130000063E+03  0.17130000000E+03 0.  1.
      622    1    1    2    0    0 -0.68547621937E-01 -0.48544084547E-02  0.22845815426E+01  0.22859648219E+01  0.40000000000E-01 0. -1.
</event>
<event>
 5   0  0.6200596E+07  0.9118800E+02  0.7818608E-02  0.1180000E+00
       11   -1    0    0    0    0  0.00000000000E+00  0.00000000000E+00  0.39999999673E+01  0.40000000000E+01  0.51109989000E-03 0.  1.
     -623   -1    0    0    0    0  0.00000000000E+00  0.00000000000E+00  0.12525980253E-10  0.17130000000E+03  0.17130000000E+03 0.  1.
       11    1    1    2    0    0  0.15054712260E-01 -0.11107086733E-01  0.10850869276E+00  0.11011089576E+00  0.51109989000E-03 0.  1.
     -623    1    1    2    0    0  0.54445208820E-03  0.13541353878E-02  0.18513602705E-02  0.17130000002E+03  0.17130000000E+03 0.  1.
      622    1    1    2    0    0 -0.15599164349E-01  0.97529513450E-02  0.38896399143E+01  0.38898890880E+01  0.40000000000E-01 0.  1.
</event>
<event>
 5   0  0.6200596E+07  0.9118800E+02  0.7818608E-02  0.1180000E+00
       11   -1    0    0    0    0  0.00000000000E+00  0.00000000000E+00  0.39999999673E+01  0.40000000000E+01  0.51109989000E-03 0. -1.
     -623   -1    0    0    0    0  0.00000000000E+00  0.00000000000E+00  0.12525980253E-10  0.17130000000E+03  0.17130000000E+03 0. -1.
       11    1    1    2    0    0  0.83380421124E-02  0.35725437979E-02  0.21315954327E+01  0.21316147954E+01  0.51109989000E-03 0. -1.
     -623    1    1    2    0    0 -0.46799574832E-01 -0.11070554290E-01  0.86537053398E-03  0.17130000675E+03  0.17130000000E+03 0. -1.
      622    1    1    2    0    0  0.38461532720E-01  0.74980104920E-02  0.18675391641E+01  0.18683784518E+01  0.40000000000E-01 0.  0.
</event>
<event>
 5   0  0.6200596E+07  0.9118800E+02  0.7818608E-02  0.1180000E+00
       11   -1    0    0    0    0  0.00000000000E+00  0.00000000000E+00  0.39999999673E+01  0.40000000000E+01  0.51109989000E-03 0.  1.
     -623   -1    0    0    0    0  0.00000000000E+00  0.00000000000E+00  0.12525980253E-10  0.17130000000E+03  0.17130000000E+03 0. -1.
       11    1    1    2    0    0  0.68549905982E-01  0.25067039791E-01  0.18977671148E+01  0.18991702739E+01  0.51109989000E-03 0.  1.
     -623    1    1    2    0    0 -0.15813046663E-01 -0.10870194262E-01  0.24951977325E-02  0.17130000109E+03  0.17130000000E+03 0. -1.
      622    1    1    2    0    0 -0.52736859319E-01 -0.14196845529E-01  0.20997376548E+01  0.21008286332E+01  0.40000000000E-01 0. -1.
</event>
<event>
 5   0  0.6200596E+07  0.9118800E+02  0.7818608E-02  0.1180000E+00
       11   -1    0    0    0    0  0.00000000000E+00  0.00000000000E+00  0.39999999673E+01  0.40000000000E+01  0.51109989000E-03 0. -1.
     -623   -1    0    0    0    0  0.00000000000E+00  0.00000000000E+00  0.12525980253E-10  0.17130000000E+03  0.17130000000E+03 0. -1.
       11    1    1    2    0    0  0.21606946335E-02  0.28063055916E-02  0.54333989779E+00  0.54335168142E+00  0.51109989000E-03 0. -1.
     -623    1    1    2    0    0 -0.26195577647E-03  0.10557646872E-02  0.24587962903E-03  0.17130000000E+03  0.17130000000E+03 0. -1.
      622    1    1    2    0    0 -0.18987388570E-02 -0.38620702789E-02  0.34564141899E+01  0.34566483149E+01  0.40000000000E-01 0. -1.
</event>
<event>
 5   0  0.6200596E+07  0.9118800E+02  0.7818608E-02  0.1180000E+00
       11   -1    0    0    0    0  0.00000000000E+00  0.00000000000E+00  0.39999999673E+01  0.40000000000E+01  0.51109989000E-03 0.  1.
     -623   -1    0    0    0    0  0.00000000000E+00  0.00000000000E+00  0.12525980253E-10  0.17130000000E+03  0.17130000000E+03 0. -1.
       11    1    1    2    0    0 -0.75335185122E-02 -0.15012456737E-01  0.51096004384E+00  0.51123630092E+00  0.51109989000E-03 0.  1.
     -623    1    1    2    0    0 -0.10301168940E-02 -0.17239553220E-02  0.55621046975E-03  0.17130000001E+03  0.17130000000E+03 0. -1.
      622    1    1    2    0    0  0.85636354062E-02  0.16736412059E-01  0.34884837131E+01  0.34887636864E+01  0.40000000000E-01 0.  1.
</event>
<event>
 5   0  0.6200596E+07  0.9118800E+02  0.7818608E-02  0.1180000E+00
       11   -1    0    0    0    0  0.00000000000E+00  0.00000000000E+00  0.39999999673E+01  0.40000000000E+01  0.51109989000E-03 0. -1.
     -623   -1    0    0    0    0  0.00000000000E+00  0.00000000000E+00  0.12525980253E-10  0.17130000000E+03  0.17130000000E+03 0. -1.
       11    1    1    2    0    0  0.49628790911E-02  0.88665845118E-02  0.40420644193E+00  0.40433445984E+00  0.51109989000E-03 0. -1.
     -623    1    1    2    0    0 -0.42655120092E-03  0.17606669846E-03  0.36471628098E-03  0.17130000000E+03  0.17130000000E+03 0. -1.
      622    1    1    2    0    0 -0.45363278902E-02 -0.90426512102E-02  0.35954288091E+01  0.35956655392E+01  0.40000000000E-01 0. -1.
</event>
<event>
 5   0  0.6200596E+07  0.9118800E+02  0.7818608E-02  0.1180000E+00
       11   -1    0    0    0    0  0.00000000000E+00  0.00000000000E+00  0.39999999673E+01  0.40000000000E+01  0.51109989000E-03 0.  1.
     -623   -1    0    0    0    0  0.00000000000E+00  0.00000000000E+00  0.12525980253E-10  0.17130000000E+03  0.17130000000E+03 0.  1.
       11    1    1    2    0    0  0.22560551598E-01 -0.62734207927E-02  0.13323774726E+01  0.13325833276E+01  0.51109989000E-03 0.  1.
     -623    1    1    2    0    0 -0.10119016324E-02 -0.14386898384E-02  0.60396663749E-03  0.17130000001E+03  0.17130000000E+03 0.  1.
      622    1    1    2    0    0 -0.21548649966E-01  0.77121106311E-02  0.26670185281E+01  0.26674166623E+01  0.40000000000E-01 0.  1.
</event>
<event>
 5   0  0.6200596E+07  0.9118800E+02  0.7818608E-02  0.1180000E+00
       11   -1    0    0    0    0  0.00000000000E+00  0.00000000000E+00  0.39999999673E+01  0.40000000000E+01  0.51109989000E-03 0.  1.
     -623   -1    0    0    0    0  0.00000000000E+00  0.00000000000E+00  0.12525980253E-10  0.17130000000E+03  0.17130000000E+03 0.  1.
       11    1    1    2    0    0  0.13988988392E-01  0.11344268502E-01  0.23144393586E+01  0.23145094923E+01  0.51109989000E-03 0.  1.
     -623    1    1    2    0    0 -0.78511098549E-03 -0.14378590174E-02  0.62567177859E-03  0.17130000001E+03  0.17130000000E+03 0.  1.
      622    1    1    2    0    0 -0.13203877407E-01 -0.99064094849E-02  0.16849349370E+01  0.16854904987E+01  0.40000000000E-01 0.  0.
</event>
<event>
 5   0  0.6200596E+07  0.9118800E+02  0.7818608E-02  0.1180000E+00
       11   -1    0    0    0    0  0.00000000000E+00  0.00000000000E+00  0.39999999673E+01  0.40000000000E+01  0.51109989000E-03 0. -1.
     -623   -1    0    0    0    0  0.00000000000E+00  0.00000000000E+00  0.12525980253E-10  0.17130000000E+03  0.17130000000E+03 0.  1.
       11    1    1    2    0    0  0.43244069856E-01 -0.23909300348E-02  0.31977355337E+01  0.31980288571E+01  0.51109989000E-03 0. -1.
     -623    1    1    2    0    0  0.25324073381E-01  0.89766616891E-02  0.42611208430E-02  0.17130000216E+03  0.17130000000E+03 0.  1.
      622    1    1    2    0    0 -0.68568143237E-01 -0.65857316543E-02  0.79800331282E+00  0.80196898282E+00  0.40000000000E-01 0. -1.
</event>
<event>
 5   0  0.6200596E+07  0.9118800E+02  0.7818608E-02  0.1180000E+00
       11   -1    0    0    0    0  0.00000000000E+00  0.00000000000E+00  0.39999999673E+01  0.40000000000E+01  0.51109989000E-03 0.  1.
     -623   -1    0    0    0    0  0.00000000000E+00  0.00000000000E+00  0.12525980253E-10  0.17130000000E+03  0.17130000000E+03 0. -1.
       11    1    1    2    0    0  0.27271123839E-02 -0.17661688561E-02  0.36410739435E+00  0.36412224917E+00  0.51109989000E-03 0.  1.
     -623    1    1    2    0    0 -0.12245898084E-02 -0.21884896949E-02  0.23733805619E-03  0.17130000002E+03  0.17130000000E+03 0. -1.
      622    1    1    2    0    0 -0.15025225755E-02  0.39546585511E-02  0.36356552350E+01  0.36358777323E+01  0.40000000000E-01 0.  1.
</event>
<event>
 5   0  0.6200596E+07  0.9118800E+02  0.7818608E-02  0.1180000E+00
       11   -1    0    0    0    0  0.00000000000E+00  0.00000000000E+00  0.39999999673E+01  0.40000000000E+01  0.51109989000E-03 0. -1.
     -623   -1    0    0    0    0  0.00000000000E+00  0.00000000000E+00  0.12525980253E-10  0.17130000000E+03  0.17130000000E+03 0.  1.
       11    1    1    2    0    0  0.17304043131E-02 -0.47041724383E-02  0.20694917600E-01  0.21299398428E-01  0.51109989000E-03 0. -1.
     -623    1    1    2    0    0 -0.27513305050E-02  0.71086441639E-03  0.80768449223E-03  0.17130000003E+03  0.17130000000E+03 0.  1.
      622    1    1    2    0    0  0.10209261919E-02  0.39933080219E-02  0.39784973653E+01  0.39787005761E+01  0.40000000000E-01 0. -1.
</event>
<event>
 5   0  0.6200596E+07  0.9118800E+02  0.7818608E-02  0.1180000E+00
       11   -1    0    0    0    0  0.00000000000E+00  0.00000000000E+00  0.39999999673E+01  0.40000000000E+01  0.51109989000E-03 0. -1.
     -623   -1    0    0    0    0  0.00000000000E+00  0.00000000000E+00  0.12525980253E-10  0.17130000000E+03  0.17130000000E+03 0. -1.
       11    1    1    2    0    0 -0.89556504877E-02 -0.80386036600E-02  0.51063710668E+00  0.51077914872E+00  0.51109989000E-03 0. -1.
     -623    1    1    2    0    0  0.25098920852E-01 -0.52411816049E-02  0.43583419542E-03  0.17130000192E+03  0.17130000000E+03 0. -1.
      622    1    1    2    0    0 -0.16143270364E-01  0.13279785265E-01  0.34889270265E+01  0.34892189318E+01  0.40000000000E-01 0. -1.
</event>
<event>
 5   0  0.6200596E+07  0.9118800E+02  0.7818608E-02  0.1180000E+00
       11   -1    0    0    0    0  0.00000000000E+00  0.00000000000E+00  0.39999999673E+01  0.40000000000E+01  0.51109989000E-03 0.  1.
     -623   -1    0    0    0    0  0.00000000000E+00  0.00000000000E+00  0.12525980253E-10  0.17130000000E+03  0.17130000000E+03 0.  1.
       11    1    1    2    0    0  0.10518447992E-01 -0.69054902537E-02  0.68163376151E-02  0.14319470104E-01  0.51109989000E-03 0.  1.
     -623    1    1    2    0    0 -0.11078558874E-01  0.71840570678E-02  0.77045547289E-02  0.17130000068E+03  0.17130000000E+03 0.  1.
      622    1    1    2    0    0  0.56011088227E-03 -0.27856681409E-03  0.39854790750E+01  0.39856798477E+01  0.40000000000E-01 0.  1.
</event>
<event>
 5   0  0.6200596E+07  0.9118800E+02  0.7818608E-02  0.1180000E+00
       11   -1    0    0    0    0  0.00000000000E+00  0.00000000000E+00  0.39999999673E+01  0.40000000000E+01  0.51109989000E-03 0. -1.
     -623   -1    0    0    0    0  0.00000000000E+00  0.00000000000E+00  0.12525980253E-10  0.17130000000E+03  0.17130000000E+03 0.  1.
       11    1    1    2    0    0 -0.57272295031E-02  0.77601353035E-02  0.29722165328E+00  0.29737853530E+00  0.51109989000E-03 0. -1.
     -623    1    1    2    0    0  0.81352524592E-03  0.16551070739E-02  0.38816138228E-03  0.17130000001E+03  0.17130000000E+03 0.  1.
      622    1    1    2    0    0  0.49137042571E-02 -0.94152423774E-02  0.37023901527E+01  0.37026214543E+01  0.40000000000E-01 0. -1.
</event>
<event>
 5   0  0.6200596E+07  0.9118800E+02  0.7818608E-02  0.1180000E+00
       11   -1    0    0    0    0  0.00000000000E+00  0.00000000000E+00  0.39999999673E+01  0.40000000000E+01  0.51109989000E-03 0.  1.
     -623   -1    0    0    0    0  0.00000000000E+00  0.00000000000E+00  0.12525980253E-10  0.17130000000E+03  0.17130000000E+03 0. -1.
       11    1    1    2    0    0  0.26521377024E-03 -0.60581780533E-03  0.84042950434E-03  0.11852832119E-02  0.51109989000E-03 0.  1.
     -623    1    1    2    0    0 -0.14485234288E-02  0.19775441486E-02  0.54531413580E-03  0.17130000002E+03  0.17130000000E+03 0. -1.
      622    1    1    2    0    0  0.11833096585E-02 -0.13717263432E-02  0.39986142237E+01  0.39988146984E+01  0.40000000000E-01 0.  1.
</event>
<event>
 5   0  0.6200596E+07  0.9118800E+02  0.7818608E-02  0.1180000E+00
       11   -1    0    0    0    0  0.00000000000E+00  0.00000000000E+00  0.39999999673E+01  0.40000000000E+01  0.51109989000E-03 0.  1.
     -623   -1    0    0    0    0  0.00000000000E+00  0.00000000000E+00  0.12525980253E-10  0.17130000000E+03  0.17130000000E+03 0. -1.
       11    1    1    2    0    0  0.38355416202E-01 -0.96804898555E-03  0.12576067098E+01  0.12581919459E+01  0.51109989000E-03 0.  1.
     -623    1    1    2    0    0  0.38979748888E-03 -0.10545117153E-02  0.11515532364E-02  0.17130000001E+03  0.17130000000E+03 0. -1.
      622    1    1    2    0    0 -0.38745213691E-01  0.20225607009E-02  0.27412417043E+01  0.27418080465E+01  0.40000000000E-01 0.  1.
</event>
<event>
 5   0  0.6200596E+07  0.9118800E+02  0.7818608E-02  0.1180000E+00
       11   -1    0    0    0    0  0.00000000000E+00  0.00000000000E+00  0.39999999673E+01  0.40000000000E+01  0.51109989000E-03 0.  1.
     -623   -1    0    0    0    0  0.00000000000E+00  0.00000000000E+00  0.12525980253E-10  0.17130000000E+03  0.17130000000E+03 0.  1.
       11    1    1    2    0    0 -0.17741095268E-01 -0.23255873882E-01  0.16851571069E+00  0.17103621868E+00  0.51109989000E-03 0.  1.
     -623    1    1    2    0    0 -0.17217014799E-02 -0.36435469250E-02  0.28734496266E-02  0.17130000007E+03  0.17130000000E+03 0.  1.
      622    1    1    2    0    0  0.19462796748E-01  0.26899420807E-01  0.38286108070E+01  0.38289637098E+01  0.40000000000E-01 0.  1.
</event>
<event>
 5   0  0.6200596E+07  0.9118800E+02  0.7818608E-02  0.1180000E+00
       11   -1    0    0    0    0  0.00000000000E+00  0.00000000000E+00  0.39999999673E+01  0.40000000000E+01  0.51109989000E-03 0. -1.
     -623   -1    0    0    0    0  0.00000000000E+00  0.00000000000E+00  0.12525980253E-10  0.17130000000E+03  0.17130000000E+03 0.  1.
       11    1    1    2    0    0 -0.50057667089E-02  0.24062852433E-02  0.27603490693E-01  0.28161353473E-01  0.51109989000E-03 0. -1.
     -623    1    1    2    0    0  0.25973411458E-03 -0.11086705259E-02  0.76230647013E-03  0.17130000001E+03  0.17130000000E+03 0.  1.
      622    1    1    2    0    0  0.47460325943E-02 -0.12976147173E-02  0.39716341702E+01  0.39718386410E+01  0.40000000000E-01 0. -1.
</event>
<event>
 5   0  0.6200596E+07  0.9118800E+02  0.7818608E-02  0.1180000E+00
       11   -1    0    0    0    0  0.00000000000E+00  0.00000000000E+00  0.39999999673E+01  0.40000000000E+01  0.51109989000E-03 0.  1.
     -623   -1    0    0    0    0  0.00000000000E+00  0.00000000000E+00  0.12525980253E-10  0.17130000000E+03  0.17130000000E+03 0. -1.
       11    1    1    2    0    0 -0.49243893098E-02  0.90618207883E-02  0.29176401604E+00  0.29194668774E+00  0.51109989000E-03 0.  1.
     -623    1    1    2    0    0  0.28260732243E-02 -0.53982233616E-02  0.40090448962E-03  0.17130000011E+03  0.17130000000E+03 0. -1.
      622    1    1    2    0    0  0.20983160854E-02 -0.36635974267E-02  0.37078350468E+01  0.37080532034E+01  0.40000000000E-01 0.  1.
</event>
<event>
 5   0  0.6200596E+07  0.9118800E+02  0.7818608E-02  0.1180000E+00
       11   -1    0    0    0    0  0.00000000000E+00  0.00000000000E+00  0.39999999673E+01  0.40000000000E+01  0.51109989000E-03 0. -1.
     -623   -1    0    0    0    0  0.00000000000E+00  0.00000000000E+00  0.12525980253E-10  0.17130000000E+03  0.17130000000E+03 0. -1.
       11    1    1    2    0    0 -0.42507263275E-03 -0.11997388509E-05  0.17357791824E-02  0.18587193999E-02  0.51109989000E-03 0. -1.
     -623    1    1    2    0    0 -0.32310415678E-06 -0.14173828856E-02  0.32328604151E-03  0.17130000001E+03  0.17130000000E+03 0. -1.
      622    1    1    2    0    0  0.42539573691E-03  0.14185826245E-02  0.39979409021E+01  0.39981412744E+01  0.40000000000E-01 0. -1.
</event>
<event>
 5   0  0.6200596E+07  0.9118800E+02  0.7818608E-02  0.1180000E+00
       11   -1    0    0    0    0  0.00000000000E+00  0.00000000000E+00  0.39999999673E+01  0.40000000000E+01  0.51109989000E-03 0. -1.
     -623   -1    0    0    0    0  0.00000000000E+00  0.00000000000E+00  0.12525980253E-10  0.17130000000E+03  0.17130000000E+03 0. -1.
       11    1    1    2    0    0 -0.90978091373E-04  0.85259514516E-03  0.10097024602E-01  0.10146246706E-01  0.51109989000E-03 0. -1.
     -623    1    1    2    0    0 -0.61741935036E-03 -0.22545162185E-02  0.25002843753E-03  0.17130000002E+03  0.17130000000E+03 0. -1.
      622    1    1    2    0    0  0.70839744173E-03  0.14019210733E-02  0.39896529143E+01  0.39898537372E+01  0.40000000000E-01 0. -1.
</event>
<event>
 5   0  0.6200596E+07  0.9118800E+02  0.7818608E-02  0.1180000E+00
       11   -1    0    0    0    0  0.00000000000E+00  0.00000000000E+00  0.39999999673E+01  0.40000000000E+01  0.51109989000E-03 0. -1.
     -623   -1    0    0    0    0  0.00000000000E+00  0.00000000000E+00  0.12525980253E-10  0.17130000000E+03  0.17130000000E+03 0.  1.
       11    1    1    2    0    0  0.17515168966E-02 -0.27445042861E-02  0.46222510345E-01  0.46339851101E-01  0.51109989000E-03 0. -1.
     -623    1    1    2    0    0 -0.13728903403E-02 -0.22062174197E-02  0.32279536256E-03  0.17130000002E+03  0.17130000000E+03 0.  1.
      622    1    1    2    0    0 -0.37862655624E-03  0.49507217057E-02  0.39534546617E+01  0.39536601289E+01  0.40000000000E-01 0. -1.
</event>
<event>
 5   0  0.6200596E+07  0.9118800E+02  0.7818608E-02  0.1180000E+00
       11   -1    0    0    0    0  0.00000000000E+00  0.00000000000E+00  0.39999999673E+01  0.40000000000E+01  0.51109989000E-03 0. -1.
     -623   -1    0    0    0    0  0.00000000000E+00  0.00000000000E+00  0.12525980253E-10  0.17130000000E+03  0.17130000000E+03 0. -1.
       11    1    1    2    0    0 -0.52558192087E-02  0.33489635130E-02  0.77840215901E-01  0.78090970185E-01  0.51109989000E-03 0. -1.
     -623    1    1    2    0    0 -0.32634348940E-03 -0.46540730093E-03  0.45974374974E-03  0.17130000000E+03  0.17130000000E+03 0. -1.
      622    1    1    2    0    0  0.55821626981E-02 -0.28835562121E-02  0.39217000077E+01  0.39219090283E+01  0.40000000000E-01 0. -1.
</event>
<event>
 5   0  0.6200596E+07  0.9118800E+02  0.7818608E-02  0.1180000E+00
       11   -1    0    0    0    0  0.00000000000E+00  0.00000000000E+00  0.39999999673E+01  0.40000000000E+01  0.51109989000E-03 0.  1.
     -623   -1    0    0    0    0  0.00000000000E+00  0.00000000000E+00  0.12525980253E-10  0.17130000000E+03  0.17130000000E+03 0.  1.
       11    1    1    2    0    0  0.70065879736E-03 -0.72860272633E-05  0.30271859979E-01  0.30284281456E-01  0.51109989000E-03 0.  1.
     -623    1    1    2    0    0  0.82569726186E-04 -0.63642209175E-03  0.21405051687E-03  0.17130000000E+03  0.17130000000E+03 0.  1.
      622    1    1    2    0    0 -0.78322852354E-03  0.64370811901E-03  0.39695140569E+01  0.39697157172E+01  0.40000000000E-01 0.  1.
</event>
<event>
 5   0  0.6200596E+07  0.9118800E+02  0.7818608E-02  0.1180000E+00
       11   -1    0    0    0    0  0.00000000000E+00  0.00000000000E+00  0.39999999673E+01  0.40000000000E+01  0.51109989000E-03 0.  1.
     -623   -1    0    0    0    0  0.00000000000E+00  0.00000000000E+00  0.12525980253E-10  0.17130000000E+03  0.17130000000E+03 0.  1.
       11    1    1    2    0    0 -0.35400066811E-02 -0.45509822156E-02  0.25480597994E+00  0.25487171620E+00  0.51109989000E-03 0.  1.
     -623    1    1    2    0    0  0.13674107476E-02 -0.17946405640E-02  0.28534208255E-03  0.17130000002E+03  0.17130000000E+03 0.  1.
      622    1    1    2    0    0  0.21725959335E-02  0.63456227796E-02  0.37449086453E+01  0.37451282687E+01  0.40000000000E-01 0.  1.
</event>
<event>
 5   0  0.6200596E+07  0.9118800E+02  0.7818608E-02  0.1180000E+00
       11   -1    0    0    0    0  0.00000000000E+00  0.00000000000E+00  0.39999999673E+01  0.40000000000E+01  0.51109989000E-03 0.  1.
     -623   -1    0    0    0    0  0.00000000000E+00  0.00000000000E+00  0.12525980253E-10  0.17130000000E+03  0.17130000000E+03 0. -1.
       11    1    1    2    0    0 -0.14814837747E-01 -0.33186091731E-02  0.17309325244E+00  0.17375853317E+00  0.51109989000E-03 0.  1.
     -623    1    1    2    0    0  0.17418341286E-01  0.29783327488E-02  0.87615095488E-03  0.17130000091E+03  0.17130000000E+03 0. -1.
      622    1    1    2    0    0 -0.26035035391E-02  0.34027642437E-03  0.38260305640E+01  0.38262405531E+01  0.40000000000E-01 0.  1.
</event>
<event>
 5   0  0.6200596E+07  0.9118800E+02  0.7818608E-02  0.1180000E+00
       11   -1    0    0    0    0  0.00000000000E+00  0.00000000000E+00  0.39999999673E+01  0.40000000000E+01  0.51109989000E-03 0.  1.
     -623   -1    0    0    0    0  0.00000000000E+00  0.00000000000E+00  0.12525980253E-10  0.17130000000E+03  0.17130000000E+03 0. -1.
       11    1    1    2    0    0  0.32675933491E-02  0.36479839743E-02  0.93812719175E-01  0.93941856765E-01  0.51109989000E-03 0.  1.
     -623    1    1    2    0    0  0.69228744232E-03 -0.12732490095E-02  0.33665608210E-03  0.17130000001E+03  0.17130000000E+03 0. -1.
      622    1    1    2    0    0 -0.39598807914E-02 -0.23747349649E-02  0.39058505921E+01  0.39060581368E+01  0.40000000000E-01 0.  1.
</event>
<event>
 5   0  0.6200596E+07  0.9118800E+02  0.7818608E-02  0.1180000E+00
       11   -1    0    0    0    0  0.00000000000E+00  0.00000000000E+00  0.39999999673E+01  0.40000000000E+01  0.51109989000E-03 0.  1.
     -623   -1    0    0    0    0  0.00000000000E+00  0.00000000000E+00  0.12525980253E-10  0.17130000000E+03  0.17130000000E+03 0.  1.
       11    1    1    2    0    0  0.13013792007E-01  0.22238433749E-01  0.46205419558E+00  0.46277234964E+00  0.51109989000E-03 0.  1.
     -623    1    1    2    0    0  0.68120668242E-03 -0.13172986003E-02  0.10326916868E-02  0.17130000001E+03  0.17130000000E+03 0.  1.
      622    1    1    2    0    0 -0.13694998689E-01 -0.20921135149E-01  0.35369130801E+01  0.35372276408E+01  0.40000000000E-01 0.  1.
</event>
<event>
 5   0  0.6200596E+07  0.9118800E+02  0.7818608E-02  0.1180000E+00
       11   -1    0    0    0    0  0.00000000000E+00  0.00000000000E+00  0.39999999673E+01  0.40000000000E+01  0.51109989000E-03 0. -1.
     -623   -1    0    0    0    0  0.00000000000E+00  0.00000000000E+00  0.12525980253E-10  0.17130000000E+03  0.17130000000E+03 0. -1.
       11    1    1    2    0    0  0.12425252287E-02 -0.13121845924E-01  0.57590737699E+00  0.57605841267E+00  0.51109989000E-03 0. -1.
     -623    1    1    2    0    0  0.72926819688E-03  0.89863677825E-03  0.40705156966E-03  0.17130000000E+03  0.17130000000E+03 0. -1.
      622    1    1    2    0    0 -0.19717934256E-02  0.12223209146E-01  0.34236855388E+01  0.34239415829E+01  0.40000000000E-01 0.  0.
</event>
<event>
 5   0  0.6200596E+07  0.9118800E+02  0.7818608E-02  0.1180000E+00
       11   -1    0    0    0    0  0.00000000000E+00  0.00000000000E+00  0.39999999673E+01  0.40000000000E+01  0.51109989000E-03 0. -1.
     -623   -1    0    0    0    0  0.00000000000E+00  0.00000000000E+00  0.12525980253E-10  0.17130000000E+03  0.17130000000E+03 0.  1.
       11    1    1    2    0    0 -0.17863948773E-01  0.97362640869E-03  0.32211310819E+00  0.32260995692E+00  0.51109989000E-03 0. -1.
     -623    1    1    2    0    0  0.12072264101E-01  0.11143236825E-01  0.73968222795E-03  0.17130000079E+03  0.17130000000E+03 0.  1.
      622    1    1    2    0    0  0.57916846718E-02 -0.12116863234E-01  0.36771471769E+01  0.36773892537E+01  0.40000000000E-01 0. -1.
</event>
<event>
 5   0  0.6200596E+07  0.9118800E+02  0.7818608E-02  0.1180000E+00
       11   -1    0    0    0    0  0.00000000000E+00  0.00000000000E+00  0.39999999673E+01  0.40000000000E+01  0.51109989000E-03 0.  1.
     -623   -1    0    0    0    0  0.00000000000E+00  0.00000000000E+00  0.12525980253E-10  0.17130000000E+03  0.17130000000E+03 0. -1.
       11    1    1    2    0    0  0.38505096649E-01 -0.42533962932E-02  0.66649822797E+00  0.66762330917E+00  0.51109989000E-03 0.  1.
     -623    1    1    2    0    0 -0.38009326089E-02  0.21047329861E-02  0.15466076344E-02  0.17130000006E+03  0.17130000000E+03 0. -1.
      622    1    1    2    0    0 -0.34704164040E-01  0.21486633072E-02  0.33319551318E+01  0.33323766287E+01  0.40000000000E-01 0.  1.
</event>
<event>
 5   0  0.6200596E+07  0.9118800E+02  0.7818608E-02  0.1180000E+00
       11   -1    0    0    0    0  0.00000000000E+00  0.00000000000E+00  0.39999999673E+01  0.40000000000E+01  0.51109989000E-03 0. -1.
     -623   -1    0    0    0    0  0.00000000000E+00  0.00000000000E+00  0.12525980253E-10  0.17130000000E+03  0.17130000000E+03 0.  1.
       11    1    1    2    0    0  0.52283379117E-02 -0.27047396798E-02  0.19881804771E+00  0.19890582810E+00  0.51109989000E-03 0. -1.
     -623    1    1    2    0    0 -0.75064247136E-05  0.80328983864E-03  0.30228267766E-03  0.17130000000E+03  0.17130000000E+03 0.  1.
      622    1    1    2    0    0 -0.52208314870E-02  0.19014498412E-02  0.38008796370E+01  0.38010941698E+01  0.40000000000E-01 0. -1.
</event>
<event>
 5   0  0.6200596E+07  0.9118800E+02  0.7818608E-02  0.1180000E+00
       11   -1    0    0    0    0  0.00000000000E+00  0.00000000000E+00  0.39999999673E+01  0.40000000000E+01  0.51109989000E-03 0.  1.
     -623   -1    0    0    0    0  0.00000000000E+00  0.00000000000E+00  0.12525980253E-10  0.17130000000E+03  0.17130000000E+03 0. -1.
       11    1    1    2    0    0 -0.34127579266E-04  0.84280252490E-03  0.73598787390E-02  0.74256660846E-02  0.51109989000E-03 0.  1.
     -623    1    1    2    0    0 -0.69846083486E-03  0.33414312637E-03  0.26637435926E-03  0.17130000000E+03  0.17130000000E+03 0. -1.
      622    1    1    2    0    0  0.73258841413E-03 -0.11769456513E-02  0.39923737143E+01  0.39925743320E+01  0.40000000000E-01 0.  1.
</event>
<event>
 5   0  0.6200596E+07  0.9118800E+02  0.7818608E-02  0.1180000E+00
       11   -1    0    0    0    0  0.00000000000E+00  0.00000000000E+00  0.39999999673E+01  0.40000000000E+01  0.51109989000E-03 0.  1.
     -623   -1    0    0    0    0  0.00000000000E+00  0.00000000000E+00  0.12525980253E-10  0.17130000000E+03  0.17130000000E+03 0. -1.
       11    1    1    2    0    0 -0.15522931099E-02  0.69363341846E-02  0.47449408194E+00  0.47454759230E+00  0.51109989000E-03 0.  1.
     -623    1    1    2    0    0 -0.20095178180E-01 -0.74097476632E-02  0.34824375857E-03  0.17130000134E+03  0.17130000000E+03 0. -1.
      622    1    1    2    0    0  0.21647471289E-01  0.47341347864E-03  0.35251576417E+01  0.35254510684E+01  0.40000000000E-01 0.  1.
</event>
<event>
 5   0  0.6200596E+07  0.9118800E+02  0.7818608E-02  0.1180000E+00
       11   -1    0    0    0    0  0.00000000000E+00  0.00000000000E+00  0.39999999673E+01  0.40000000000E+01  0.51109989000E-03 0. -1.
     -623   -1    0    0    0    0  0.00000000000E+00  0.00000000000E+00  0.12525980253E-10  0.17130000000E+03  0.17130000000E+03 0.  1.
       11    1    1    2    0    0  0.44748572131E-02  0.13234331649E-02  0.30847563621E+00  0.30851135341E+00  0.51109989000E-03 0. -1.
     -623    1    1    2    0    0 -0.32291654459E-02 -0.41345100827E-02  0.25376675742E-03  0.17130000008E+03  0.17130000000E+03 0.  1.
      622    1    1    2    0    0 -0.12456917671E-02  0.28110769178E-02  0.36912705644E+01  0.36914885661E+01  0.40000000000E-01 0. -1.
</event>
<event>
 5   0  0.6200596E+07  0.9118800E+02  0.7818608E-02  0.1180000E+00
       11   -1    0    0    0    0  0.00000000000E+00  0.00000000000E+00  0.39999999673E+01  0.40000000000E+01  0.51109989000E-03 0. -1.
     -623   -1    0    0    0    0  0.00000000000E+00  0.00000000000E+00  0.12525980253E-10  0.17130000000E+03  0.17130000000E+03 0. -1.
       11    1    1    2    0    0 -0.39656710080E-01 -0.10316042785E-01  0.34655805109E+00  0.34897251953E+00  0.51109989000E-03 0. -1.
     -623    1    1    2    0    0  0.17147842214E-01 -0.20556996745E-01  0.28356071933E-02  0.17130000212E+03  0.17130000000E+03 0. -1.
      622    1    1    2    0    0  0.22508867866E-01  0.30873039531E-01  0.36506063091E+01  0.36510253652E+01  0.40000000000E-01 0. -1.
</event>
<event>
 5   0  0.6200596E+07  0.9118800E+02  0.7818608E-02  0.1180000E+00
       11   -1    0    0    0    0  0.00000000000E+00  0.00000000000E+00  0.39999999673E+01  0.40000000000E+01  0.51109989000E-03 0. -1.
     -623   -1    0    0    0    0  0.00000000000E+00  0.00000000000E+00  0.12525980253E-10  0.17130000000E+03  0.17130000000E+03 0. -1.
       11    1    1    2    0    0  0.98009398849E-03  0.42314851161E-03  0.24822837693E-01  0.24851038831E-01  0.51109989000E-03 0. -1.
     -623    1    1    2    0    0 -0.59582119688E-02 -0.18123504507E-02  0.23289727132E-03  0.17130000011E+03  0.17130000000E+03 0. -1.
      622    1    1    2    0    0  0.49781179804E-02  0.13892019391E-02  0.39749442324E+01  0.39751488478E+01  0.40000000000E-01 0. -1.
</event>
<event>
 5   0  0.6200596E+07  0.9118800E+02  0.7818608E-02  0.1180000E+00
       11   -1    0    0    0    0  0.00000000000E+00  0.00000000000E+00  0.39999999673E+01  0.40000000000E+01  0.51109989000E-03 0.  1.
     -623   -1    0    0    0    0  0.00000000000E+00  0.00000000000E+00  0.12525980253E-10  0.17130000000E+03  0.17130000000E+03 0. -1.
       11    1    1    2    0    0  0.72349456306E-02 -0.50643124178E-02  0.65220557395E-01  0.65817733378E-01  0.51109989000E-03 0.  1.
     -623    1    1    2    0    0 -0.10781333214E-01 -0.54092546304E-03  0.80642833182E-03  0.17130000034E+03  0.17130000000E+03 0. -1.
      622    1    1    2    0    0  0.35463875838E-02  0.56052378808E-02  0.39339729816E+01  0.39341819246E+01  0.40000000000E-01 0.  1.
</event>
<event>
 5   0  0.6200596E+07  0.9118800E+02  0.7818608E-02  0.1180000E+00
       11   -1    0    0    0    0  0.00000000000E+00  0.00000000000E+00  0.39999999673E+01  0.40000000000E+01  0.51109989000E-03 0. -1.
     -623   -1    0    0    0    0  0.00000000000E+00  0.00000000000E+00  0.12525980253E-10  0.17130000000E+03  0.17130000000E+03 0. -1.
       11    1    1    2    0    0  0.20530004137E-02  0.68890109341E-02  0.34764418357E+00  0.34771887046E+00  0.51109989000E-03 0. -1.
     -623    1    1    2    0    0  0.89065755084E-03 -0.18182327552E-02  0.29842087982E-03  0.17130000001E+03  0.17130000000E+03 0. -1.
      622    1    1    2    0    0 -0.29436579646E-02 -0.50707781789E-02  0.36520573629E+01  0.36522811173E+01  0.40000000000E-01 0. -1.
</event>
<event>
 5   0  0.6200596E+07  0.9118800E+02  0.7818608E-02  0.1180000E+00
       11   -1    0    0    0    0  0.00000000000E+00  0.00000000000E+00  0.39999999673E+01  0.40000000000E+01  0.51109989000E-03 0.  1.
     -623   -1    0    0    0    0  0.00000000000E+00  0.00000000000E+00  0.12525980253E-10  0.17130000000E+03  0.17130000000E+03 0.  1.
       11    1    1    2    0    0  0.11335231965E-01 -0.28630058541E-02  0.10200469527E+01  0.10201140776E+01  0.51109989000E-03 0.  1.
     -623    1    1    2    0    0  0.70311248133E-03  0.52654217721E-03  0.36080861655E-03  0.17130000000E+03  0.17130000000E+03 0.  1.
      622    1    1    2    0    0 -0.12038344447E-01  0.23364636769E-02  0.29795922060E+01  0.29798859198E+01  0.40000000000E-01 0.  1.
</event>
<event>
 5   0  0.6200596E+07  0.9118800E+02  0.7818608E-02  0.1180000E+00
       11   -1    0    0    0    0  0.00000000000E+00  0.00000000000E+00  0.39999999673E+01  0.40000000000E+01  0.51109989000E-03 0.  1.
     -623   -1    0    0    0    0  0.00000000000E+00  0.00000000000E+00  0.12525980253E-10  0.17130000000E+03  0.17130000000E+03 0. -1.
       11    1    1    2    0    0 -0.84526024779E-02 -0.15377092706E-01  0.64316392510E+00  0.64340344827E+00  0.51109989000E-03 0.  1.
     -623    1    1    2    0    0 -0.14476797564E-02  0.51153695219E-03  0.52536546332E-03  0.17130000001E+03  0.17130000000E+03 0. -1.
      622    1    1    2    0    0  0.99002822343E-02  0.14865555754E-01  0.33563106768E+01  0.33565965440E+01  0.40000000000E-01 0. -1.
</event>
<event>
 5   0  0.6200596E+07  0.9118800E+02  0.7818608E-02  0.1180000E+00
       11   -1    0    0    0    0  0.00000000000E+00  0.00000000000E+00  0.39999999673E+01  0.40000000000E+01  0.51109989000E-03 0. -1.
     -623   -1    0    0    0    0  0.00000000000E+00  0.00000000000E+00  0.12525980253E-10  0.17130000000E+03  0.17130000000E+03 0. -1.
       11    1    1    2    0    0  0.14075338039E-01  0.34871122131E-02  0.17884029584E+00  0.17942794579E+00  0.51109989000E-03 0. -1.
     -623    1    1    2    0    0 -0.35174736882E-02  0.11905588317E-01  0.84306624601E-03  0.17130000045E+03  0.17130000000E+03 0. -1.
      622    1    1    2    0    0 -0.10557864351E-01 -0.15392700531E-01  0.38203166053E+01  0.38205716023E+01  0.40000000000E-01 0. -1.
</event>
<event>
 5   0  0.6200596E+07  0.9118800E+02  0.7818608E-02  0.1180000E+00
       11   -1    0    0    0    0  0.00000000000E+00  0.00000000000E+00  0.39999999673E+01  0.40000000000E+01  0.51109989000E-03 0. -1.
     -623   -1    0    0    0    0  0.00000000000E+00  0.00000000000E+00  0.12525980253E-10  0.17130000000E+03  0.17130000000E+03 0. -1.
       11    1    1    2    0    0 -0.79466311854E-05  0.28391174794E-03  0.24807937377E-01  0.24814827168E-01  0.51109989000E-03 0. -1.
     -623    1    1    2    0    0 -0.56317897826E-03  0.22538113329E-03  0.20818558804E-03  0.17130000000E+03  0.17130000000E+03 0. -1.
      622    1    1    2    0    0  0.57112560944E-03 -0.50929288124E-03  0.39749838444E+01  0.39751851716E+01  0.40000000000E-01 0. -1.
</event>
<event>
 5   0  0.6200596E+07  0.9118800E+02  0.7818608E-02  0.1180000E+00
       11   -1    0    0    0    0  0.00000000000E+00  0.00000000000E+00  0.39999999673E+01  0.40000000000E+01  0.51109989000E-03 0. -1.
     -623   -1    0    0    0    0  0.00000000000E+00  0.00000000000E+00  0.12525980253E-10  0.17130000000E+03  0.17130000000E+03 0. -1.
       11    1    1    2    0    0 -0.46875351598E-02  0.58641345085E-02  0.65989812930E-02  0.10008438146E-01  0.51109989000E-03 0. -1.
     -623    1    1    2    0    0  0.58321557636E-04 -0.53673527256E-02  0.36127696143E-02  0.17130000012E+03  0.17130000000E+03 0. -1.
      622    1    1    2    0    0  0.46292136022E-02 -0.49678178286E-03  0.39897882165E+01  0.39899914397E+01  0.40000000000E-01 0. -1.
</event>
<event>
 5   0  0.6200596E+07  0.9118800E+02  0.7818608E-02  0.1180000E+00
       11   -1    0    0    0    0  0.00000000000E+00  0.00000000000E+00  0.39999999673E+01  0.40000000000E+01  0.51109989000E-03 0. -1.
     -623   -1    0    0    0    0  0.00000000000E+00  0.00000000000E+00  0.12525980253E-10  0.17130000000E+03  0.17130000000E+03 0.  1.
       11    1    1    2    0    0 -0.97323372729E-02  0.59076498057E-02  0.12853414177E+01  0.12853919402E+01  0.51109989000E-03 0. -1.
     -623    1    1    2    0    0 -0.22537422601E-02  0.60816106419E-02  0.39827462909E-03  0.17130000012E+03  0.17130000000E+03 0.  1.
      622    1    1    2    0    0  0.11986079533E-01 -0.11989260448E-01  0.27142602750E+01  0.27146079365E+01  0.40000000000E-01 0. -1.
</event>
<event>
 5   0  0.6200596E+07  0.9118800E+02  0.7818608E-02  0.1180000E+00
       11   -1    0    0    0    0  0.00000000000E+00  0.00000000000E+00  0.39999999673E+01  0.40000000000E+01  0.51109989000E-03 0. -1.
     -623   -1    0    0    0    0  0.00000000000E+00  0.00000000000E+00  0.12525980253E-10  0.17130000000E+03  0.17130000000E+03 0.  1.
       11    1    1    2    0    0  0.78507361242E-02  0.32774344459E-02  0.91351825284E+00  0.91355800863E+00  0.51109989000E-03 0. -1.
     -623    1    1    2    0    0  0.70826846653E-03  0.15930164265E-03  0.31271604674E-03  0.17130000000E+03  0.17130000000E+03 0.  1.
      622    1    1    2    0    0 -0.85590045907E-02 -0.34367360885E-02  0.30861689985E+01  0.30864419896E+01  0.40000000000E-01 0.  0.
</event>
<event>
 5   0  0.6200596E+07  0.9118800E+02  0.7818608E-02  0.1180000E+00
       11   -1    0    0    0    0  0.00000000000E+00  0.00000000000E+00  0.39999999673E+01  0.40000000000E+01  0.51109989000E-03 0.  1.
     -623   -1    0    0    0    0  0.00000000000E+00  0.00000000000E+00  0.12525980253E-10  0.17130000000E+03  0.17130000000E+03 0.  1.
       11    1    1    2    0    0 -0.46132418510E-02 -0.49008531928E-02  0.82705775210E+00  0.82708529602E+00  0.51109989000E-03 0.  1.
     -623    1    1    2    0    0 -0.51635521131E-02 -0.94605253138E-03  0.30018776524E-03  0.17130000008E+03  0.17130000000E+03 0.  1.
      622    1    1    2    0    0  0.97767939641E-02  0.58469057242E-02  0.31726420275E+01  0.31729146233E+01  0.40000000000E-01 0.  1.
</event>
<event>
 5   0  0.6200596E+07  0.9118800E+02  0.7818608E-02  0.1180000E+00
       11   -1    0    0    0    0  0.00000000000E+00  0.00000000000E+00  0.39999999673E+01  0.40000000000E+01  0.51109989000E-03 0. -1.
     -623   -1    0    0    0    0  0.00000000000E+00  0.00000000000E+00  0.12525980253E-10  0.17130000000E+03  0.17130000000E+03 0.  1.
       11    1    1    2    0    0  0.67910283705E-02 -0.34506744785E-01  0.12941603934E+01  0.12946382578E+01  0.51109989000E-03 0. -1.
     -623    1    1    2    0    0  0.12129601820E-01  0.93267896946E-02  0.95761279241E-03  0.17130000069E+03  0.17130000000E+03 0.  1.
      622    1    1    2    0    0 -0.18920630191E-01  0.25179955090E-01  0.27048819612E+01  0.27053610562E+01  0.40000000000E-01 0. -1.
</event>
<event>
 5   0  0.6200596E+07  0.9118800E+02  0.7818608E-02  0.1180000E+00
       11   -1    0    0    0    0  0.00000000000E+00  0.00000000000E+00  0.39999999673E+01  0.40000000000E+01  0.51109989000E-03 0. -1.
     -623   -1    0    0    0    0  0.00000000000E+00  0.00000000000E+00  0.12525980253E-10  0.17130000000E+03  0.17130000000E+03 0. -1.
       11    1    1    2    0    0  0.28157221274E-04  0.51911745484E-02  0.14273227086E+00  0.14282755845E+00  0.51109989000E-03 0. -1.
     -623    1    1    2    0    0  0.13916311512E-01  0.38858448587E-02  0.33916462246E-03  0.17130000061E+03  0.17130000000E+03 0. -1.
      622    1    1    2    0    0 -0.13944468733E-01 -0.90770194071E-02  0.38569285319E+01  0.38571718319E+01  0.40000000000E-01 0. -1.
</event>
<event>
 5   0  0.6200596E+07  0.9118800E+02  0.7818608E-02  0.1180000E+00
       11   -1    0    0    0    0  0.00000000000E+00  0.00000000000E+00  0.39999999673E+01  0.40000000000E+01  0.51109989000E-03 0.  1.
     -623   -1    0    0    0    0  0.00000000000E+00  0.00000000000E+00  0.12525980253E-10  0.17130000000E+03  0.17130000000E+03 0.  1.
       11    1    1    2    0    0 -0.47847993397E-02 -0.32344368417E-02  0.83823434042E+00  0.83825439251E+00  0.51109989000E-03 0.  1.
     -623    1    1    2    0    0  0.12751637639E-01  0.15746511458E-01  0.30905055264E-03  0.17130000120E+03  0.17130000000E+03 0.  1.
      622    1    1    2    0    0 -0.79668382993E-02 -0.12512074616E-01  0.31614565764E+01  0.31617444089E+01  0.40000000000E-01 0.  1.
</event>
<event>
 5   0  0.6200596E+07  0.9118800E+02  0.7818608E-02  0.1180000E+00
       11   -1    0    0    0    0  0.00000000000E+00  0.00000000000E+00  0.39999999673E+01  0.40000000000E+01  0.51109989000E-03 0. -1.
     -623   -1    0    0    0    0  0.00000000000E+00  0.00000000000E+00  0.12525980253E-10  0.17130000000E+03  0.17130000000E+03 0. -1.
       11    1    1    2    0    0 -0.38111337165E-02  0.19576541717E-01  0.66786872714E-01  0.69703036627E-01  0.51109989000E-03 0. -1.
     -623    1    1    2    0    0 -0.51221656332E-03 -0.15402046970E-01  0.31250002612E-02  0.17130000072E+03  0.17130000000E+03 0. -1.
      622    1    1    2    0    0  0.43233502799E-02 -0.41744947467E-02  0.39300880944E+01  0.39302962417E+01  0.40000000000E-01 0. -1.
</event>
<event>
 5   0  0.6200596E+07  0.9118800E+02  0.7818608E-02  0.1180000E+00
       11   -1    0    0    0    0  0.00000000000E+00  0.00000000000E+00  0.39999999673E+01  0.40000000000E+01  0.51109989000E-03 0. -1.
     -623   -1    0    0    0    0  0.00000000000E+00  0.00000000000E+00  0.12525980253E-10  0.17130000000E+03  0.17130000000E+03 0. -1.
       11    1    1    2    0    0  0.14493017316E-03 -0.40647022760E-03  0.16342171555E-01  0.16355855716E-01  0.51109989000E-03 0. -1.
     -623    1    1    2    0    0  0.17277310813E-03 -0.23139571388E-02  0.21543518995E-03  0.17130000002E+03  0.17130000000E+03 0. -1.
      622    1    1    2    0    0 -0.31770328130E-03  0.27204273664E-02  0.39834423606E+01  0.39836441284E+01  0.40000000000E-01 0. -1.
</event>
<event>
 5   0  0.6200596E+07  0.9118800E+02  0.7818608E-02  0.1180000E+00
       11   -1    0    0    0    0  0.00000000000E+00  0.00000000000E+00  0.39999999673E+01  0.40000000000E+01  0.51109989000E-03 0.  1.
     -623   -1    0    0    0    0  0.00000000000E+00  0.00000000000E+00  0.12525980253E-10  0.17130000000E+03  0.17130000000E+03 0.  1.
       11    1    1    2    0    0 -0.20463418622E-01 -0.13583437150E-01  0.38837655435E+00  0.38915275979E+00  0.51109989000E-03 0.  1.
     -623    1    1    2    0    0  0.24242532071E-02  0.89194009661E-02  0.10460625773E-02  0.17130000025E+03  0.17130000000E+03 0.  1.
      622    1    1    2    0    0  0.18039165415E-01  0.46640361838E-02  0.36105773504E+01  0.36108469876E+01  0.40000000000E-01 0.  0.
</event>
<event>
 5   0  0.6200596E+07  0.9118800E+02  0.7818608E-02  0.1180000E+00
       11   -1    0    0    0    0  0.00000000000E+00  0.00000000000E+00  0.39999999673E+01  0.40000000000E+01  0.51109989000E-03 0.  1.
     -623   -1    0    0    0    0  0.00000000000E+00  0.00000000000E+00  0.12525980253E-10  0.17130000000E+03  0.17130000000E+03 0.  1.
       11    1    1    2    0    0 -0.76900579045E-03 -0.21496083273E-02  0.30491348219E+00  0.30492245740E+00  0.51109989000E-03 0.  1.
     -623    1    1    2    0    0  0.19540668292E-03 -0.12126154365E-02  0.22703201379E-03  0.17130000000E+03  0.17130000000E+03 0.  1.
      622    1    1    2    0    0  0.57359910753E-03  0.33622237638E-02  0.36948594532E+01  0.36950775380E+01  0.40000000000E-01 0.  1.
</event>
<event>
 5   0  0.6200596E+07  0.9118800E+02  0.7818608E-02  0.1180000E+00
       11   -1    0    0    0    0  0.00000000000E+00  0.00000000000E+00  0.39999999673E+01  0.40000000000E+01  0.51109989000E-03 0. -1.
     -623   -1    0    0    0    0  0.00000000000E+00  0.00000000000E+00  0.12525980253E-10  0.17130000000E+03  0.17130000000E+03 0. -1.
       11    1    1    2    0    0 -0.31615257852E-02  0.13193783032E-01  0.66032103839E+00  0.66046060149E+00  0.51109989000E-03 0. -1.
     -623    1    1    2    0    0 -0.13635157122E-02 -0.74851405592E-03  0.40535779784E-03  0.17130000001E+03  0.17130000000E+03 0. -1.
      622    1    1    2    0    0  0.45250414974E-02 -0.12445268976E-01  0.33392735712E+01  0.33395393910E+01  0.40000000000E-01 0. -1.
</event>
<event>
 5   0  0.6200596E+07  0.9118800E+02  0.7818608E-02  0.1180000E+00
       11   -1    0    0    0    0  0.00000000000E+00  0.00000000000E+00  0.39999999673E+01  0.40000000000E+01  0.51109989000E-03 0. -1.
     -623   -1    0    0    0    0  0.00000000000E+00  0.00000000000E+00  0.12525980253E-10  0.17130000000E+03  0.17130000000E+03 0.  1.
       11    1    1    2    0    0 -0.16133046767E-01 -0.59113200001E-02  0.16725940084E+00  0.16814037972E+00  0.51109989000E-03 0. -1.
     -623    1    1    2    0    0 -0.13607834537E-02 -0.22685957055E-02  0.11384187394E-02  0.17130000002E+03  0.17130000000E+03 0.  1.
      622    1    1    2    0    0  0.17493830220E-01  0.81799157056E-02  0.38316021478E+01  0.38318595961E+01  0.40000000000E-01 0. -1.
</event>
<event>
 5   0  0.6200596E+07  0.9118800E+02  0.7818608E-02  0.1180000E+00
       11   -1    0    0    0    0  0.00000000000E+00  0.00000000000E+00  0.39999999673E+01  0.40000000000E+01  0.51109989000E-03 0. -1.
     -623   -1    0    0    0    0  0.00000000000E+00  0.00000000000E+00  0.12525980253E-10  0.17130000000E+03  0.17130000000E+03 0.  1.
       11    1    1    2    0    0 -0.32634717312E-01  0.31503929772E-01  0.46285816875E+00  0.46507576583E+00  0.51109989000E-03 0. -1.
     -623    1    1    2    0    0  0.41725320277E-01 -0.37244900666E-01  0.24693859328E-02  0.17130000915E+03  0.17130000000E+03 0.  1.
      622    1    1    2    0    0 -0.90906029654E-02  0.57409708934E-02  0.35346724127E+01  0.35349150856E+01  0.40000000000E-01 0. -1.
</event>
<event>
 5   0  0.6200596E+07  0.9118800E+02  0.7818608E-02  0.1180000E+00
       11   -1    0    0    0    0  0.00000000000E+00  0.00000000000E+00  0.39999999673E+01  0.40000000000E+01  0.51109989000E-03 0.  1.
     -623   -1    0    0    0    0  0.00000000000E+00  0.00000000000E+00  0.12525980253E-10  0.17130000000E+03  0.17130000000E+03 0. -1.
       11    1    1    2    0    0  0.30807617161E-02  0.76515989351E-02  0.75125743547E-01  0.75578942994E-01  0.51109989000E-03 0.  1.
     -623    1    1    2    0    0 -0.39177203603E-03 -0.63167511395E-02  0.65829032718E-03  0.17130000012E+03  0.17130000000E+03 0. -1.
      622    1    1    2    0    0 -0.26889896800E-02 -0.13348477956E-02  0.39242159335E+01  0.39244209388E+01  0.40000000000E-01 0.  1.
</event>
<event>
 5   0  0.6200596E+07  0.9118800E+02  0.7818608E-02  0.1180000E+00
       11   -1    0    0    0    0  0.00000000000E+00  0.00000000000E+00  0.39999999673E+01  0.40000000000E+01  0.51109989000E-03 0. -1.
     -623   -1    0    0    0    0  0.00000000000E+00  0.00000000000E+00  0.12525980253E-10  0.17130000000E+03  0.17130000000E+03 0. -1.
       11    1    1    2    0    0  0.27555607269E-02  0.12229323946E-02 -0.16943962601E-02  0.34958372079E-02  0.51109989000E-03 0. -1.
     -623    1    1    2    0    0 -0.96420114334E-03 -0.29393552883E-02  0.53912636585E-02  0.17130000011E+03  0.17130000000E+03 0. -1.
      622    1    1    2    0    0 -0.17913595836E-02  0.17164228937E-02  0.39963031000E+01  0.39965040500E+01  0.40000000000E-01 0. -1.
</event>
<event>
 5   0  0.6200596E+07  0.9118800E+02  0.7818608E-02  0.1180000E+00
       11   -1    0    0    0    0  0.00000000000E+00  0.00000000000E+00  0.39999999673E+01  0.40000000000E+01  0.51109989000E-03 0. -1.
     -623   -1    0    0    0    0  0.00000000000E+00  0.00000000000E+00  0.12525980253E-10  0.17130000000E+03  0.17130000000E+03 0. -1.
       11    1    1    2    0    0  0.30583456253E-01  0.53558650132E-03  0.17768746478E+01  0.17771379828E+01  0.51109989000E-03 0. -1.
     -623    1    1    2    0    0 -0.87879003041E-02  0.77799820444E-02  0.74606348462E-03  0.17130000040E+03  0.17130000000E+03 0. -1.
      622    1    1    2    0    0 -0.21795555949E-01 -0.83155685457E-02  0.22223792561E+01  0.22228616135E+01  0.40000000000E-01 0.  0.
</event>
<event>
 5   0  0.6200596E+07  0.9118800E+02  0.7818608E-02  0.1180000E+00
       11   -1    0    0    0    0  0.00000000000E+00  0.00000000000E+00  0.39999999673E+01  0.40000000000E+01  0.51109989000E-03 0.  1.
     -623   -1    0    0    0    0  0.00000000000E+00  0.00000000000E+00  0.12525980253E-10  0.17130000000E+03  0.17130000000E+03 0. -1.
       11    1    1    2    0    0  0.63753885309E-02  0.11023130672E-01  0.14696333476E+01  0.14696886040E+01  0.51109989000E-03 0.  1.
     -623    1    1    2    0    0 -0.41827752783E-01  0.72267552241E-03  0.65219521759E-03  0.17130000511E+03  0.17130000000E+03 0. -1.
      622    1    1    2    0    0  0.35452364252E-01 -0.11745806194E-01  0.25297144245E+01  0.25303062866E+01  0.40000000000E-01 0.  1.
</event>
<event>
 5   0  0.6200596E+07  0.9118800E+02  0.7818608E-02  0.1180000E+00
       11   -1    0    0    0    0  0.00000000000E+00  0.00000000000E+00  0.39999999673E+01  0.40000000000E+01  0.51109989000E-03 0.  1.
     -623   -1    0    0    0    0  0.00000000000E+00  0.00000000000E+00  0.12525980253E-10  0.17130000000E+03  0.17130000000E+03 0. -1.
       11    1    1    2    0    0 -0.81827711620E-03  0.35123990854E-02  0.66193200755E+00  0.66194202945E+00  0.51109989000E-03 0.  1.
     -623    1    1    2    0    0 -0.37489716359E-02 -0.18231415363E-02  0.25326132239E-03  0.17130000005E+03  0.17130000000E+03 0. -1.
      622    1    1    2    0    0  0.45672487521E-02 -0.16892575491E-02  0.33378146985E+01  0.33380579196E+01  0.40000000000E-01 0.  1.
</event>
<event>
 5   0  0.6200596E+07  0.9118800E+02  0.7818608E-02  0.1180000E+00
       11   -1    0    0    0    0  0.00000000000E+00  0.00000000000E+00  0.39999999673E+01  0.40000000000E+01  0.51109989000E-03 0.  1.
     -623   -1    0    0    0    0  0.00000000000E+00  0.00000000000E+00  0.12525980253E-10  0.17130000000E+03  0.17130000000E+03 0. -1.
       11    1    1    2    0    0 -0.25103742581E-01  0.73880245879E-02  0.18781472135E+00  0.18962966956E+00  0.51109989000E-03 0.  1.
     -623    1    1    2    0    0  0.12450915592E-01 -0.18388846941E-01  0.20632167049E-02  0.17130000145E+03  0.17130000000E+03 0. -1.
      622    1    1    2    0    0  0.12652826989E-01  0.11000822353E-01  0.38101220293E+01  0.38103688785E+01  0.40000000000E-01 0.  1.
</event>
<event>
 5   0  0.6200596E+07  0.9118800E+02  0.7818608E-02  0.1180000E+00
       11   -1    0    0    0    0  0.00000000000E+00  0.00000000000E+00  0.39999999673E+01  0.40000000000E+01  0.51109989000E-03 0.  1.
     -623   -1    0    0    0    0  0.00000000000E+00  0.00000000000E+00  0.12525980253E-10  0.17130000000E+03  0.17130000000E+03 0. -1.
       11    1    1    2    0    0  0.11566656540E-01  0.42013146843E-01  0.21645504555E+01  0.21649891056E+01  0.51109989000E-03 0.  1.
     -623    1    1    2    0    0  0.97173390920E-03 -0.28936243457E-01  0.96653943817E-03  0.17130000245E+03  0.17130000000E+03 0. -1.
      622    1    1    2    0    0 -0.12538390449E-01 -0.13076903386E-01  0.18344829725E+01  0.18350084449E+01  0.40000000000E-01 0.  0.
</event>
<event>
 5   0  0.6200596E+07  0.9118800E+02  0.7818608E-02  0.1180000E+00
       11   -1    0    0    0    0  0.00000000000E+00  0.00000000000E+00  0.39999999673E+01  0.40000000000E+01  0.51109989000E-03 0. -1.
     -623   -1    0    0    0    0  0.00000000000E+00  0.00000000000E+00  0.12525980253E-10  0.17130000000E+03  0.17130000000E+03 0.  1.
       11    1    1    2    0    0  0.78710909535E-02  0.19323570125E-01  0.12507184610E+01  0.12508925950E+01  0.51109989000E-03 0. -1.
     -623    1    1    2    0    0  0.56874605368E-03 -0.56770464656E-02  0.51204733097E-03  0.17130000010E+03  0.17130000000E+03 0.  1.
      622    1    1    2    0    0 -0.84398370072E-02 -0.13646523660E-01  0.27487694590E+01  0.27491073092E+01  0.40000000000E-01 0. -1.
</event>
<event>
 5   0  0.6200596E+07  0.9118800E+02  0.7818608E-02  0.1180000E+00
       11   -1    0    0    0    0  0.00000000000E+00  0.00000000000E+00  0.39999999673E+01  0.40000000000E+01  0.51109989000E-03 0. -1.
     -623   -1    0    0    0    0  0.00000000000E+00  0.00000000000E+00  0.12525980253E-10  0.17130000000E+03  0.17130000000E+03 0. -1.
       11    1    1    2    0    0  0.14935654874E-01  0.95514875931E-03  0.92177636455E-02  0.17584495573E-01  0.51109989000E-03 0. -1.
     -623    1    1    2    0    0 -0.16909933921E-01  0.79902568528E-04  0.85692604184E-02  0.17130000105E+03  0.17130000000E+03 0. -1.
      622    1    1    2    0    0  0.19742790475E-02 -0.10350513278E-02  0.39822129433E+01  0.39824144554E+01  0.40000000000E-01 0. -1.
</event>
<event>
 5   0  0.6200596E+07  0.9118800E+02  0.7818608E-02  0.1180000E+00
       11   -1    0    0    0    0  0.00000000000E+00  0.00000000000E+00  0.39999999673E+01  0.40000000000E+01  0.51109989000E-03 0. -1.
     -623   -1    0    0    0    0  0.00000000000E+00  0.00000000000E+00  0.12525980253E-10  0.17130000000E+03  0.17130000000E+03 0. -1.
       11    1    1    2    0    0 -0.12823219108E-02 -0.11606464403E-02  0.46449831135E-01  0.46484830687E-01  0.51109989000E-03 0. -1.
     -623    1    1    2    0    0  0.28956355595E-03 -0.13328057469E-03  0.23766052520E-03  0.17130000000E+03  0.17130000000E+03 0. -1.
      622    1    1    2    0    0  0.99275835486E-03  0.12939270150E-02  0.39533124757E+01  0.39535151689E+01  0.40000000000E-01 0. -1.
</event>
<event>
 5   0  0.6200596E+07  0.9118800E+02  0.7818608E-02  0.1180000E+00
       11   -1    0    0    0    0  0.00000000000E+00  0.00000000000E+00  0.39999999673E+01  0.40000000000E+01  0.51109989000E-03 0.  1.
     -623   -1    0    0    0    0  0.00000000000E+00  0.00000000000E+00  0.12525980253E-10  0.17130000000E+03  0.17130000000E+03 0.  1.
       11    1    1    2    0    0 -0.55288402225E-02  0.29466806075E-02  0.23679471100E+01  0.23679554532E+01  0.51109989000E-03 0.  1.
     -623    1    1    2    0    0 -0.11916388340E-01  0.45930474688E-01  0.13307406707E-02  0.17130000658E+03  0.17130000000E+03 0.  1.
      622    1    1    2    0    0  0.17445228562E-01 -0.48877155296E-01  0.16307221166E+01  0.16320379695E+01  0.40000000000E-01 0.  0.
</event>
<event>
 5   0  0.6200596E+07  0.9118800E+02  0.7818608E-02  0.1180000E+00
       11   -1    0    0    0    0  0.00000000000E+00  0.00000000000E+00  0.39999999673E+01  0.40000000000E+01  0.51109989000E-03 0. -1.
     -623   -1    0    0    0    0  0.00000000000E+00  0.00000000000E+00  0.12525980253E-10  0.17130000000E+03  0.17130000000E+03 0. -1.
       11    1    1    2    0    0 -0.55020589853E-02  0.89367649448E-02  0.22718542121E+00  0.22742826397E+00  0.51109989000E-03 0. -1.
     -623    1    1    2    0    0  0.13361292735E-02 -0.85500061765E-04  0.46756325915E-03  0.17130000001E+03  0.17130000000E+03 0. -1.
      622    1    1    2    0    0  0.41659297118E-02 -0.88512648830E-02  0.37723469829E+01  0.37725717302E+01  0.40000000000E-01 0. -1.
</event>
<event>
 5   0  0.6200596E+07  0.9118800E+02  0.7818608E-02  0.1180000E+00
       11   -1    0    0    0    0  0.00000000000E+00  0.00000000000E+00  0.39999999673E+01  0.40000000000E+01  0.51109989000E-03 0.  1.
     -623   -1    0    0    0    0  0.00000000000E+00  0.00000000000E+00  0.12525980253E-10  0.17130000000E+03  0.17130000000E+03 0. -1.
       11    1    1    2    0    0  0.45910394806E-03  0.62212685855E-03  0.13311112208E-01  0.13343340921E-01  0.51109989000E-03 0.  1.
     -623    1    1    2    0    0  0.34163183292E-03  0.10210124648E-02  0.23329312073E-03  0.17130000000E+03  0.17130000000E+03 0. -1.
      622    1    1    2    0    0 -0.80073578098E-03 -0.16431393233E-02  0.39864555620E+01  0.39866566555E+01  0.40000000000E-01 0.  1.
</event>
<event>
 5   0  0.6200596E+07  0.9118800E+02  0.7818608E-02  0.1180000E+00
       11   -1    0    0    0    0  0.00000000000E+00  0.00000000000E+00  0.39999999673E+01  0.40000000000E+01  0.51109989000E-03 0. -1.
     -623   -1    0    0    0    0  0.00000000000E+00  0.00000000000E+00  0.12525980253E-10  0.17130000000E+03  0.17130000000E+03 0.  1.
       11    1    1    2    0    0 -0.21597946487E-02 -0.17408557838E-03  0.23787969317E+00  0.23789011047E+00  0.51109989000E-03 0. -1.
     -623    1    1    2    0    0  0.57626451434E-02  0.67139611454E-02  0.23067588128E-03  0.17130000023E+03  0.17130000000E+03 0.  1.
      622    1    1    2    0    0 -0.36028504947E-02 -0.65398755670E-02  0.37618895983E+01  0.37621096609E+01  0.40000000000E-01 0. -1.
</event>
<event>
 5   0  0.6200596E+07  0.9118800E+02  0.7818608E-02  0.1180000E+00
       11   -1    0    0    0    0  0.00000000000E+00  0.00000000000E+00  0.39999999673E+01  0.40000000000E+01  0.51109989000E-03 0. -1.
     -623   -1    0    0    0    0  0.00000000000E+00  0.00000000000E+00  0.12525980253E-10  0.17130000000E+03  0.17130000000E+03 0. -1.
       11    1    1    2    0    0 -0.27544530023E-01 -0.21799539801E-01  0.51956070772E+00  0.52074707037E+00  0.51109989000E-03 0. -1.
     -623    1    1    2    0    0  0.22483640312E-01  0.24561264905E-01  0.14242916719E-02  0.17130000324E+03  0.17130000000E+03 0. -1.
      622    1    1    2    0    0  0.50608897115E-02 -0.27617251045E-02  0.34790149680E+01  0.34792496874E+01  0.40000000000E-01 0.  0.
</event>
<event>
 5   0  0.6200596E+07  0.9118800E+02  0.7818608E-02  0.1180000E+00
       11   -1    0    0    0    0  0.00000000000E+00  0.00000000000E+00  0.39999999673E+01  0.40000000000E+01  0.51109989000E-03 0.  1.
     -623   -1    0    0    0    0  0.00000000000E+00  0.00000000000E+00  0.12525980253E-10  0.17130000000E+03  0.17130000000E+03 0. -1.
       11    1    1    2    0    0 -0.21967519688E-02  0.16672993127E-01  0.10777402347E+00  0.10907940124E+00  0.51109989000E-03 0.  1.
     -623    1    1    2    0    0 -0.13692366316E-02 -0.30304976441E-02  0.15365490594E-02  0.17130000004E+03  0.17130000000E+03 0. -1.
      622    1    1    2    0    0  0.35659886004E-02 -0.13642495483E-01  0.38906893948E+01  0.38909205596E+01  0.40000000000E-01 0.  1.
</event>
<event>
 5   0  0.6200596E+07  0.9118800E+02  0.7818608E-02  0.1180000E+00
       11   -1    0    0    0    0  0.00000000000E+00  0.00000000000E+00  0.39999999673E+01  0.40000000000E+01  0.51109989000E-03 0. -1.
     -623   -1    0    0    0    0  0.00000000000E+00  0.00000000000E+00  0.12525980253E-10  0.17130000000E+03  0.17130000000E+03 0. -1.
       11    1    1    2    0    0  0.52344264780E-02 -0.22974262877E-01  0.17874704319E+01  0.17876258060E+01  0.51109989000E-03 0. -1.
     -623    1    1    2    0    0 -0.70543881771E-02 -0.36740039986E-02  0.67843082021E-03  0.17130000019E+03  0.17130000000E+03 0. -1.
      622    1    1    2    0    0  0.18199616991E-02  0.26648266875E-01  0.22118511046E+01  0.22123740080E+01  0.40000000000E-01 0. -1.
</event>
<event>
 5   0  0.6200596E+07  0.9118800E+02  0.7818608E-02  0.1180000E+00
       11   -1    0    0    0    0  0.00000000000E+00  0.00000000000E+00  0.39999999673E+01  0.40000000000E+01  0.51109989000E-03 0. -1.
     -623   -1    0    0    0    0  0.00000000000E+00  0.00000000000E+00  0.12525980253E-10  0.17130000000E+03  0.17130000000E+03 0.  1.
       11    1    1    2    0    0  0.15380742293E-03 -0.27202618553E-02  0.34720587852E-01  0.34831076975E-01  0.51109989000E-03 0. -1.
     -623    1    1    2    0    0  0.13360731025E-02  0.38025667524E-04  0.31341113446E-03  0.17130000001E+03  0.17130000000E+03 0.  1.
      622    1    1    2    0    0 -0.14898805254E-02  0.26822361878E-02  0.39649659684E+01  0.39651689175E+01  0.40000000000E-01 0. -1.
</event>
<event>
 5   0  0.6200596E+07  0.9118800E+02  0.7818608E-02  0.1180000E+00
       11   -1    0    0    0    0  0.00000000000E+00  0.00000000000E+00  0.39999999673E+01  0.40000000000E+01  0.51109989000E-03 0.  1.
     -623   -1    0    0    0    0  0.00000000000E+00  0.00000000000E+00  0.12525980253E-10  0.17130000000E+03  0.17130000000E+03 0.  1.
       11    1    1    2    0    0  0.15959518235E-01  0.33714781056E-02  0.57232320866E+00  0.57255583962E+00  0.51109989000E-03 0.  1.
     -623    1    1    2    0    0 -0.19941328341E-01 -0.16732484703E-02  0.46991976725E-03  0.17130000117E+03  0.17130000000E+03 0.  1.
      622    1    1    2    0    0  0.39818101064E-02 -0.16982296353E-02  0.34272068389E+01  0.34274429909E+01  0.40000000000E-01 0.  0.
</event>
<event>
 5   0  0.6200596E+07  0.9118800E+02  0.7818608E-02  0.1180000E+00
       11   -1    0    0    0    0  0.00000000000E+00  0.00000000000E+00  0.39999999673E+01  0.40000000000E+01  0.51109989000E-03 0. -1.
     -623   -1    0    0    0    0  0.00000000000E+00  0.00000000000E+00  0.12525980253E-10  0.17130000000E+03  0.17130000000E+03 0. -1.
       11    1    1    2    0    0  0.12515265527E-02 -0.13936958988E-02  0.27375020441E-01  0.27443791133E-01  0.51109989000E-03 0. -1.
     -623    1    1    2    0    0 -0.50877470078E-02  0.18716228037E-02  0.27209195218E-03  0.17130000009E+03  0.17130000000E+03 0. -1.
      622    1    1    2    0    0  0.38362204551E-02 -0.47792690488E-03  0.39723528550E+01  0.39725561229E+01  0.40000000000E-01 0. -1.
</event>
<event>
 5   0  0.6200596E+07  0.9118800E+02  0.7818608E-02  0.1180000E+00
       11   -1    0    0    0    0  0.00000000000E+00  0.00000000000E+00  0.39999999673E+01  0.40000000000E+01  0.51109989000E-03 0.  1.
     -623   -1    0    0    0    0  0.00000000000E+00  0.00000000000E+00  0.12525980253E-10  0.17130000000E+03  0.17130000000E+03 0.  1.
       11    1    1    2    0    0 -0.27280164992E-02 -0.32477788823E-02  0.64803556127E-01  0.64944224139E-01  0.51109989000E-03 0.  1.
     -623    1    1    2    0    0  0.10161469852E-02 -0.73694355421E-03  0.34633636663E-03  0.17130000000E+03  0.17130000000E+03 0.  1.
      622    1    1    2    0    0  0.17118695140E-02  0.39847224365E-02  0.39348500749E+01  0.39350557709E+01  0.40000000000E-01 0.  1.
</event>
<event>
 5   0  0.6200596E+07  0.9118800E+02  0.7818608E-02  0.1180000E+00
       11   -1    0    0    0    0  0.00000000000E+00  0.00000000000E+00  0.39999999673E+01  0.40000000000E+01  0.51109989000E-03 0.  1.
     -623   -1    0    0    0    0  0.00000000000E+00  0.00000000000E+00  0.12525980253E-10  0.17130000000E+03  0.17130000000E+03 0. -1.
       11    1    1    2    0    0 -0.16712625615E-01 -0.69595529963E-02  0.67336572660E+00  0.67360924149E+00  0.51109989000E-03 0.  1.
     -623    1    1    2    0    0  0.88494852627E-02  0.38729372051E-02  0.49499150978E-03  0.17130000027E+03  0.17130000000E+03 0. -1.
      622    1    1    2    0    0  0.78631403518E-02  0.30866157912E-02  0.33261392492E+01  0.33263904854E+01  0.40000000000E-01 0.  0.
</event>
<event>
 5   0  0.6200596E+07  0.9118800E+02  0.7818608E-02  0.1180000E+00
       11   -1    0    0    0    0  0.00000000000E+00  0.00000000000E+00  0.39999999673E+01  0.40000000000E+01  0.51109989000E-03 0.  1.
     -623   -1    0    0    0    0  0.00000000000E+00  0.00000000000E+00  0.12525980253E-10  0.17130000000E+03  0.17130000000E+03 0. -1.
       11    1    1    2    0    0  0.52746574489E-02  0.16219539735E-01  0.20941383880E+00  0.21010785940E+00  0.51109989000E-03 0.  1.
     -623    1    1    2    0    0  0.73565048780E-02 -0.77132166495E-02  0.93601270434E-03  0.17130000033E+03  0.17130000000E+03 0. -1.
      622    1    1    2    0    0 -0.12631162327E-01 -0.85063230855E-02  0.37896501159E+01  0.37898918064E+01  0.40000000000E-01 0.  1.
</event>
<event>
 5   0  0.6200596E+07  0.9118800E+02  0.7818608E-02  0.1180000E+00
       11   -1    0    0    0    0  0.00000000000E+00  0.00000000000E+00  0.39999999673E+01  0.40000000000E+01  0.51109989000E-03 0.  1.
     -623   -1    0    0    0    0  0.00000000000E+00  0.00000000000E+00  0.12525980253E-10  0.17130000000E+03  0.17130000000E+03 0.  1.
       11    1    1    2    0    0  0.59518649229E-02  0.23548935906E-01  0.95944407081E+00  0.95975161543E+00  0.51109989000E-03 0.  1.
     -623    1    1    2    0    0  0.40425069155E-02  0.10970860237E-01  0.78348746681E-03  0.17130000040E+03  0.17130000000E+03 0.  1.
      622    1    1    2    0    0 -0.99943718383E-02 -0.34519796143E-01  0.30397724091E+01  0.30402479838E+01  0.40000000000E-01 0.  0.
</event>
<event>
 5   0  0.6200596E+07  0.9118800E+02  0.7818608E-02  0.1180000E+00
       11   -1    0    0    0    0  0.00000000000E+00  0.00000000000E+00  0.39999999673E+01  0.40000000000E+01  0.51109989000E-03 0. -1.
     -623   -1    0    0    0    0  0.00000000000E+00  0.00000000000E+00  0.12525980253E-10  0.17130000000E+03  0.17130000000E+03 0.  1.
       11    1    1    2    0    0  0.64119376872E-02 -0.49373174384E-02  0.15134803112E+01  0.15135020329E+01  0.51109989000E-03 0. -1.
     -623    1    1    2    0    0 -0.55203528064E-02 -0.61110428279E-02  0.36835491160E-03  0.17130000020E+03  0.17130000000E+03 0.  1.
      622    1    1    2    0    0 -0.89158488084E-03  0.11048360266E-01  0.24861513013E+01  0.24864977687E+01  0.40000000000E-01 0. -1.
</event>
<event>
 5   0  0.6200596E+07  0.9118800E+02  0.7818608E-02  0.1180000E+00
       11   -1    0    0    0    0  0.00000000000E+00  0.00000000000E+00  0.39999999673E+01  0.40000000000E+01  0.51109989000E-03 0. -1.
     -623   -1    0    0    0    0  0.00000000000E+00  0.00000000000E+00  0.12525980253E-10  0.17130000000E+03  0.17130000000E+03 0.  1.
       11    1    1    2    0    0 -0.40609791613E-02  0.41766351060E-02  0.40345560100E+00  0.40349797897E+00  0.51109989000E-03 0. -1.
     -623    1    1    2    0    0  0.55574352567E-03 -0.36509040332E-03  0.26852016396E-03  0.17130000000E+03  0.17130000000E+03 0.  1.
      622    1    1    2    0    0  0.35052356356E-02 -0.38115447027E-02  0.35962758462E+01  0.35965020195E+01  0.40000000000E-01 0. -1.
</event>
<event>
 5   0  0.6200596E+07  0.9118800E+02  0.7818608E-02  0.1180000E+00
       11   -1    0    0    0    0  0.00000000000E+00  0.00000000000E+00  0.39999999673E+01  0.40000000000E+01  0.51109989000E-03 0.  1.
     -623   -1    0    0    0    0  0.00000000000E+00  0.00000000000E+00  0.12525980253E-10  0.17130000000E+03  0.17130000000E+03 0. -1.
       11    1    1    2    0    0  0.43060081760E-04 -0.60059202311E-02  0.35870049909E+00  0.35875114244E+00  0.51109989000E-03 0.  1.
     -623    1    1    2    0    0 -0.16041189789E-02  0.19344121447E-01  0.29618792061E-03  0.17130000110E+03  0.17130000000E+03 0. -1.
      622    1    1    2    0    0  0.15610588972E-02 -0.13338201216E-01  0.36410032803E+01  0.36412477576E+01  0.40000000000E-01 0.  1.
</event>
<event>
 5   0  0.6200596E+07  0.9118800E+02  0.7818608E-02  0.1180000E+00
       11   -1    0    0    0    0  0.00000000000E+00  0.00000000000E+00  0.39999999673E+01  0.40000000000E+01  0.51109989000E-03 0. -1.
     -623   -1    0    0    0    0  0.00000000000E+00  0.00000000000E+00  0.12525980253E-10  0.17130000000E+03  0.17130000000E+03 0.  1.
       11    1    1    2    0    0 -0.72573750193E-01 -0.31428796088E-01  0.18787295863E+01  0.18803935327E+01  0.51109989000E-03 0. -1.
     -623    1    1    2    0    0  0.80949245854E-01  0.25103089343E-01  0.20883502686E-02  0.17130002098E+03  0.17130000000E+03 0.  1.
      622    1    1    2    0    0 -0.83754956610E-02  0.63257067448E-02  0.21191820308E+01  0.21195854886E+01  0.40000000000E-01 0.  1.
</event>
<event>
 5   0  0.6200596E+07  0.9118800E+02  0.7818608E-02  0.1180000E+00
       11   -1    0    0    0    0  0.00000000000E+00  0.00000000000E+00  0.39999999673E+01  0.40000000000E+01  0.51109989000E-03 0. -1.
     -623   -1    0    0    0    0  0.00000000000E+00  0.00000000000E+00  0.12525980253E-10  0.17130000000E+03  0.17130000000E+03 0. -1.
       11    1    1    2    0    0 -0.39030310346E-02 -0.31036498378E-02  0.98986881105E+00  0.98988150332E+00  0.51109989000E-03 0. -1.
     -623    1    1    2    0    0  0.10128992279E-01  0.14262966482E-01  0.30646176431E-03  0.17130000089E+03  0.17130000000E+03 0. -1.
      622    1    1    2    0    0 -0.62259612439E-02 -0.11159316644E-01  0.30098246945E+01  0.30101176032E+01  0.40000000000E-01 0. -1.
</event>
<event>
 5   0  0.6200596E+07  0.9118800E+02  0.7818608E-02  0.1180000E+00
       11   -1    0    0    0    0  0.00000000000E+00  0.00000000000E+00  0.39999999673E+01  0.40000000000E+01  0.51109989000E-03 0. -1.
     -623   -1    0    0    0    0  0.00000000000E+00  0.00000000000E+00  0.12525980253E-10  0.17130000000E+03  0.17130000000E+03 0.  1.
       11    1    1    2    0    0  0.11726019646E-01 -0.43517782274E-03  0.52743397912E-01  0.54035323267E-01  0.51109989000E-03 0. -1.
     -623    1    1    2    0    0 -0.55485635282E-02 -0.71515812307E-03  0.14997379876E-02  0.17130000010E+03  0.17130000000E+03 0.  1.
      622    1    1    2    0    0 -0.61774561177E-02  0.11503359458E-02  0.39457568315E+01  0.39459645788E+01  0.40000000000E-01 0. -1.
</event>
<event>
 5   0  0.6200596E+07  0.9118800E+02  0.7818608E-02  0.1180000E+00
       11   -1    0    0    0    0  0.00000000000E+00  0.00000000000E+00  0.39999999673E+01  0.40000000000E+01  0.51109989000E-03 0.  1.
     -623   -1    0    0    0    0  0.00000000000E+00  0.00000000000E+00  0.12525980253E-10  0.17130000000E+03  0.17130000000E+03 0. -1.
       11    1    1    2    0    0 -0.27214592072E-02 -0.12634617402E-02  0.23897313292E-01  0.24090360751E-01  0.51109989000E-03 0.  1.
     -623    1    1    2    0    0  0.23582781269E-02 -0.73963244555E-03  0.39477121291E-03  0.17130000002E+03  0.17130000000E+03 0. -1.
      622    1    1    2    0    0  0.36318108029E-03  0.20030941858E-02  0.39757078829E+01  0.39759096210E+01  0.40000000000E-01 0.  1.
</event>
<event>
 5   0  0.6200596E+07  0.9118800E+02  0.7818608E-02  0.1180000E+00
       11   -1    0    0    0    0  0.00000000000E+00  0.00000000000E+00  0.39999999673E+01  0.40000000000E+01  0.51109989000E-03 0. -1.
     -623   -1    0    0    0    0  0.00000000000E+00  0.00000000000E+00  0.12525980253E-10  0.17130000000E+03  0.17130000000E+03 0.  1.
       11    1    1    2    0    0 -0.88328404648E-03 -0.29831250052E-02  0.75056032645E-02  0.81409167972E-02  0.51109989000E-03 0. -1.
     -623    1    1    2    0    0 -0.17063231723E-02  0.46120304985E-02  0.83693880232E-03  0.17130000007E+03  0.17130000000E+03 0.  1.
      622    1    1    2    0    0  0.25896072188E-02 -0.16289054932E-02  0.39916574253E+01  0.39918590106E+01  0.40000000000E-01 0. -1.
</event>
<event>
 5   0  0.6200596E+07  0.9118800E+02  0.7818608E-02  0.1180000E+00
       11   -1    0    0    0    0  0.00000000000E+00  0.00000000000E+00  0.39999999673E+01  0.40000000000E+01  0.51109989000E-03 0. -1.
     -623   -1    0    0    0    0  0.00000000000E+00  0.00000000000E+00  0.12525980253E-10  0.17130000000E+03  0.17130000000E+03 0. -1.
       11    1    1    2    0    0  0.70150668410E-02  0.13128648140E-01  0.12225215227E+01  0.12226122473E+01  0.51109989000E-03 0. -1.
     -623    1    1    2    0    0  0.27311439499E-02 -0.26390200235E-01  0.42956938099E-03  0.17130000206E+03  0.17130000000E+03 0. -1.
      622    1    1    2    0    0 -0.97462107909E-02  0.13261552094E-01  0.27770488752E+01  0.27773856975E+01  0.40000000000E-01 0. -1.
</event>
<event>
 5   0  0.6200596E+07  0.9118800E+02  0.7818608E-02  0.1180000E+00
       11   -1    0    0    0    0  0.00000000000E+00  0.00000000000E+00  0.39999999673E+01  0.40000000000E+01  0.51109989000E-03 0. -1.
     -623   -1    0    0    0    0  0.00000000000E+00  0.00000000000E+00  0.12525980253E-10  0.17130000000E+03  0.17130000000E+03 0.  1.
       11    1    1    2    0    0 -0.32058351532E-02 -0.26830952698E-02  0.13603475475E-01  0.14240510723E-01  0.51109989000E-03 0. -1.
     -623    1    1    2    0    0  0.49852737025E-02 -0.17413531850E-02  0.84065876110E-03  0.17130000008E+03  0.17130000000E+03 0.  1.
      622    1    1    2    0    0 -0.17794385493E-02  0.44244484548E-02  0.39855558331E+01  0.39857594058E+01  0.40000000000E-01 0. -1.
</event>
<event>
 5   0  0.6200596E+07  0.9118800E+02  0.7818608E-02  0.1180000E+00
       11   -1    0    0    0    0  0.00000000000E+00  0.00000000000E+00  0.39999999673E+01  0.40000000000E+01  0.51109989000E-03 0. -1.
     -623   -1    0    0    0    0  0.00000000000E+00  0.00000000000E+00  0.12525980253E-10  0.17130000000E+03  0.17130000000E+03 0.  1.
       11    1    1    2    0    0  0.22000313380E-02 -0.68984479352E-03  0.51400682418E-02  0.56566373581E-02  0.51109989000E-03 0. -1.
     -623    1    1    2    0    0 -0.22384722496E-02  0.54531914558E-04  0.71689157704E-03  0.17130000002E+03  0.17130000000E+03 0.  1.
      622    1    1    2    0    0  0.38440911647E-04  0.63531287896E-03  0.39941430075E+01  0.39943433465E+01  0.40000000000E-01 0. -1.
</event>
<event>
 5   0  0.6200596E+07  0.9118800E+02  0.7818608E-02  0.1180000E+00
       11   -1    0    0    0    0  0.00000000000E+00  0.00000000000E+00  0.39999999673E+01  0.40000000000E+01  0.51109989000E-03 0. -1.
     -623   -1    0    0    0    0  0.00000000000E+00  0.00000000000E+00  0.12525980253E-10  0.17130000000E+03  0.17130000000E+03 0. -1.
       11    1    1    2    0    0  0.12484695939E-02 -0.80305951914E-03  0.35982639801E-01  0.36016873415E-01  0.51109989000E-03 0. -1.
     -623    1    1    2    0    0 -0.10536274330E-03  0.20455285365E-02  0.23639528528E-03  0.17130000001E+03  0.17130000000E+03 0. -1.
      622    1    1    2    0    0 -0.11431068506E-02 -0.12424690173E-02  0.39637809323E+01  0.39639831142E+01  0.40000000000E-01 0. -1.
</event>
<event>
 5   0  0.6200596E+07  0.9118800E+02  0.7818608E-02  0.1180000E+00
       11   -1    0    0    0    0  0.00000000000E+00  0.00000000000E+00  0.39999999673E+01  0.40000000000E+01  0.51109989000E-03 0. -1.
     -623   -1    0    0    0    0  0.00000000000E+00  0.00000000000E+00  0.12525980253E-10  0.17130000000E+03  0.17130000000E+03 0.  1.
       11    1    1    2    0    0 -0.18300283816E-01  0.28217872952E-01  0.17729111223E+01  0.17732301761E+01  0.51109989000E-03 0. -1.
     -623    1    1    2    0    0  0.11387927235E-01 -0.22599595349E-01  0.69800529422E-03  0.17130000187E+03  0.17130000000E+03 0.  1.
      622    1    1    2    0    0  0.69123565817E-02 -0.56182776036E-02  0.22263908398E+01  0.22267679531E+01  0.40000000000E-01 0.  0.
</event>
<event>
 5   0  0.6200596E+07  0.9118800E+02  0.7818608E-02  0.1180000E+00
       11   -1    0    0    0    0  0.00000000000E+00  0.00000000000E+00  0.39999999673E+01  0.40000000000E+01  0.51109989000E-03 0.  1.
     -623   -1    0    0    0    0  0.00000000000E+00  0.00000000000E+00  0.12525980253E-10  0.17130000000E+03  0.17130000000E+03 0.  1.
       11    1    1    2    0    0 -0.15006057516E-02  0.50106662341E-02  0.44244012667E+00  0.44247133862E+00  0.51109989000E-03 0.  1.
     -623    1    1    2    0    0  0.16383781202E-02 -0.11033345412E-02  0.25822178238E-03  0.17130000001E+03  0.17130000000E+03 0.  1.
      622    1    1    2    0    0 -0.13777236861E-03 -0.39073316928E-02  0.35573016189E+01  0.35575286498E+01  0.40000000000E-01 0.  1.
</event>
<event>
 5   0  0.6200596E+07  0.9118800E+02  0.7818608E-02  0.1180000E+00
       11   -1    0    0    0    0  0.00000000000E+00  0.00000000000E+00  0.39999999673E+01  0.40000000000E+01  0.51109989000E-03 0.  1.
     -623   -1    0    0    0    0  0.00000000000E+00  0.00000000000E+00  0.12525980253E-10  0.17130000000E+03  0.17130000000E+03 0. -1.
       11    1    1    2    0    0  0.29233573460E-02  0.48481174895E-03  0.58296368840E-01  0.58373871739E-01  0.51109989000E-03 0.  1.
     -623    1    1    2    0    0 -0.74704378054E-03 -0.20842534900E-03  0.28104992177E-03  0.17130000000E+03  0.17130000000E+03 0. -1.
      622    1    1    2    0    0 -0.21763135654E-02 -0.27638639994E-03  0.39414225486E+01  0.39416261263E+01  0.40000000000E-01 0.  1.
</event>
<event>
 5   0  0.6200596E+07  0.9118800E+02  0.7818608E-02  0.1180000E+00
       11   -1    0    0    0    0  0.00000000000E+00  0.00000000000E+00  0.39999999673E+01  0.40000000000E+01  0.51109989000E-03 0. -1.
     -623   -1    0    0    0    0  0.00000000000E+00  0.00000000000E+00  0.12525980253E-10  0.17130000000E+03  0.17130000000E+03 0.  1.
       11    1    1    2    0    0  0.48486334565E-01  0.18972930541E-01  0.47079371733E+00  0.47366431387E+00  0.51109989000E-03 0. -1.
     -623    1    1    2    0    0  0.41212432596E-02 -0.26378539955E-01  0.34997896036E-02  0.17130000212E+03  0.17130000000E+03 0.  1.
      622    1    1    2    0    0 -0.52607577825E-01  0.74056094140E-02  0.35257064604E+01  0.35263335698E+01  0.40000000000E-01 0. -1.
</event>
<event>
 5   0  0.6200596E+07  0.9118800E+02  0.7818608E-02  0.1180000E+00
       11   -1    0    0    0    0  0.00000000000E+00  0.00000000000E+00  0.39999999673E+01  0.40000000000E+01  0.51109989000E-03 0.  1.
     -623   -1    0    0    0    0  0.00000000000E+00  0.00000000000E+00  0.12525980253E-10  0.17130000000E+03  0.17130000000E+03 0.  1.
       11    1    1    2    0    0  0.56787175664E-02 -0.16616150066E-03  0.50770086750E+00  0.50773290963E+00  0.51109989000E-03 0.  1.
     -623    1    1    2    0    0 -0.33862131034E-02 -0.34162624743E-02  0.26375238667E-03  0.17130000007E+03  0.17130000000E+03 0.  1.
      622    1    1    2    0    0 -0.22925044630E-02  0.35824239750E-02  0.34920353475E+01  0.34922670226E+01  0.40000000000E-01 0.  1.
</event>
<event>
 5   0  0.6200596E+07  0.9118800E+02  0.7818608E-02  0.1180000E+00
       11   -1    0    0    0    0  0.00000000000E+00  0.00000000000E+00  0.39999999673E+01  0.40000000000E+01  0.51109989000E-03 0.  1.
     -623   -1    0    0    0    0  0.00000000000E+00  0.00000000000E+00  0.12525980253E-10  0.17130000000E+03  0.17130000000E+03 0.  1.
       11    1    1    2    0    0  0.16279676502E-05  0.41826955941E-02  0.12517055559E+01  0.12517126486E+01  0.51109989000E-03 0.  1.
     -623    1    1    2    0    0 -0.88169849662E-03  0.81558028230E-03  0.30285696281E-03  0.17130000000E+03  0.17130000000E+03 0.  1.
      622    1    1    2    0    0  0.88007052897E-03 -0.49982758764E-02  0.27479915545E+01  0.27482873469E+01  0.40000000000E-01 0.  1.
</event>
<event>
 5   0  0.6200596E+07  0.9118800E+02  0.7818608E-02  0.1180000E+00
       11   -1    0    0    0    0  0.00000000000E+00  0.00000000000E+00  0.39999999673E+01  0.40000000000E+01  0.51109989000E-03 0. -1.
     -623   -1    0    0    0    0  0.00000000000E+00  0.00000000000E+00  0.12525980253E-10  0.17130000000E+03  0.17130000000E+03 0. -1.
       11    1    1    2    0    0  0.18094699804E-02 -0.30656345218E-03  0.14062652354E+00  0.14063942728E+00  0.51109989000E-03 0. -1.
     -623    1    1    2    0    0 -0.14906645780E-01 -0.69729726928E-02  0.25004602525E-03  0.17130000079E+03  0.17130000000E+03 0. -1.
      622    1    1    2    0    0  0.13097175800E-01  0.72795361450E-02  0.38591233978E+01  0.38593597820E+01  0.40000000000E-01 0. -1.
</event>
<event>
 5   0  0.6200596E+07  0.9118800E+02  0.7818608E-02  0.1180000E+00
       11   -1    0    0    0    0  0.00000000000E+00  0.00000000000E+00  0.39999999673E+01  0.40000000000E+01  0.51109989000E-03 0.  1.
     -623   -1    0    0    0    0  0.00000000000E+00  0.00000000000E+00  0.12525980253E-10  0.17130000000E+03  0.17130000000E+03 0.  1.
       11    1    1    2    0    0  0.12428642816E-02  0.98550958412E-03  0.20149126901E-01  0.20217924656E-01  0.51109989000E-03 0.  1.
     -623    1    1    2    0    0 -0.43806855297E-03  0.88254640874E-03  0.27030909068E-03  0.17130000000E+03  0.17130000000E+03 0.  1.
      622    1    1    2    0    0 -0.80479572866E-03 -0.18680559929E-02  0.39795805314E+01  0.39797820723E+01  0.40000000000E-01 0.  1.
</event>
<event>
 5   0  0.6200596E+07  0.9118800E+02  0.7818608E-02  0.1180000E+00
       11   -1    0    0    0    0  0.00000000000E+00  0.00000000000E+00  0.39999999673E+01  0.40000000000E+01  0.51109989000E-03 0.  1.
     -623   -1    0    0    0    0  0.00000000000E+00  0.00000000000E+00  0.12525980253E-10  0.17130000000E+03  0.17130000000E+03 0.  1.
       11    1    1    2    0    0  0.30716139040E-02  0.32194150434E-02  0.14644923766E-01  0.15314517932E-01  0.51109989000E-03 0.  1.
     -623    1    1    2    0    0 -0.56906710694E-02 -0.44011029283E-03  0.87226266612E-03  0.17130000010E+03  0.17130000000E+03 0.  1.
      622    1    1    2    0    0  0.26190571654E-02 -0.27793047506E-02  0.39844827809E+01  0.39846853848E+01  0.40000000000E-01 0.  1.
</event>
<event>
 5   0  0.6200596E+07  0.9118800E+02  0.7818608E-02  0.1180000E+00
       11   -1    0    0    0    0  0.00000000000E+00  0.00000000000E+00  0.39999999673E+01  0.40000000000E+01  0.51109989000E-03 0.  1.
     -623   -1    0    0    0    0  0.00000000000E+00  0.00000000000E+00  0.12525980253E-10  0.17130000000E+03  0.17130000000E+03 0. -1.
       11    1    1    2    0    0  0.90638636384E-02  0.49057326076E-03  0.65575604564E+00  0.65581906567E+00  0.51109989000E-03 0.  1.
     -623    1    1    2    0    0  0.24454795409E-02 -0.20367107833E-02  0.32241154139E-03  0.17130000003E+03  0.17130000000E+03 0. -1.
      622    1    1    2    0    0 -0.11509343179E-01  0.15461375226E-02  0.33439215102E+01  0.33441809045E+01  0.40000000000E-01 0.  1.
</event>
<event>
 5   0  0.6200596E+07  0.9118800E+02  0.7818608E-02  0.1180000E+00
       11   -1    0    0    0    0  0.00000000000E+00  0.00000000000E+00  0.39999999673E+01  0.40000000000E+01  0.51109989000E-03 0. -1.
     -623   -1    0    0    0    0  0.00000000000E+00  0.00000000000E+00  0.12525980253E-10  0.17130000000E+03  0.17130000000E+03 0.  1.
       11    1    1    2    0    0 -0.43281138771E-02 -0.49775293910E-03  0.96020430329E-01  0.96120573186E-01  0.51109989000E-03 0. -1.
     -623    1    1    2    0    0 -0.23011606848E-04  0.13523780956E-03  0.30748205404E-03  0.17130000000E+03  0.17130000000E+03 0.  1.
      622    1    1    2    0    0  0.43511254839E-02  0.36251512955E-03  0.39036720550E+01  0.39038794265E+01  0.40000000000E-01 0. -1.
</event>
<event>
 5   0  0.6200596E+07  0.9118800E+02  0.7818608E-02  0.1180000E+00
       11   -1    0    0    0    0  0.00000000000E+00  0.00000000000E+00  0.39999999673E+01  0.40000000000E+01  0.51109989000E-03 0.  1.
     -623   -1    0    0    0    0  0.00000000000E+00  0.00000000000E+00  0.12525980253E-10  0.17130000000E+03  0.17130000000E+03 0.  1.
       11    1    1    2    0    0  0.29044584769E-02 -0.12859162350E-02  0.29444060042E-02  0.43612164598E-02  0.51109989000E-03 0.  1.
     -623    1    1    2    0    0 -0.30642761886E-02  0.32361615571E-02  0.16175459186E-02  0.17130000007E+03  0.17130000000E+03 0.  1.
      622    1    1    2    0    0  0.15981771176E-03 -0.19502453221E-02  0.39954380154E+01  0.39956387179E+01  0.40000000000E-01 0.  1.
</event>
<event>
 5   0  0.6200596E+07  0.9118800E+02  0.7818608E-02  0.1180000E+00
       11   -1    0    0    0    0  0.00000000000E+00  0.00000000000E+00  0.39999999673E+01  0.40000000000E+01  0.51109989000E-03 0.  1.
     -623   -1    0    0    0    0  0.00000000000E+00  0.00000000000E+00  0.12525980253E-10  0.17130000000E+03  0.17130000000E+03 0.  1.
       11    1    1    2    0    0  0.74294263355E-02  0.16054170823E-01  0.62397091013E-01  0.64858237460E-01  0.51109989000E-03 0.  1.
     -623    1    1    2    0    0  0.16195324798E-02  0.50146811518E-02  0.27313280252E-02  0.17130000010E+03  0.17130000000E+03 0.  1.
      622    1    1    2    0    0 -0.90489588153E-02 -0.21068851975E-01  0.39348715483E+01  0.39351416597E+01  0.40000000000E-01 0.  1.
</event>
<event>
 5   0  0.6200596E+07  0.9118800E+02  0.7818608E-02  0.1180000E+00
       11   -1    0    0    0    0  0.00000000000E+00  0.00000000000E+00  0.39999999673E+01  0.40000000000E+01  0.51109989000E-03 0. -1.
     -623   -1    0    0    0    0  0.00000000000E+00  0.00000000000E+00  0.12525980253E-10  0.17130000000E+03  0.17130000000E+03 0. -1.
       11    1    1    2    0    0 -0.94607920869E-02  0.15342343052E-01  0.18673574807E+00  0.18760435737E+00  0.51109989000E-03 0. -1.
     -623    1    1    2    0    0  0.30321829582E-03 -0.21772736585E-02  0.11121734440E-02  0.17130000002E+03  0.17130000000E+03 0. -1.
      622    1    1    2    0    0  0.91575737911E-02 -0.13165069393E-01  0.38121520458E+01  0.38123956249E+01  0.40000000000E-01 0. -1.
</event>
<event>
 5   0  0.6200596E+07  0.9118800E+02  0.7818608E-02  0.1180000E+00
       11   -1    0    0    0    0  0.00000000000E+00  0.00000000000E+00  0.39999999673E+01  0.40000000000E+01  0.51109989000E-03 0. -1.
     -623   -1    0    0    0    0  0.00000000000E+00  0.00000000000E+00  0.12525980253E-10  0.17130000000E+03  0.17130000000E+03 0.  1.
       11    1    1    2    0    0  0.16307597858E-01 -0.13975009739E-02  0.28784308796E+00  0.28830850710E+00  0.51109989000E-03 0. -1.
     -623    1    1    2    0    0 -0.31131901572E-02  0.45531618946E-02  0.70581305363E-03  0.17130000009E+03  0.17130000000E+03 0.  1.
      622    1    1    2    0    0 -0.13194407701E-01 -0.31556609207E-02  0.37114510663E+01  0.37116914026E+01  0.40000000000E-01 0. -1.
</event>
<event>
 5   0  0.6200596E+07  0.9118800E+02  0.7818608E-02  0.1180000E+00
       11   -1    0    0    0    0  0.00000000000E+00  0.00000000000E+00  0.39999999673E+01  0.40000000000E+01  0.51109989000E-03 0. -1.
     -623   -1    0    0    0    0  0.00000000000E+00  0.00000000000E+00  0.12525980253E-10  0.17130000000E+03  0.17130000000E+03 0.  1.
       11    1    1    2    0    0 -0.55467292043E-02 -0.10990365360E-01  0.11562052281E+00  0.11627519448E+00  0.51109989000E-03 0. -1.
     -623    1    1    2    0    0  0.47107115179E-02 -0.15884329312E-01  0.95451639186E-03  0.17130000080E+03  0.17130000000E+03 0.  1.
      622    1    1    2    0    0  0.83601768639E-03  0.26874694672E-01  0.38834249282E+01  0.38837240016E+01  0.40000000000E-01 0. -1.
</event>
<event>
 5   0  0.6200596E+07  0.9118800E+02  0.7818608E-02  0.1180000E+00
       11   -1    0    0    0    0  0.00000000000E+00  0.00000000000E+00  0.39999999673E+01  0.40000000000E+01  0.51109989000E-03 0.  1.
     -623   -1    0    0    0    0  0.00000000000E+00  0.00000000000E+00  0.12525980253E-10  0.17130000000E+03  0.17130000000E+03 0. -1.
       11    1    1    2    0    0 -0.11066177726E-02 -0.19769451242E-02  0.10858654490E-02  0.25638330505E-02  0.51109989000E-03 0.  1.
     -623    1    1    2    0    0 -0.25512764378E-04  0.37764206561E-02  0.16786834713E-02  0.17130000005E+03  0.17130000000E+03 0. -1.
      622    1    1    2    0    0  0.11321305369E-02 -0.17994755319E-02  0.39972354184E+01  0.39974361171E+01  0.40000000000E-01 0.  1.
</event>
<event>
 5   0  0.6200596E+07  0.9118800E+02  0.7818608E-02  0.1180000E+00
       11   -1    0    0    0    0  0.00000000000E+00  0.00000000000E+00  0.39999999673E+01  0.40000000000E+01  0.51109989000E-03 0.  1.
     -623   -1    0    0    0    0  0.00000000000E+00  0.00000000000E+00  0.12525980253E-10  0.17130000000E+03  0.17130000000E+03 0. -1.
       11    1    1    2    0    0 -0.11584260889E-02  0.38595130963E-02  0.40028686755E+00  0.40030747601E+00  0.51109989000E-03 0.  1.
     -623    1    1    2    0    0 -0.11204814269E-02 -0.13613152157E-02  0.24442147625E-03  0.17130000001E+03  0.17130000000E+03 0. -1.
      622    1    1    2    0    0  0.22789075158E-02 -0.24981978806E-02  0.35994686783E+01  0.35996925147E+01  0.40000000000E-01 0.  1.
</event>
<event>
 5   0  0.6200596E+07  0.9118800E+02  0.7818608E-02  0.1180000E+00
       11   -1    0    0    0    0  0.00000000000E+00  0.00000000000E+00  0.39999999673E+01  0.40000000000E+01  0.51109989000E-03 0. -1.
     -623   -1    0    0    0    0  0.00000000000E+00  0.00000000000E+00  0.12525980253E-10  0.17130000000E+03  0.17130000000E+03 0. -1.
       11    1    1    2    0    0  0.81060368410E-02 -0.13134702178E-01  0.32408208975E-01  0.35899602558E-01  0.51109989000E-03 0. -1.
     -623    1    1    2    0    0 -0.56655646854E-02  0.89154625002E-02  0.36965397012E-02  0.17130000037E+03  0.17130000000E+03 0. -1.
      622    1    1    2    0    0 -0.24404721556E-02  0.42192396774E-02  0.39638952187E+01  0.39641000319E+01  0.40000000000E-01 0. -1.
</event>
<event>
 5   0  0.6200596E+07  0.9118800E+02  0.7818608E-02  0.1180000E+00
       11   -1    0    0    0    0  0.00000000000E+00  0.00000000000E+00  0.39999999673E+01  0.40000000000E+01  0.51109989000E-03 0. -1.
     -623   -1    0    0    0    0  0.00000000000E+00  0.00000000000E+00  0.12525980253E-10  0.17130000000E+03  0.17130000000E+03 0.  1.
       11    1    1    2    0    0 -0.19328076929E-02  0.36207659920E-02  0.42549342119E-01  0.42749893880E-01  0.51109989000E-03 0. -1.
     -623    1    1    2    0    0  0.29826940340E-02 -0.91523604627E-03  0.40377795813E-03  0.17130000003E+03  0.17130000000E+03 0.  1.
      622    1    1    2    0    0 -0.10498863411E-02 -0.27055299457E-02  0.39570468473E+01  0.39572500772E+01  0.40000000000E-01 0. -1.
</event>
<event>
 5   0  0.6200596E+07  0.9118800E+02  0.7818608E-02  0.1180000E+00
       11   -1    0    0    0    0  0.00000000000E+00  0.00000000000E+00  0.39999999673E+01  0.40000000000E+01  0.51109989000E-03 0. -1.
     -623   -1    0    0    0    0  0.00000000000E+00  0.00000000000E+00  0.12525980253E-10  0.17130000000E+03  0.17130000000E+03 0.  1.
       11    1    1    2    0    0 -0.50107602454E-01 -0.19826640312E-02  0.43434643418E+00  0.43723196234E+00  0.51109989000E-03 0. -1.
     -623    1    1    2    0    0  0.25503888577E-01  0.16226976319E-01  0.32261829390E-02  0.17130000270E+03  0.17130000000E+03 0.  1.
      622    1    1    2    0    0  0.24603713878E-01 -0.14244312287E-01  0.35624273502E+01  0.35627653401E+01  0.40000000000E-01 0. -1.
</event>
<event>
 5   0  0.6200596E+07  0.9118800E+02  0.7818608E-02  0.1180000E+00
       11   -1    0    0    0    0  0.00000000000E+00  0.00000000000E+00  0.39999999673E+01  0.40000000000E+01  0.51109989000E-03 0.  1.
     -623   -1    0    0    0    0  0.00000000000E+00  0.00000000000E+00  0.12525980253E-10  0.17130000000E+03  0.17130000000E+03 0.  1.
       11    1    1    2    0    0  0.15486486376E-02  0.20100695511E-03  0.62348537047E-02  0.64477390594E-02  0.51109989000E-03 0.  1.
     -623    1    1    2    0    0 -0.12902677539E-02 -0.20510437153E-02  0.41363518597E-03  0.17130000002E+03  0.17130000000E+03 0.  1.
      622    1    1    2    0    0 -0.25838088368E-03  0.18500367602E-02  0.39933514785E+01  0.39935522433E+01  0.40000000000E-01 0.  1.
</event>
<event>
 5   0  0.6200596E+07  0.9118800E+02  0.7818608E-02  0.1180000E+00
       11   -1    0    0    0    0  0.00000000000E+00  0.00000000000E+00  0.39999999673E+01  0.40000000000E+01  0.51109989000E-03 0.  1.
     -623   -1    0    0    0    0  0.00000000000E+00  0.00000000000E+00  0.12525980253E-10  0.17130000000E+03  0.17130000000E+03 0. -1.
       11    1    1    2    0    0 -0.75994954074E-03 -0.74513084970E-03  0.26315345866E+00  0.26315610723E+00  0.51109989000E-03 0.  1.
     -623    1    1    2    0    0  0.54156967991E-02  0.86978545534E-03  0.21969697656E-03  0.17130000009E+03  0.17130000000E+03 0. -1.
      622    1    1    2    0    0 -0.46557472584E-02 -0.12465460564E-03  0.37366268117E+01  0.37368438048E+01  0.40000000000E-01 0.  1.
</event>
<event>
 5   0  0.6200596E+07  0.9118800E+02  0.7818608E-02  0.1180000E+00
       11   -1    0    0    0    0  0.00000000000E+00  0.00000000000E+00  0.39999999673E+01  0.40000000000E+01  0.51109989000E-03 0. -1.
     -623   -1    0    0    0    0  0.00000000000E+00  0.00000000000E+00  0.12525980253E-10  0.17130000000E+03  0.17130000000E+03 0.  1.
       11    1    1    2    0    0  0.13219343546E-01 -0.12015982266E-01  0.28010414003E+00  0.28067369909E+00  0.51109989000E-03 0. -1.
     -623    1    1    2    0    0 -0.14816069096E-02  0.84154908068E-02  0.80510575985E-03  0.17130000022E+03  0.17130000000E+03 0.  1.
      622    1    1    2    0    0 -0.11737736636E-01  0.36004914596E-02  0.37190907216E+01  0.37193260859E+01  0.40000000000E-01 0. -1.
</event>
<event>
 5   0  0.6200596E+07  0.9118800E+02  0.7818608E-02  0.1180000E+00
       11   -1    0    0    0    0  0.00000000000E+00  0.00000000000E+00  0.39999999673E+01  0.40000000000E+01  0.51109989000E-03 0.  1.
     -623   -1    0    0    0    0  0.00000000000E+00  0.00000000000E+00  0.12525980253E-10  0.17130000000E+03  0.17130000000E+03 0.  1.
       11    1    1    2    0    0 -0.38615374744E-01 -0.25745813159E-01  0.42463126819E+00  0.42716035538E+00  0.51109989000E-03 0.  1.
     -623    1    1    2    0    0  0.92762781423E-02  0.30172928447E-02  0.29460488822E-02  0.17130000030E+03  0.17130000000E+03 0.  1.
      622    1    1    2    0    0  0.29339096602E-01  0.22728520314E-01  0.35724226503E+01  0.35728393415E+01  0.40000000000E-01 0.  1.
</event>
<event>
 5   0  0.6200596E+07  0.9118800E+02  0.7818608E-02  0.1180000E+00
       11   -1    0    0    0    0  0.00000000000E+00  0.00000000000E+00  0.39999999673E+01  0.40000000000E+01  0.51109989000E-03 0.  1.
     -623   -1    0    0    0    0  0.00000000000E+00  0.00000000000E+00  0.12525980253E-10  0.17130000000E+03  0.17130000000E+03 0.  1.
       11    1    1    2    0    0  0.20795877705E-03 -0.33284350755E-01  0.17712792299E+01  0.17715920137E+01  0.51109989000E-03 0.  1.
     -623    1    1    2    0    0  0.10013370090E-01  0.50918202900E-03  0.93660354193E-03  0.17130000030E+03  0.17130000000E+03 0.  1.
      622    1    1    2    0    0 -0.10221328867E-01  0.32775168726E-01  0.22277841339E+01  0.22284076904E+01  0.40000000000E-01 0.  1.
</event>
<event>
 5   0  0.6200596E+07  0.9118800E+02  0.7818608E-02  0.1180000E+00
       11   -1    0    0    0    0  0.00000000000E+00  0.00000000000E+00  0.39999999673E+01  0.40000000000E+01  0.51109989000E-03 0. -1.
     -623   -1    0    0    0    0  0.00000000000E+00  0.00000000000E+00  0.12525980253E-10  0.17130000000E+03  0.17130000000E+03 0.  1.
       11    1    1    2    0    0  0.59654311422E-02 -0.72477761991E-04  0.70464467012E-01  0.70718413127E-01  0.51109989000E-03 0. -1.
     -623    1    1    2    0    0 -0.30509224487E-02 -0.43959849215E-02  0.46122442043E-03  0.17130000008E+03  0.17130000000E+03 0.  1.
      622    1    1    2    0    0 -0.29145086935E-02  0.44684626835E-02  0.39290742759E+01  0.39292815027E+01  0.40000000000E-01 0. -1.
</event>
<event>
 5   0  0.6200596E+07  0.9118800E+02  0.7818608E-02  0.1180000E+00
       11   -1    0    0    0    0  0.00000000000E+00  0.00000000000E+00  0.39999999673E+01  0.40000000000E+01  0.51109989000E-03 0. -1.
     -623   -1    0    0    0    0  0.00000000000E+00  0.00000000000E+00  0.12525980253E-10  0.17130000000E+03  0.17130000000E+03 0. -1.
       11    1    1    2    0    0 -0.27654806839E-01  0.16355503357E-01  0.47692555763E+00  0.47800684051E+00  0.51109989000E-03 0. -1.
     -623    1    1    2    0    0  0.16613650566E-01 -0.17825742068E-01  0.13277546759E-02  0.17130000174E+03  0.17130000000E+03 0. -1.
      622    1    1    2    0    0  0.11041156273E-01  0.14702387109E-02  0.35217466551E+01  0.35219914212E+01  0.40000000000E-01 0. -1.
</event>
<event>
 5   0  0.6200596E+07  0.9118800E+02  0.7818608E-02  0.1180000E+00
       11   -1    0    0    0    0  0.00000000000E+00  0.00000000000E+00  0.39999999673E+01  0.40000000000E+01  0.51109989000E-03 0. -1.
     -623   -1    0    0    0    0  0.00000000000E+00  0.00000000000E+00  0.12525980253E-10  0.17130000000E+03  0.17130000000E+03 0. -1.
       11    1    1    2    0    0 -0.10539092676E-03 -0.54167119912E-03  0.11472508847E-02  0.13718316260E-02  0.51109989000E-03 0. -1.
     -623    1    1    2    0    0  0.14081974520E-02  0.26570842613E-03  0.42485001260E-03  0.17130000001E+03  0.17130000000E+03 0. -1.
      622    1    1    2    0    0 -0.13028065252E-02  0.27596277299E-03  0.39984278665E+01  0.39986281619E+01  0.40000000000E-01 0. -1.
</event>
<event>
 5   0  0.6200596E+07  0.9118800E+02  0.7818608E-02  0.1180000E+00
       11   -1    0    0    0    0  0.00000000000E+00  0.00000000000E+00  0.39999999673E+01  0.40000000000E+01  0.51109989000E-03 0.  1.
     -623   -1    0    0    0    0  0.00000000000E+00  0.00000000000E+00  0.12525980253E-10  0.17130000000E+03  0.17130000000E+03 0. -1.
       11    1    1    2    0    0 -0.13999080561E-02 -0.13229647055E-01  0.12411808819E+00  0.12483006185E+00  0.51109989000E-03 0.  1.
     -623    1    1    2    0    0  0.82164888993E-02  0.93785043490E-02  0.92675477990E-03  0.17130000046E+03  0.17130000000E+03 0. -1.
      622    1    1    2    0    0 -0.68165808432E-02  0.38511427061E-02  0.38749551244E+01  0.38751694819E+01  0.40000000000E-01 0.  1.
</event>
<event>
 5   0  0.6200596E+07  0.9118800E+02  0.7818608E-02  0.1180000E+00
       11   -1    0    0    0    0  0.00000000000E+00  0.00000000000E+00  0.39999999673E+01  0.40000000000E+01  0.51109989000E-03 0. -1.
     -623   -1    0    0    0    0  0.00000000000E+00  0.00000000000E+00  0.12525980253E-10  0.17130000000E+03  0.17130000000E+03 0.  1.
       11    1    1    2    0    0 -0.18134780755E-02  0.17877482420E-02  0.73430622928E-01  0.73476542859E-01  0.51109989000E-03 0. -1.
     -623    1    1    2    0    0 -0.88415624571E-03  0.71968495118E-04  0.25100478814E-03  0.17130000000E+03  0.17130000000E+03 0.  1.
      622    1    1    2    0    0  0.26976343212E-02 -0.18597167371E-02  0.39263183396E+01  0.39265234547E+01  0.40000000000E-01 0. -1.
</event>
<event>
 5   0  0.6200596E+07  0.9118800E+02  0.7818608E-02  0.1180000E+00
       11   -1    0    0    0    0  0.00000000000E+00  0.00000000000E+00  0.39999999673E+01  0.40000000000E+01  0.51109989000E-03 0. -1.
     -623   -1    0    0    0    0  0.00000000000E+00  0.00000000000E+00  0.12525980253E-10  0.17130000000E+03  0.17130000000E+03 0. -1.
       11    1    1    2    0    0  0.24715616456E-02 -0.25880160146E-02  0.11207131717E+00  0.11212960268E+00  0.51109989000E-03 0. -1.
     -623    1    1    2    0    0  0.10961048747E-02  0.20273378955E-02  0.26571963943E-03  0.17130000002E+03  0.17130000000E+03 0. -1.
      622    1    1    2    0    0 -0.35676665203E-02  0.56067811903E-03  0.38876629306E+01  0.38878703816E+01  0.40000000000E-01 0. -1.
</event>
<event>
 5   0  0.6200596E+07  0.9118800E+02  0.7818608E-02  0.1180000E+00
       11   -1    0    0    0    0  0.00000000000E+00  0.00000000000E+00  0.39999999673E+01  0.40000000000E+01  0.51109989000E-03 0. -1.
     -623   -1    0    0    0    0  0.00000000000E+00  0.00000000000E+00  0.12525980253E-10  0.17130000000E+03  0.17130000000E+03 0. -1.
       11    1    1    2    0    0 -0.18448074713E-02 -0.74842086200E-03  0.60337223924E-02  0.63742040355E-02  0.51109989000E-03 0.  1.
     -623    1    1    2    0    0  0.14681700873E-02  0.84791877597E-03  0.54080149113E-03  0.17130000001E+03  0.17130000000E+03 0. -1.
      622    1    1    2    0    0  0.37663738399E-03 -0.99497913966E-04  0.39934254435E+01  0.39936257867E+01  0.40000000000E-01 0. -1.
</event>
<event>
 5   0  0.6200596E+07  0.9118800E+02  0.7818608E-02  0.1180000E+00
       11   -1    0    0    0    0  0.00000000000E+00  0.00000000000E+00  0.39999999673E+01  0.40000000000E+01  0.51109989000E-03 0. -1.
     -623   -1    0    0    0    0  0.00000000000E+00  0.00000000000E+00  0.12525980253E-10  0.17130000000E+03  0.17130000000E+03 0.  1.
       11    1    1    2    0    0  0.13242881639E-02 -0.98370886156E-03  0.33962281311E-02  0.38101192174E-02  0.51109989000E-03 0. -1.
     -623    1    1    2    0    0 -0.30402486186E-02 -0.35353314888E-03  0.61467478245E-03  0.17130000003E+03  0.17130000000E+03 0.  1.
      622    1    1    2    0    0  0.17159604547E-02  0.13372420104E-02  0.39959890644E+01  0.39961898523E+01  0.40000000000E-01 0. -1.
</event>
<event>
 5   0  0.6200596E+07  0.9118800E+02  0.7818608E-02  0.1180000E+00
       11   -1    0    0    0    0  0.00000000000E+00  0.00000000000E+00  0.39999999673E+01  0.40000000000E+01  0.51109989000E-03 0. -1.
     -623   -1    0    0    0    0  0.00000000000E+00  0.00000000000E+00  0.12525980253E-10  0.17130000000E+03  0.17130000000E+03 0.  1.
       11    1    1    2    0    0 -0.18767268475E-01  0.30144116626E-02  0.34503146634E+00  0.34555501882E+00  0.51109989000E-03 0. -1.
     -623    1    1    2    0    0  0.47835168264E-03  0.12565348438E-02  0.79070798417E-03  0.17130000001E+03  0.17130000000E+03 0.  1.
      622    1    1    2    0    0  0.18288916792E-01 -0.42709465064E-02  0.36541777930E+01  0.36544449741E+01  0.40000000000E-01 0. -1.
</event>
<event>
 5   0  0.6200596E+07  0.9118800E+02  0.7818608E-02  0.1180000E+00
       11   -1    0    0    0    0  0.00000000000E+00  0.00000000000E+00  0.39999999673E+01  0.40000000000E+01  0.51109989000E-03 0. -1.
     -623   -1    0    0    0    0  0.00000000000E+00  0.00000000000E+00  0.12525980253E-10  0.17130000000E+03  0.17130000000E+03 0. -1.
       11    1    1    2    0    0  0.74688563669E-02  0.36860958724E-02  0.26257649290E+01  0.26257781885E+01  0.51109989000E-03 0. -1.
     -623    1    1    2    0    0  0.24222709036E-02  0.14404375252E-03  0.63646795852E-03  0.17130000002E+03  0.17130000000E+03 0. -1.
      622    1    1    2    0    0 -0.98911272705E-02 -0.38301396249E-02  0.13735985704E+01  0.13742217932E+01  0.40000000000E-01 0.  0.
</event>
<event>
 5   0  0.6200596E+07  0.9118800E+02  0.7818608E-02  0.1180000E+00
       11   -1    0    0    0    0  0.00000000000E+00  0.00000000000E+00  0.39999999673E+01  0.40000000000E+01  0.51109989000E-03 0.  1.
     -623   -1    0    0    0    0  0.00000000000E+00  0.00000000000E+00  0.12525980253E-10  0.17130000000E+03  0.17130000000E+03 0.  1.
       11    1    1    2    0    0 -0.73059156552E-03  0.52071426291E-03  0.66676127958E-02  0.67470874951E-02  0.51109989000E-03 0.  1.
     -623    1    1    2    0    0  0.19567533305E-02 -0.68780505014E-03  0.27998955250E-03  0.17130000001E+03  0.17130000000E+03 0.  1.
      622    1    1    2    0    0 -0.12261617650E-02  0.16709078723E-03  0.39930523650E+01  0.39932528997E+01  0.40000000000E-01 0.  1.
</event>
<event>
 5   0  0.6200596E+07  0.9118800E+02  0.7818608E-02  0.1180000E+00
       11   -1    0    0    0    0  0.00000000000E+00  0.00000000000E+00  0.39999999673E+01  0.40000000000E+01  0.51109989000E-03 0.  1.
     -623   -1    0    0    0    0  0.00000000000E+00  0.00000000000E+00  0.12525980253E-10  0.17130000000E+03  0.17130000000E+03 0. -1.
       11    1    1    2    0    0  0.21094940881E-02  0.13858376245E-02  0.47664364911E-01  0.47733881208E-01  0.51109989000E-03 0.  1.
     -623    1    1    2    0    0  0.11592650946E-02 -0.12556538894E-02  0.27326704577E-03  0.17130000001E+03  0.17130000000E+03 0. -1.
      622    1    1    2    0    0 -0.32687591828E-02 -0.13018373507E-03  0.39520623354E+01  0.39522661100E+01  0.40000000000E-01 0.  1.
</event>
<event>
 5   0  0.6200596E+07  0.9118800E+02  0.7818608E-02  0.1180000E+00
       11   -1    0    0    0    0  0.00000000000E+00  0.00000000000E+00  0.39999999673E+01  0.40000000000E+01  0.51109989000E-03 0. -1.
     -623   -1    0    0    0    0  0.00000000000E+00  0.00000000000E+00  0.12525980253E-10  0.17130000000E+03  0.17130000000E+03 0.  1.
       11    1    1    2    0    0  0.14571311307E-01 -0.55913139947E-02  0.68758480996E+00  0.68776210859E+00  0.51109989000E-03 0. -1.
     -623    1    1    2    0    0 -0.29033718605E-01  0.59770429947E-02  0.45296781975E-03  0.17130000257E+03  0.17130000000E+03 0.  1.
      622    1    1    2    0    0  0.14462407299E-01 -0.38572899999E-03  0.33119621896E+01  0.33122353261E+01  0.40000000000E-01 0. -1.
</event>
<event>
 5   0  0.6200596E+07  0.9118800E+02  0.7818608E-02  0.1180000E+00
       11   -1    0    0    0    0  0.00000000000E+00  0.00000000000E+00  0.39999999673E+01  0.40000000000E+01  0.51109989000E-03 0.  1.
     -623   -1    0    0    0    0  0.00000000000E+00  0.00000000000E+00  0.12525980253E-10  0.17130000000E+03  0.17130000000E+03 0.  1.
       11    1    1    2    0    0 -0.85285975785E-04  0.36601793427E-03  0.12031653412E-01  0.12048367031E-01  0.51109989000E-03 0.  1.
     -623    1    1    2    0    0  0.29435462430E-02  0.36668738025E-02  0.22041856115E-03  0.17130000006E+03  0.17130000000E+03 0.  1.
      622    1    1    2    0    0 -0.28582602672E-02 -0.40328917368E-02  0.39877478954E+01  0.39879515683E+01  0.40000000000E-01 0.  1.
</event>
<event>
 5   0  0.6200596E+07  0.9118800E+02  0.7818608E-02  0.1180000E+00
       11   -1    0    0    0    0  0.00000000000E+00  0.00000000000E+00  0.39999999673E+01  0.40000000000E+01  0.51109989000E-03 0. -1.
     -623   -1    0    0    0    0  0.00000000000E+00  0.00000000000E+00  0.12525980253E-10  0.17130000000E+03  0.17130000000E+03 0. -1.
       11    1    1    2    0    0  0.11278710011E-02  0.11473379861E-03  0.21133358274E-01  0.21169915214E-01  0.51109989000E-03 0. -1.
     -623    1    1    2    0    0 -0.13498381245E-03  0.11288050044E-02  0.23791567284E-03  0.17130000000E+03  0.17130000000E+03 0. -1.
      622    1    1    2    0    0 -0.99288718868E-03 -0.12435388030E-02  0.39786286934E+01  0.39788300808E+01  0.40000000000E-01 0. -1.
</event>
<event>
 5   0  0.6200596E+07  0.9118800E+02  0.7818608E-02  0.1180000E+00
       11   -1    0    0    0    0  0.00000000000E+00  0.00000000000E+00  0.39999999673E+01  0.40000000000E+01  0.51109989000E-03 0. -1.
     -623   -1    0    0    0    0  0.00000000000E+00  0.00000000000E+00  0.12525980253E-10  0.17130000000E+03  0.17130000000E+03 0. -1.
       11    1    1    2    0    0  0.34887736537E-02  0.27648675888E-02  0.34951332259E+00  0.34954204315E+00  0.51109989000E-03 0. -1.
     -623    1    1    2    0    0 -0.10249925078E-02  0.77431418271E-03  0.25039731009E-03  0.17130000000E+03  0.17130000000E+03 0. -1.
      622    1    1    2    0    0 -0.24637811459E-02 -0.35391817715E-02  0.36502362475E+01  0.36504579519E+01  0.40000000000E-01 0. -1.
</event>
<event>
 5   0  0.6200596E+07  0.9118800E+02  0.7818608E-02  0.1180000E+00
       11   -1    0    0    0    0  0.00000000000E+00  0.00000000000E+00  0.39999999673E+01  0.40000000000E+01  0.51109989000E-03 0. -1.
     -623   -1    0    0    0    0  0.00000000000E+00  0.00000000000E+00  0.12525980253E-10  0.17130000000E+03  0.17130000000E+03 0. -1.
       11    1    1    2    0    0 -0.17252084567E-01 -0.10909515307E-01  0.21537421204E+01  0.21538389064E+01  0.51109989000E-03 0. -1.
     -623    1    1    2    0    0 -0.12264190185E-02  0.17394724611E-02  0.64543213699E-03  0.17130000001E+03  0.17130000000E+03 0. -1.
      622    1    1    2    0    0  0.18478503586E-01  0.91700428461E-02  0.18456124148E+01  0.18461610792E+01  0.40000000000E-01 0. -1.
</event>
<event>
 5   0  0.6200596E+07  0.9118800E+02  0.7818608E-02  0.1180000E+00
       11   -1    0    0    0    0  0.00000000000E+00  0.00000000000E+00  0.39999999673E+01  0.40000000000E+01  0.51109989000E-03 0.  1.
     -623   -1    0    0    0    0  0.00000000000E+00  0.00000000000E+00  0.12525980253E-10  0.17130000000E+03  0.17130000000E+03 0. -1.
       11    1    1    2    0    0 -0.41441862929E-02  0.27287482829E-02  0.68824730674E-01  0.69005254308E-01  0.51109989000E-03 0.  1.
     -623    1    1    2    0    0  0.25011164185E-03  0.73259618945E-03  0.38746211162E-03  0.17130000000E+03  0.17130000000E+03 0. -1.
      622    1    1    2    0    0  0.38940746510E-02 -0.34613444724E-02  0.39307877746E+01  0.39309947435E+01  0.40000000000E-01 0.  1.
</event>
<event>
 5   0  0.6200596E+07  0.9118800E+02  0.7818608E-02  0.1180000E+00
       11   -1    0    0    0    0  0.00000000000E+00  0.00000000000E+00  0.39999999673E+01  0.40000000000E+01  0.51109989000E-03 0. -1.
     -623   -1    0    0    0    0  0.00000000000E+00  0.00000000000E+00  0.12525980253E-10  0.17130000000E+03  0.17130000000E+03 0. -1.
       11    1    1    2    0    0  0.39040579704E-01 -0.56344540820E-01  0.23176594052E+01  0.23186729510E+01  0.51109989000E-03 0. -1.
     -623    1    1    2    0    0  0.36534183106E-02 -0.45162221957E-02  0.31343782736E-02  0.17130000013E+03  0.17130000000E+03 0. -1.
      622    1    1    2    0    0 -0.42693998014E-01  0.60860763016E-01  0.16792061839E+01  0.16813269218E+01  0.40000000000E-01 0.  0.
</event>
<event>
 5   0  0.6200596E+07  0.9118800E+02  0.7818608E-02  0.1180000E+00
       11   -1    0    0    0    0  0.00000000000E+00  0.00000000000E+00  0.39999999673E+01  0.40000000000E+01  0.51109989000E-03 0.  1.
     -623   -1    0    0    0    0  0.00000000000E+00  0.00000000000E+00  0.12525980253E-10  0.17130000000E+03  0.17130000000E+03 0. -1.
       11    1    1    2    0    0  0.20111559272E-01  0.31310983637E-02  0.12853598597E+01  0.12855211040E+01  0.51109989000E-03 0.  1.
     -623    1    1    2    0    0 -0.34686315672E-03  0.33580896629E-02  0.53569937167E-03  0.17130000003E+03  0.17130000000E+03 0. -1.
      622    1    1    2    0    0 -0.19764696115E-01 -0.64891880266E-02  0.27141044083E+01  0.27144788619E+01  0.40000000000E-01 0.  1.
</event>
<event>
 5   0  0.6200596E+07  0.9118800E+02  0.7818608E-02  0.1180000E+00
       11   -1    0    0    0    0  0.00000000000E+00  0.00000000000E+00  0.39999999673E+01  0.40000000000E+01  0.51109989000E-03 0.  1.
     -623   -1    0    0    0    0  0.00000000000E+00  0.00000000000E+00  0.12525980253E-10  0.17130000000E+03  0.17130000000E+03 0.  1.
       11    1    1    2    0    0  0.48499340576E-02 -0.86509278281E-04  0.52871651945E-01  0.53096159414E-01  0.51109989000E-03 0.  1.
     -623    1    1    2    0    0 -0.10758330280E-03  0.73958111490E-02  0.43694844847E-03  0.17130000016E+03  0.17130000000E+03 0.  1.
      622    1    1    2    0    0 -0.47423507548E-02 -0.73093018707E-02  0.39466913670E+01  0.39469036803E+01  0.40000000000E-01 0.  1.
</event>
<event>
 5   0  0.6200596E+07  0.9118800E+02  0.7818608E-02  0.1180000E+00
       11   -1    0    0    0    0  0.00000000000E+00  0.00000000000E+00  0.39999999673E+01  0.40000000000E+01  0.51109989000E-03 0.  1.
     -623   -1    0    0    0    0  0.00000000000E+00  0.00000000000E+00  0.12525980253E-10  0.17130000000E+03  0.17130000000E+03 0. -1.
       11    1    1    2    0    0  0.12216941871E-02 -0.16662366177E-02  0.86335624851E-02  0.88920472134E-02  0.51109989000E-03 0.  1.
     -623    1    1    2    0    0 -0.31529099690E-02 -0.91787656385E-03  0.46023867835E-03  0.17130000003E+03  0.17130000000E+03 0. -1.
      622    1    1    2    0    0  0.19312157819E-02  0.25841131815E-02  0.39909061662E+01  0.39911079207E+01  0.40000000000E-01 0.  1.
</event>
<event>
 5   0  0.6200596E+07  0.9118800E+02  0.7818608E-02  0.1180000E+00
       11   -1    0    0    0    0  0.00000000000E+00  0.00000000000E+00  0.39999999673E+01  0.40000000000E+01  0.51109989000E-03 0. -1.
     -623   -1    0    0    0    0  0.00000000000E+00  0.00000000000E+00  0.12525980253E-10  0.17130000000E+03  0.17130000000E+03 0. -1.
       11    1    1    2    0    0  0.54713792245E-02 -0.18692373889E-02 -0.14330210226E-02  0.59786962641E-02  0.51109989000E-03 0. -1.
     -623    1    1    2    0    0 -0.56768723015E-02  0.27371574857E-03  0.76125764908E-02  0.17130000026E+03  0.17130000000E+03 0. -1.
      622    1    1    2    0    0  0.20549307700E-03  0.15955216403E-02  0.39938204119E+01  0.39940210403E+01  0.40000000000E-01 0. -1.
</event>
<event>
 5   0  0.6200596E+07  0.9118800E+02  0.7818608E-02  0.1180000E+00
       11   -1    0    0    0    0  0.00000000000E+00  0.00000000000E+00  0.39999999673E+01  0.40000000000E+01  0.51109989000E-03 0. -1.
     -623   -1    0    0    0    0  0.00000000000E+00  0.00000000000E+00  0.12525980253E-10  0.17130000000E+03  0.17130000000E+03 0.  1.
       11    1    1    2    0    0  0.44857958465E-03 -0.89378441019E-02  0.47581650577E-01  0.48418601546E-01  0.51109989000E-03 0. -1.
     -623    1    1    2    0    0 -0.78860663837E-02  0.39602605833E-02  0.10497394124E-02  0.17130000023E+03  0.17130000000E+03 0.  1.
      622    1    1    2    0    0  0.74374867990E-02  0.49775835186E-02  0.39513685774E+01  0.39515811679E+01  0.40000000000E-01 0. -1.
</event>
<event>
 5   0  0.6200596E+07  0.9118800E+02  0.7818608E-02  0.1180000E+00
       11   -1    0    0    0    0  0.00000000000E+00  0.00000000000E+00  0.39999999673E+01  0.40000000000E+01  0.51109989000E-03 0.  1.
     -623   -1    0    0    0    0  0.00000000000E+00  0.00000000000E+00  0.12525980253E-10  0.17130000000E+03  0.17130000000E+03 0. -1.
       11    1    1    2    0    0  0.10712611758E-01  0.13398975326E-01  0.15860878743E+01  0.15861807270E+01  0.51109989000E-03 0.  1.
     -623    1    1    2    0    0 -0.25468223976E-03 -0.65714562668E-03  0.48056310625E-03  0.17130000000E+03  0.17130000000E+03 0. -1.
      622    1    1    2    0    0 -0.10457929518E-01 -0.12741829700E-01  0.24134315299E+01  0.24138192708E+01  0.40000000000E-01 0.  0.
</event>
<event>
 5   0  0.6200596E+07  0.9118800E+02  0.7818608E-02  0.1180000E+00
       11   -1    0    0    0    0  0.00000000000E+00  0.00000000000E+00  0.39999999673E+01  0.40000000000E+01  0.51109989000E-03 0. -1.
     -623   -1    0    0    0    0  0.00000000000E+00  0.00000000000E+00  0.12525980253E-10  0.17130000000E+03  0.17130000000E+03 0. -1.
       11    1    1    2    0    0 -0.99411972818E-03  0.77960480359E-03  0.29566098100E-01  0.29597490377E-01  0.51109989000E-03 0. -1.
     -623    1    1    2    0    0  0.39570667110E-02 -0.95889571714E-02  0.24404896330E-03  0.17130000031E+03  0.17130000000E+03 0. -1.
      622    1    1    2    0    0 -0.29629469828E-02  0.88093523679E-02  0.39701898203E+01  0.39704021954E+01  0.40000000000E-01 0. -1.
</event>
<event>
 5   0  0.6200596E+07  0.9118800E+02  0.7818608E-02  0.1180000E+00
       11   -1    0    0    0    0  0.00000000000E+00  0.00000000000E+00  0.39999999673E+01  0.40000000000E+01  0.51109989000E-03 0. -1.
     -623   -1    0    0    0    0  0.00000000000E+00  0.00000000000E+00  0.12525980253E-10  0.17130000000E+03  0.17130000000E+03 0. -1.
       11    1    1    2    0    0  0.14127000042E-01  0.50037618411E-02  0.65885737179E+00  0.65902800195E+00  0.51109989000E-03 0. -1.
     -623    1    1    2    0    0  0.50537030733E-02 -0.40500497581E-02  0.46537970579E-03  0.17130000012E+03  0.17130000000E+03 0. -1.
      622    1    1    2    0    0 -0.19180703115E-01 -0.95371208294E-03  0.33406772159E+01  0.33409718750E+01  0.40000000000E-01 0. -1.
</event>
<event>
 5   0  0.6200596E+07  0.9118800E+02  0.7818608E-02  0.1180000E+00
       11   -1    0    0    0    0  0.00000000000E+00  0.00000000000E+00  0.39999999673E+01  0.40000000000E+01  0.51109989000E-03 0. -1.
     -623   -1    0    0    0    0  0.00000000000E+00  0.00000000000E+00  0.12525980253E-10  0.17130000000E+03  0.17130000000E+03 0.  1.
       11    1    1    2    0    0 -0.63963225493E-01 -0.52273616052E-01  0.24611370003E+01  0.24625229787E+01  0.51109989000E-03 0. -1.
     -623    1    1    2    0    0  0.73190793514E-02  0.48724127610E-02  0.36824102268E-02  0.17130000027E+03  0.17130000000E+03 0.  1.
      622    1    1    2    0    0  0.56644146142E-01  0.47401203291E-01  0.15351805568E+01  0.15374767561E+01  0.40000000000E-01 0. -1.
</event>
<event>
 5   0  0.6200596E+07  0.9118800E+02  0.7818608E-02  0.1180000E+00
       11   -1    0    0    0    0  0.00000000000E+00  0.00000000000E+00  0.39999999673E+01  0.40000000000E+01  0.51109989000E-03 0.  1.
     -623   -1    0    0    0    0  0.00000000000E+00  0.00000000000E+00  0.12525980253E-10  0.17130000000E+03  0.17130000000E+03 0.  1.
       11    1    1    2    0    0  0.12074793594E-01 -0.12253993526E-01  0.10954516962E+00  0.11088898235E+00  0.51109989000E-03 0.  1.
     -623    1    1    2    0    0  0.23586803039E-02  0.12551871055E-01  0.15767675021E-02  0.17130000048E+03  0.17130000000E+03 0.  1.
      622    1    1    2    0    0 -0.14433473898E-01 -0.29787752889E-03  0.38888780302E+01  0.38891105343E+01  0.40000000000E-01 0.  1.
</event>
<event>
 5   0  0.6200596E+07  0.9118800E+02  0.7818608E-02  0.1180000E+00
       11   -1    0    0    0    0  0.00000000000E+00  0.00000000000E+00  0.39999999673E+01  0.40000000000E+01  0.51109989000E-03 0. -1.
     -623   -1    0    0    0    0  0.00000000000E+00  0.00000000000E+00  0.12525980253E-10  0.17130000000E+03  0.17130000000E+03 0.  1.
       11    1    1    2    0    0  0.18781411915E-02 -0.17315389609E-02  0.13830526583E+00  0.13832979945E+00  0.51109989000E-03 0. -1.
     -623    1    1    2    0    0 -0.22755090772E-03  0.36723248684E-03  0.23226528122E-03  0.17130000000E+03  0.17130000000E+03 0.  1.
      622    1    1    2    0    0 -0.16505902837E-02  0.13643064740E-02  0.38614624363E+01  0.38616701998E+01  0.40000000000E-01 0. -1.
</event>
<event>
 5   0  0.6200596E+07  0.9118800E+02  0.7818608E-02  0.1180000E+00
       11   -1    0    0    0    0  0.00000000000E+00  0.00000000000E+00  0.39999999673E+01  0.40000000000E+01  0.51109989000E-03 0.  1.
     -623   -1    0    0    0    0  0.00000000000E+00  0.00000000000E+00  0.12525980253E-10  0.17130000000E+03  0.17130000000E+03 0.  1.
       11    1    1    2    0    0  0.31031100250E-01 -0.54815525544E-01  0.54621752968E+00  0.54983772331E+00  0.51109989000E-03 0.  1.
     -623    1    1    2    0    0 -0.46341378456E-01  0.42852847726E-01  0.39184292923E-02  0.17130001167E+03  0.17130000000E+03 0.  1.
      622    1    1    2    0    0  0.15310278206E-01  0.11962677817E-01  0.34498640084E+01  0.34501506035E+01  0.40000000000E-01 0.  1.
</event>
<event>
 5   0  0.6200596E+07  0.9118800E+02  0.7818608E-02  0.1180000E+00
       11   -1    0    0    0    0  0.00000000000E+00  0.00000000000E+00  0.39999999673E+01  0.40000000000E+01  0.51109989000E-03 0.  1.
     -623   -1    0    0    0    0  0.00000000000E+00  0.00000000000E+00  0.12525980253E-10  0.17130000000E+03  0.17130000000E+03 0.  1.
       11    1    1    2    0    0  0.28303594594E-02 -0.58458589403E-01  0.78398514735E+00  0.78616689711E+00  0.51109989000E-03 0.  1.
     -623    1    1    2    0    0  0.36890300112E-01 -0.47756624380E-03  0.32206652503E-02  0.17130000400E+03  0.17130000000E+03 0.  1.
      622    1    1    2    0    0 -0.39720659572E-01  0.58936155647E-01  0.32127941548E+01  0.32138290997E+01  0.40000000000E-01 0.  1.
</event>
<event>
 5   0  0.6200596E+07  0.9118800E+02  0.7818608E-02  0.1180000E+00
       11   -1    0    0    0    0  0.00000000000E+00  0.00000000000E+00  0.39999999673E+01  0.40000000000E+01  0.51109989000E-03 0.  1.
     -623   -1    0    0    0    0  0.00000000000E+00  0.00000000000E+00  0.12525980253E-10  0.17130000000E+03  0.17130000000E+03 0. -1.
       11    1    1    2    0    0 -0.48100865368E-03 -0.70327636170E-03  0.29923090559E-01  0.29939581449E-01  0.51109989000E-03 0.  1.
     -623    1    1    2    0    0 -0.15382718307E-03  0.23296280686E-03  0.21805061705E-03  0.17130000000E+03  0.17130000000E+03 0. -1.
      622    1    1    2    0    0  0.63483583674E-03  0.47031355484E-03  0.39698588262E+01  0.39700604182E+01  0.40000000000E-01 0.  1.
</event>
<event>
 5   0  0.6200596E+07  0.9118800E+02  0.7818608E-02  0.1180000E+00
       11   -1    0    0    0    0  0.00000000000E+00  0.00000000000E+00  0.39999999673E+01  0.40000000000E+01  0.51109989000E-03 0. -1.
     -623   -1    0    0    0    0  0.00000000000E+00  0.00000000000E+00  0.12525980253E-10  0.17130000000E+03  0.17130000000E+03 0.  1.
       11    1    1    2    0    0  0.21839114520E-02  0.18548807373E-02  0.16355110065E-01  0.16612070839E-01  0.51109989000E-03 0. -1.
     -623    1    1    2    0    0 -0.33045674708E-02  0.26280361923E-02  0.46050023827E-03  0.17130000005E+03  0.17130000000E+03 0.  1.
      622    1    1    2    0    0  0.11206560188E-02 -0.44829169296E-02  0.39831843571E+01  0.39833878765E+01  0.40000000000E-01 0. -1.
</event>
<event>
 5   0  0.6200596E+07  0.9118800E+02  0.7818608E-02  0.1180000E+00
       11   -1    0    0    0    0  0.00000000000E+00  0.00000000000E+00  0.39999999673E+01  0.40000000000E+01  0.51109989000E-03 0.  1.
     -623   -1    0    0    0    0  0.00000000000E+00  0.00000000000E+00  0.12525980253E-10  0.17130000000E+03  0.17130000000E+03 0. -1.
       11    1    1    2    0    0 -0.23695150956E-01 -0.11835385503E-01  0.35602835647E+00  0.35701258852E+00  0.51109989000E-03 0.  1.
     -623    1    1    2    0    0  0.35793886560E-02  0.77637251930E-02  0.12618407185E-02  0.17130000022E+03  0.17130000000E+03 0. -1.
      622    1    1    2    0    0  0.20115762300E-01  0.40716603098E-02  0.36427097702E+01  0.36429871935E+01  0.40000000000E-01 0.  1.
</event>
<event>
 5   0  0.6200596E+07  0.9118800E+02  0.7818608E-02  0.1180000E+00
       11   -1    0    0    0    0  0.00000000000E+00  0.00000000000E+00  0.39999999673E+01  0.40000000000E+01  0.51109989000E-03 0. -1.
     -623   -1    0    0    0    0  0.00000000000E+00  0.00000000000E+00  0.12525980253E-10  0.17130000000E+03  0.17130000000E+03 0.  1.
       11    1    1    2    0    0  0.12812525746E-02 -0.15199602255E-02  0.11011046772E-02  0.23292788365E-02  0.51109989000E-03 0. -1.
     -623    1    1    2    0    0  0.93885237718E-03  0.15601426544E-02  0.14288953979E-02  0.17130000002E+03  0.17130000000E+03 0.  1.
      622    1    1    2    0    0 -0.22201049518E-02 -0.40182428860E-04  0.39974699673E+01  0.39976707055E+01  0.40000000000E-01 0. -1.
</event>
<event>
 5   0  0.6200596E+07  0.9118800E+02  0.7818608E-02  0.1180000E+00
       11   -1    0    0    0    0  0.00000000000E+00  0.00000000000E+00  0.39999999673E+01  0.40000000000E+01  0.51109989000E-03 0. -1.
     -623   -1    0    0    0    0  0.00000000000E+00  0.00000000000E+00  0.12525980253E-10  0.17130000000E+03  0.17130000000E+03 0. -1.
       11    1    1    2    0    0 -0.35052304718E-02 -0.29397421719E-02  0.66544913906E-02  0.80914894763E-02  0.51109989000E-03 0. -1.
     -623    1    1    2    0    0 -0.44687399124E-03  0.25039527679E-02  0.16393828361E-02  0.17130000003E+03  0.17130000000E+03 0. -1.
      622    1    1    2    0    0  0.39521044630E-02  0.43578940400E-03  0.39917060931E+01  0.39919084838E+01  0.40000000000E-01 0. -1.
</event>
<event>
 5   0  0.6200596E+07  0.9118800E+02  0.7818608E-02  0.1180000E+00
       11   -1    0    0    0    0  0.00000000000E+00  0.00000000000E+00  0.39999999673E+01  0.40000000000E+01  0.51109989000E-03 0.  1.
     -623   -1    0    0    0    0  0.00000000000E+00  0.00000000000E+00  0.12525980253E-10  0.17130000000E+03  0.17130000000E+03 0. -1.
       11    1    1    2    0    0 -0.45858322498E-02  0.70731542456E-03  0.83256123703E-01  0.83386890501E-01  0.51109989000E-03 0.  1.
     -623    1    1    2    0    0  0.33007871435E-02  0.22474439207E-02  0.33636991552E-03  0.17130000005E+03  0.17130000000E+03 0. -1.
      622    1    1    2    0    0  0.12850451064E-02 -0.29547593452E-02  0.39164074737E+01  0.39166130626E+01  0.40000000000E-01 0.  1.
</event>
<event>
 5   0  0.6200596E+07  0.9118800E+02  0.7818608E-02  0.1180000E+00
       11   -1    0    0    0    0  0.00000000000E+00  0.00000000000E+00  0.39999999673E+01  0.40000000000E+01  0.51109989000E-03 0.  1.
     -623   -1    0    0    0    0  0.00000000000E+00  0.00000000000E+00  0.12525980253E-10  0.17130000000E+03  0.17130000000E+03 0.  1.
       11    1    1    2    0    0  0.60987739741E-04 -0.17127910830E-03  0.10697155610E-01  0.10710901772E-01  0.51109989000E-03 0.  1.
     -623    1    1    2    0    0  0.50816451586E-03  0.44196400185E-03  0.21430679038E-03  0.17130000000E+03  0.17130000000E+03 0.  1.
      622    1    1    2    0    0 -0.56915225560E-03 -0.27068489355E-03  0.39890885050E+01  0.39892890968E+01  0.40000000000E-01 0.  1.
</event>
<event>
 5   0  0.6200596E+07  0.9118800E+02  0.7818608E-02  0.1180000E+00
       11   -1    0    0    0    0  0.00000000000E+00  0.00000000000E+00  0.39999999673E+01  0.40000000000E+01  0.51109989000E-03 0. -1.
     -623   -1    0    0    0    0  0.00000000000E+00  0.00000000000E+00  0.12525980253E-10  0.17130000000E+03  0.17130000000E+03 0. -1.
       11    1    1    2    0    0  0.23229899843E-02 -0.58550319448E-03  0.73058466930E-01  0.73099520572E-01  0.51109989000E-03 0. -1.
     -623    1    1    2    0    0 -0.26795101530E-02 -0.38838793480E-03  0.24490783035E-03  0.17130000002E+03  0.17130000000E+03 0. -1.
      622    1    1    2    0    0  0.35652016872E-03  0.97389112928E-03  0.39266965926E+01  0.39269004579E+01  0.40000000000E-01 0. -1.
</event>
<event>
 5   0  0.6200596E+07  0.9118800E+02  0.7818608E-02  0.1180000E+00
       11   -1    0    0    0    0  0.00000000000E+00  0.00000000000E+00  0.39999999673E+01  0.40000000000E+01  0.51109989000E-03 0. -1.
     -623   -1    0    0    0    0  0.00000000000E+00  0.00000000000E+00  0.12525980253E-10  0.17130000000E+03  0.17130000000E+03 0. -1.
       11    1    1    2    0    0 -0.47170400140E-02  0.57508443747E-02  0.94566252400E-01  0.94859685806E-01  0.51109989000E-03 0. -1.
     -623    1    1    2    0    0 -0.35866984203E-02  0.15284556162E-03  0.51159433445E-03  0.17130000004E+03  0.17130000000E+03 0. -1.
      622    1    1    2    0    0  0.83037384343E-02 -0.59036899363E-02  0.39049221206E+01  0.39051402758E+01  0.40000000000E-01 0. -1.
</event>
<event>
 5   0  0.6200596E+07  0.9118800E+02  0.7818608E-02  0.1180000E+00
       11   -1    0    0    0    0  0.00000000000E+00  0.00000000000E+00  0.39999999673E+01  0.40000000000E+01  0.51109989000E-03 0. -1.
     -623   -1    0    0    0    0  0.00000000000E+00  0.00000000000E+00  0.12525980253E-10  0.17130000000E+03  0.17130000000E+03 0. -1.
       11    1    1    2    0    0  0.27058360426E-01 -0.32145458986E-01  0.77008970664E+00  0.77123530968E+00  0.51109989000E-03 0. -1.
     -623    1    1    2    0    0 -0.60200493681E-03 -0.14206553820E-02  0.16762690690E-02  0.17130000002E+03  0.17130000000E+03 0. -1.
      622    1    1    2    0    0 -0.26456355489E-01  0.33566114368E-01  0.32282339916E+01  0.32287646752E+01  0.40000000000E-01 0. -1.
</event>
<event>
 5   0  0.6200596E+07  0.9118800E+02  0.7818608E-02  0.1180000E+00
       11   -1    0    0    0    0  0.00000000000E+00  0.00000000000E+00  0.39999999673E+01  0.40000000000E+01  0.51109989000E-03 0.  1.
     -623   -1    0    0    0    0  0.00000000000E+00  0.00000000000E+00  0.12525980253E-10  0.17130000000E+03  0.17130000000E+03 0. -1.
       11    1    1    2    0    0 -0.81383189445E-01 -0.62404894434E-01  0.51178236046E+00  0.52195693316E+00  0.51109989000E-03 0.  1.
     -623    1    1    2    0    0  0.66714953884E-03  0.88784925878E-02  0.11754029448E-01  0.17130000063E+03  0.17130000000E+03 0. -1.
      622    1    1    2    0    0  0.80716039906E-01  0.53526401847E-01  0.34764635775E+01  0.34780424322E+01  0.40000000000E-01 0.  1.
</event>
<event>
 5   0  0.6200596E+07  0.9118800E+02  0.7818608E-02  0.1180000E+00
       11   -1    0    0    0    0  0.00000000000E+00  0.00000000000E+00  0.39999999673E+01  0.40000000000E+01  0.51109989000E-03 0.  1.
     -623   -1    0    0    0    0  0.00000000000E+00  0.00000000000E+00  0.12525980253E-10  0.17130000000E+03  0.17130000000E+03 0.  1.
       11    1    1    2    0    0 -0.18002598458E-02 -0.13545512774E-02  0.28578461748E-01  0.28671683647E-01  0.51109989000E-03 0.  1.
     -623    1    1    2    0    0  0.42413141780E-02  0.27834349646E-02  0.29572101058E-03  0.17130000008E+03  0.17130000000E+03 0.  1.
      622    1    1    2    0    0 -0.24410543322E-02 -0.14288836872E-02  0.39711257846E+01  0.39713282410E+01  0.40000000000E-01 0.  1.
</event>
<event>
 5   0  0.6200596E+07  0.9118800E+02  0.7818608E-02  0.1180000E+00
       11   -1    0    0    0    0  0.00000000000E+00  0.00000000000E+00  0.39999999673E+01  0.40000000000E+01  0.51109989000E-03 0.  1.
     -623   -1    0    0    0    0  0.00000000000E+00  0.00000000000E+00  0.12525980253E-10  0.17130000000E+03  0.17130000000E+03 0.  1.
       11    1    1    2    0    0  0.73756584674E-03  0.35409034955E-02  0.72364821192E-01  0.72456956654E-01  0.51109989000E-03 0.  1.
     -623    1    1    2    0    0 -0.22187075796E-02 -0.19152550799E-02  0.29643887009E-03  0.17130000003E+03  0.17130000000E+03 0.  1.
      622    1    1    2    0    0  0.14811417328E-02 -0.16256484156E-02  0.39273387073E+01  0.39275430180E+01  0.40000000000E-01 0.  1.
</event>
<event>
 5   0  0.6200596E+07  0.9118800E+02  0.7818608E-02  0.1180000E+00
       11   -1    0    0    0    0  0.00000000000E+00  0.00000000000E+00  0.39999999673E+01  0.40000000000E+01  0.51109989000E-03 0.  1.
     -623   -1    0    0    0    0  0.00000000000E+00  0.00000000000E+00  0.12525980253E-10  0.17130000000E+03  0.17130000000E+03 0. -1.
       11    1    1    2    0    0  0.24701937254E-03 -0.43144198118E-03  0.10017592717E-01  0.10042935076E-01  0.51109989000E-03 0.  1.
     -623    1    1    2    0    0 -0.41556337241E-03 -0.86967383636E-03  0.22603674520E-03  0.17130000000E+03  0.17130000000E+03 0. -1.
      622    1    1    2    0    0  0.16854399987E-03  0.13011158175E-02  0.39897563379E+01  0.39899570621E+01  0.40000000000E-01 0.  1.
</event>
<event>
 5   0  0.6200596E+07  0.9118800E+02  0.7818608E-02  0.1180000E+00
       11   -1    0    0    0    0  0.00000000000E+00  0.00000000000E+00  0.39999999673E+01  0.40000000000E+01  0.51109989000E-03 0.  1.
     -623   -1    0    0    0    0  0.00000000000E+00  0.00000000000E+00  0.12525980253E-10  0.17130000000E+03  0.17130000000E+03 0. -1.
       11    1    1    2    0    0 -0.32132054052E-02 -0.94919750971E-03  0.17078955743E-01  0.17411996333E-01  0.51109989000E-03 0.  1.
     -623    1    1    2    0    0  0.35782681697E-02 -0.68895902187E-03  0.53428067670E-03  0.17130000004E+03  0.17130000000E+03 0. -1.
      622    1    1    2    0    0 -0.36506276454E-03  0.16381565316E-02  0.39823867309E+01  0.39825879641E+01  0.40000000000E-01 0.  1.
</event>
<event>
 5   0  0.6200596E+07  0.9118800E+02  0.7818608E-02  0.1180000E+00
       11   -1    0    0    0    0  0.00000000000E+00  0.00000000000E+00  0.39999999673E+01  0.40000000000E+01  0.51109989000E-03 0. -1.
     -623   -1    0    0    0    0  0.00000000000E+00  0.00000000000E+00  0.12525980253E-10  0.17130000000E+03  0.17130000000E+03 0.  1.
       11    1    1    2    0    0  0.34748692329E-02  0.11342137488E-03  0.91285847449E-01  0.91353460510E-01  0.51109989000E-03 0. -1.
     -623    1    1    2    0    0  0.17459468046E-02 -0.18200536522E-02  0.27613853341E-03  0.17130000002E+03  0.17130000000E+03 0.  1.
      622    1    1    2    0    0 -0.52208160375E-02  0.17066322773E-02  0.39084379814E+01  0.39086465207E+01  0.40000000000E-01 0. -1.
</event>
<event>
 5   0  0.6200596E+07  0.9118800E+02  0.7818608E-02  0.1180000E+00
       11   -1    0    0    0    0  0.00000000000E+00  0.00000000000E+00  0.39999999673E+01  0.40000000000E+01  0.51109989000E-03 0. -1.
     -623   -1    0    0    0    0  0.00000000000E+00  0.00000000000E+00  0.12525980253E-10  0.17130000000E+03  0.17130000000E+03 0.  1.
       11    1    1    2    0    0  0.35172841327E-01  0.54288414187E-01  0.84625164950E+00  0.84872049356E+00  0.51109989000E-03 0. -1.
     -623    1    1    2    0    0 -0.31143943072E-01 -0.23978515046E-01  0.28755763843E-02  0.17130000453E+03  0.17130000000E+03 0.  1.
      622    1    1    2    0    0 -0.40288982547E-02 -0.30309899141E-01  0.31508727415E+01  0.31512749729E+01  0.40000000000E-01 0. -1.
</event>
<event>
 5   0  0.6200596E+07  0.9118800E+02  0.7818608E-02  0.1180000E+00
       11   -1    0    0    0    0  0.00000000000E+00  0.00000000000E+00  0.39999999673E+01  0.40000000000E+01  0.51109989000E-03 0.  1.
     -623   -1    0    0    0    0  0.00000000000E+00  0.00000000000E+00  0.12525980253E-10  0.17130000000E+03  0.17130000000E+03 0. -1.
       11    1    1    2    0    0 -0.29934361799E-01  0.28489364778E-01  0.11542905294E+01  0.11550301283E+01  0.51109989000E-03 0.  1.
     -623    1    1    2    0    0  0.24199691390E-03  0.10636190694E-02  0.13292759421E-02  0.17130000001E+03  0.17130000000E+03 0. -1.
      622    1    1    2    0    0  0.29692364885E-01 -0.29552983848E-01  0.28443801620E+01  0.28449698630E+01  0.40000000000E-01 0.  1.
</event>
<event>
 5   0  0.6200596E+07  0.9118800E+02  0.7818608E-02  0.1180000E+00
       11   -1    0    0    0    0  0.00000000000E+00  0.00000000000E+00  0.39999999673E+01  0.40000000000E+01  0.51109989000E-03 0.  1.
     -623   -1    0    0    0    0  0.00000000000E+00  0.00000000000E+00  0.12525980253E-10  0.17130000000E+03  0.17130000000E+03 0. -1.
       11    1    1    2    0    0 -0.69489772029E-01 -0.43517835263E-02  0.15257729992E+01  0.15273608849E+01  0.51109989000E-03 0.  1.
     -623    1    1    2    0    0  0.51407558400E-02 -0.12535423678E-01  0.28072433030E-02  0.17130000056E+03  0.17130000000E+03 0. -1.
      622    1    1    2    0    0  0.64349016189E-01  0.16887207204E-01  0.24714197249E+01  0.24726385563E+01  0.40000000000E-01 0.  1.
</event>
<event>
 5   0  0.6200596E+07  0.9118800E+02  0.7818608E-02  0.1180000E+00
       11   -1    0    0    0    0  0.00000000000E+00  0.00000000000E+00  0.39999999673E+01  0.40000000000E+01  0.51109989000E-03 0.  1.
     -623   -1    0    0    0    0  0.00000000000E+00  0.00000000000E+00  0.12525980253E-10  0.17130000000E+03  0.17130000000E+03 0.  1.
       11    1    1    2    0    0  0.56437805690E-01  0.35288590228E-01  0.37017085968E+00  0.37610801253E+00  0.51109989000E-03 0.  1.
     -623    1    1    2    0    0  0.28157765290E-01 -0.35631538320E-02  0.72868984204E-02  0.17130000251E+03  0.17130000000E+03 0.  1.
      622    1    1    2    0    0 -0.84595570980E-01 -0.31725436396E-01  0.36225422093E+01  0.36238894812E+01  0.40000000000E-01 0.  1.
</event>
<event>
 5   0  0.6200596E+07  0.9118800E+02  0.7818608E-02  0.1180000E+00
       11   -1    0    0    0    0  0.00000000000E+00  0.00000000000E+00  0.39999999673E+01  0.40000000000E+01  0.51109989000E-03 0.  1.
     -623   -1    0    0    0    0  0.00000000000E+00  0.00000000000E+00  0.12525980253E-10  0.17130000000E+03  0.17130000000E+03 0. -1.
       11    1    1    2    0    0  0.12252417949E-01 -0.34133560335E-01  0.61030829493E+00  0.61138506505E+00  0.51109989000E-03 0.  1.
     -623    1    1    2    0    0  0.44450939642E-02 -0.17973735030E-02  0.15445628019E-02  0.17130000007E+03  0.17130000000E+03 0. -1.
      622    1    1    2    0    0 -0.16697511914E-01  0.35930933838E-01  0.33881471096E+01  0.33886148609E+01  0.40000000000E-01 0.  1.
</event>
<event>
 5   0  0.6200596E+07  0.9118800E+02  0.7818608E-02  0.1180000E+00
       11   -1    0    0    0    0  0.00000000000E+00  0.00000000000E+00  0.39999999673E+01  0.40000000000E+01  0.51109989000E-03 0.  1.
     -623   -1    0    0    0    0  0.00000000000E+00  0.00000000000E+00  0.12525980253E-10  0.17130000000E+03  0.17130000000E+03 0.  1.
       11    1    1    2    0    0 -0.15899395536E-02  0.74781464238E-02  0.17490311016E+00  0.17507087064E+00  0.51109989000E-03 0.  1.
     -623    1    1    2    0    0 -0.12554722060E-02  0.28850680556E-03  0.38583713977E-03  0.17130000001E+03  0.17130000000E+03 0.  1.
      622    1    1    2    0    0  0.28454117596E-02 -0.77666532294E-02  0.38247110201E+01  0.38249291241E+01  0.40000000000E-01 0.  1.
</event>
<event>
 5   0  0.6200596E+07  0.9118800E+02  0.7818608E-02  0.1180000E+00
       11   -1    0    0    0    0  0.00000000000E+00  0.00000000000E+00  0.39999999673E+01  0.40000000000E+01  0.51109989000E-03 0.  1.
     -623   -1    0    0    0    0  0.00000000000E+00  0.00000000000E+00  0.12525980253E-10  0.17130000000E+03  0.17130000000E+03 0.  1.
       11    1    1    2    0    0  0.45019795774E-02 -0.11197813372E-02  0.24906522398E+00  0.24910894955E+00  0.51109989000E-03 0.  1.
     -623    1    1    2    0    0  0.40472662571E-03  0.43612671898E-03  0.26025471175E-03  0.17130000000E+03  0.17130000000E+03 0.  1.
      622    1    1    2    0    0 -0.49067062031E-02  0.68365461826E-03  0.37506744887E+01  0.37508910492E+01  0.40000000000E-01 0.  1.
</event>
<event>
 5   0  0.6200596E+07  0.9118800E+02  0.7818608E-02  0.1180000E+00
       11   -1    0    0    0    0  0.00000000000E+00  0.00000000000E+00  0.39999999673E+01  0.40000000000E+01  0.51109989000E-03 0. -1.
     -623   -1    0    0    0    0  0.00000000000E+00  0.00000000000E+00  0.12525980253E-10  0.17130000000E+03  0.17130000000E+03 0.  1.
       11    1    1    2    0    0 -0.19242719762E-01  0.14171400687E-01  0.14123324292E+01  0.14125346943E+01  0.51109989000E-03 0. -1.
     -623    1    1    2    0    0 -0.26384549875E-02  0.83533264077E-02  0.70225188815E-03  0.17130000023E+03  0.17130000000E+03 0.  1.
      622    1    1    2    0    0  0.21881174749E-01 -0.22524727094E-01  0.25869652863E+01  0.25874650802E+01  0.40000000000E-01 0.  0.
</event>
<event>
 5   0  0.6200596E+07  0.9118800E+02  0.7818608E-02  0.1180000E+00
       11   -1    0    0    0    0  0.00000000000E+00  0.00000000000E+00  0.39999999673E+01  0.40000000000E+01  0.51109989000E-03 0. -1.
     -623   -1    0    0    0    0  0.00000000000E+00  0.00000000000E+00  0.12525980253E-10  0.17130000000E+03  0.17130000000E+03 0.  1.
       11    1    1    2    0    0 -0.21349908788E-01 -0.12659682975E-01  0.11228268749E+01  0.11231013037E+01  0.51109989000E-03 0. -1.
     -623    1    1    2    0    0  0.71264559417E-04 -0.22594085394E-02  0.66989319833E-03  0.17130000002E+03  0.17130000000E+03 0.  1.
      622    1    1    2    0    0  0.21278644229E-01  0.14919091514E-01  0.28765031993E+01  0.28768986801E+01  0.40000000000E-01 0. -1.
</event>
<event>
 5   0  0.6200596E+07  0.9118800E+02  0.7818608E-02  0.1180000E+00
       11   -1    0    0    0    0  0.00000000000E+00  0.00000000000E+00  0.39999999673E+01  0.40000000000E+01  0.51109989000E-03 0.  1.
     -623   -1    0    0    0    0  0.00000000000E+00  0.00000000000E+00  0.12525980253E-10  0.17130000000E+03  0.17130000000E+03 0.  1.
       11    1    1    2    0    0 -0.12328726344E-01 -0.15888122453E-01  0.14958156018E+00  0.15092824220E+00  0.51109989000E-03 0.  1.
     -623    1    1    2    0    0 -0.25292532565E-02  0.16965498962E-02  0.16093745367E-02  0.17130000003E+03  0.17130000000E+03 0.  1.
      622    1    1    2    0    0  0.14857979600E-01  0.14191572557E-01  0.38488090326E+01  0.38490717232E+01  0.40000000000E-01 0.  1.
</event>
<event>
 5   0  0.6200596E+07  0.9118800E+02  0.7818608E-02  0.1180000E+00
       11   -1    0    0    0    0  0.00000000000E+00  0.00000000000E+00  0.39999999673E+01  0.40000000000E+01  0.51109989000E-03 0.  1.
     -623   -1    0    0    0    0  0.00000000000E+00  0.00000000000E+00  0.12525980253E-10  0.17130000000E+03  0.17130000000E+03 0. -1.
       11    1    1    2    0    0  0.35278405543E-02 -0.19052159940E-01  0.28328274599E+00  0.28394507542E+00  0.51109989000E-03 0.  1.
     -623    1    1    2    0    0  0.35651643148E-01  0.31860727801E-01  0.11128976604E-02  0.17130000668E+03  0.17130000000E+03 0. -1.
      622    1    1    2    0    0 -0.39179483702E-01 -0.12808567861E-01  0.37156043237E+01  0.37160482480E+01  0.40000000000E-01 0.  1.
</event>
<event>
 5   0  0.6200596E+07  0.9118800E+02  0.7818608E-02  0.1180000E+00
       11   -1    0    0    0    0  0.00000000000E+00  0.00000000000E+00  0.39999999673E+01  0.40000000000E+01  0.51109989000E-03 0.  1.
     -623   -1    0    0    0    0  0.00000000000E+00  0.00000000000E+00  0.12525980253E-10  0.17130000000E+03  0.17130000000E+03 0. -1.
       11    1    1    2    0    0 -0.58169189010E-03 -0.70466113081E-02  0.13472183269E+00  0.13490821518E+00  0.51109989000E-03 0.  1.
     -623    1    1    2    0    0  0.61141231511E-03  0.99850675054E-02  0.39474598204E-03  0.17130000029E+03  0.17130000000E+03 0. -1.
      622    1    1    2    0    0 -0.29720425010E-04 -0.29384561973E-02  0.38648833887E+01  0.38650914923E+01  0.40000000000E-01 0.  1.
</event>
<event>
 5   0  0.6200596E+07  0.9118800E+02  0.7818608E-02  0.1180000E+00
       11   -1    0    0    0    0  0.00000000000E+00  0.00000000000E+00  0.39999999673E+01  0.40000000000E+01  0.51109989000E-03 0.  1.
     -623   -1    0    0    0    0  0.00000000000E+00  0.00000000000E+00  0.12525980253E-10  0.17130000000E+03  0.17130000000E+03 0. -1.
       11    1    1    2    0    0  0.70772323384E-02 -0.21731706215E-01  0.46593717359E+00  0.46649765833E+00  0.51109989000E-03 0.  1.
     -623    1    1    2    0    0 -0.13833571867E-01  0.34856890695E-01  0.82180905329E-03  0.17130000411E+03  0.17130000000E+03 0. -1.
      622    1    1    2    0    0  0.67563395287E-02 -0.13125184480E-01  0.35332409847E+01  0.35334982347E+01  0.40000000000E-01 0.  1.
</event>
<event>
 5   0  0.6200596E+07  0.9118800E+02  0.7818608E-02  0.1180000E+00
       11   -1    0    0    0    0  0.00000000000E+00  0.00000000000E+00  0.39999999673E+01  0.40000000000E+01  0.51109989000E-03 0.  1.
     -623   -1    0    0    0    0  0.00000000000E+00  0.00000000000E+00  0.12525980253E-10  0.17130000000E+03  0.17130000000E+03 0. -1.
       11    1    1    2    0    0  0.88255415954E-03 -0.24135295010E-02  0.73249948889E-01  0.73296795710E-01  0.51109989000E-03 0.  1.
     -623    1    1    2    0    0 -0.46448667130E-02 -0.26426347183E-02  0.25569418502E-03  0.17130000008E+03  0.17130000000E+03 0. -1.
      622    1    1    2    0    0  0.37623125535E-02  0.50561642192E-02  0.39264943243E+01  0.39267031207E+01  0.40000000000E-01 0.  1.
</event>
<event>
 5   0  0.6200596E+07  0.9118800E+02  0.7818608E-02  0.1180000E+00
       11   -1    0    0    0    0  0.00000000000E+00  0.00000000000E+00  0.39999999673E+01  0.40000000000E+01  0.51109989000E-03 0.  1.
     -623   -1    0    0    0    0  0.00000000000E+00  0.00000000000E+00  0.12525980253E-10  0.17130000000E+03  0.17130000000E+03 0.  1.
       11    1    1    2    0    0  0.31515710931E-02  0.65267774502E-02  0.34154096542E+00  0.34161824235E+00  0.51109989000E-03 0.  1.
     -623    1    1    2    0    0 -0.15172928268E-02  0.60940476142E-04  0.30223047321E-03  0.17130000001E+03  0.17130000000E+03 0.  1.
      622    1    1    2    0    0 -0.16342782663E-02 -0.65877179263E-02  0.36581567715E+01  0.36583817506E+01  0.40000000000E-01 0.  1.
</event>
<event>
 5   0  0.6200596E+07  0.9118800E+02  0.7818608E-02  0.1180000E+00
       11   -1    0    0    0    0  0.00000000000E+00  0.00000000000E+00  0.39999999673E+01  0.40000000000E+01  0.51109989000E-03 0. -1.
     -623   -1    0    0    0    0  0.00000000000E+00  0.00000000000E+00  0.12525980253E-10  0.17130000000E+03  0.17130000000E+03 0.  1.
       11    1    1    2    0    0 -0.79981317352E-02  0.97319982689E-02  0.21862894210E+00  0.21899214014E+00  0.51109989000E-03 0. -1.
     -623    1    1    2    0    0  0.36606711702E-03  0.53953726788E-03  0.59641333668E-03  0.17130000000E+03  0.17130000000E+03 0.  1.
      622    1    1    2    0    0  0.76320646182E-02 -0.10271535537E-01  0.37807746119E+01  0.37810078576E+01  0.40000000000E-01 0. -1.
</event>
<event>
 5   0  0.6200596E+07  0.9118800E+02  0.7818608E-02  0.1180000E+00
       11   -1    0    0    0    0  0.00000000000E+00  0.00000000000E+00  0.39999999673E+01  0.40000000000E+01  0.51109989000E-03 0. -1.
     -623   -1    0    0    0    0  0.00000000000E+00  0.00000000000E+00  0.12525980253E-10  0.17130000000E+03  0.17130000000E+03 0.  1.
       11    1    1    2    0    0 -0.77730586694E-03 -0.85914086353E-03  0.17981871232E+01  0.17981875690E+01  0.51109989000E-03 0. -1.
     -623    1    1    2    0    0  0.66493874488E-02  0.10725285077E-01  0.39418567165E-03  0.17130000047E+03  0.17130000000E+03 0.  1.
      622    1    1    2    0    0 -0.58720815818E-02 -0.98661442137E-02  0.22014186585E+01  0.22018119657E+01  0.40000000000E-01 0. -1.
</event>
<event>
 5   0  0.6200596E+07  0.9118800E+02  0.7818608E-02  0.1180000E+00
       11   -1    0    0    0    0  0.00000000000E+00  0.00000000000E+00  0.39999999673E+01  0.40000000000E+01  0.51109989000E-03 0. -1.
     -623   -1    0    0    0    0  0.00000000000E+00  0.00000000000E+00  0.12525980253E-10  0.17130000000E+03  0.17130000000E+03 0. -1.
       11    1    1    2    0    0 -0.24376525828E-02 -0.11643615172E-02  0.15543681458E+00  0.15546112837E+00  0.51109989000E-03 0. -1.
     -623    1    1    2    0    0 -0.29534665215E-03  0.32016308982E-04  0.23351281313E-03  0.17130000000E+03  0.17130000000E+03 0. -1.
      622    1    1    2    0    0  0.27329992349E-02  0.11323452082E-02  0.38443296400E+01  0.38445388712E+01  0.40000000000E-01 0. -1.
</event>
<event>
 5   0  0.6200596E+07  0.9118800E+02  0.7818608E-02  0.1180000E+00
       11   -1    0    0    0    0  0.00000000000E+00  0.00000000000E+00  0.39999999673E+01  0.40000000000E+01  0.51109989000E-03 0.  1.
     -623   -1    0    0    0    0  0.00000000000E+00  0.00000000000E+00  0.12525980253E-10  0.17130000000E+03  0.17130000000E+03 0. -1.
       11    1    1    2    0    0 -0.38268947628E-02  0.31602902219E-01  0.27695149456E+01  0.27696979409E+01  0.51109989000E-03 0.  1.
     -623    1    1    2    0    0 -0.46405562326E-02 -0.36522501928E-02  0.11803566985E-02  0.17130000011E+03  0.17130000000E+03 0. -1.
      622    1    1    2    0    0  0.84674509954E-02 -0.27950652026E-01  0.12293046651E+01  0.12303019533E+01  0.40000000000E-01 0.  1.
</event>
<event>
 5   0  0.6200596E+07  0.9118800E+02  0.7818608E-02  0.1180000E+00
       11   -1    0    0    0    0  0.00000000000E+00  0.00000000000E+00  0.39999999673E+01  0.40000000000E+01  0.51109989000E-03 0.  1.
     -623   -1    0    0    0    0  0.00000000000E+00  0.00000000000E+00  0.12525980253E-10  0.17130000000E+03  0.17130000000E+03 0.  1.
       11    1    1    2    0    0  0.15851678134E-02  0.80280526670E-02  0.19206999512E+01  0.19207174509E+01  0.51109989000E-03 0.  1.
     -623    1    1    2    0    0  0.78700627042E-02 -0.44010500486E-02  0.42715487987E-03  0.17130000024E+03  0.17130000000E+03 0.  1.
      622    1    1    2    0    0 -0.94552305176E-02 -0.36270026184E-02  0.20788728612E+01  0.20792823112E+01  0.40000000000E-01 0.  1.
</event>
<event>
 5   0  0.6200596E+07  0.9118800E+02  0.7818608E-02  0.1180000E+00
       11   -1    0    0    0    0  0.00000000000E+00  0.00000000000E+00  0.39999999673E+01  0.40000000000E+01  0.51109989000E-03 0. -1.
     -623   -1    0    0    0    0  0.00000000000E+00  0.00000000000E+00  0.12525980253E-10  0.17130000000E+03  0.17130000000E+03 0. -1.
       11    1    1    2    0    0  0.38070776045E-01  0.27631634830E-01  0.72801187477E+00  0.72953028879E+00  0.51109989000E-03 0. -1.
     -623    1    1    2    0    0 -0.15915815638E-02 -0.11933390290E-01  0.20045878088E-02  0.17130000043E+03  0.17130000000E+03 0. -1.
      622    1    1    2    0    0 -0.36479194481E-01 -0.15698244540E-01  0.32699835048E+01  0.32704692764E+01  0.40000000000E-01 0. -1.
</event>
<event>
 5   0  0.6200596E+07  0.9118800E+02  0.7818608E-02  0.1180000E+00
       11   -1    0    0    0    0  0.00000000000E+00  0.00000000000E+00  0.39999999673E+01  0.40000000000E+01  0.51109989000E-03 0.  1.
     -623   -1    0    0    0    0  0.00000000000E+00  0.00000000000E+00  0.12525980253E-10  0.17130000000E+03  0.17130000000E+03 0.  1.
       11    1    1    2    0    0  0.12342944662E-02 -0.51987743904E-02  0.14390203758E+00  0.14400211241E+00  0.51109989000E-03 0.  1.
     -623    1    1    2    0    0 -0.29776070278E-03 -0.32071713497E-03  0.31158187021E-03  0.17130000000E+03  0.17130000000E+03 0.  1.
      622    1    1    2    0    0 -0.93653376343E-03  0.55194915253E-02  0.38557863479E+01  0.38559978867E+01  0.40000000000E-01 0.  1.
</event>
<event>
 5   0  0.6200596E+07  0.9118800E+02  0.7818608E-02  0.1180000E+00
       11   -1    0    0    0    0  0.00000000000E+00  0.00000000000E+00  0.39999999673E+01  0.40000000000E+01  0.51109989000E-03 0. -1.
     -623   -1    0    0    0    0  0.00000000000E+00  0.00000000000E+00  0.12525980253E-10  0.17130000000E+03  0.17130000000E+03 0. -1.
       11    1    1    2    0    0  0.50421025448E-03  0.44856301306E-02  0.25087836521E+00  0.25091948999E+00  0.51109989000E-03 0. -1.
     -623    1    1    2    0    0  0.10480797721E-02  0.13704903132E-03  0.25765878513E-03  0.17130000000E+03  0.17130000000E+03 0. -1.
      622    1    1    2    0    0 -0.15522900266E-02 -0.46226791619E-02  0.37488639434E+01  0.37490805066E+01  0.40000000000E-01 0. -1.
</event>
<event>
 5   0  0.6200596E+07  0.9118800E+02  0.7818608E-02  0.1180000E+00
       11   -1    0    0    0    0  0.00000000000E+00  0.00000000000E+00  0.39999999673E+01  0.40000000000E+01  0.51109989000E-03 0. -1.
     -623   -1    0    0    0    0  0.00000000000E+00  0.00000000000E+00  0.12525980253E-10  0.17130000000E+03  0.17130000000E+03 0. -1.
       11    1    1    2    0    0  0.18857242057E-01  0.95527721019E-02  0.17224379643E+01  0.17225677499E+01  0.51109989000E-03 0. -1.
     -623    1    1    2    0    0 -0.47584556506E-03 -0.26990206354E-02  0.56558236084E-03  0.17130000002E+03  0.17130000000E+03 0. -1.
      622    1    1    2    0    0 -0.18381396492E-01 -0.68537514665E-02  0.22769964207E+01  0.22774322272E+01  0.40000000000E-01 0. -1.
</event>
<event>
 5   0  0.6200596E+07  0.9118800E+02  0.7818608E-02  0.1180000E+00
       11   -1    0    0    0    0  0.00000000000E+00  0.00000000000E+00  0.39999999673E+01  0.40000000000E+01  0.51109989000E-03 0.  1.
     -623   -1    0    0    0    0  0.00000000000E+00  0.00000000000E+00  0.12525980253E-10  0.17130000000E+03  0.17130000000E+03 0. -1.
       11    1    1    2    0    0 -0.89188210807E-03  0.32781020419E-02  0.68699439508E-02  0.76810649401E-02  0.51109989000E-03 0.  1.
     -623    1    1    2    0    0  0.29512528500E-02 -0.23663405552E-02  0.10121582218E-02  0.17130000004E+03  0.17130000000E+03 0. -1.
      622    1    1    2    0    0 -0.20593707420E-02 -0.91176148676E-03  0.39921178652E+01  0.39923188903E+01  0.40000000000E-01 0.  1.
</event>
<event>
 5   0  0.6200596E+07  0.9118800E+02  0.7818608E-02  0.1180000E+00
       11   -1    0    0    0    0  0.00000000000E+00  0.00000000000E+00  0.39999999673E+01  0.40000000000E+01  0.51109989000E-03 0.  1.
     -623   -1    0    0    0    0  0.00000000000E+00  0.00000000000E+00  0.12525980253E-10  0.17130000000E+03  0.17130000000E+03 0. -1.
       11    1    1    2    0    0 -0.53056498951E-02 -0.13860094148E-01  0.10738366652E+01  0.10739393358E+01  0.51109989000E-03 0.  1.
     -623    1    1    2    0    0  0.10080835968E-01  0.58043953689E-02  0.39143816008E-03  0.17130000040E+03  0.17130000000E+03 0. -1.
      622    1    1    2    0    0 -0.47751860729E-02  0.80556987790E-02  0.29257718640E+01  0.29260602688E+01  0.40000000000E-01 0. -1.
</event>
<event>
 5   0  0.6200596E+07  0.9118800E+02  0.7818608E-02  0.1180000E+00
       11   -1    0    0    0    0  0.00000000000E+00  0.00000000000E+00  0.39999999673E+01  0.40000000000E+01  0.51109989000E-03 0. -1.
     -623   -1    0    0    0    0  0.00000000000E+00  0.00000000000E+00  0.12525980253E-10  0.17130000000E+03  0.17130000000E+03 0. -1.
       11    1    1    2    0    0  0.39428474633E-02  0.21645028656E-02  0.21439183719E-01  0.21911890367E-01  0.51109989000E-03 0. -1.
     -623    1    1    2    0    0 -0.40167642695E-02 -0.47038519954E-02  0.67470493677E-03  0.17130000011E+03  0.17130000000E+03 0. -1.
      622    1    1    2    0    0  0.73916806229E-04  0.25393491298E-02  0.39778860787E+01  0.39780879966E+01  0.40000000000E-01 0. -1.
</event>
<event>
 5   0  0.6200596E+07  0.9118800E+02  0.7818608E-02  0.1180000E+00
       11   -1    0    0    0    0  0.00000000000E+00  0.00000000000E+00  0.39999999673E+01  0.40000000000E+01  0.51109989000E-03 0. -1.
     -623   -1    0    0    0    0  0.00000000000E+00  0.00000000000E+00  0.12525980253E-10  0.17130000000E+03  0.17130000000E+03 0. -1.
       11    1    1    2    0    0  0.16182935617E-01  0.15521947561E-01  0.28518712255E+00  0.28606777930E+00  0.51109989000E-03 0. -1.
     -623    1    1    2    0    0 -0.73421295192E-03 -0.31168805489E-02  0.11489208221E-02  0.17130000003E+03  0.17130000000E+03 0. -1.
      622    1    1    2    0    0 -0.15448722665E-01 -0.12405067012E-01  0.37136639240E+01  0.37139321869E+01  0.40000000000E-01 0. -1.
</event>
<event>
 5   0  0.6200596E+07  0.9118800E+02  0.7818608E-02  0.1180000E+00
       11   -1    0    0    0    0  0.00000000000E+00  0.00000000000E+00  0.39999999673E+01  0.40000000000E+01  0.51109989000E-03 0. -1.
     -623   -1    0    0    0    0  0.00000000000E+00  0.00000000000E+00  0.12525980253E-10  0.17130000000E+03  0.17130000000E+03 0.  1.
       11    1    1    2    0    0 -0.58941717837E-01  0.23842089370E-01  0.37891450306E+00  0.38421222414E+00  0.51109989000E-03 0. -1.
     -623    1    1    2    0    0  0.23209560568E-01 -0.43254008800E-02  0.57499212825E-02  0.17130000172E+03  0.17130000000E+03 0.  1.
      622    1    1    2    0    0  0.35732157269E-01 -0.19516688490E-01  0.36153355430E+01  0.36157860524E+01  0.40000000000E-01 0. -1.
</event>
<event>
 5   0  0.6200596E+07  0.9118800E+02  0.7818608E-02  0.1180000E+00
       11   -1    0    0    0    0  0.00000000000E+00  0.00000000000E+00  0.39999999673E+01  0.40000000000E+01  0.51109989000E-03 0. -1.
     -623   -1    0    0    0    0  0.00000000000E+00  0.00000000000E+00  0.12525980253E-10  0.17130000000E+03  0.17130000000E+03 0. -1.
       11    1    1    2    0    0  0.12898844557E-02  0.14907937210E-02  0.22232025346E-02  0.30149822655E-02  0.51109989000E-03 0. -1.
     -623    1    1    2    0    0  0.60511184697E-03 -0.10574879773E-02  0.99238289835E-03  0.17130000001E+03  0.17130000000E+03 0. -1.
      622    1    1    2    0    0 -0.18949963027E-02 -0.43330574374E-03  0.39967843819E+01  0.39969850105E+01  0.40000000000E-01 0. -1.
</event>
<event>
 5   0  0.6200596E+07  0.9118800E+02  0.7818608E-02  0.1180000E+00
       11   -1    0    0    0    0  0.00000000000E+00  0.00000000000E+00  0.39999999673E+01  0.40000000000E+01  0.51109989000E-03 0. -1.
     -623   -1    0    0    0    0  0.00000000000E+00  0.00000000000E+00  0.12525980253E-10  0.17130000000E+03  0.17130000000E+03 0.  1.
       11    1    1    2    0    0 -0.46502148895E-03 -0.11405452234E-02  0.95695952149E-02  0.96620630327E-02  0.51109989000E-03 0. -1.
     -623    1    1    2    0    0  0.83120643167E-05 -0.98259515755E-03  0.29351855292E-03  0.17130000000E+03  0.17130000000E+03 0.  1.
      622    1    1    2    0    0  0.45670942463E-03  0.21231403809E-02  0.39901368536E+01  0.39903379339E+01  0.40000000000E-01 0. -1.
</event>
<event>
 5   0  0.6200596E+07  0.9118800E+02  0.7818608E-02  0.1180000E+00
       11   -1    0    0    0    0  0.00000000000E+00  0.00000000000E+00  0.39999999673E+01  0.40000000000E+01  0.51109989000E-03 0. -1.
     -623   -1    0    0    0    0  0.00000000000E+00  0.00000000000E+00  0.12525980253E-10  0.17130000000E+03  0.17130000000E+03 0.  1.
       11    1    1    2    0    0  0.12000102766E-01 -0.26770491396E-01  0.95773980300E+00  0.95818915312E+00  0.51109989000E-03 0. -1.
     -623    1    1    2    0    0  0.56818958391E-02 -0.43556101543E-02  0.92315316483E-03  0.17130000015E+03  0.17130000000E+03 0.  1.
      622    1    1    2    0    0 -0.17681998605E-01  0.31126101550E-01  0.30413370112E+01  0.30418106948E+01  0.40000000000E-01 0.  0.
</event>
<event>
 5   0  0.6200596E+07  0.9118800E+02  0.7818608E-02  0.1180000E+00
       11   -1    0    0    0    0  0.00000000000E+00  0.00000000000E+00  0.39999999673E+01  0.40000000000E+01  0.51109989000E-03 0.  1.
     -623   -1    0    0    0    0  0.00000000000E+00  0.00000000000E+00  0.12525980253E-10  0.17130000000E+03  0.17130000000E+03 0. -1.
       11    1    1    2    0    0 -0.16220616042E-01 -0.53628945451E-02  0.20557368137E+01  0.20558078649E+01  0.51109989000E-03 0.  1.
     -623    1    1    2    0    0 -0.12309384673E-01 -0.12197098913E-01  0.77213776426E-03  0.17130000088E+03  0.17130000000E+03 0. -1.
      622    1    1    2    0    0  0.28530000715E-01  0.17559993459E-01  0.19434910159E+01  0.19441912569E+01  0.40000000000E-01 0.  0.
</event>
<event>
 5   0  0.6200596E+07  0.9118800E+02  0.7818608E-02  0.1180000E+00
       11   -1    0    0    0    0  0.00000000000E+00  0.00000000000E+00  0.39999999673E+01  0.40000000000E+01  0.51109989000E-03 0.  1.
     -623   -1    0    0    0    0  0.00000000000E+00  0.00000000000E+00  0.12525980253E-10  0.17130000000E+03  0.17130000000E+03 0. -1.
       11    1    1    2    0    0 -0.47080475509E-02  0.51129906610E-03  0.56773744298E-01  0.56973207755E-01  0.51109989000E-03 0.  1.
     -623    1    1    2    0    0  0.95427981299E-03 -0.42869259735E-02  0.40597729179E-03  0.17130000006E+03  0.17130000000E+03 0. -1.
      622    1    1    2    0    0  0.37537677379E-02  0.37756269074E-02  0.39428202458E+01  0.39430267355E+01  0.40000000000E-01 0.  1.
</event>
<event>
 5   0  0.6200596E+07  0.9118800E+02  0.7818608E-02  0.1180000E+00
       11   -1    0    0    0    0  0.00000000000E+00  0.00000000000E+00  0.39999999673E+01  0.40000000000E+01  0.51109989000E-03 0.  1.
     -623   -1    0    0    0    0  0.00000000000E+00  0.00000000000E+00  0.12525980253E-10  0.17130000000E+03  0.17130000000E+03 0. -1.
       11    1    1    2    0    0 -0.17509457319E-02 -0.57325625172E-02  0.92507233014E-02  0.11034726417E-01  0.51109989000E-03 0.  1.
     -623    1    1    2    0    0 -0.75425074509E-03 -0.53225807799E-02  0.20007316192E-02  0.17130000010E+03  0.17130000000E+03 0. -1.
      622    1    1    2    0    0  0.25051964770E-02  0.11055143297E-01  0.39887485124E+01  0.39889651775E+01  0.40000000000E-01 0.  1.
</event>
<event>
 5   0  0.6200596E+07  0.9118800E+02  0.7818608E-02  0.1180000E+00
       11   -1    0    0    0    0  0.00000000000E+00  0.00000000000E+00  0.39999999673E+01  0.40000000000E+01  0.51109989000E-03 0. -1.
     -623   -1    0    0    0    0  0.00000000000E+00  0.00000000000E+00  0.12525980253E-10  0.17130000000E+03  0.17130000000E+03 0.  1.
       11    1    1    2    0    0 -0.17104614867E-02  0.38821145323E-03  0.23481182514E-01  0.23552145116E-01  0.51109989000E-03 0. -1.
     -623    1    1    2    0    0  0.21745002982E-02  0.11454529445E-02  0.27246033238E-03  0.17130000002E+03  0.17130000000E+03 0.  1.
      622    1    1    2    0    0 -0.46403881150E-03 -0.15336643978E-02  0.39762463245E+01  0.39764478370E+01  0.40000000000E-01 0. -1.
</event>
<event>
 5   0  0.6200596E+07  0.9118800E+02  0.7818608E-02  0.1180000E+00
       11   -1    0    0    0    0  0.00000000000E+00  0.00000000000E+00  0.39999999673E+01  0.40000000000E+01  0.51109989000E-03 0. -1.
     -623   -1    0    0    0    0  0.00000000000E+00  0.00000000000E+00  0.12525980253E-10  0.17130000000E+03  0.17130000000E+03 0. -1.
       11    1    1    2    0    0  0.65437011310E-02  0.55722947131E-02  0.23495196108E-01  0.25023108441E-01  0.51109989000E-03 0. -1.
     -623    1    1    2    0    0 -0.36272645616E-02 -0.17316351493E-01  0.17484861923E-02  0.17130000092E+03  0.17130000000E+03 0. -1.
      622    1    1    2    0    0 -0.29164365694E-02  0.11744056780E-01  0.39747562851E+01  0.39749759690E+01  0.40000000000E-01 0. -1.
</event>
<event>
 5   0  0.6200596E+07  0.9118800E+02  0.7818608E-02  0.1180000E+00
       11   -1    0    0    0    0  0.00000000000E+00  0.00000000000E+00  0.39999999673E+01  0.40000000000E+01  0.51109989000E-03 0.  1.
     -623   -1    0    0    0    0  0.00000000000E+00  0.00000000000E+00  0.12525980253E-10  0.17130000000E+03  0.17130000000E+03 0. -1.
       11    1    1    2    0    0 -0.31566161480E-01 -0.14484838058E-01  0.11636111260E+00  0.12143476781E+00  0.51109989000E-03 0.  1.
     -623    1    1    2    0    0  0.23240626782E-01  0.12850841663E-01  0.52913106029E-02  0.17130000214E+03  0.17130000000E+03 0. -1.
      622    1    1    2    0    0  0.83255346978E-02  0.16339963948E-02  0.38783475442E+01  0.38785630919E+01  0.40000000000E-01 0.  1.
</event>
<event>
 5   0  0.6200596E+07  0.9118800E+02  0.7818608E-02  0.1180000E+00
       11   -1    0    0    0    0  0.00000000000E+00  0.00000000000E+00  0.39999999673E+01  0.40000000000E+01  0.51109989000E-03 0.  1.
     -623   -1    0    0    0    0  0.00000000000E+00  0.00000000000E+00  0.12525980253E-10  0.17130000000E+03  0.17130000000E+03 0.  1.
       11    1    1    2    0    0 -0.76808154871E-02  0.14293288479E-02  0.65633220560E-01  0.66098553470E-01  0.51109989000E-03 0.  1.
     -623    1    1    2    0    0  0.54102634973E-02  0.58928326177E-02  0.67632413299E-03  0.17130000019E+03  0.17130000000E+03 0.  1.
      622    1    1    2    0    0  0.22705519898E-02 -0.73221614656E-02  0.39336904227E+01  0.39339012584E+01  0.40000000000E-01 0.  1.
</event>
<event>
 5   0  0.6200596E+07  0.9118800E+02  0.7818608E-02  0.1180000E+00
       11   -1    0    0    0    0  0.00000000000E+00  0.00000000000E+00  0.39999999673E+01  0.40000000000E+01  0.51109989000E-03 0.  1.
     -623   -1    0    0    0    0  0.00000000000E+00  0.00000000000E+00  0.12525980253E-10  0.17130000000E+03  0.17130000000E+03 0. -1.
       11    1    1    2    0    0 -0.57043261574E-01  0.43218646718E-01  0.16350073108E+01  0.16365729292E+01  0.51109989000E-03 0.  1.
     -623    1    1    2    0    0 -0.10952204145E-01  0.25712217710E-01  0.38908616094E-02  0.17130000232E+03  0.17130000000E+03 0. -1.
      622    1    1    2    0    0  0.67995465718E-01 -0.68930864428E-01  0.23611017950E+01  0.23634247468E+01  0.40000000000E-01 0.  1.
</event>
<event>
 5   0  0.6200596E+07  0.9118800E+02  0.7818608E-02  0.1180000E+00
       11   -1    0    0    0    0  0.00000000000E+00  0.00000000000E+00  0.39999999673E+01  0.40000000000E+01  0.51109989000E-03 0.  1.
     -623   -1    0    0    0    0  0.00000000000E+00  0.00000000000E+00  0.12525980253E-10  0.17130000000E+03  0.17130000000E+03 0.  1.
       11    1    1    2    0    0 -0.80030559816E-02 -0.52399523540E-02  0.96887596680E+00  0.96892332322E+00  0.51109989000E-03 0.  1.
     -623    1    1    2    0    0  0.11181397532E-01 -0.33902257599E-02  0.32562039150E-03  0.17130000040E+03  0.17130000000E+03 0.  1.
      622    1    1    2    0    0 -0.31783415500E-02  0.86301781138E-02  0.30307983802E+01  0.30310762780E+01  0.40000000000E-01 0.  1.
</event>
<event>
 5   0  0.6200596E+07  0.9118800E+02  0.7818608E-02  0.1180000E+00
       11   -1    0    0    0    0  0.00000000000E+00  0.00000000000E+00  0.39999999673E+01  0.40000000000E+01  0.51109989000E-03 0. -1.
     -623   -1    0    0    0    0  0.00000000000E+00  0.00000000000E+00  0.12525980253E-10  0.17130000000E+03  0.17130000000E+03 0.  1.
       11    1    1    2    0    0  0.79249389037E-03 -0.15986857582E-03  0.81986455461E-02  0.82542483486E-02  0.51109989000E-03 0. -1.
     -623    1    1    2    0    0 -0.51426444007E-03  0.54019073561E-03  0.25601839062E-03  0.17130000000E+03  0.17130000000E+03 0.  1.
      622    1    1    2    0    0 -0.27822945030E-03 -0.38032215979E-03  0.39915453034E+01  0.39917457498E+01  0.40000000000E-01 0. -1.
</event>
<event>
 5   0  0.6200596E+07  0.9118800E+02  0.7818608E-02  0.1180000E+00
       11   -1    0    0    0    0  0.00000000000E+00  0.00000000000E+00  0.39999999673E+01  0.40000000000E+01  0.51109989000E-03 0.  1.
     -623   -1    0    0    0    0  0.00000000000E+00  0.00000000000E+00  0.12525980253E-10  0.17130000000E+03  0.17130000000E+03 0.  1.
       11    1    1    2    0    0  0.38632057167E-04  0.24629526052E-02  0.60916733966E+00  0.60917253431E+00  0.51109989000E-03 0.  1.
     -623    1    1    2    0    0  0.71086282846E-03  0.21994898871E-03  0.24224691852E-03  0.17130000000E+03  0.17130000000E+03 0.  1.
      622    1    1    2    0    0 -0.74949488563E-03 -0.26829015939E-02  0.33905903808E+01  0.33908274639E+01  0.40000000000E-01 0.  1.
</event>
<event>
 5   0  0.6200596E+07  0.9118800E+02  0.7818608E-02  0.1180000E+00
       11   -1    0    0    0    0  0.00000000000E+00  0.00000000000E+00  0.39999999673E+01  0.40000000000E+01  0.51109989000E-03 0.  1.
     -623   -1    0    0    0    0  0.00000000000E+00  0.00000000000E+00  0.12525980253E-10  0.17130000000E+03  0.17130000000E+03 0. -1.
       11    1    1    2    0    0 -0.84490462827E-02 -0.85154419737E-02  0.23056907586E+00  0.23088148280E+00  0.51109989000E-03 0.  1.
     -623    1    1    2    0    0  0.88268150867E-02 -0.11496655191E-01  0.57839503636E-03  0.17130000061E+03  0.17130000000E+03 0. -1.
      622    1    1    2    0    0 -0.37776880409E-03  0.20012097164E-01  0.37688524965E+01  0.37691179030E+01  0.40000000000E-01 0.  1.
</event>
<event>
 5   0  0.6200596E+07  0.9118800E+02  0.7818608E-02  0.1180000E+00
       11   -1    0    0    0    0  0.00000000000E+00  0.00000000000E+00  0.39999999673E+01  0.40000000000E+01  0.51109989000E-03 0.  1.
     -623   -1    0    0    0    0  0.00000000000E+00  0.00000000000E+00  0.12525980253E-10  0.17130000000E+03  0.17130000000E+03 0. -1.
       11    1    1    2    0    0 -0.95386501094E-03 -0.39005647941E-03  0.31429787099E-02  0.33468699753E-02  0.51109989000E-03 0.  1.
     -623    1    1    2    0    0  0.58878362735E-03 -0.36048369861E-03  0.40412014121E-03  0.17130000000E+03  0.17130000000E+03 0. -1.
      622    1    1    2    0    0  0.36508138360E-03  0.75054017803E-03  0.39964528685E+01  0.39966531282E+01  0.40000000000E-01 0.  1.
</event>
<event>
 5   0  0.6200596E+07  0.9118800E+02  0.7818608E-02  0.1180000E+00
       11   -1    0    0    0    0  0.00000000000E+00  0.00000000000E+00  0.39999999673E+01  0.40000000000E+01  0.51109989000E-03 0. -1.
     -623   -1    0    0    0    0  0.00000000000E+00  0.00000000000E+00  0.12525980253E-10  0.17130000000E+03  0.17130000000E+03 0. -1.
       11    1    1    2    0    0  0.67948562364E-02 -0.30076596417E-02  0.79213690831E-01  0.79563095241E-01  0.51109989000E-03 0. -1.
     -623    1    1    2    0    0  0.97339501123E-03  0.27765713763E-02  0.56116567888E-03  0.17130000003E+03  0.17130000000E+03 0. -1.
      622    1    1    2    0    0 -0.77682512476E-02  0.23108826539E-03  0.39202251108E+01  0.39204368786E+01  0.40000000000E-01 0. -1.
</event>
<event>
 5   0  0.6200596E+07  0.9118800E+02  0.7818608E-02  0.1180000E+00
       11   -1    0    0    0    0  0.00000000000E+00  0.00000000000E+00  0.39999999673E+01  0.40000000000E+01  0.51109989000E-03 0.  1.
     -623   -1    0    0    0    0  0.00000000000E+00  0.00000000000E+00  0.12525980253E-10  0.17130000000E+03  0.17130000000E+03 0. -1.
       11    1    1    2    0    0  0.75381537265E-03 -0.68785464398E-02  0.26474458977E+01  0.26474549902E+01  0.51109989000E-03 0.  1.
     -623    1    1    2    0    0 -0.10962526506E-01  0.52882941075E-02  0.64057985328E-03  0.17130000043E+03  0.17130000000E+03 0. -1.
      622    1    1    2    0    0  0.10208711133E-01  0.15902523322E-02  0.13519134898E+01  0.13525445762E+01  0.40000000000E-01 0.  0.
</event>
<event>
 5   0  0.6200596E+07  0.9118800E+02  0.7818608E-02  0.1180000E+00
       11   -1    0    0    0    0  0.00000000000E+00  0.00000000000E+00  0.39999999673E+01  0.40000000000E+01  0.51109989000E-03 0. -1.
     -623   -1    0    0    0    0  0.00000000000E+00  0.00000000000E+00  0.12525980253E-10  0.17130000000E+03  0.17130000000E+03 0. -1.
       11    1    1    2    0    0 -0.22692388708E-02  0.28662951471E-02  0.21799819964E-01  0.22110143953E-01  0.51109989000E-03 0. -1.
     -623    1    1    2    0    0  0.19101930698E-02 -0.54902769305E-02  0.51238918224E-03  0.17130000010E+03  0.17130000000E+03 0. -1.
      622    1    1    2    0    0  0.35904580098E-03  0.26239817834E-02  0.39776877582E+01  0.39778897566E+01  0.40000000000E-01 0. -1.
</event>
<event>
 5   0  0.6200596E+07  0.9118800E+02  0.7818608E-02  0.1180000E+00
       11   -1    0    0    0    0  0.00000000000E+00  0.00000000000E+00  0.39999999673E+01  0.40000000000E+01  0.51109989000E-03 0. -1.
     -623   -1    0    0    0    0  0.00000000000E+00  0.00000000000E+00  0.12525980253E-10  0.17130000000E+03  0.17130000000E+03 0.  1.
       11    1    1    2    0    0  0.16621884064E-02  0.57361820147E-02  0.83682136083E-01  0.83896530177E-01  0.51109989000E-03 0. -1.
     -623    1    1    2    0    0 -0.58774227424E-02  0.13420489970E-02  0.42742400758E-03  0.17130000011E+03  0.17130000000E+03 0.  1.
      622    1    1    2    0    0  0.42152343360E-02 -0.70782310117E-02  0.39158904073E+01  0.39161033632E+01  0.40000000000E-01 0. -1.
</event>
<event>
 5   0  0.6200596E+07  0.9118800E+02  0.7818608E-02  0.1180000E+00
       11   -1    0    0    0    0  0.00000000000E+00  0.00000000000E+00  0.39999999673E+01  0.40000000000E+01  0.51109989000E-03 0.  1.
     -623   -1    0    0    0    0  0.00000000000E+00  0.00000000000E+00  0.12525980253E-10  0.17130000000E+03  0.17130000000E+03 0.  1.
       11    1    1    2    0    0 -0.43956641054E-02 -0.33518695326E-03  0.14868376733E-01  0.15516573799E-01  0.51109989000E-03 0. -1.
     -623    1    1    2    0    0  0.43842503651E-02  0.73613266460E-03  0.84902831871E-03  0.17130000006E+03  0.17130000000E+03 0.  1.
      622    1    1    2    0    0  0.11413740247E-04 -0.40094571134E-03  0.39842825623E+01  0.39844833664E+01  0.40000000000E-01 0.  1.
</event>
<event>
 5   0  0.6200596E+07  0.9118800E+02  0.7818608E-02  0.1180000E+00
       11   -1    0    0    0    0  0.00000000000E+00  0.00000000000E+00  0.39999999673E+01  0.40000000000E+01  0.51109989000E-03 0. -1.
     -623   -1    0    0    0    0  0.00000000000E+00  0.00000000000E+00  0.12525980253E-10  0.17130000000E+03  0.17130000000E+03 0. -1.
       11    1    1    2    0    0 -0.19614232188E+00 -0.88497844166E-01  0.84950093803E+00  0.87633086433E+00  0.51109989000E-03 0. -1.
     -623    1    1    2    0    0  0.70849153329E-01  0.20752058603E-01  0.30354030625E-01  0.17130001860E+03  0.17130000000E+03 0. -1.
      622    1    1    2    0    0  0.12529316855E+00  0.67745785563E-01  0.31201449987E+01  0.31236505378E+01  0.40000000000E-01 0. -1.
</event>
<event>
 5   0  0.6200596E+07  0.9118800E+02  0.7818608E-02  0.1180000E+00
       11   -1    0    0    0    0  0.00000000000E+00  0.00000000000E+00  0.39999999673E+01  0.40000000000E+01  0.51109989000E-03 0.  1.
     -623   -1    0    0    0    0  0.00000000000E+00  0.00000000000E+00  0.12525980253E-10  0.17130000000E+03  0.17130000000E+03 0. -1.
       11    1    1    2    0    0  0.10541376962E-01  0.10051266816E-01  0.10728283015E+00  0.10826825693E+00  0.51109989000E-03 0.  1.
     -623    1    1    2    0    0 -0.15059050363E-01 -0.13645018577E-02  0.12039529251E-02  0.17130000067E+03  0.17130000000E+03 0. -1.
      622    1    1    2    0    0  0.45176734010E-02 -0.86867649578E-02  0.38915131843E+01  0.38917310715E+01  0.40000000000E-01 0.  1.
</event>
<event>
 5   0  0.6200596E+07  0.9118800E+02  0.7818608E-02  0.1180000E+00
       11   -1    0    0    0    0  0.00000000000E+00  0.00000000000E+00  0.39999999673E+01  0.40000000000E+01  0.51109989000E-03 0.  1.
     -623   -1    0    0    0    0  0.00000000000E+00  0.00000000000E+00  0.12525980253E-10  0.17130000000E+03  0.17130000000E+03 0. -1.
       11    1    1    2    0    0  0.33267294172E-02  0.16061957532E-01  0.51892247508E+00  0.51918190451E+00  0.51109989000E-03 0.  1.
     -623    1    1    2    0    0 -0.18116095063E-01 -0.18989943603E-01  0.52389935532E-03  0.17130000201E+03  0.17130000000E+03 0. -1.
      622    1    1    2    0    0  0.14789365646E-01  0.29279860713E-02  0.34805535929E+01  0.34808160842E+01  0.40000000000E-01 0.  1.
</event>
<event>
 5   0  0.6200596E+07  0.9118800E+02  0.7818608E-02  0.1180000E+00
       11   -1    0    0    0    0  0.00000000000E+00  0.00000000000E+00  0.39999999673E+01  0.40000000000E+01  0.51109989000E-03 0.  1.
     -623   -1    0    0    0    0  0.00000000000E+00  0.00000000000E+00  0.12525980253E-10  0.17130000000E+03  0.17130000000E+03 0. -1.
       11    1    1    2    0    0 -0.13306095815E-01 -0.37977125095E-02  0.71426704657E-01  0.72756512874E-01  0.51109989000E-03 0.  1.
     -623    1    1    2    0    0 -0.94378440026E-03  0.31020334398E-02  0.15594395369E-02  0.17130000004E+03  0.17130000000E+03 0. -1.
      622    1    1    2    0    0  0.14249880215E-01  0.69567906970E-03  0.39270138232E+01  0.39272434493E+01  0.40000000000E-01 0.  1.
</event>
<event>
 5   0  0.6200596E+07  0.9118800E+02  0.7818608E-02  0.1180000E+00
       11   -1    0    0    0    0  0.00000000000E+00  0.00000000000E+00  0.39999999673E+01  0.40000000000E+01  0.51109989000E-03 0.  1.
     -623   -1    0    0    0    0  0.00000000000E+00  0.00000000000E+00  0.12525980253E-10  0.17130000000E+03  0.17130000000E+03 0. -1.
       11    1    1    2    0    0  0.45155963168E-04  0.76815185140E-03  0.44940687641E-02  0.45880247610E-02  0.51109989000E-03 0.  1.
     -623    1    1    2    0    0 -0.11483415779E-02 -0.23761815192E-02  0.29465453993E-03  0.17130000002E+03  0.17130000000E+03 0. -1.
      622    1    1    2    0    0  0.11031856147E-02  0.16080296678E-02  0.39952112441E+01  0.39954119547E+01  0.40000000000E-01 0.  1.
</event>
<event>
 5   0  0.6200596E+07  0.9118800E+02  0.7818608E-02  0.1180000E+00
       11   -1    0    0    0    0  0.00000000000E+00  0.00000000000E+00  0.39999999673E+01  0.40000000000E+01  0.51109989000E-03 0. -1.
     -623   -1    0    0    0    0  0.00000000000E+00  0.00000000000E+00  0.12525980253E-10  0.17130000000E+03  0.17130000000E+03 0. -1.
       11    1    1    2    0    0  0.16621225944E-01  0.17429308612E-01  0.13259529601E+01  0.13261717685E+01  0.51109989000E-03 0. -1.
     -623    1    1    2    0    0  0.19621103357E-02 -0.13473365949E-02  0.63096281280E-03  0.17130000002E+03  0.17130000000E+03 0. -1.
      622    1    1    2    0    0 -0.18583336280E-01 -0.16081972017E-01  0.26734160444E+01  0.26738282138E+01  0.40000000000E-01 0. -1.
</event>
<event>
 5   0  0.6200596E+07  0.9118800E+02  0.7818608E-02  0.1180000E+00
       11   -1    0    0    0    0  0.00000000000E+00  0.00000000000E+00  0.39999999673E+01  0.40000000000E+01  0.51109989000E-03 0. -1.
     -623   -1    0    0    0    0  0.00000000000E+00  0.00000000000E+00  0.12525980253E-10  0.17130000000E+03  0.17130000000E+03 0.  1.
       11    1    1    2    0    0  0.20894602151E-02  0.24310232062E-02  0.15068784656E-01  0.15414448072E-01  0.51109989000E-03 0. -1.
     -623    1    1    2    0    0  0.59309752666E-03 -0.13529020179E-02  0.54746568472E-03  0.17130000001E+03  0.17130000000E+03 0.  1.
      622    1    1    2    0    0 -0.26825577418E-02 -0.10781211882E-02  0.39843837170E+01  0.39845855447E+01  0.40000000000E-01 0. -1.
</event>
<event>
 5   0  0.6200596E+07  0.9118800E+02  0.7818608E-02  0.1180000E+00
       11   -1    0    0    0    0  0.00000000000E+00  0.00000000000E+00  0.39999999673E+01  0.40000000000E+01  0.51109989000E-03 0. -1.
     -623   -1    0    0    0    0  0.00000000000E+00  0.00000000000E+00  0.12525980253E-10  0.17130000000E+03  0.17130000000E+03 0.  1.
       11    1    1    2    0    0 -0.20711847781E-02 -0.85341905242E-02  0.24416750680E+00  0.24432591924E+00  0.51109989000E-03 0. -1.
     -623    1    1    2    0    0  0.15879838449E-02  0.66934346510E-02  0.37201762668E-03  0.17130000014E+03  0.17130000000E+03 0.  1.
      622    1    1    2    0    0  0.48320093326E-03  0.18407558732E-02  0.37554604429E+01  0.37556739422E+01  0.40000000000E-01 0. -1.
</event>
<event>
 5   0  0.6200596E+07  0.9118800E+02  0.7818608E-02  0.1180000E+00
       11   -1    0    0    0    0  0.00000000000E+00  0.00000000000E+00  0.39999999673E+01  0.40000000000E+01  0.51109989000E-03 0. -1.
     -623   -1    0    0    0    0  0.00000000000E+00  0.00000000000E+00  0.12525980253E-10  0.17130000000E+03  0.17130000000E+03 0.  1.
       11    1    1    2    0    0 -0.18350711627E-02 -0.20788066122E-03  0.51546775741E-01  0.51582380824E-01  0.51109989000E-03 0. -1.
     -623    1    1    2    0    0  0.44319638016E-03  0.81959713691E-03  0.23848588390E-03  0.17130000000E+03  0.17130000000E+03 0.  1.
      622    1    1    2    0    0  0.13918747826E-02 -0.61171647569E-03  0.39482147057E+01  0.39484176165E+01  0.40000000000E-01 0. -1.
</event>
<event>
 5   0  0.6200596E+07  0.9118800E+02  0.7818608E-02  0.1180000E+00
       11   -1    0    0    0    0  0.00000000000E+00  0.00000000000E+00  0.39999999673E+01  0.40000000000E+01  0.51109989000E-03 0. -1.
     -623   -1    0    0    0    0  0.00000000000E+00  0.00000000000E+00  0.12525980253E-10  0.17130000000E+03  0.17130000000E+03 0. -1.
       11    1    1    2    0    0  0.24144351802E-01 -0.97944398205E-02  0.21896018524E+00  0.22050556619E+00  0.51109989000E-03 0. -1.
     -623    1    1    2    0    0 -0.17384323910E-01  0.15347277748E-01  0.17687268145E-02  0.17130000158E+03  0.17130000000E+03 0. -1.
      622    1    1    2    0    0 -0.67600278915E-02 -0.55528379275E-02  0.37792710553E+01  0.37794928551E+01  0.40000000000E-01 0. -1.
</event>
<event>
 5   0  0.6200596E+07  0.9118800E+02  0.7818608E-02  0.1180000E+00
       11   -1    0    0    0    0  0.00000000000E+00  0.00000000000E+00  0.39999999673E+01  0.40000000000E+01  0.51109989000E-03 0.  1.
     -623   -1    0    0    0    0  0.00000000000E+00  0.00000000000E+00  0.12525980253E-10  0.17130000000E+03  0.17130000000E+03 0. -1.
       11    1    1    2    0    0 -0.15123491545E-02 -0.53452308032E-04  0.15206475898E-01  0.15290133702E-01  0.51109989000E-03 0.  1.
     -623    1    1    2    0    0  0.12407909859E-03 -0.56306590735E-03  0.28468841510E-03  0.17130000000E+03  0.17130000000E+03 0. -1.
      622    1    1    2    0    0  0.13882700559E-02  0.61651821538E-03  0.39845088030E+01  0.39847098651E+01  0.40000000000E-01 0.  1.
</event>
<event>
 5   0  0.6200596E+07  0.9118800E+02  0.7818608E-02  0.1180000E+00
       11   -1    0    0    0    0  0.00000000000E+00  0.00000000000E+00  0.39999999673E+01  0.40000000000E+01  0.51109989000E-03 0.  1.
     -623   -1    0    0    0    0  0.00000000000E+00  0.00000000000E+00  0.12525980253E-10  0.17130000000E+03  0.17130000000E+03 0. -1.
       11    1    1    2    0    0 -0.20351844177E-02  0.78687377786E-03  0.96380403066E-01  0.96406454459E-01  0.51109989000E-03 0.  1.
     -623    1    1    2    0    0 -0.27976465146E-03 -0.22398828115E-03  0.23169107310E-03  0.17130000000E+03  0.17130000000E+03 0. -1.
      622    1    1    2    0    0  0.23149490691E-02 -0.56288549671E-03  0.39033878732E+01  0.39035935450E+01  0.40000000000E-01 0.  1.
</event>
<event>
 5   0  0.6200596E+07  0.9118800E+02  0.7818608E-02  0.1180000E+00
       11   -1    0    0    0    0  0.00000000000E+00  0.00000000000E+00  0.39999999673E+01  0.40000000000E+01  0.51109989000E-03 0. -1.
     -623   -1    0    0    0    0  0.00000000000E+00  0.00000000000E+00  0.12525980253E-10  0.17130000000E+03  0.17130000000E+03 0.  1.
       11    1    1    2    0    0 -0.48585794823E-02  0.22858702485E-01  0.19867222512E-01  0.30677252571E-01  0.51109989000E-03 0. -1.
     -623    1    1    2    0    0  0.56583067406E-02 -0.18180392309E-01  0.11015798410E-01  0.17130000141E+03  0.17130000000E+03 0.  1.
      622    1    1    2    0    0 -0.79972725837E-03 -0.46783101763E-02  0.39691169464E+01  0.39693213350E+01  0.40000000000E-01 0. -1.
</event>
<event>
 5   0  0.6200596E+07  0.9118800E+02  0.7818608E-02  0.1180000E+00
       11   -1    0    0    0    0  0.00000000000E+00  0.00000000000E+00  0.39999999673E+01  0.40000000000E+01  0.51109989000E-03 0. -1.
     -623   -1    0    0    0    0  0.00000000000E+00  0.00000000000E+00  0.12525980253E-10  0.17130000000E+03  0.17130000000E+03 0. -1.
       11    1    1    2    0    0  0.23114259464E-01 -0.10923746443E-01  0.36357693911E+00  0.36447503221E+00  0.51109989000E-03 0. -1.
     -623    1    1    2    0    0 -0.14842032726E-02  0.41523535958E-04  0.11987666573E-02  0.17130000001E+03  0.17130000000E+03 0. -1.
      622    1    1    2    0    0 -0.21630056191E-01  0.10882222907E-01  0.36352242616E+01  0.36355249572E+01  0.40000000000E-01 0.  0.
</event>
<event>
 5   0  0.6200596E+07  0.9118800E+02  0.7818608E-02  0.1180000E+00
       11   -1    0    0    0    0  0.00000000000E+00  0.00000000000E+00  0.39999999673E+01  0.40000000000E+01  0.51109989000E-03 0.  1.
     -623   -1    0    0    0    0  0.00000000000E+00  0.00000000000E+00  0.12525980253E-10  0.17130000000E+03  0.17130000000E+03 0.  1.
       11    1    1    2    0    0 -0.74335612946E-02 -0.14495751306E-01  0.36802169946E+00  0.36838243326E+00  0.51109989000E-03 0.  1.
     -623    1    1    2    0    0  0.42758222311E-03  0.11014899941E-01  0.58977759170E-03  0.17130000036E+03  0.17130000000E+03 0.  1.
      622    1    1    2    0    0  0.70059790714E-02  0.34808513646E-02  0.36313884903E+01  0.36316172111E+01  0.40000000000E-01 0.  0.
</event>
<event>
 5   0  0.6200596E+07  0.9118800E+02  0.7818608E-02  0.1180000E+00
       11   -1    0    0    0    0  0.00000000000E+00  0.00000000000E+00  0.39999999673E+01  0.40000000000E+01  0.51109989000E-03 0.  1.
     -623   -1    0    0    0    0  0.00000000000E+00  0.00000000000E+00  0.12525980253E-10  0.17130000000E+03  0.17130000000E+03 0. -1.
       11    1    1    2    0    0 -0.11204353317E+00 -0.56641859059E-01  0.16621068619E+01  0.16668417847E+01  0.51109989000E-03 0.  1.
     -623    1    1    2    0    0  0.21431243738E-01  0.40592399190E-01  0.68998110307E-02  0.17130000629E+03  0.17130000000E+03 0. -1.
      622    1    1    2    0    0  0.90612289436E-01  0.16049459869E-01  0.23309932944E+01  0.23331519262E+01  0.40000000000E-01 0. -1.
</event>
<event>
 5   0  0.6200596E+07  0.9118800E+02  0.7818608E-02  0.1180000E+00
       11   -1    0    0    0    0  0.00000000000E+00  0.00000000000E+00  0.39999999673E+01  0.40000000000E+01  0.51109989000E-03 0. -1.
     -623   -1    0    0    0    0  0.00000000000E+00  0.00000000000E+00  0.12525980253E-10  0.17130000000E+03  0.17130000000E+03 0. -1.
       11    1    1    2    0    0  0.72145348963E-02  0.23398095370E-02  0.39387722381E-01  0.40114562430E-01  0.51109989000E-03 0. -1.
     -623    1    1    2    0    0 -0.23103446801E-01 -0.84314113702E-03  0.96256295844E-03  0.17130000156E+03  0.17130000000E+03 0. -1.
      622    1    1    2    0    0  0.15888911905E-01 -0.14966684000E-02  0.39596496820E+01  0.39598838748E+01  0.40000000000E-01 0. -1.
</event>
<event>
 5   0  0.6200596E+07  0.9118800E+02  0.7818608E-02  0.1180000E+00
       11   -1    0    0    0    0  0.00000000000E+00  0.00000000000E+00  0.39999999673E+01  0.40000000000E+01  0.51109989000E-03 0.  1.
     -623   -1    0    0    0    0  0.00000000000E+00  0.00000000000E+00  0.12525980253E-10  0.17130000000E+03  0.17130000000E+03 0. -1.
       11    1    1    2    0    0 -0.61429982969E-02  0.18477044673E-02  0.17855229136E+00  0.17866821880E+00  0.51109989000E-03 0.  1.
     -623    1    1    2    0    0  0.10582908130E-02 -0.34839540486E-02  0.32902405185E-03  0.17130000004E+03  0.17130000000E+03 0. -1.
      622    1    1    2    0    0  0.50847074840E-02  0.16362495813E-02  0.38211186519E+01  0.38213317422E+01  0.40000000000E-01 0.  1.
</event>
<event>
 5   0  0.6200596E+07  0.9118800E+02  0.7818608E-02  0.1180000E+00
       11   -1    0    0    0    0  0.00000000000E+00  0.00000000000E+00  0.39999999673E+01  0.40000000000E+01  0.51109989000E-03 0. -1.
     -623   -1    0    0    0    0  0.00000000000E+00  0.00000000000E+00  0.12525980253E-10  0.17130000000E+03  0.17130000000E+03 0.  1.
       11    1    1    2    0    0  0.48489983037E-03 -0.65255061782E-03  0.10601785356E-01  0.10645187791E-01  0.51109989000E-03 0. -1.
     -623    1    1    2    0    0 -0.35167765581E-03 -0.10066357913E-02  0.24425928042E-03  0.17130000000E+03  0.17130000000E+03 0.  1.
      622    1    1    2    0    0 -0.13322217456E-03  0.16591864092E-02  0.39891539227E+01  0.39893548087E+01  0.40000000000E-01 0. -1.
</event>
<event>
 5   0  0.6200596E+07  0.9118800E+02  0.7818608E-02  0.1180000E+00
       11   -1    0    0    0    0  0.00000000000E+00  0.00000000000E+00  0.39999999673E+01  0.40000000000E+01  0.51109989000E-03 0. -1.
     -623   -1    0    0    0    0  0.00000000000E+00  0.00000000000E+00  0.12525980253E-10  0.17130000000E+03  0.17130000000E+03 0.  1.
       11    1    1    2    0    0  0.18685501248E-02 -0.64883420875E-04  0.72119983194E-02  0.74679201610E-02  0.51109989000E-03 0. -1.
     -623    1    1    2    0    0 -0.22336192177E-02  0.99993573906E-03  0.45641260560E-03  0.17130000002E+03  0.17130000000E+03 0.  1.
      622    1    1    2    0    0  0.36506909294E-03 -0.93505231819E-03  0.39923315564E+01  0.39925320618E+01  0.40000000000E-01 0. -1.
</event>
<event>
 5   0  0.6200596E+07  0.9118800E+02  0.7818608E-02  0.1180000E+00
       11   -1    0    0    0    0  0.00000000000E+00  0.00000000000E+00  0.39999999673E+01  0.40000000000E+01  0.51109989000E-03 0. -1.
     -623   -1    0    0    0    0  0.00000000000E+00  0.00000000000E+00  0.12525980253E-10  0.17130000000E+03  0.17130000000E+03 0. -1.
       11    1    1    2    0    0  0.11951343889E-02 -0.28146694051E-02  0.95486568620E-02  0.10039361527E-01  0.51109989000E-03 0. -1.
     -623    1    1    2    0    0 -0.10597137057E-02 -0.11935674804E-02  0.69320483189E-03  0.17130000001E+03  0.17130000000E+03 0. -1.
      622    1    1    2    0    0 -0.13542068313E-03  0.40082368855E-02  0.39897581057E+01  0.39899606296E+01  0.40000000000E-01 0. -1.
</event>
<event>
 5   0  0.6200596E+07  0.9118800E+02  0.7818608E-02  0.1180000E+00
       11   -1    0    0    0    0  0.00000000000E+00  0.00000000000E+00  0.39999999673E+01  0.40000000000E+01  0.51109989000E-03 0. -1.
     -623   -1    0    0    0    0  0.00000000000E+00  0.00000000000E+00  0.12525980253E-10  0.17130000000E+03  0.17130000000E+03 0. -1.
       11    1    1    2    0    0 -0.49339442078E-02  0.19894748437E-02  0.60088264929E-01  0.60325472388E-01  0.51109989000E-03 0. -1.
     -623    1    1    2    0    0 -0.15827189453E-02 -0.77843930651E-02  0.45007936377E-03  0.17130000018E+03  0.17130000000E+03 0. -1.
      622    1    1    2    0    0  0.65166631531E-02  0.57949182214E-02  0.39394616231E+01  0.39396743428E+01  0.40000000000E-01 0. -1.
</event>
<event>
 5   0  0.6200596E+07  0.9118800E+02  0.7818608E-02  0.1180000E+00
       11   -1    0    0    0    0  0.00000000000E+00  0.00000000000E+00  0.39999999673E+01  0.40000000000E+01  0.51109989000E-03 0. -1.
     -623   -1    0    0    0    0  0.00000000000E+00  0.00000000000E+00  0.12525980253E-10  0.17130000000E+03  0.17130000000E+03 0.  1.
       11    1    1    2    0    0  0.36181716383E-02 -0.73675758234E-04  0.81464484392E+00  0.81465304243E+00  0.51109989000E-03 0. -1.
     -623    1    1    2    0    0  0.20555818494E-03  0.98526333579E-03  0.26175462215E-03  0.17130000000E+03  0.17130000000E+03 0.  1.
      622    1    1    2    0    0 -0.38237298233E-02 -0.91158757756E-03  0.31850933688E+01  0.31853469544E+01  0.40000000000E-01 0. -1.
</event>
<event>
 5   0  0.6200596E+07  0.9118800E+02  0.7818608E-02  0.1180000E+00
       11   -1    0    0    0    0  0.00000000000E+00  0.00000000000E+00  0.39999999673E+01  0.40000000000E+01  0.51109989000E-03 0.  1.
     -623   -1    0    0    0    0  0.00000000000E+00  0.00000000000E+00  0.12525980253E-10  0.17130000000E+03  0.17130000000E+03 0. -1.
       11    1    1    2    0    0 -0.41174386422E-01 -0.48172130062E-01  0.10294668236E+01  0.10314155741E+01  0.51109989000E-03 0.  1.
     -623    1    1    2    0    0  0.26530099989E-01  0.18896381126E-01  0.24018319468E-02  0.17130000311E+03  0.17130000000E+03 0. -1.
      622    1    1    2    0    0  0.14644286434E-01  0.29275748935E-01  0.29681313118E+01  0.29685813124E+01  0.40000000000E-01 0.  0.
</event>
<event>
 5   0  0.6200596E+07  0.9118800E+02  0.7818608E-02  0.1180000E+00
       11   -1    0    0    0    0  0.00000000000E+00  0.00000000000E+00  0.39999999673E+01  0.40000000000E+01  0.51109989000E-03 0. -1.
     -623   -1    0    0    0    0  0.00000000000E+00  0.00000000000E+00  0.12525980253E-10  0.17130000000E+03  0.17130000000E+03 0. -1.
       11    1    1    2    0    0 -0.13530567905E-02 -0.47133598231E-04  0.76681827792E-02  0.78035397677E-02  0.51109989000E-03 0. -1.
     -623    1    1    2    0    0  0.44357612988E-02  0.25822256310E-02  0.33779276113E-03  0.17130000008E+03  0.17130000000E+03 0. -1.
      622    1    1    2    0    0 -0.30827045083E-02 -0.25350920327E-02  0.39919939918E+01  0.39921963830E+01  0.40000000000E-01 0. -1.
</event>
<event>
 5   0  0.6200596E+07  0.9118800E+02  0.7818608E-02  0.1180000E+00
       11   -1    0    0    0    0  0.00000000000E+00  0.00000000000E+00  0.39999999673E+01  0.40000000000E+01  0.51109989000E-03 0. -1.
     -623   -1    0    0    0    0  0.00000000000E+00  0.00000000000E+00  0.12525980253E-10  0.17130000000E+03  0.17130000000E+03 0.  1.
       11    1    1    2    0    0 -0.13277136683E-01  0.22895814417E-01  0.10723130402E+01  0.10726397429E+01  0.51109989000E-03 0. -1.
     -623    1    1    2    0    0  0.21828585790E-02  0.88099462681E-03  0.71758129757E-03  0.17130000002E+03  0.17130000000E+03 0.  1.
      622    1    1    2    0    0  0.11094278104E-01 -0.23776809044E-01  0.29269693459E+01  0.29273602394E+01  0.40000000000E-01 0. -1.
</event>
<event>
 5   0  0.6200596E+07  0.9118800E+02  0.7818608E-02  0.1180000E+00
       11   -1    0    0    0    0  0.00000000000E+00  0.00000000000E+00  0.39999999673E+01  0.40000000000E+01  0.51109989000E-03 0. -1.
     -623   -1    0    0    0    0  0.00000000000E+00  0.00000000000E+00  0.12525980253E-10  0.17130000000E+03  0.17130000000E+03 0.  1.
       11    1    1    2    0    0  0.41585099926E-03  0.71080481374E-03  0.28328513195E-01  0.28345088743E-01  0.51109989000E-03 0. -1.
     -623    1    1    2    0    0 -0.88759268402E-03 -0.11819178317E-02  0.21803786158E-03  0.17130000001E+03  0.17130000000E+03 0.  1.
      622    1    1    2    0    0  0.47174168476E-03  0.47111301800E-03  0.39714534163E+01  0.39716549047E+01  0.40000000000E-01 0. -1.
</event>
<event>
 5   0  0.6200596E+07  0.9118800E+02  0.7818608E-02  0.1180000E+00
       11   -1    0    0    0    0  0.00000000000E+00  0.00000000000E+00  0.39999999673E+01  0.40000000000E+01  0.51109989000E-03 0.  1.
     -623   -1    0    0    0    0  0.00000000000E+00  0.00000000000E+00  0.12525980253E-10  0.17130000000E+03  0.17130000000E+03 0. -1.
       11    1    1    2    0    0 -0.68928058825E-02 -0.63012272333E-02  0.14720435118E+01  0.14720732244E+01  0.51109989000E-03 0.  1.
     -623    1    1    2    0    0  0.27135309072E-02 -0.19473256473E-02  0.36311186345E-03  0.17130000003E+03  0.17130000000E+03 0. -1.
      622    1    1    2    0    0  0.41792749754E-02  0.82485528806E-02  0.25275933437E+01  0.25279267426E+01  0.40000000000E-01 0.  1.
</event>
<event>
 5   0  0.6200596E+07  0.9118800E+02  0.7818608E-02  0.1180000E+00
       11   -1    0    0    0    0  0.00000000000E+00  0.00000000000E+00  0.39999999673E+01  0.40000000000E+01  0.51109989000E-03 0.  1.
     -623   -1    0    0    0    0  0.00000000000E+00  0.00000000000E+00  0.12525980253E-10  0.17130000000E+03  0.17130000000E+03 0. -1.
       11    1    1    2    0    0  0.11338091124E-03  0.47498231028E-02  0.42194271948E-01  0.42464002179E-01  0.51109989000E-03 0.  1.
     -623    1    1    2    0    0 -0.40372829737E-03  0.48309293123E-03  0.47532103632E-03  0.17130000000E+03  0.17130000000E+03 0. -1.
      622    1    1    2    0    0  0.29034738613E-03 -0.52329160341E-02  0.39573303744E+01  0.39575359960E+01  0.40000000000E-01 0.  1.
</event>
<event>
 5   0  0.6200596E+07  0.9118800E+02  0.7818608E-02  0.1180000E+00
       11   -1    0    0    0    0  0.00000000000E+00  0.00000000000E+00  0.39999999673E+01  0.40000000000E+01  0.51109989000E-03 0. -1.
     -623   -1    0    0    0    0  0.00000000000E+00  0.00000000000E+00  0.12525980253E-10  0.17130000000E+03  0.17130000000E+03 0.  1.
       11    1    1    2    0    0 -0.64871977680E-02  0.90149029708E-03  0.10553212945E-01  0.12430926975E-01  0.51109989000E-03 0. -1.
     -623    1    1    2    0    0  0.27743673674E-02  0.14033583449E-02  0.20807455173E-02  0.17130000004E+03  0.17130000000E+03 0.  1.
      622    1    1    2    0    0  0.37128304006E-02 -0.23048486420E-02  0.39873660089E+01  0.39875690322E+01  0.40000000000E-01 0. -1.
</event>
<event>
 5   0  0.6200596E+07  0.9118800E+02  0.7818608E-02  0.1180000E+00
       11   -1    0    0    0    0  0.00000000000E+00  0.00000000000E+00  0.39999999673E+01  0.40000000000E+01  0.51109989000E-03 0.  1.
     -623   -1    0    0    0    0  0.00000000000E+00  0.00000000000E+00  0.12525980253E-10  0.17130000000E+03  0.17130000000E+03 0. -1.
       11    1    1    2    0    0  0.18723525247E-02 -0.70058745368E-03  0.57054740618E-01  0.57092041260E-01  0.51109989000E-03 0.  1.
     -623    1    1    2    0    0 -0.99645952261E-04 -0.81453942083E-03  0.24086093405E-03  0.17130000000E+03  0.17130000000E+03 0. -1.
      622    1    1    2    0    0 -0.17727065724E-02  0.15151268745E-02  0.39427043658E+01  0.39429079566E+01  0.40000000000E-01 0.  1.
</event>
<event>
 5   0  0.6200596E+07  0.9118800E+02  0.7818608E-02  0.1180000E+00
       11   -1    0    0    0    0  0.00000000000E+00  0.00000000000E+00  0.39999999673E+01  0.40000000000E+01  0.51109989000E-03 0.  1.
     -623   -1    0    0    0    0  0.00000000000E+00  0.00000000000E+00  0.12525980253E-10  0.17130000000E+03  0.17130000000E+03 0.  1.
       11    1    1    2    0    0 -0.13811236833E-02 -0.83256731137E-02  0.14180420993E+00  0.14205604356E+00  0.51109989000E-03 0.  1.
     -623    1    1    2    0    0  0.48448370432E-03 -0.26315131016E-03  0.46883767853E-03  0.17130000000E+03  0.17130000000E+03 0.  1.
      622    1    1    2    0    0  0.89663997896E-03  0.85888244239E-02  0.38577269197E+01  0.38579439549E+01  0.40000000000E-01 0.  1.
</event>
<event>
 5   0  0.6200596E+07  0.9118800E+02  0.7818608E-02  0.1180000E+00
       11   -1    0    0    0    0  0.00000000000E+00  0.00000000000E+00  0.39999999673E+01  0.40000000000E+01  0.51109989000E-03 0.  1.
     -623   -1    0    0    0    0  0.00000000000E+00  0.00000000000E+00  0.12525980253E-10  0.17130000000E+03  0.17130000000E+03 0.  1.
       11    1    1    2    0    0 -0.29651010968E-01 -0.47361064582E-02  0.32020117810E+01  0.32021526072E+01  0.51109989000E-03 0.  1.
     -623    1    1    2    0    0  0.81508846951E-02  0.50563085924E-02  0.14345685294E-02  0.17130000027E+03  0.17130000000E+03 0.  1.
      622    1    1    2    0    0  0.21500126273E-01 -0.32020213422E-03  0.79655361788E+00  0.79784711826E+00  0.40000000000E-01 0.  1.
</event>
<event>
 5   0  0.6200596E+07  0.9118800E+02  0.7818608E-02  0.1180000E+00
       11   -1    0    0    0    0  0.00000000000E+00  0.00000000000E+00  0.39999999673E+01  0.40000000000E+01  0.51109989000E-03 0.  1.
     -623   -1    0    0    0    0  0.00000000000E+00  0.00000000000E+00  0.12525980253E-10  0.17130000000E+03  0.17130000000E+03 0.  1.
       11    1    1    2    0    0  0.23752701632E-02 -0.12769828131E-01  0.32755495882E+00  0.32781278603E+00  0.51109989000E-03 0.  1.
     -623    1    1    2    0    0  0.17355270977E-02 -0.88739309660E-03  0.50336559447E-03  0.17130000001E+03  0.17130000000E+03 0.  1.
      622    1    1    2    0    0 -0.41107972610E-02  0.13657221228E-01  0.36719416429E+01  0.36721872021E+01  0.40000000000E-01 0.  1.
</event>
<event>
 5   0  0.6200596E+07  0.9118800E+02  0.7818608E-02  0.1180000E+00
       11   -1    0    0    0    0  0.00000000000E+00  0.00000000000E+00  0.39999999673E+01  0.40000000000E+01  0.51109989000E-03 0.  1.
     -623   -1    0    0    0    0  0.00000000000E+00  0.00000000000E+00  0.12525980253E-10  0.17130000000E+03  0.17130000000E+03 0.  1.
       11    1    1    2    0    0  0.44076369965E-02  0.42707769726E-02  0.17301230048E+01  0.17301339659E+01  0.51109989000E-03 0.  1.
     -623    1    1    2    0    0 -0.21093918683E-02 -0.94590050156E-02  0.37076802886E-03  0.17130000027E+03  0.17130000000E+03 0.  1.
      622    1    1    2    0    0 -0.22982451282E-02  0.51882280430E-02  0.22695061945E+01  0.22698657596E+01  0.40000000000E-01 0.  1.
</event>
<event>
 5   0  0.6200596E+07  0.9118800E+02  0.7818608E-02  0.1180000E+00
       11   -1    0    0    0    0  0.00000000000E+00  0.00000000000E+00  0.39999999673E+01  0.40000000000E+01  0.51109989000E-03 0. -1.
     -623   -1    0    0    0    0  0.00000000000E+00  0.00000000000E+00  0.12525980253E-10  0.17130000000E+03  0.17130000000E+03 0.  1.
       11    1    1    2    0    0 -0.16515532020E-02 -0.35146000363E-02  0.87296932140E-01  0.87384756253E-01  0.51109989000E-03 0. -1.
     -623    1    1    2    0    0  0.45673741029E-03  0.20513657065E-02  0.29273284552E-03  0.17130000001E+03  0.17130000000E+03 0.  1.
      622    1    1    2    0    0  0.11948157917E-02  0.14632343297E-02  0.39124103024E+01  0.39126152306E+01  0.40000000000E-01 0. -1.
</event>
<event>
 5   0  0.6200596E+07  0.9118800E+02  0.7818608E-02  0.1180000E+00
       11   -1    0    0    0    0  0.00000000000E+00  0.00000000000E+00  0.39999999673E+01  0.40000000000E+01  0.51109989000E-03 0. -1.
     -623   -1    0    0    0    0  0.00000000000E+00  0.00000000000E+00  0.12525980253E-10  0.17130000000E+03  0.17130000000E+03 0.  1.
       11    1    1    2    0    0  0.38325927879E-02  0.16870882042E-02  0.68238755782E+00  0.68240059740E+00  0.51109989000E-03 0. -1.
     -623    1    1    2    0    0  0.82834929054E-03 -0.18257093364E-02  0.25744308748E-03  0.17130000001E+03  0.17130000000E+03 0.  1.
      622    1    1    2    0    0 -0.46609420784E-02  0.13862113224E-03  0.33173549665E+01  0.33175993907E+01  0.40000000000E-01 0. -1.
</event>
<event>
 5   0  0.6200596E+07  0.9118800E+02  0.7818608E-02  0.1180000E+00
       11   -1    0    0    0    0  0.00000000000E+00  0.00000000000E+00  0.39999999673E+01  0.40000000000E+01  0.51109989000E-03 0.  1.
     -623   -1    0    0    0    0  0.00000000000E+00  0.00000000000E+00  0.12525980253E-10  0.17130000000E+03  0.17130000000E+03 0.  1.
       11    1    1    2    0    0 -0.29140251358E-02  0.48210420244E-02  0.20590723511E+00  0.20598491372E+00  0.51109989000E-03 0.  1.
     -623    1    1    2    0    0  0.15551407903E-02 -0.15838138500E-03  0.29162624191E-03  0.17130000001E+03  0.17130000000E+03 0.  1.
      622    1    1    2    0    0  0.13588843455E-02 -0.46626606394E-02  0.37938011060E+01  0.37940150789E+01  0.40000000000E-01 0.  1.
</event>
<event>
 5   0  0.6200596E+07  0.9118800E+02  0.7818608E-02  0.1180000E+00
       11   -1    0    0    0    0  0.00000000000E+00  0.00000000000E+00  0.39999999673E+01  0.40000000000E+01  0.51109989000E-03 0.  1.
     -623   -1    0    0    0    0  0.00000000000E+00  0.00000000000E+00  0.12525980253E-10  0.17130000000E+03  0.17130000000E+03 0.  1.
       11    1    1    2    0    0 -0.11168765497E-04 -0.40448850974E-02  0.61489866643E-01  0.61624882490E-01  0.51109989000E-03 0.  1.
     -623    1    1    2    0    0 -0.15470830874E-01  0.19737614441E-03  0.37112860271E-03  0.17130000070E+03  0.17130000000E+03 0.  1.
      622    1    1    2    0    0  0.15481999639E-01  0.38475089530E-02  0.39381389721E+01  0.39383744184E+01  0.40000000000E-01 0.  1.
</event>
<event>
 5   0  0.6200596E+07  0.9118800E+02  0.7818608E-02  0.1180000E+00
       11   -1    0    0    0    0  0.00000000000E+00  0.00000000000E+00  0.39999999673E+01  0.40000000000E+01  0.51109989000E-03 0.  1.
     -623   -1    0    0    0    0  0.00000000000E+00  0.00000000000E+00  0.12525980253E-10  0.17130000000E+03  0.17130000000E+03 0.  1.
       11    1    1    2    0    0  0.55157831844E-02 -0.53206764088E-02  0.12767622320E+00  0.12790704693E+00  0.51109989000E-03 0.  1.
     -623    1    1    2    0    0  0.57317985314E-02 -0.20902400662E-02  0.46094167150E-03  0.17130000011E+03  0.17130000000E+03 0.  1.
      622    1    1    2    0    0 -0.11247581716E-01  0.74109164749E-02  0.38718628025E+01  0.38720928438E+01  0.40000000000E-01 0.  0.
</event>
<event>
 5   0  0.6200596E+07  0.9118800E+02  0.7818608E-02  0.1180000E+00
       11   -1    0    0    0    0  0.00000000000E+00  0.00000000000E+00  0.39999999673E+01  0.40000000000E+01  0.51109989000E-03 0. -1.
     -623   -1    0    0    0    0  0.00000000000E+00  0.00000000000E+00  0.12525980253E-10  0.17130000000E+03  0.17130000000E+03 0.  1.
       11    1    1    2    0    0 -0.11232583436E-01 -0.65486431719E-02  0.16125840333E-01  0.20720994348E-01  0.51109989000E-03 0. -1.
     -623    1    1    2    0    0  0.52994553907E-02  0.15638532623E-02  0.48038701197E-02  0.17130000016E+03  0.17130000000E+03 0.  1.
      622    1    1    2    0    0  0.59331280452E-02  0.49847899096E-02  0.39790702569E+01  0.39792788492E+01  0.40000000000E-01 0. -1.
</event>
<event>
 5   0  0.6200596E+07  0.9118800E+02  0.7818608E-02  0.1180000E+00
       11   -1    0    0    0    0  0.00000000000E+00  0.00000000000E+00  0.39999999673E+01  0.40000000000E+01  0.51109989000E-03 0. -1.
     -623   -1    0    0    0    0  0.00000000000E+00  0.00000000000E+00  0.12525980253E-10  0.17130000000E+03  0.17130000000E+03 0. -1.
       11    1    1    2    0    0  0.38232161962E-02 -0.19615175819E-02  0.44037967067E-02  0.61740732177E-02  0.51109989000E-03 0. -1.
     -623    1    1    2    0    0 -0.54871704295E-02  0.17225610395E-02  0.19710197594E-02  0.17130000011E+03  0.17130000000E+03 0. -1.
      622    1    1    2    0    0  0.16639542333E-02  0.23895654239E-03  0.39936251509E+01  0.39938258189E+01  0.40000000000E-01 0. -1.
</event>
<event>
 5   0  0.6200596E+07  0.9118800E+02  0.7818608E-02  0.1180000E+00
       11   -1    0    0    0    0  0.00000000000E+00  0.00000000000E+00  0.39999999673E+01  0.40000000000E+01  0.51109989000E-03 0.  1.
     -623   -1    0    0    0    0  0.00000000000E+00  0.00000000000E+00  0.12525980253E-10  0.17130000000E+03  0.17130000000E+03 0.  1.
       11    1    1    2    0    0 -0.23848709976E-02  0.22368980954E-02  0.10117823778E-01  0.10645323062E-01  0.51109989000E-03 0.  1.
     -623    1    1    2    0    0  0.21098196222E-02 -0.28795325399E-02  0.72810536007E-03  0.17130000004E+03  0.17130000000E+03 0.  1.
      622    1    1    2    0    0  0.27505137536E-03  0.64263444455E-03  0.39891540382E+01  0.39893546382E+01  0.40000000000E-01 0.  1.
</event>
<event>
 5   0  0.6200596E+07  0.9118800E+02  0.7818608E-02  0.1180000E+00
       11   -1    0    0    0    0  0.00000000000E+00  0.00000000000E+00  0.39999999673E+01  0.40000000000E+01  0.51109989000E-03 0. -1.
     -623   -1    0    0    0    0  0.00000000000E+00  0.00000000000E+00  0.12525980253E-10  0.17130000000E+03  0.17130000000E+03 0.  1.
       11    1    1    2    0    0  0.20209044583E-02 -0.44171446643E-02  0.16920755449E+00  0.16927803442E+00  0.51109989000E-03 0. -1.
     -623    1    1    2    0    0  0.13261476611E-02  0.24344493839E-02  0.28128900673E-03  0.17130000002E+03  0.17130000000E+03 0.  1.
      622    1    1    2    0    0 -0.33470521194E-02  0.19826952804E-02  0.38305111239E+01  0.38307219429E+01  0.40000000000E-01 0. -1.
</event>
<event>
 5   0  0.6200596E+07  0.9118800E+02  0.7818608E-02  0.1180000E+00
       11   -1    0    0    0    0  0.00000000000E+00  0.00000000000E+00  0.39999999673E+01  0.40000000000E+01  0.51109989000E-03 0. -1.
     -623   -1    0    0    0    0  0.00000000000E+00  0.00000000000E+00  0.12525980253E-10  0.17130000000E+03  0.17130000000E+03 0.  1.
       11    1    1    2    0    0 -0.16665042758E-02 -0.92777019839E-03  0.46995865405E-02  0.50975808163E-02  0.51109989000E-03 0. -1.
     -623    1    1    2    0    0  0.15050252312E-02  0.16901329981E-02  0.59831386403E-03  0.17130000002E+03  0.17130000000E+03 0.  1.
      622    1    1    2    0    0  0.16147904466E-03 -0.76236279973E-03  0.39947020670E+01  0.39949024032E+01  0.40000000000E-01 0. -1.
</event>
<event>
 5   0  0.6200596E+07  0.9118800E+02  0.7818608E-02  0.1180000E+00
       11   -1    0    0    0    0  0.00000000000E+00  0.00000000000E+00  0.39999999673E+01  0.40000000000E+01  0.51109989000E-03 0.  1.
     -623   -1    0    0    0    0  0.00000000000E+00  0.00000000000E+00  0.12525980253E-10  0.17130000000E+03  0.17130000000E+03 0.  1.
       11    1    1    2    0    0  0.85428387266E-02  0.93411133462E-02  0.13567525138E+01  0.13568116603E+01  0.51109989000E-03 0.  1.
     -623    1    1    2    0    0 -0.12626814720E-02  0.38218097492E-03  0.38971486130E-03  0.17130000001E+03  0.17130000000E+03 0.  1.
      622    1    1    2    0    0 -0.72801572546E-02 -0.97232943211E-02  0.26428577387E+01  0.26431883342E+01  0.40000000000E-01 0.  1.
</event>
<event>
 5   0  0.6200596E+07  0.9118800E+02  0.7818608E-02  0.1180000E+00
       11   -1    0    0    0    0  0.00000000000E+00  0.00000000000E+00  0.39999999673E+01  0.40000000000E+01  0.51109989000E-03 0. -1.
     -623   -1    0    0    0    0  0.00000000000E+00  0.00000000000E+00  0.12525980253E-10  0.17130000000E+03  0.17130000000E+03 0. -1.
       11    1    1    2    0    0 -0.15525339842E-02 -0.46664339938E-01  0.48726494208E+00  0.48949704390E+00  0.51109989000E-03 0. -1.
     -623    1    1    2    0    0 -0.10960651125E-01  0.19204301613E-01  0.25911231454E-02  0.17130000145E+03  0.17130000000E+03 0. -1.
      622    1    1    2    0    0  0.12513185109E-01  0.27460038325E-01  0.35101439021E+01  0.35105015094E+01  0.40000000000E-01 0. -1.
</event>
<event>
 5   0  0.6200596E+07  0.9118800E+02  0.7818608E-02  0.1180000E+00
       11   -1    0    0    0    0  0.00000000000E+00  0.00000000000E+00  0.39999999673E+01  0.40000000000E+01  0.51109989000E-03 0. -1.
     -623   -1    0    0    0    0  0.00000000000E+00  0.00000000000E+00  0.12525980253E-10  0.17130000000E+03  0.17130000000E+03 0.  1.
       11    1    1    2    0    0  0.15893412204E-01  0.28381501932E-02  0.29538343333E+01  0.29538784988E+01  0.51109989000E-03 0. -1.
     -623    1    1    2    0    0 -0.70225516977E-02  0.11339809055E-01  0.94345827691E-03  0.17130000052E+03  0.17130000000E+03 0.  1.
      622    1    1    2    0    0 -0.88708605062E-02 -0.14177959248E-01  0.10452221758E+01  0.10461209793E+01  0.40000000000E-01 0. -1.
</event>
<event>
 5   0  0.6200596E+07  0.9118800E+02  0.7818608E-02  0.1180000E+00
       11   -1    0    0    0    0  0.00000000000E+00  0.00000000000E+00  0.39999999673E+01  0.40000000000E+01  0.51109989000E-03 0. -1.
     -623   -1    0    0    0    0  0.00000000000E+00  0.00000000000E+00  0.12525980253E-10  0.17130000000E+03  0.17130000000E+03 0. -1.
       11    1    1    2    0    0  0.12154254119E-02 -0.13857327050E-01  0.30771067530E+00  0.30802536208E+00  0.51109989000E-03 0. -1.
     -623    1    1    2    0    0 -0.66519378480E-03 -0.14275770231E-03  0.55793601588E-03  0.17130000000E+03  0.17130000000E+03 0. -1.
      622    1    1    2    0    0 -0.55023162706E-03  0.14000084753E-01  0.36917313560E+01  0.36919746357E+01  0.40000000000E-01 0. -1.
</event>
<event>
 5   0  0.6200596E+07  0.9118800E+02  0.7818608E-02  0.1180000E+00
       11   -1    0    0    0    0  0.00000000000E+00  0.00000000000E+00  0.39999999673E+01  0.40000000000E+01  0.51109989000E-03 0.  1.
     -623   -1    0    0    0    0  0.00000000000E+00  0.00000000000E+00  0.12525980253E-10  0.17130000000E+03  0.17130000000E+03 0. -1.
       11    1    1    2    0    0  0.91877276107E-03 -0.10150103076E-02  0.23252068255E+00  0.23252527481E+00  0.51109989000E-03 0.  1.
     -623    1    1    2    0    0  0.12915058376E-02  0.55713098404E-02  0.22040873643E-03  0.17130000010E+03  0.17130000000E+03 0. -1.
      622    1    1    2    0    0 -0.22102785987E-02 -0.45562995329E-02  0.37672588761E+01  0.37674746296E+01  0.40000000000E-01 0.  1.
</event>
<event>
 5   0  0.6200596E+07  0.9118800E+02  0.7818608E-02  0.1180000E+00
       11   -1    0    0    0    0  0.00000000000E+00  0.00000000000E+00  0.39999999673E+01  0.40000000000E+01  0.51109989000E-03 0.  1.
     -623   -1    0    0    0    0  0.00000000000E+00  0.00000000000E+00  0.12525980253E-10  0.17130000000E+03  0.17130000000E+03 0. -1.
       11    1    1    2    0    0 -0.17097911127E-01  0.18857732674E-01  0.30663653199E+00  0.30769169086E+00  0.51109989000E-03 0.  1.
     -623    1    1    2    0    0  0.12022184602E-01  0.67728229701E-02  0.13648144072E-02  0.17130000056E+03  0.17130000000E+03 0. -1.
      622    1    1    2    0    0  0.50757265248E-02 -0.25630555644E-01  0.36919986210E+01  0.36923077479E+01  0.40000000000E-01 0.  1.
</event>
<event>
 5   0  0.6200596E+07  0.9118800E+02  0.7818608E-02  0.1180000E+00
       11   -1    0    0    0    0  0.00000000000E+00  0.00000000000E+00  0.39999999673E+01  0.40000000000E+01  0.51109989000E-03 0. -1.
     -623   -1    0    0    0    0  0.00000000000E+00  0.00000000000E+00  0.12525980253E-10  0.17130000000E+03  0.17130000000E+03 0.  1.
       11    1    1    2    0    0  0.38561152034E-02 -0.59576613546E-02  0.86576034247E+00  0.86578957904E+00  0.51109989000E-03 0. -1.
     -623    1    1    2    0    0  0.95952970310E-03 -0.49558791407E-03  0.29480963192E-03  0.17130000000E+03  0.17130000000E+03 0.  1.
      622    1    1    2    0    0 -0.48156449065E-02  0.64532492687E-02  0.31339448153E+01  0.31342104173E+01  0.40000000000E-01 0. -1.
</event>
<event>
 5   0  0.6200596E+07  0.9118800E+02  0.7818608E-02  0.1180000E+00
       11   -1    0    0    0    0  0.00000000000E+00  0.00000000000E+00  0.39999999673E+01  0.40000000000E+01  0.51109989000E-03 0. -1.
     -623   -1    0    0    0    0  0.00000000000E+00  0.00000000000E+00  0.12525980253E-10  0.17130000000E+03  0.17130000000E+03 0.  1.
       11    1    1    2    0    0 -0.42013647867E-01 -0.23172483852E-01  0.21212119771E+01  0.21217546097E+01  0.51109989000E-03 0. -1.
     -623    1    1    2    0    0 -0.30574620855E-02 -0.28728841224E-01  0.22296012970E-02  0.17130000245E+03  0.17130000000E+03 0.  1.
      622    1    1    2    0    0  0.45071109953E-01  0.51901325076E-01  0.18765583889E+01  0.18782429394E+01  0.40000000000E-01 0.  0.
</event>
<event>
 5   0  0.6200596E+07  0.9118800E+02  0.7818608E-02  0.1180000E+00
       11   -1    0    0    0    0  0.00000000000E+00  0.00000000000E+00  0.39999999673E+01  0.40000000000E+01  0.51109989000E-03 0.  1.
     -623   -1    0    0    0    0  0.00000000000E+00  0.00000000000E+00  0.12525980253E-10  0.17130000000E+03  0.17130000000E+03 0. -1.
       11    1    1    2    0    0 -0.80280651312E-03  0.10610178391E-02  0.75330705648E-01  0.75344188184E-01  0.51109989000E-03 0.  1.
     -623    1    1    2    0    0 -0.22261018723E-02 -0.20065767126E-02  0.21860385231E-03  0.17130000003E+03  0.17130000000E+03 0. -1.
      622    1    1    2    0    0  0.30289083854E-02  0.94555887345E-03  0.39244506579E+01  0.39246557855E+01  0.40000000000E-01 0.  1.
</event>
<event>
 5   0  0.6200596E+07  0.9118800E+02  0.7818608E-02  0.1180000E+00
       11   -1    0    0    0    0  0.00000000000E+00  0.00000000000E+00  0.39999999673E+01  0.40000000000E+01  0.51109989000E-03 0. -1.
     -623   -1    0    0    0    0  0.00000000000E+00  0.00000000000E+00  0.12525980253E-10  0.17130000000E+03  0.17130000000E+03 0.  1.
       11    1    1    2    0    0 -0.87541302138E-02  0.11582257181E-01  0.29582080152E+00  0.29617729709E+00  0.51109989000E-03 0. -1.
     -623    1    1    2    0    0  0.31394084159E-02  0.79083534807E-02  0.62821685875E-03  0.17130000021E+03  0.17130000000E+03 0.  1.
      622    1    1    2    0    0  0.56147217979E-02 -0.19490610662E-01  0.37035509490E+01  0.37038224904E+01  0.40000000000E-01 0. -1.
</event>
<event>
 5   0  0.6200596E+07  0.9118800E+02  0.7818608E-02  0.1180000E+00
       11   -1    0    0    0    0  0.00000000000E+00  0.00000000000E+00  0.39999999673E+01  0.40000000000E+01  0.51109989000E-03 0. -1.
     -623   -1    0    0    0    0  0.00000000000E+00  0.00000000000E+00  0.12525980253E-10  0.17130000000E+03  0.17130000000E+03 0. -1.
       11    1    1    2    0    0  0.50988253986E-02 -0.40692972637E-02  0.51327877120E+00  0.51332048019E+00  0.51109989000E-03 0. -1.
     -623    1    1    2    0    0 -0.32531384741E-02 -0.33501735740E-02  0.27957564154E-03  0.17130000006E+03  0.17130000000E+03 0. -1.
      622    1    1    2    0    0 -0.18456869245E-02  0.74194708376E-02  0.34864416205E+01  0.34866794559E+01  0.40000000000E-01 0. -1.
</event>
<event>
 5   0  0.6200596E+07  0.9118800E+02  0.7818608E-02  0.1180000E+00
       11   -1    0    0    0    0  0.00000000000E+00  0.00000000000E+00  0.39999999673E+01  0.40000000000E+01  0.51109989000E-03 0. -1.
     -623   -1    0    0    0    0  0.00000000000E+00  0.00000000000E+00  0.12525980253E-10  0.17130000000E+03  0.17130000000E+03 0.  1.
       11    1    1    2    0    0 -0.13834623716E-01 -0.18113590501E-01  0.14562284960E+00  0.14739665709E+00  0.51109989000E-03 0. -1.
     -623    1    1    2    0    0  0.11534731226E-01  0.23783949546E-01  0.19883430116E-02  0.17130000205E+03  0.17130000000E+03 0.  1.
      622    1    1    2    0    0  0.22998924902E-02 -0.56703590452E-02  0.38523887747E+01  0.38526012919E+01  0.40000000000E-01 0. -1.
</event>
<event>
 5   0  0.6200596E+07  0.9118800E+02  0.7818608E-02  0.1180000E+00
       11   -1    0    0    0    0  0.00000000000E+00  0.00000000000E+00  0.39999999673E+01  0.40000000000E+01  0.51109989000E-03 0. -1.
     -623   -1    0    0    0    0  0.00000000000E+00  0.00000000000E+00  0.12525980253E-10  0.17130000000E+03  0.17130000000E+03 0.  1.
       11    1    1    2    0    0  0.16774926010E-01  0.95653510348E-02  0.26712891380E+00  0.26782645854E+00  0.51109989000E-03 0. -1.
     -623    1    1    2    0    0  0.33150004240E-03 -0.14152461996E-02  0.95998502308E-03  0.17130000001E+03  0.17130000000E+03 0.  1.
      622    1    1    2    0    0 -0.17106426053E-01 -0.81501048352E-02  0.37319110685E+01  0.37321735326E+01  0.40000000000E-01 0. -1.
</event>
<event>
 5   0  0.6200596E+07  0.9118800E+02  0.7818608E-02  0.1180000E+00
       11   -1    0    0    0    0  0.00000000000E+00  0.00000000000E+00  0.39999999673E+01  0.40000000000E+01  0.51109989000E-03 0. -1.
     -623   -1    0    0    0    0  0.00000000000E+00  0.00000000000E+00  0.12525980253E-10  0.17130000000E+03  0.17130000000E+03 0.  1.
       11    1    1    2    0    0 -0.30333620578E-02  0.30662565759E-02  0.58305665610E+00  0.58307283307E+00  0.51109989000E-03 0. -1.
     -623    1    1    2    0    0 -0.62258715402E-03 -0.97806652449E-03  0.25287905212E-03  0.17130000000E+03  0.17130000000E+03 0.  1.
      622    1    1    2    0    0  0.36559492118E-02 -0.20881900514E-02  0.34166904322E+01  0.34169271628E+01  0.40000000000E-01 0. -1.
</event>
<event>
 5   0  0.6200596E+07  0.9118800E+02  0.7818608E-02  0.1180000E+00
       11   -1    0    0    0    0  0.00000000000E+00  0.00000000000E+00  0.39999999673E+01  0.40000000000E+01  0.51109989000E-03 0. -1.
     -623   -1    0    0    0    0  0.00000000000E+00  0.00000000000E+00  0.12525980253E-10  0.17130000000E+03  0.17130000000E+03 0. -1.
       11    1    1    2    0    0  0.28497794001E-02 -0.10730365246E-01  0.17495491499E+00  0.17530757394E+00  0.51109989000E-03 0. -1.
     -623    1    1    2    0    0  0.46312488151E-02  0.22211960560E-02  0.57866008688E-03  0.17130000008E+03  0.17130000000E+03 0. -1.
      622    1    1    2    0    0 -0.74810282151E-02  0.85091691898E-02  0.38244663923E+01  0.38246923481E+01  0.40000000000E-01 0. -1.
</event>
<event>
 5   0  0.6200596E+07  0.9118800E+02  0.7818608E-02  0.1180000E+00
       11   -1    0    0    0    0  0.00000000000E+00  0.00000000000E+00  0.39999999673E+01  0.40000000000E+01  0.51109989000E-03 0. -1.
     -623   -1    0    0    0    0  0.00000000000E+00  0.00000000000E+00  0.12525980253E-10  0.17130000000E+03  0.17130000000E+03 0. -1.
       11    1    1    2    0    0  0.18610259347E-01  0.22751989092E-01  0.63669484358E+00  0.63737318725E+00  0.51109989000E-03 0. -1.
     -623    1    1    2    0    0 -0.11160328212E-01 -0.13739465048E-01  0.93747777307E-03  0.17130000092E+03  0.17130000000E+03 0. -1.
      622    1    1    2    0    0 -0.74499311350E-02 -0.90125240439E-02  0.33623676460E+01  0.33626258956E+01  0.40000000000E-01 0.  0.
</event>
<event>
 5   0  0.6200596E+07  0.9118800E+02  0.7818608E-02  0.1180000E+00
       11   -1    0    0    0    0  0.00000000000E+00  0.00000000000E+00  0.39999999673E+01  0.40000000000E+01  0.51109989000E-03 0.  1.
     -623   -1    0    0    0    0  0.00000000000E+00  0.00000000000E+00  0.12525980253E-10  0.17130000000E+03  0.17130000000E+03 0. -1.
       11    1    1    2    0    0  0.93166890887E-03 -0.21332602036E-02  0.28077206474E-02  0.36828418070E-02  0.51109989000E-03 0.  1.
     -623    1    1    2    0    0 -0.66730497664E-04 -0.96397032213E-03  0.10765778295E-02  0.17130000001E+03  0.17130000000E+03 0. -1.
      622    1    1    2    0    0 -0.86493841121E-03  0.30972305257E-02  0.39961156689E+01  0.39963171521E+01  0.40000000000E-01 0.  1.
</event>
<event>
 5   0  0.6200596E+07  0.9118800E+02  0.7818608E-02  0.1180000E+00
       11   -1    0    0    0    0  0.00000000000E+00  0.00000000000E+00  0.39999999673E+01  0.40000000000E+01  0.51109989000E-03 0.  1.
     -623   -1    0    0    0    0  0.00000000000E+00  0.00000000000E+00  0.12525980253E-10  0.17130000000E+03  0.17130000000E+03 0. -1.
       11    1    1    2    0    0 -0.39047564744E-02  0.55934417674E-02  0.27675345112E+01  0.27675429655E+01  0.51109989000E-03 0.  1.
     -623    1    1    2    0    0 -0.19848681233E-03 -0.12363342937E-01  0.68358810551E-03  0.17130000045E+03  0.17130000000E+03 0. -1.
      622    1    1    2    0    0  0.41032432867E-02  0.67699011692E-02  0.12317818681E+01  0.12324565869E+01  0.40000000000E-01 0.  1.
</event>
<event>
 5   0  0.6200596E+07  0.9118800E+02  0.7818608E-02  0.1180000E+00
       11   -1    0    0    0    0  0.00000000000E+00  0.00000000000E+00  0.39999999673E+01  0.40000000000E+01  0.51109989000E-03 0.  1.
     -623   -1    0    0    0    0  0.00000000000E+00  0.00000000000E+00  0.12525980253E-10  0.17130000000E+03  0.17130000000E+03 0.  1.
       11    1    1    2    0    0 -0.23693997852E-02  0.29937260421E-01  0.38575915946E-02  0.30281939338E-01  0.51109989000E-03 0.  1.
     -623    1    1    2    0    0  0.74014102008E-02 -0.35640002230E-01  0.26639070802E-01  0.17130000594E+03  0.17130000000E+03 0.  1.
      622    1    1    2    0    0 -0.50320104156E-02  0.57027418090E-02  0.39695033050E+01  0.39697121219E+01  0.40000000000E-01 0.  1.
</event>
<event>
 5   0  0.6200596E+07  0.9118800E+02  0.7818608E-02  0.1180000E+00
       11   -1    0    0    0    0  0.00000000000E+00  0.00000000000E+00  0.39999999673E+01  0.40000000000E+01  0.51109989000E-03 0. -1.
     -623   -1    0    0    0    0  0.00000000000E+00  0.00000000000E+00  0.12525980253E-10  0.17130000000E+03  0.17130000000E+03 0. -1.
       11    1    1    2    0    0  0.34424914238E-01 -0.41525855705E-01  0.63975373104E+00  0.64202380720E+00  0.51109989000E-03 0. -1.
     -623    1    1    2    0    0 -0.35641092956E-02 -0.47261101867E-02  0.29688247663E-02  0.17130000013E+03  0.17130000000E+03 0. -1.
      622    1    1    2    0    0 -0.30860804942E-01  0.46251965891E-01  0.33572774116E+01  0.33579760648E+01  0.40000000000E-01 0. -1.
</event>
<event>
 5   0  0.6200596E+07  0.9118800E+02  0.7818608E-02  0.1180000E+00
       11   -1    0    0    0    0  0.00000000000E+00  0.00000000000E+00  0.39999999673E+01  0.40000000000E+01  0.51109989000E-03 0.  1.
     -623   -1    0    0    0    0  0.00000000000E+00  0.00000000000E+00  0.12525980253E-10  0.17130000000E+03  0.17130000000E+03 0. -1.
       11    1    1    2    0    0  0.86542089120E-02  0.64410351761E-02  0.24490048716E+00  0.24513851615E+00  0.51109989000E-03 0.  1.
     -623    1    1    2    0    0  0.18391889840E-04  0.91881755311E-03  0.46829216690E-03  0.17130000000E+03  0.17130000000E+03 0. -1.
      622    1    1    2    0    0 -0.86726008019E-02 -0.73598527292E-02  0.37546311880E+01  0.37548614807E+01  0.40000000000E-01 0.  1.
</event>
<event>
 5   0  0.6200596E+07  0.9118800E+02  0.7818608E-02  0.1180000E+00
       11   -1    0    0    0    0  0.00000000000E+00  0.00000000000E+00  0.39999999673E+01  0.40000000000E+01  0.51109989000E-03 0. -1.
     -623   -1    0    0    0    0  0.00000000000E+00  0.00000000000E+00  0.12525980253E-10  0.17130000000E+03  0.17130000000E+03 0. -1.
       11    1    1    2    0    0  0.46338195636E-01  0.22303939957E-02  0.13556032759E+01  0.13563969573E+01  0.51109989000E-03 0. -1.
     -623    1    1    2    0    0 -0.18431710336E-01 -0.14633838820E-01  0.12743225622E-02  0.17130000162E+03  0.17130000000E+03 0. -1.
      622    1    1    2    0    0 -0.27906485299E-01  0.12403444824E-01  0.26431223689E+01  0.26436014213E+01  0.40000000000E-01 0.  0.
</event>
<event>
 5   0  0.6200596E+07  0.9118800E+02  0.7818608E-02  0.1180000E+00
       11   -1    0    0    0    0  0.00000000000E+00  0.00000000000E+00  0.39999999673E+01  0.40000000000E+01  0.51109989000E-03 0.  1.
     -623   -1    0    0    0    0  0.00000000000E+00  0.00000000000E+00  0.12525980253E-10  0.17130000000E+03  0.17130000000E+03 0. -1.
       11    1    1    2    0    0  0.55115820417E-02  0.26084767563E-02  0.58902805306E-01  0.59219788763E-01  0.51109989000E-03 0.  1.
     -623    1    1    2    0    0 -0.94392640658E-03 -0.21160201669E-02  0.52265603326E-03  0.17130000002E+03  0.17130000000E+03 0. -1.
      622    1    1    2    0    0 -0.45676556351E-02 -0.49245658935E-03  0.39405745060E+01  0.39407801948E+01  0.40000000000E-01 0.  1.
</event>
<event>
 5   0  0.6200596E+07  0.9118800E+02  0.7818608E-02  0.1180000E+00
       11   -1    0    0    0    0  0.00000000000E+00  0.00000000000E+00  0.39999999673E+01  0.40000000000E+01  0.51109989000E-03 0. -1.
     -623   -1    0    0    0    0  0.00000000000E+00  0.00000000000E+00  0.12525980253E-10  0.17130000000E+03  0.17130000000E+03 0.  1.
       11    1    1    2    0    0 -0.61903261977E-03 -0.11649715656E-02  0.20231103193E+00  0.20231597867E+00  0.51109989000E-03 0. -1.
     -623    1    1    2    0    0 -0.85953534942E-03  0.43423176306E-03  0.21593563327E-03  0.17130000000E+03  0.17130000000E+03 0.  1.
      622    1    1    2    0    0  0.14785679692E-02  0.73073980257E-03  0.37974729998E+01  0.37976840185E+01  0.40000000000E-01 0. -1.
</event>
<event>
 5   0  0.6200596E+07  0.9118800E+02  0.7818608E-02  0.1180000E+00
       11   -1    0    0    0    0  0.00000000000E+00  0.00000000000E+00  0.39999999673E+01  0.40000000000E+01  0.51109989000E-03 0. -1.
     -623   -1    0    0    0    0  0.00000000000E+00  0.00000000000E+00  0.12525980253E-10  0.17130000000E+03  0.17130000000E+03 0. -1.
       11    1    1    2    0    0  0.10428745900E-01 -0.81233057908E-01  0.20721481674E+01  0.20737661048E+01  0.51109989000E-03 0. -1.
     -623    1    1    2    0    0  0.46030786319E-02  0.42764268879E-02  0.36303604682E-02  0.17130000015E+03  0.17130000000E+03 0. -1.
      622    1    1    2    0    0 -0.15031824532E-01  0.76956631020E-01  0.19242214395E+01  0.19262337415E+01  0.40000000000E-01 0.  1.
</event>
<event>
 5   0  0.6200596E+07  0.9118800E+02  0.7818608E-02  0.1180000E+00
       11   -1    0    0    0    0  0.00000000000E+00  0.00000000000E+00  0.39999999673E+01  0.40000000000E+01  0.51109989000E-03 0. -1.
     -623   -1    0    0    0    0  0.00000000000E+00  0.00000000000E+00  0.12525980253E-10  0.17130000000E+03  0.17130000000E+03 0. -1.
       11    1    1    2    0    0  0.59917345336E-02 -0.73389304128E-02  0.46345748990E-01  0.47306981016E-01  0.51109989000E-03 0. -1.
     -623    1    1    2    0    0  0.33723051465E-02  0.37573003511E-03  0.11808619666E-02  0.17130000004E+03  0.17130000000E+03 0. -1.
      622    1    1    2    0    0 -0.93640396801E-02  0.69632003777E-02  0.39524733564E+01  0.39526929813E+01  0.40000000000E-01 0. -1.
</event>
<event>
 5   0  0.6200596E+07  0.9118800E+02  0.7818608E-02  0.1180000E+00
       11   -1    0    0    0    0  0.00000000000E+00  0.00000000000E+00  0.39999999673E+01  0.40000000000E+01  0.51109989000E-03 0.  1.
     -623   -1    0    0    0    0  0.00000000000E+00  0.00000000000E+00  0.12525980253E-10  0.17130000000E+03  0.17130000000E+03 0. -1.
       11    1    1    2    0    0 -0.17508503565E-02 -0.26651600559E-02  0.74971206213E+00  0.74971901795E+00  0.51109989000E-03 0.  1.
     -623    1    1    2    0    0  0.28232643326E-02  0.13263227057E-01  0.27105870130E-03  0.17130000054E+03  0.17130000000E+03 0. -1.
      622    1    1    2    0    0 -0.10724139761E-02 -0.10598067001E-01  0.32500168465E+01  0.32502804451E+01  0.40000000000E-01 0.  1.
</event>
<event>
 5   0  0.6200596E+07  0.9118800E+02  0.7818608E-02  0.1180000E+00
       11   -1    0    0    0    0  0.00000000000E+00  0.00000000000E+00  0.39999999673E+01  0.40000000000E+01  0.51109989000E-03 0.  1.
     -623   -1    0    0    0    0  0.00000000000E+00  0.00000000000E+00  0.12525980253E-10  0.17130000000E+03  0.17130000000E+03 0.  1.
       11    1    1    2    0    0 -0.10878300488E-02  0.15900893023E-02  0.27862683392E-01  0.27933888100E-01  0.51109989000E-03 0.  1.
     -623    1    1    2    0    0  0.32716272203E-02 -0.10600105295E-02  0.27325414792E-03  0.17130000003E+03  0.17130000000E+03 0.  1.
      622    1    1    2    0    0 -0.21837971714E-02 -0.53007877273E-03  0.39718640298E+01  0.39720660772E+01  0.40000000000E-01 0.  1.
</event>
<event>
 5   0  0.6200596E+07  0.9118800E+02  0.7818608E-02  0.1180000E+00
       11   -1    0    0    0    0  0.00000000000E+00  0.00000000000E+00  0.39999999673E+01  0.40000000000E+01  0.51109989000E-03 0. -1.
     -623   -1    0    0    0    0  0.00000000000E+00  0.00000000000E+00  0.12525980253E-10  0.17130000000E+03  0.17130000000E+03 0. -1.
       11    1    1    2    0    0  0.10578158975E+00  0.17361845762E-01  0.21397908544E+01  0.21424743500E+01  0.51109989000E-03 0. -1.
     -623    1    1    2    0    0 -0.48245595075E-01  0.15775086334E-01  0.43090742602E-02  0.17130000757E+03  0.17130000000E+03 0. -1.
      622    1    1    2    0    0 -0.57535994672E-01 -0.33136932097E-01  0.18559000387E+01  0.18575180754E+01  0.40000000000E-01 0. -1.
</event>
<event>
 5   0  0.6200596E+07  0.9118800E+02  0.7818608E-02  0.1180000E+00
       11   -1    0    0    0    0  0.00000000000E+00  0.00000000000E+00  0.39999999673E+01  0.40000000000E+01  0.51109989000E-03 0. -1.
     -623   -1    0    0    0    0  0.00000000000E+00  0.00000000000E+00  0.12525980253E-10  0.17130000000E+03  0.17130000000E+03 0.  1.
       11    1    1    2    0    0  0.28570796169E-02 -0.33523877527E-02  0.26266651312E+00  0.26270393934E+00  0.51109989000E-03 0. -1.
     -623    1    1    2    0    0  0.12149091810E-02  0.17476991641E-02  0.25403460206E-03  0.17130000001E+03  0.17130000000E+03 0.  1.
      622    1    1    2    0    0 -0.40719887979E-02  0.16046885886E-02  0.37370794196E+01  0.37372960472E+01  0.40000000000E-01 0. -1.
</event>
<event>
 5   0  0.6200596E+07  0.9118800E+02  0.7818608E-02  0.1180000E+00
       11   -1    0    0    0    0  0.00000000000E+00  0.00000000000E+00  0.39999999673E+01  0.40000000000E+01  0.51109989000E-03 0. -1.
     -623   -1    0    0    0    0  0.00000000000E+00  0.00000000000E+00  0.12525980253E-10  0.17130000000E+03  0.17130000000E+03 0. -1.
       11    1    1    2    0    0 -0.34160870495E-02  0.20461107723E-02  0.21360832167E+00  0.21364604496E+00  0.51109989000E-03 0. -1.
     -623    1    1    2    0    0  0.11992747686E-02 -0.55467493170E-02  0.25134310120E-03  0.17130000009E+03  0.17130000000E+03 0. -1.
      622    1    1    2    0    0  0.22168122809E-02  0.35006385447E-02  0.37861403026E+01  0.37863538609E+01  0.40000000000E-01 0. -1.
</event>
<event>
 5   0  0.6200596E+07  0.9118800E+02  0.7818608E-02  0.1180000E+00
       11   -1    0    0    0    0  0.00000000000E+00  0.00000000000E+00  0.39999999673E+01  0.40000000000E+01  0.51109989000E-03 0. -1.
     -623   -1    0    0    0    0  0.00000000000E+00  0.00000000000E+00  0.12525980253E-10  0.17130000000E+03  0.17130000000E+03 0. -1.
       11    1    1    2    0    0  0.14304419050E-01 -0.26113353601E-02  0.35868615949E+00  0.35898113837E+00  0.51109989000E-03 0. -1.
     -623    1    1    2    0    0  0.17078067755E-01 -0.20146822725E-03  0.65186679587E-03  0.17130000085E+03  0.17130000000E+03 0. -1.
      622    1    1    2    0    0 -0.31382486806E-01  0.28128035873E-02  0.36406619411E+01  0.36410180090E+01  0.40000000000E-01 0.  0.
</event>
<event>
 5   0  0.6200596E+07  0.9118800E+02  0.7818608E-02  0.1180000E+00
       11   -1    0    0    0    0  0.00000000000E+00  0.00000000000E+00  0.39999999673E+01  0.40000000000E+01  0.51109989000E-03 0. -1.
     -623   -1    0    0    0    0  0.00000000000E+00  0.00000000000E+00  0.12525980253E-10  0.17130000000E+03  0.17130000000E+03 0.  1.
       11    1    1    2    0    0 -0.28105395213E-03  0.65614467681E-03  0.97564785665E-02  0.97958977796E-02  0.51109989000E-03 0. -1.
     -623    1    1    2    0    0 -0.40120513933E-03 -0.34670494576E-03  0.23995392597E-03  0.17130000000E+03  0.17130000000E+03 0.  1.
      622    1    1    2    0    0  0.68225909146E-03 -0.30943973105E-03  0.39900035349E+01  0.39902041012E+01  0.40000000000E-01 0. -1.
</event>
<event>
 5   0  0.6200596E+07  0.9118800E+02  0.7818608E-02  0.1180000E+00
       11   -1    0    0    0    0  0.00000000000E+00  0.00000000000E+00  0.39999999673E+01  0.40000000000E+01  0.51109989000E-03 0.  1.
     -623   -1    0    0    0    0  0.00000000000E+00  0.00000000000E+00  0.12525980253E-10  0.17130000000E+03  0.17130000000E+03 0.  1.
       11    1    1    2    0    0  0.13832343748E-01 -0.17786740136E-01  0.50512657892E+00  0.50562913664E+00  0.51109989000E-03 0.  1.
     -623    1    1    2    0    0  0.11457391186E-02  0.30173020011E-02  0.79482233796E-03  0.17130000003E+03  0.17130000000E+03 0.  1.
      622    1    1    2    0    0 -0.14978082867E-01  0.14769438135E-01  0.34940785661E+01  0.34943708311E+01  0.40000000000E-01 0.  1.
</event>
<event>
 5   0  0.6200596E+07  0.9118800E+02  0.7818608E-02  0.1180000E+00
       11   -1    0    0    0    0  0.00000000000E+00  0.00000000000E+00  0.39999999673E+01  0.40000000000E+01  0.51109989000E-03 0. -1.
     -623   -1    0    0    0    0  0.00000000000E+00  0.00000000000E+00  0.12525980253E-10  0.17130000000E+03  0.17130000000E+03 0. -1.
       11    1    1    2    0    0 -0.73982625813E-04  0.27774251403E-02  0.76158427347E-01  0.76210805287E-01  0.51109989000E-03 0. -1.
     -623    1    1    2    0    0  0.14403574307E-02 -0.44194043579E-02  0.25687990114E-03  0.17130000006E+03  0.17130000000E+03 0. -1.
      622    1    1    2    0    0 -0.13663748049E-02  0.16419792176E-02  0.39235846601E+01  0.39237891315E+01  0.40000000000E-01 0. -1.
</event>
<event>
 5   0  0.6200596E+07  0.9118800E+02  0.7818608E-02  0.1180000E+00
       11   -1    0    0    0    0  0.00000000000E+00  0.00000000000E+00  0.39999999673E+01  0.40000000000E+01  0.51109989000E-03 0.  1.
     -623   -1    0    0    0    0  0.00000000000E+00  0.00000000000E+00  0.12525980253E-10  0.17130000000E+03  0.17130000000E+03 0.  1.
       11    1    1    2    0    0  0.17552719118E-02  0.29869399735E-02  0.74797837425E-01  0.74879773607E-01  0.51109989000E-03 0.  1.
     -623    1    1    2    0    0  0.65003800536E-03 -0.12184375895E-02  0.28686550744E-03  0.17130000001E+03  0.17130000000E+03 0.  1.
      622    1    1    2    0    0 -0.24053099171E-02 -0.17685023840E-02  0.39249152644E+01  0.39251202206E+01  0.40000000000E-01 0.  1.
</event>
<event>
 5   0  0.6200596E+07  0.9118800E+02  0.7818608E-02  0.1180000E+00
       11   -1    0    0    0    0  0.00000000000E+00  0.00000000000E+00  0.39999999673E+01  0.40000000000E+01  0.51109989000E-03 0.  1.
     -623   -1    0    0    0    0  0.00000000000E+00  0.00000000000E+00  0.12525980253E-10  0.17130000000E+03  0.17130000000E+03 0.  1.
       11    1    1    2    0    0  0.12408007674E-01 -0.21873641201E-01  0.10182366348E+01  0.10185472598E+01  0.51109989000E-03 0.  1.
     -623    1    1    2    0    0  0.16373664374E-03 -0.16694413307E-02  0.69841228105E-03  0.17130000001E+03  0.17130000000E+03 0.  1.
      622    1    1    2    0    0 -0.12571744318E-01  0.23543082532E-01  0.29810649203E+01  0.29814527306E+01  0.40000000000E-01 0.  0.
</event>
<event>
 5   0  0.6200596E+07  0.9118800E+02  0.7818608E-02  0.1180000E+00
       11   -1    0    0    0    0  0.00000000000E+00  0.00000000000E+00  0.39999999673E+01  0.40000000000E+01  0.51109989000E-03 0. -1.
     -623   -1    0    0    0    0  0.00000000000E+00  0.00000000000E+00  0.12525980253E-10  0.17130000000E+03  0.17130000000E+03 0.  1.
       11    1    1    2    0    0  0.70446878093E-03  0.37118983867E-02  0.36282769990E-01  0.36482531240E-01  0.51109989000E-03 0. -1.
     -623    1    1    2    0    0  0.55036053838E-03 -0.16951438091E-04  0.40349704851E-03  0.17130000000E+03  0.17130000000E+03 0.  1.
      622    1    1    2    0    0 -0.12548293193E-02 -0.36949469486E-02  0.39633137003E+01  0.39635174674E+01  0.40000000000E-01 0. -1.
</event>
<event>
 5   0  0.6200596E+07  0.9118800E+02  0.7818608E-02  0.1180000E+00
       11   -1    0    0    0    0  0.00000000000E+00  0.00000000000E+00  0.39999999673E+01  0.40000000000E+01  0.51109989000E-03 0. -1.
     -623   -1    0    0    0    0  0.00000000000E+00  0.00000000000E+00  0.12525980253E-10  0.17130000000E+03  0.17130000000E+03 0. -1.
       11    1    1    2    0    0 -0.72739498040E-02 -0.21478792903E-02  0.36948017301E+00  0.36955836238E+00  0.51109989000E-03 0. -1.
     -623    1    1    2    0    0  0.59260845895E-02  0.86504757548E-02  0.30491757830E-03  0.17130000032E+03  0.17130000000E+03 0. -1.
      622    1    1    2    0    0  0.13478652145E-02 -0.65025964645E-02  0.36302148768E+01  0.36304413164E+01  0.40000000000E-01 0. -1.
</event>
<event>
 5   0  0.6200596E+07  0.9118800E+02  0.7818608E-02  0.1180000E+00
       11   -1    0    0    0    0  0.00000000000E+00  0.00000000000E+00  0.39999999673E+01  0.40000000000E+01  0.51109989000E-03 0.  1.
     -623   -1    0    0    0    0  0.00000000000E+00  0.00000000000E+00  0.12525980253E-10  0.17130000000E+03  0.17130000000E+03 0. -1.
       11    1    1    2    0    0 -0.84847184784E-03 -0.13690604617E-02  0.47607598551E-02  0.50517608372E-02  0.51109989000E-03 0.  1.
     -623    1    1    2    0    0 -0.38048007145E-03  0.25291104081E-02  0.49160354196E-03  0.17130000002E+03  0.17130000000E+03 0. -1.
      622    1    1    2    0    0  0.12289519193E-02 -0.11600499464E-02  0.39947476040E+01  0.39949482194E+01  0.40000000000E-01 0.  1.
</event>
<event>
 5   0  0.6200596E+07  0.9118800E+02  0.7818608E-02  0.1180000E+00
       11   -1    0    0    0    0  0.00000000000E+00  0.00000000000E+00  0.39999999673E+01  0.40000000000E+01  0.51109989000E-03 0.  1.
     -623   -1    0    0    0    0  0.00000000000E+00  0.00000000000E+00  0.12525980253E-10  0.17130000000E+03  0.17130000000E+03 0.  1.
       11    1    1    2    0    0  0.15590463689E-02  0.45052656207E-03  0.64570807353E-02  0.66774779741E-02  0.51109989000E-03 0.  1.
     -623    1    1    2    0    0  0.12985197244E-03 -0.53492275924E-03  0.42106351129E-03  0.17130000000E+03  0.17130000000E+03 0.  1.
      622    1    1    2    0    0 -0.16888983413E-02  0.84396197169E-04  0.39931218231E+01  0.39933225206E+01  0.40000000000E-01 0.  1.
</event>
<event>
 5   0  0.6200596E+07  0.9118800E+02  0.7818608E-02  0.1180000E+00
       11   -1    0    0    0    0  0.00000000000E+00  0.00000000000E+00  0.39999999673E+01  0.40000000000E+01  0.51109989000E-03 0. -1.
     -623   -1    0    0    0    0  0.00000000000E+00  0.00000000000E+00  0.12525980253E-10  0.17130000000E+03  0.17130000000E+03 0.  1.
       11    1    1    2    0    0 -0.11938007130E-01 -0.75767227974E-02  0.13166493326E+01  0.13167253506E+01  0.51109989000E-03 0. -1.
     -623    1    1    2    0    0 -0.14579633375E-01 -0.71304544947E-02  0.54627609903E-03  0.17130000077E+03  0.17130000000E+03 0.  1.
      622    1    1    2    0    0  0.26517640504E-01  0.14707177292E-01  0.26828043587E+01  0.26832738796E+01  0.40000000000E-01 0.  0.
</event>
<event>
 5   0  0.6200596E+07  0.9118800E+02  0.7818608E-02  0.1180000E+00
       11   -1    0    0    0    0  0.00000000000E+00  0.00000000000E+00  0.39999999673E+01  0.40000000000E+01  0.51109989000E-03 0. -1.
     -623   -1    0    0    0    0  0.00000000000E+00  0.00000000000E+00  0.12525980253E-10  0.17130000000E+03  0.17130000000E+03 0.  1.
       11    1    1    2    0    0  0.11007331795E-01 -0.76135612449E-02  0.63360680617E+00  0.63374835204E+00  0.51109989000E-03 0. -1.
     -623    1    1    2    0    0 -0.37352927018E-02 -0.28792290584E-02  0.40344999033E-03  0.17130000007E+03  0.17130000000E+03 0.  1.
      622    1    1    2    0    0 -0.72720390933E-02  0.10492790303E-01  0.33659897112E+01  0.33662515826E+01  0.40000000000E-01 0. -1.
</event>
<event>
 5   0  0.6200596E+07  0.9118800E+02  0.7818608E-02  0.1180000E+00
       11   -1    0    0    0    0  0.00000000000E+00  0.00000000000E+00  0.39999999673E+01  0.40000000000E+01  0.51109989000E-03 0.  1.
     -623   -1    0    0    0    0  0.00000000000E+00  0.00000000000E+00  0.12525980253E-10  0.17130000000E+03  0.17130000000E+03 0.  1.
       11    1    1    2    0    0 -0.26673106313E-01 -0.15125752015E-01  0.11137972908E+01  0.11142194170E+01  0.51109989000E-03 0.  1.
     -623    1    1    2    0    0  0.13786816777E-01  0.38670510747E-02  0.75066777776E-03  0.17130000060E+03  0.17130000000E+03 0.  1.
      622    1    1    2    0    0  0.12886289536E-01  0.11258700940E-01  0.28854520088E+01  0.28857799829E+01  0.40000000000E-01 0.  0.
</event>
<event>
 5   0  0.6200596E+07  0.9118800E+02  0.7818608E-02  0.1180000E+00
       11   -1    0    0    0    0  0.00000000000E+00  0.00000000000E+00  0.39999999673E+01  0.40000000000E+01  0.51109989000E-03 0. -1.
     -623   -1    0    0    0    0  0.00000000000E+00  0.00000000000E+00  0.12525980253E-10  0.17130000000E+03  0.17130000000E+03 0.  1.
       11    1    1    2    0    0  0.57218865189E-02  0.51943394761E-01  0.26116025815E+01  0.26121254107E+01  0.51109989000E-03 0. -1.
     -623    1    1    2    0    0 -0.19345589730E-02 -0.11522501801E-01  0.16939013461E-02  0.17130000041E+03  0.17130000000E+03 0.  1.
      622    1    1    2    0    0 -0.37873275459E-02 -0.40420892961E-01  0.13867034845E+01  0.13878741825E+01  0.40000000000E-01 0.  0.
</event>
<event>
 5   0  0.6200596E+07  0.9118800E+02  0.7818608E-02  0.1180000E+00
       11   -1    0    0    0    0  0.00000000000E+00  0.00000000000E+00  0.39999999673E+01  0.40000000000E+01  0.51109989000E-03 0. -1.
     -623   -1    0    0    0    0  0.00000000000E+00  0.00000000000E+00  0.12525980253E-10  0.17130000000E+03  0.17130000000E+03 0. -1.
       11    1    1    2    0    0  0.44471819203E-02 -0.13663230283E-01  0.58501628745E+00  0.58519294176E+00  0.51109989000E-03 0. -1.
     -623    1    1    2    0    0  0.13286235645E-02  0.83522660856E-02  0.42012810107E-03  0.17130000021E+03  0.17130000000E+03 0. -1.
      622    1    1    2    0    0 -0.57758054847E-02  0.53109641978E-02  0.34145635518E+01  0.34148068489E+01  0.40000000000E-01 0. -1.
</event>
<event>
 5   0  0.6200596E+07  0.9118800E+02  0.7818608E-02  0.1180000E+00
       11   -1    0    0    0    0  0.00000000000E+00  0.00000000000E+00  0.39999999673E+01  0.40000000000E+01  0.51109989000E-03 0. -1.
     -623   -1    0    0    0    0  0.00000000000E+00  0.00000000000E+00  0.12525980253E-10  0.17130000000E+03  0.17130000000E+03 0.  1.
       11    1    1    2    0    0  0.10940233875E-02 -0.71678384189E-02  0.41172200968E+00  0.41178616935E+00  0.51109989000E-03 0. -1.
     -623    1    1    2    0    0  0.69181818348E-02  0.63355428111E-02  0.29638566436E-03  0.17130000026E+03  0.17130000000E+03 0.  1.
      622    1    1    2    0    0 -0.80122052223E-02  0.83229560773E-03  0.35879815720E+01  0.35882135735E+01  0.40000000000E-01 0. -1.
</event>
<event>
 5   0  0.6200596E+07  0.9118800E+02  0.7818608E-02  0.1180000E+00
       11   -1    0    0    0    0  0.00000000000E+00  0.00000000000E+00  0.39999999673E+01  0.40000000000E+01  0.51109989000E-03 0.  1.
     -623   -1    0    0    0    0  0.00000000000E+00  0.00000000000E+00  0.12525980253E-10  0.17130000000E+03  0.17130000000E+03 0.  1.
       11    1    1    2    0    0  0.36574793151E-02  0.13397121678E-01  0.85260151621E+00  0.85271476279E+00  0.51109989000E-03 0.  1.
     -623    1    1    2    0    0  0.17274681328E-02 -0.31089874493E-03  0.39923635754E-03  0.17130000001E+03  0.17130000000E+03 0.  1.
      622    1    1    2    0    0 -0.53849474479E-02 -0.13086222933E-01  0.31469992148E+01  0.31472852277E+01  0.40000000000E-01 0.  1.
</event>
<event>
 5   0  0.6200596E+07  0.9118800E+02  0.7818608E-02  0.1180000E+00
       11   -1    0    0    0    0  0.00000000000E+00  0.00000000000E+00  0.39999999673E+01  0.40000000000E+01  0.51109989000E-03 0.  1.
     -623   -1    0    0    0    0  0.00000000000E+00  0.00000000000E+00  0.12525980253E-10  0.17130000000E+03  0.17130000000E+03 0. -1.
       11    1    1    2    0    0 -0.13231528426E-02  0.42216584619E-02  0.14388437841E-01  0.15061922139E-01  0.51109989000E-03 0.  1.
     -623    1    1    2    0    0  0.25834479511E-02 -0.34755284078E-02  0.87453879051E-03  0.17130000006E+03  0.17130000000E+03 0. -1.
      622    1    1    2    0    0 -0.12602951085E-02 -0.74613005409E-03  0.39847369907E+01  0.39849380209E+01  0.40000000000E-01 0.  1.
</event>
<event>
 5   0  0.6200596E+07  0.9118800E+02  0.7818608E-02  0.1180000E+00
       11   -1    0    0    0    0  0.00000000000E+00  0.00000000000E+00  0.39999999673E+01  0.40000000000E+01  0.51109989000E-03 0. -1.
     -623   -1    0    0    0    0  0.00000000000E+00  0.00000000000E+00  0.12525980253E-10  0.17130000000E+03  0.17130000000E+03 0.  1.
       11    1    1    2    0    0 -0.28752578672E-01 -0.10272688591E-01  0.49436771876E+00  0.49530994487E+00  0.51109989000E-03 0. -1.
     -623    1    1    2    0    0  0.27286229600E-02 -0.43727390925E-02  0.12977797263E-02  0.17130000008E+03  0.17130000000E+03 0.  1.
      622    1    1    2    0    0  0.26023955712E-01  0.14645427683E-01  0.35043344689E+01  0.35046899727E+01  0.40000000000E-01 0. -1.
</event>
<event>
 5   0  0.6200596E+07  0.9118800E+02  0.7818608E-02  0.1180000E+00
       11   -1    0    0    0    0  0.00000000000E+00  0.00000000000E+00  0.39999999673E+01  0.40000000000E+01  0.51109989000E-03 0.  1.
     -623   -1    0    0    0    0  0.00000000000E+00  0.00000000000E+00  0.12525980253E-10  0.17130000000E+03  0.17130000000E+03 0.  1.
       11    1    1    2    0    0  0.11539971059E-01  0.14713039089E-01  0.21872036894E+00  0.21951880435E+00  0.51109989000E-03 0.  1.
     -623    1    1    2    0    0 -0.14300306702E-01 -0.94986142432E-02  0.10154894055E-02  0.17130000086E+03  0.17130000000E+03 0.  1.
      622    1    1    2    0    0  0.27603356431E-02 -0.52144248456E-02  0.37802641090E+01  0.37804803324E+01  0.40000000000E-01 0.  1.
</event>
<event>
 5   0  0.6200596E+07  0.9118800E+02  0.7818608E-02  0.1180000E+00
       11   -1    0    0    0    0  0.00000000000E+00  0.00000000000E+00  0.39999999673E+01  0.40000000000E+01  0.51109989000E-03 0.  1.
     -623   -1    0    0    0    0  0.00000000000E+00  0.00000000000E+00  0.12525980253E-10  0.17130000000E+03  0.17130000000E+03 0.  1.
       11    1    1    2    0    0 -0.20608398353E-02 -0.51810592429E-03  0.14601681603E-01  0.14764342893E-01  0.51109989000E-03 0.  1.
     -623    1    1    2    0    0 -0.10799305895E-02 -0.18546377605E-02  0.36533255931E-03  0.17130000001E+03  0.17130000000E+03 0.  1.
      622    1    1    2    0    0  0.31407704248E-02  0.23727436848E-02  0.39850329532E+01  0.39852356433E+01  0.40000000000E-01 0.  1.
</event>
<event>
 5   0  0.6200596E+07  0.9118800E+02  0.7818608E-02  0.1180000E+00
       11   -1    0    0    0    0  0.00000000000E+00  0.00000000000E+00  0.39999999673E+01  0.40000000000E+01  0.51109989000E-03 0. -1.
     -623   -1    0    0    0    0  0.00000000000E+00  0.00000000000E+00  0.12525980253E-10  0.17130000000E+03  0.17130000000E+03 0. -1.
       11    1    1    2    0    0  0.55602464646E-02  0.39220194462E-02  0.84443718157E-01  0.84718954992E-01  0.51109989000E-03 0. -1.
     -623    1    1    2    0    0  0.50539704908E-02 -0.57889688987E-02  0.49454356756E-03  0.17130000017E+03  0.17130000000E+03 0. -1.
      622    1    1    2    0    0 -0.10614216955E-01  0.18669494525E-02  0.39150617056E+01  0.39152808719E+01  0.40000000000E-01 0. -1.
</event>
<event>
 5   0  0.6200596E+07  0.9118800E+02  0.7818608E-02  0.1180000E+00
       11   -1    0    0    0    0  0.00000000000E+00  0.00000000000E+00  0.39999999673E+01  0.40000000000E+01  0.51109989000E-03 0.  1.
     -623   -1    0    0    0    0  0.00000000000E+00  0.00000000000E+00  0.12525980253E-10  0.17130000000E+03  0.17130000000E+03 0.  1.
       11    1    1    2    0    0 -0.13120994776E-01  0.40267704284E-02  0.11278032668E+01  0.11278868938E+01  0.51109989000E-03 0.  1.
     -623    1    1    2    0    0  0.60738755789E-02  0.92370352052E-02  0.40178230127E-03  0.17130000036E+03  0.17130000000E+03 0.  1.
      622    1    1    2    0    0  0.70471191968E-02 -0.13263805634E-01  0.28717949183E+01  0.28721127490E+01  0.40000000000E-01 0.  1.
</event>
<event>
 5   0  0.6200596E+07  0.9118800E+02  0.7818608E-02  0.1180000E+00
       11   -1    0    0    0    0  0.00000000000E+00  0.00000000000E+00  0.39999999673E+01  0.40000000000E+01  0.51109989000E-03 0. -1.
     -623   -1    0    0    0    0  0.00000000000E+00  0.00000000000E+00  0.12525980253E-10  0.17130000000E+03  0.17130000000E+03 0.  1.
       11    1    1    2    0    0  0.25857981174E-02  0.58506992412E-03  0.99165374298E-02  0.10277528597E-01  0.51109989000E-03 0. -1.
     -623    1    1    2    0    0  0.29159646099E-02 -0.20948167929E-02  0.56559660827E-03  0.17130000004E+03  0.17130000000E+03 0.  1.
      622    1    1    2    0    0 -0.55017627273E-02  0.15097468688E-02  0.39895178333E+01  0.39897224328E+01  0.40000000000E-01 0. -1.
</event>
<event>
 5   0  0.6200596E+07  0.9118800E+02  0.7818608E-02  0.1180000E+00
       11   -1    0    0    0    0  0.00000000000E+00  0.00000000000E+00  0.39999999673E+01  0.40000000000E+01  0.51109989000E-03 0.  1.
     -623   -1    0    0    0    0  0.00000000000E+00  0.00000000000E+00  0.12525980253E-10  0.17130000000E+03  0.17130000000E+03 0.  1.
       11    1    1    2    0    0  0.19637744824E-01  0.66347465904E-02  0.97291114076E-01  0.99476042253E-01  0.51109989000E-03 0.  1.
     -623    1    1    2    0    0 -0.20879899110E-01  0.61184546262E-02  0.24124484136E-02  0.17130000140E+03  0.17130000000E+03 0.  1.
      622    1    1    2    0    0  0.12421542854E-02 -0.12753201217E-01  0.39002964049E+01  0.39005225590E+01  0.40000000000E-01 0.  1.
</event>
<event>
 5   0  0.6200596E+07  0.9118800E+02  0.7818608E-02  0.1180000E+00
       11   -1    0    0    0    0  0.00000000000E+00  0.00000000000E+00  0.39999999673E+01  0.40000000000E+01  0.51109989000E-03 0. -1.
     -623   -1    0    0    0    0  0.00000000000E+00  0.00000000000E+00  0.12525980253E-10  0.17130000000E+03  0.17130000000E+03 0.  1.
       11    1    1    2    0    0  0.93341281055E-04  0.18674169658E-03  0.81906307123E-02  0.82092167238E-02  0.51109989000E-03 0. -1.
     -623    1    1    2    0    0  0.62896745358E-03  0.38954718594E-04  0.21904274122E-03  0.17130000000E+03  0.17130000000E+03 0.  1.
      622    1    1    2    0    0 -0.72230873463E-03 -0.22569641517E-03  0.39915902939E+01  0.39917907820E+01  0.40000000000E-01 0. -1.
</event>
<event>
 5   0  0.6200596E+07  0.9118800E+02  0.7818608E-02  0.1180000E+00
       11   -1    0    0    0    0  0.00000000000E+00  0.00000000000E+00  0.39999999673E+01  0.40000000000E+01  0.51109989000E-03 0. -1.
     -623   -1    0    0    0    0  0.00000000000E+00  0.00000000000E+00  0.12525980253E-10  0.17130000000E+03  0.17130000000E+03 0.  1.
       11    1    1    2    0    0 -0.88279121608E-02 -0.15693068982E-01  0.46727833815E+00  0.46762539599E+00  0.51109989000E-03 0. -1.
     -623    1    1    2    0    0 -0.82967157530E-03  0.37370918614E-03  0.61993668182E-03  0.17130000000E+03  0.17130000000E+03 0.  1.
      622    1    1    2    0    0  0.96575837361E-02  0.15319359796E-01  0.35321016925E+01  0.35323746005E+01  0.40000000000E-01 0. -1.
</event>
<event>
 5   0  0.6200596E+07  0.9118800E+02  0.7818608E-02  0.1180000E+00
       11   -1    0    0    0    0  0.00000000000E+00  0.00000000000E+00  0.39999999673E+01  0.40000000000E+01  0.51109989000E-03 0.  1.
     -623   -1    0    0    0    0  0.00000000000E+00  0.00000000000E+00  0.12525980253E-10  0.17130000000E+03  0.17130000000E+03 0.  1.
       11    1    1    2    0    0 -0.12139218826E-02  0.88941744245E-02  0.30720356833E+00  0.30733511606E+00  0.51109989000E-03 0.  1.
     -623    1    1    2    0    0 -0.35470077212E-02 -0.69934633694E-02  0.35190550350E-03  0.17130000018E+03  0.17130000000E+03 0.  1.
      622    1    1    2    0    0  0.47609296038E-02 -0.19007110551E-02  0.36924444935E+01  0.36926647041E+01  0.40000000000E-01 0.  1.
</event>
<event>
 5   0  0.6200596E+07  0.9118800E+02  0.7818608E-02  0.1180000E+00
       11   -1    0    0    0    0  0.00000000000E+00  0.00000000000E+00  0.39999999673E+01  0.40000000000E+01  0.51109989000E-03 0. -1.
     -623   -1    0    0    0    0  0.00000000000E+00  0.00000000000E+00  0.12525980253E-10  0.17130000000E+03  0.17130000000E+03 0.  1.
       11    1    1    2    0    0  0.26895999313E-01 -0.14361851024E-02  0.23689949680E+01  0.23691481331E+01  0.51109989000E-03 0. -1.
     -623    1    1    2    0    0 -0.82786368238E-03  0.36753558424E-02  0.85374631582E-03  0.17130000004E+03  0.17130000000E+03 0.  1.
      622    1    1    2    0    0 -0.26068135631E-01 -0.22391707401E-02  0.16301512531E+01  0.16308518233E+01  0.40000000000E-01 0.  1.
</event>
<event>
 5   0  0.6200596E+07  0.9118800E+02  0.7818608E-02  0.1180000E+00
       11   -1    0    0    0    0  0.00000000000E+00  0.00000000000E+00  0.39999999673E+01  0.40000000000E+01  0.51109989000E-03 0. -1.
     -623   -1    0    0    0    0  0.00000000000E+00  0.00000000000E+00  0.12525980253E-10  0.17130000000E+03  0.17130000000E+03 0. -1.
       11    1    1    2    0    0  0.13982634176E-02  0.11507227140E-02  0.12335906981E-01  0.12478586749E-01  0.51109989000E-03 0. -1.
     -623    1    1    2    0    0  0.50196518472E-04 -0.22461670418E-03  0.34364919555E-03  0.17130000000E+03  0.17130000000E+03 0. -1.
      622    1    1    2    0    0 -0.14484599360E-02 -0.92610600980E-03  0.39873204112E+01  0.39875214128E+01  0.40000000000E-01 0. -1.
</event>
<event>
 5   0  0.6200596E+07  0.9118800E+02  0.7818608E-02  0.1180000E+00
       11   -1    0    0    0    0  0.00000000000E+00  0.00000000000E+00  0.39999999673E+01  0.40000000000E+01  0.51109989000E-03 0. -1.
     -623   -1    0    0    0    0  0.00000000000E+00  0.00000000000E+00  0.12525980253E-10  0.17130000000E+03  0.17130000000E+03 0. -1.
       11    1    1    2    0    0  0.39257684989E-02 -0.12534411761E-02  0.34413421750E+00  0.34415927076E+00  0.51109989000E-03 0. -1.
     -623    1    1    2    0    0 -0.18274384733E-03  0.45908324599E-03  0.24585853489E-03  0.17130000000E+03  0.17130000000E+03 0. -1.
      622    1    1    2    0    0 -0.37430246516E-02  0.79435793012E-03  0.36556198913E+01  0.36558407284E+01  0.40000000000E-01 0. -1.
</event>
<event>
 5   0  0.6200596E+07  0.9118800E+02  0.7818608E-02  0.1180000E+00
       11   -1    0    0    0    0  0.00000000000E+00  0.00000000000E+00  0.39999999673E+01  0.40000000000E+01  0.51109989000E-03 0. -1.
     -623   -1    0    0    0    0  0.00000000000E+00  0.00000000000E+00  0.12525980253E-10  0.17130000000E+03  0.17130000000E+03 0.  1.
       11    1    1    2    0    0 -0.30752925246E-01 -0.62082882963E-02  0.23098106837E+00  0.23310255345E+00  0.51109989000E-03 0. -1.
     -623    1    1    2    0    0 -0.23142404239E-01  0.67197559552E-02  0.27211848272E-02  0.17130000172E+03  0.17130000000E+03 0.  1.
      622    1    1    2    0    0  0.53895329485E-01 -0.51146765891E-03  0.37662977142E+01  0.37668957299E+01  0.40000000000E-01 0. -1.
</event>
<event>
 5   0  0.6200596E+07  0.9118800E+02  0.7818608E-02  0.1180000E+00
       11   -1    0    0    0    0  0.00000000000E+00  0.00000000000E+00  0.39999999673E+01  0.40000000000E+01  0.51109989000E-03 0.  1.
     -623   -1    0    0    0    0  0.00000000000E+00  0.00000000000E+00  0.12525980253E-10  0.17130000000E+03  0.17130000000E+03 0. -1.
       11    1    1    2    0    0  0.12768109936E-01  0.10829870835E-01  0.14320366241E+01  0.14321345833E+01  0.51109989000E-03 0.  1.
     -623    1    1    2    0    0  0.48566435468E-02 -0.14814529730E-02  0.48707592409E-03  0.17130000008E+03  0.17130000000E+03 0. -1.
      622    1    1    2    0    0 -0.17624753483E-01 -0.93484178617E-02  0.25674762673E+01  0.25678653407E+01  0.40000000000E-01 0.  1.
</event>
<event>
 5   0  0.6200596E+07  0.9118800E+02  0.7818608E-02  0.1180000E+00
       11   -1    0    0    0    0  0.00000000000E+00  0.00000000000E+00  0.39999999673E+01  0.40000000000E+01  0.51109989000E-03 0.  1.
     -623   -1    0    0    0    0  0.00000000000E+00  0.00000000000E+00  0.12525980253E-10  0.17130000000E+03  0.17130000000E+03 0.  1.
       11    1    1    2    0    0 -0.84032790295E-02  0.46712773300E-02  0.52868173009E-01  0.53737704338E-01  0.51109989000E-03 0.  1.
     -623    1    1    2    0    0  0.98650209801E-02  0.12152204626E-02  0.10771804458E-02  0.17130000029E+03  0.17130000000E+03 0.  1.
      622    1    1    2    0    0 -0.14617419505E-02 -0.58864977926E-02  0.39460546139E+01  0.39462620039E+01  0.40000000000E-01 0.  1.
</event>
<event>
 5   0  0.6200596E+07  0.9118800E+02  0.7818608E-02  0.1180000E+00
       11   -1    0    0    0    0  0.00000000000E+00  0.00000000000E+00  0.39999999673E+01  0.40000000000E+01  0.51109989000E-03 0.  1.
     -623   -1    0    0    0    0  0.00000000000E+00  0.00000000000E+00  0.12525980253E-10  0.17130000000E+03  0.17130000000E+03 0.  1.
       11    1    1    2    0    0  0.15028125116E-02 -0.29189200702E-02  0.12828283026E-01  0.13251588852E-01  0.51109989000E-03 0.  1.
     -623    1    1    2    0    0 -0.17927335795E-02  0.90265698797E-03  0.62447633813E-03  0.17130000001E+03  0.17130000000E+03 0.  1.
      622    1    1    2    0    0  0.28992106797E-03  0.20162630822E-02  0.39865472080E+01  0.39867483983E+01  0.40000000000E-01 0.  1.
</event>
<event>
 5   0  0.6200596E+07  0.9118800E+02  0.7818608E-02  0.1180000E+00
       11   -1    0    0    0    0  0.00000000000E+00  0.00000000000E+00  0.39999999673E+01  0.40000000000E+01  0.51109989000E-03 0.  1.
     -623   -1    0    0    0    0  0.00000000000E+00  0.00000000000E+00  0.12525980253E-10  0.17130000000E+03  0.17130000000E+03 0.  1.
       11    1    1    2    0    0  0.32285234631E-02  0.19851246209E-02  0.11345342517E+00  0.11351786197E+00  0.51109989000E-03 0.  1.
     -623    1    1    2    0    0 -0.57598764085E-02  0.16106258676E-02  0.27284380284E-03  0.17130000010E+03  0.17130000000E+03 0.  1.
      622    1    1    2    0    0  0.25313529454E-02 -0.35957504885E-02  0.38862736984E+01  0.38864820334E+01  0.40000000000E-01 0.  1.
</event>
<event>
 5   0  0.6200596E+07  0.9118800E+02  0.7818608E-02  0.1180000E+00
       11   -1    0    0    0    0  0.00000000000E+00  0.00000000000E+00  0.39999999673E+01  0.40000000000E+01  0.51109989000E-03 0. -1.
     -623   -1    0    0    0    0  0.00000000000E+00  0.00000000000E+00  0.12525980253E-10  0.17130000000E+03  0.17130000000E+03 0. -1.
       11    1    1    2    0    0  0.86700277619E-02 -0.11770106132E-02  0.47537720886E-01  0.48338916665E-01  0.51109989000E-03 0. -1.
     -623    1    1    2    0    0 -0.26338749180E-02 -0.79620025372E-02  0.10190019804E-02  0.17130000021E+03  0.17130000000E+03 0. -1.
      622    1    1    2    0    0 -0.60361528439E-02  0.91390131504E-02  0.39514432445E+01  0.39516608750E+01  0.40000000000E-01 0. -1.
</event>
<event>
 5   0  0.6200596E+07  0.9118800E+02  0.7818608E-02  0.1180000E+00
       11   -1    0    0    0    0  0.00000000000E+00  0.00000000000E+00  0.39999999673E+01  0.40000000000E+01  0.51109989000E-03 0.  1.
     -623   -1    0    0    0    0  0.00000000000E+00  0.00000000000E+00  0.12525980253E-10  0.17130000000E+03  0.17130000000E+03 0. -1.
       11    1    1    2    0    0  0.24830216832E-03 -0.10400213092E-01  0.18838274959E+00  0.18867047371E+00  0.51109989000E-03 0.  1.
     -623    1    1    2    0    0  0.15196841981E-02  0.84443928261E-04  0.51197654376E-03  0.17130000001E+03  0.17130000000E+03 0. -1.
      622    1    1    2    0    0 -0.17679863664E-02  0.10315769163E-01  0.38111052412E+01  0.38113295188E+01  0.40000000000E-01 0.  1.
</event>
<event>
 5   0  0.6200596E+07  0.9118800E+02  0.7818608E-02  0.1180000E+00
       11   -1    0    0    0    0  0.00000000000E+00  0.00000000000E+00  0.39999999673E+01  0.40000000000E+01  0.51109989000E-03 0.  1.
     -623   -1    0    0    0    0  0.00000000000E+00  0.00000000000E+00  0.12525980253E-10  0.17130000000E+03  0.17130000000E+03 0.  1.
       11    1    1    2    0    0  0.83526896419E-03  0.20583348068E-01  0.17585499762E+00  0.17705822009E+00  0.51109989000E-03 0.  1.
     -623    1    1    2    0    0  0.12094874396E-01 -0.31842653054E-01  0.14543006580E-02  0.17130000339E+03  0.17130000000E+03 0.  1.
      622    1    1    2    0    0 -0.12930143361E-01  0.11259304986E-01  0.38226906691E+01  0.38229383872E+01  0.40000000000E-01 0.  1.
</event>
<event>
 5   0  0.6200596E+07  0.9118800E+02  0.7818608E-02  0.1180000E+00
       11   -1    0    0    0    0  0.00000000000E+00  0.00000000000E+00  0.39999999673E+01  0.40000000000E+01  0.51109989000E-03 0. -1.
     -623   -1    0    0    0    0  0.00000000000E+00  0.00000000000E+00  0.12525980253E-10  0.17130000000E+03  0.17130000000E+03 0.  1.
       11    1    1    2    0    0 -0.15003867227E-01 -0.38999557087E-02  0.88415003126E+00  0.88428607627E+00  0.51109989000E-03 0. -1.
     -623    1    1    2    0    0  0.11006861382E-01  0.55648943538E-02  0.39623932366E-03  0.17130000044E+03  0.17130000000E+03 0.  1.
      622    1    1    2    0    0  0.39970058455E-02 -0.16649386451E-02  0.31154536968E+01  0.31157134793E+01  0.40000000000E-01 0.  0.
</event>
<event>
 5   0  0.6200596E+07  0.9118800E+02  0.7818608E-02  0.1180000E+00
       11   -1    0    0    0    0  0.00000000000E+00  0.00000000000E+00  0.39999999673E+01  0.40000000000E+01  0.51109989000E-03 0.  1.
     -623   -1    0    0    0    0  0.00000000000E+00  0.00000000000E+00  0.12525980253E-10  0.17130000000E+03  0.17130000000E+03 0. -1.
       11    1    1    2    0    0  0.26701142109E-01 -0.27838125151E-01  0.32806740427E+01  0.32809008440E+01  0.51109989000E-03 0.  1.
     -623    1    1    2    0    0  0.99186934425E-02  0.14705216104E-01  0.23958264532E-02  0.17130000094E+03  0.17130000000E+03 0. -1.
      622    1    1    2    0    0 -0.36619835552E-01  0.13132909047E-01  0.71693009821E+00  0.71909822095E+00  0.40000000000E-01 0. -1.
</event>
<event>
 5   0  0.6200596E+07  0.9118800E+02  0.7818608E-02  0.1180000E+00
       11   -1    0    0    0    0  0.00000000000E+00  0.00000000000E+00  0.39999999673E+01  0.40000000000E+01  0.51109989000E-03 0. -1.
     -623   -1    0    0    0    0  0.00000000000E+00  0.00000000000E+00  0.12525980253E-10  0.17130000000E+03  0.17130000000E+03 0.  1.
       11    1    1    2    0    0  0.57591752755E-02 -0.67149983001E-03  0.80592961379E+00  0.80595063286E+00  0.51109989000E-03 0. -1.
     -623    1    1    2    0    0 -0.95727268451E-02 -0.26292612772E-02  0.27573235261E-03  0.17130000029E+03  0.17130000000E+03 0.  1.
      622    1    1    2    0    0  0.38135515697E-02  0.33007611072E-02  0.31937946212E+01  0.31940490793E+01  0.40000000000E-01 0. -1.
</event>
<event>
 5   0  0.6200596E+07  0.9118800E+02  0.7818608E-02  0.1180000E+00
       11   -1    0    0    0    0  0.00000000000E+00  0.00000000000E+00  0.39999999673E+01  0.40000000000E+01  0.51109989000E-03 0. -1.
     -623   -1    0    0    0    0  0.00000000000E+00  0.00000000000E+00  0.12525980253E-10  0.17130000000E+03  0.17130000000E+03 0. -1.
       11    1    1    2    0    0  0.59325684983E-02  0.24237906826E-02  0.11073468403E-01  0.12804415390E-01  0.51109989000E-03 0. -1.
     -623    1    1    2    0    0 -0.17767558319E-01 -0.26468199095E-02  0.19500864747E-02  0.17130000095E+03  0.17130000000E+03 0. -1.
      622    1    1    2    0    0  0.11834989820E-01  0.22302922694E-03  0.39869764125E+01  0.39871946316E+01  0.40000000000E-01 0. -1.
</event>
<event>
 5   0  0.6200596E+07  0.9118800E+02  0.7818608E-02  0.1180000E+00
       11   -1    0    0    0    0  0.00000000000E+00  0.00000000000E+00  0.39999999673E+01  0.40000000000E+01  0.51109989000E-03 0. -1.
     -623   -1    0    0    0    0  0.00000000000E+00  0.00000000000E+00  0.12525980253E-10  0.17130000000E+03  0.17130000000E+03 0.  1.
       11    1    1    2    0    0  0.97595393361E-02 -0.27621578908E-01  0.20524158613E+01  0.20526249850E+01  0.51109989000E-03 0. -1.
     -623    1    1    2    0    0 -0.97617769571E-03  0.10137031595E-01  0.71857213040E-03  0.17130000030E+03  0.17130000000E+03 0.  1.
      622    1    1    2    0    0 -0.87833616404E-02  0.17484547313E-01  0.19468655339E+01  0.19473747107E+01  0.40000000000E-01 0.  0.
</event>
<event>
 5   0  0.6200596E+07  0.9118800E+02  0.7818608E-02  0.1180000E+00
       11   -1    0    0    0    0  0.00000000000E+00  0.00000000000E+00  0.39999999673E+01  0.40000000000E+01  0.51109989000E-03 0.  1.
     -623   -1    0    0    0    0  0.00000000000E+00  0.00000000000E+00  0.12525980253E-10  0.17130000000E+03  0.17130000000E+03 0.  1.
       11    1    1    2    0    0  0.48504083354E-02 -0.15717557112E-02  0.19741291855E+00  0.19747941288E+00  0.51109989000E-03 0.  1.
     -623    1    1    2    0    0 -0.40513722668E-02 -0.20959522209E-02  0.27876812184E-03  0.17130000006E+03  0.17130000000E+03 0.  1.
      622    1    1    2    0    0 -0.79903606860E-03  0.36677079321E-02  0.38023082807E+01  0.38025205262E+01  0.40000000000E-01 0.  1.
</event>
<event>
 5   0  0.6200596E+07  0.9118800E+02  0.7818608E-02  0.1180000E+00
       11   -1    0    0    0    0  0.00000000000E+00  0.00000000000E+00  0.39999999673E+01  0.40000000000E+01  0.51109989000E-03 0.  1.
     -623   -1    0    0    0    0  0.00000000000E+00  0.00000000000E+00  0.12525980253E-10  0.17130000000E+03  0.17130000000E+03 0. -1.
       11    1    1    2    0    0 -0.91770211897E-03 -0.43657213342E-03  0.79796200428E-03  0.13895099515E-02  0.51109989000E-03 0.  1.
     -623    1    1    2    0    0 -0.14956660909E-02  0.10968641239E-02  0.79238453921E-03  0.17130000001E+03  0.17130000000E+03 0. -1.
      622    1    1    2    0    0  0.24133682099E-02 -0.66029199050E-03  0.39984096208E+01  0.39986104782E+01  0.40000000000E-01 0.  1.
</event>
<event>
 5   0  0.6200596E+07  0.9118800E+02  0.7818608E-02  0.1180000E+00
       11   -1    0    0    0    0  0.00000000000E+00  0.00000000000E+00  0.39999999673E+01  0.40000000000E+01  0.51109989000E-03 0.  1.
     -623   -1    0    0    0    0  0.00000000000E+00  0.00000000000E+00  0.12525980253E-10  0.17130000000E+03  0.17130000000E+03 0.  1.
       11    1    1    2    0    0 -0.19435551338E-02  0.99479845005E-03  0.46605159351E-01  0.46659073392E-01  0.51109989000E-03 0.  1.
     -623    1    1    2    0    0  0.50414872141E-02  0.31302812516E-02  0.25971617916E-03  0.17130000010E+03  0.17130000000E+03 0.  1.
      622    1    1    2    0    0 -0.30979320803E-02 -0.41250797017E-02  0.39531350918E+01  0.39533408236E+01  0.40000000000E-01 0.  1.
</event>
<event>
 5   0  0.6200596E+07  0.9118800E+02  0.7818608E-02  0.1180000E+00
       11   -1    0    0    0    0  0.00000000000E+00  0.00000000000E+00  0.39999999673E+01  0.40000000000E+01  0.51109989000E-03 0.  1.
     -623   -1    0    0    0    0  0.00000000000E+00  0.00000000000E+00  0.12525980253E-10  0.17130000000E+03  0.17130000000E+03 0.  1.
       11    1    1    2    0    0 -0.20765881381E-02  0.81577393426E-03  0.18504163679E-01  0.18645187067E-01  0.51109989000E-03 0.  1.
     -623    1    1    2    0    0 -0.11609877152E-03 -0.43805458087E-02  0.34418864149E-03  0.17130000006E+03  0.17130000000E+03 0.  1.
      622    1    1    2    0    0  0.21926869097E-02  0.35647718745E-02  0.39811516150E+01  0.39813547565E+01  0.40000000000E-01 0.  1.
</event>
<event>
 5   0  0.6200596E+07  0.9118800E+02  0.7818608E-02  0.1180000E+00
       11   -1    0    0    0    0  0.00000000000E+00  0.00000000000E+00  0.39999999673E+01  0.40000000000E+01  0.51109989000E-03 0.  1.
     -623   -1    0    0    0    0  0.00000000000E+00  0.00000000000E+00  0.12525980253E-10  0.17130000000E+03  0.17130000000E+03 0. -1.
       11    1    1    2    0    0  0.11301107235E-01  0.10572672923E-01  0.38061423874E+00  0.38092907002E+00  0.51109989000E-03 0.  1.
     -623    1    1    2    0    0  0.39168199875E-03  0.10546895790E-02  0.57343097112E-03  0.17130000000E+03  0.17130000000E+03 0. -1.
      622    1    1    2    0    0 -0.11692789234E-01 -0.11627362502E-01  0.36188122977E+01  0.36190709253E+01  0.40000000000E-01 0.  1.
</event>
<event>
 5   0  0.6200596E+07  0.9118800E+02  0.7818608E-02  0.1180000E+00
       11   -1    0    0    0    0  0.00000000000E+00  0.00000000000E+00  0.39999999673E+01  0.40000000000E+01  0.51109989000E-03 0. -1.
     -623   -1    0    0    0    0  0.00000000000E+00  0.00000000000E+00  0.12525980253E-10  0.17130000000E+03  0.17130000000E+03 0.  1.
       11    1    1    2    0    0 -0.16342852782E-02  0.59951914042E-03  0.29907238659E-01  0.29962217153E-01  0.51109989000E-03 0. -1.
     -623    1    1    2    0    0  0.95517100105E-04  0.85604133614E-03  0.25702781235E-03  0.17130000000E+03  0.17130000000E+03 0.  1.
      622    1    1    2    0    0  0.15387681781E-02 -0.14555604766E-02  0.39698357009E+01  0.39700377805E+01  0.40000000000E-01 0. -1.
</event>
<event>
 5   0  0.6200596E+07  0.9118800E+02  0.7818608E-02  0.1180000E+00
       11   -1    0    0    0    0  0.00000000000E+00  0.00000000000E+00  0.39999999673E+01  0.40000000000E+01  0.51109989000E-03 0. -1.
     -623   -1    0    0    0    0  0.00000000000E+00  0.00000000000E+00  0.12525980253E-10  0.17130000000E+03  0.17130000000E+03 0. -1.
       11    1    1    2    0    0  0.21353252779E-02  0.15531184611E-02  0.61795931161E-02  0.67394645111E-02  0.51109989000E-03 0. -1.
     -623    1    1    2    0    0  0.37669399886E-03 -0.11929364793E-02  0.76099397666E-03  0.17130000001E+03  0.17130000000E+03 0. -1.
      622    1    1    2    0    0 -0.25120192768E-02 -0.36018198181E-03  0.39930593803E+01  0.39932605292E+01  0.40000000000E-01 0. -1.
</event>
<event>
 5   0  0.6200596E+07  0.9118800E+02  0.7818608E-02  0.1180000E+00
       11   -1    0    0    0    0  0.00000000000E+00  0.00000000000E+00  0.39999999673E+01  0.40000000000E+01  0.51109989000E-03 0.  1.
     -623   -1    0    0    0    0  0.00000000000E+00  0.00000000000E+00  0.12525980253E-10  0.17130000000E+03  0.17130000000E+03 0. -1.
       11    1    1    2    0    0 -0.17380963496E-02  0.88610991315E-03  0.10155287869E-01  0.10353611143E-01  0.51109989000E-03 0.  1.
     -623    1    1    2    0    0  0.75420987959E-03  0.13213406859E-02  0.39955396005E-03  0.17130000001E+03  0.17130000000E+03 0. -1.
      622    1    1    2    0    0  0.98388646997E-03 -0.22074505990E-02  0.39894451255E+01  0.39896463816E+01  0.40000000000E-01 0.  1.
</event>
<event>
 5   0  0.6200596E+07  0.9118800E+02  0.7818608E-02  0.1180000E+00
       11   -1    0    0    0    0  0.00000000000E+00  0.00000000000E+00  0.39999999673E+01  0.40000000000E+01  0.51109989000E-03 0. -1.
     -623   -1    0    0    0    0  0.00000000000E+00  0.00000000000E+00  0.12525980253E-10  0.17130000000E+03  0.17130000000E+03 0.  1.
       11    1    1    2    0    0 -0.24134052289E-02  0.45033745103E-03  0.15432727153E-01  0.15635140481E-01  0.51109989000E-03 0. -1.
     -623    1    1    2    0    0  0.22203080286E-03  0.10387166472E-02  0.40405525441E-03  0.17130000000E+03  0.17130000000E+03 0.  1.
      622    1    1    2    0    0  0.21913744260E-02 -0.14890540983E-02  0.39841631850E+01  0.39843648557E+01  0.40000000000E-01 0. -1.
</event>
<event>
 5   0  0.6200596E+07  0.9118800E+02  0.7818608E-02  0.1180000E+00
       11   -1    0    0    0    0  0.00000000000E+00  0.00000000000E+00  0.39999999673E+01  0.40000000000E+01  0.51109989000E-03 0. -1.
     -623   -1    0    0    0    0  0.00000000000E+00  0.00000000000E+00  0.12525980253E-10  0.17130000000E+03  0.17130000000E+03 0. -1.
       11    1    1    2    0    0 -0.37076564261E-01 -0.27497609009E-01  0.27345541891E+00  0.27732457062E+00  0.51109989000E-03 0. -1.
     -623    1    1    2    0    0  0.28214354022E-01  0.33533818867E-01  0.41051232721E-02  0.17130000566E+03  0.17130000000E+03 0. -1.
      622    1    1    2    0    0  0.88622102385E-02 -0.60362098578E-02  0.37224394252E+01  0.37226697743E+01  0.40000000000E-01 0. -1.
</event>
<event>
 5   0  0.6200596E+07  0.9118800E+02  0.7818608E-02  0.1180000E+00
       11   -1    0    0    0    0  0.00000000000E+00  0.00000000000E+00  0.39999999673E+01  0.40000000000E+01  0.51109989000E-03 0.  1.
     -623   -1    0    0    0    0  0.00000000000E+00  0.00000000000E+00  0.12525980253E-10  0.17130000000E+03  0.17130000000E+03 0.  1.
       11    1    1    2    0    0 -0.69016255557E-02  0.12454682593E-01  0.18195426454E+01  0.18195984313E+01  0.51109989000E-03 0.  1.
     -623    1    1    2    0    0 -0.38583569677E-02 -0.18408288167E-02  0.47513529870E-03  0.17130000005E+03  0.17130000000E+03 0.  1.
      622    1    1    2    0    0  0.10759982523E-01 -0.10613853777E-01  0.21799821866E+01  0.21804015147E+01  0.40000000000E-01 0.  1.
</event>
<event>
 5   0  0.6200596E+07  0.9118800E+02  0.7818608E-02  0.1180000E+00
       11   -1    0    0    0    0  0.00000000000E+00  0.00000000000E+00  0.39999999673E+01  0.40000000000E+01  0.51109989000E-03 0.  1.
     -623   -1    0    0    0    0  0.00000000000E+00  0.00000000000E+00  0.12525980253E-10  0.17130000000E+03  0.17130000000E+03 0. -1.
       11    1    1    2    0    0  0.48666897876E-01  0.16097092243E-01  0.18648923607E+01  0.18655967843E+01  0.51109989000E-03 0.  1.
     -623    1    1    2    0    0  0.16152410559E-02 -0.14019705806E-02  0.17223265979E-02  0.17130000002E+03  0.17130000000E+03 0. -1.
      622    1    1    2    0    0 -0.50282138932E-01 -0.14695121663E-01  0.21333852801E+01  0.21344031937E+01  0.40000000000E-01 0.  1.
</event>
<event>
 5   0  0.6200596E+07  0.9118800E+02  0.7818608E-02  0.1180000E+00
       11   -1    0    0    0    0  0.00000000000E+00  0.00000000000E+00  0.39999999673E+01  0.40000000000E+01  0.51109989000E-03 0.  1.
     -623   -1    0    0    0    0  0.00000000000E+00  0.00000000000E+00  0.12525980253E-10  0.17130000000E+03  0.17130000000E+03 0.  1.
       11    1    1    2    0    0 -0.16021693371E-01 -0.47443738427E-02  0.77649366555E-01  0.79428515601E-01  0.51109989000E-03 0.  1.
     -623    1    1    2    0    0  0.22924695305E-01  0.12198407488E-01  0.19983175209E-02  0.17130000198E+03  0.17130000000E+03 0.  1.
      622    1    1    2    0    0 -0.69030019342E-02 -0.74540336456E-02  0.39203522833E+01  0.39205695044E+01  0.40000000000E-01 0.  1.
</event>
<event>
 5   0  0.6200596E+07  0.9118800E+02  0.7818608E-02  0.1180000E+00
       11   -1    0    0    0    0  0.00000000000E+00  0.00000000000E+00  0.39999999673E+01  0.40000000000E+01  0.51109989000E-03 0. -1.
     -623   -1    0    0    0    0  0.00000000000E+00  0.00000000000E+00  0.12525980253E-10  0.17130000000E+03  0.17130000000E+03 0. -1.
       11    1    1    2    0    0  0.11062070836E-02  0.15092372800E-03  0.72977620060E-02  0.74003393815E-02  0.51109989000E-03 0. -1.
     -623    1    1    2    0    0 -0.15029265495E-03 -0.36416673103E-03  0.30304132156E-03  0.17130000000E+03  0.17130000000E+03 0. -1.
      622    1    1    2    0    0 -0.95591442864E-03  0.21324300303E-03  0.39923991640E+01  0.39925996599E+01  0.40000000000E-01 0. -1.
</event>
<event>
 5   0  0.6200596E+07  0.9118800E+02  0.7818608E-02  0.1180000E+00
       11   -1    0    0    0    0  0.00000000000E+00  0.00000000000E+00  0.39999999673E+01  0.40000000000E+01  0.51109989000E-03 0. -1.
     -623   -1    0    0    0    0  0.00000000000E+00  0.00000000000E+00  0.12525980253E-10  0.17130000000E+03  0.17130000000E+03 0. -1.
       11    1    1    2    0    0  0.31674640195E-03 -0.35891205453E-03  0.17522053275E-02  0.18869527146E-02  0.51109989000E-03 0. -1.
     -623    1    1    2    0    0 -0.80911060465E-03 -0.84763179229E-03  0.33503086455E-03  0.17130000000E+03  0.17130000000E+03 0. -1.
      622    1    1    2    0    0  0.49236420270E-03  0.12065438468E-02  0.39979127312E+01  0.39981130429E+01  0.40000000000E-01 0. -1.
</event>
<event>
 5   0  0.6200596E+07  0.9118800E+02  0.7818608E-02  0.1180000E+00
       11   -1    0    0    0    0  0.00000000000E+00  0.00000000000E+00  0.39999999673E+01  0.40000000000E+01  0.51109989000E-03 0.  1.
     -623   -1    0    0    0    0  0.00000000000E+00  0.00000000000E+00  0.12525980253E-10  0.17130000000E+03  0.17130000000E+03 0. -1.
       11    1    1    2    0    0  0.15650656602E-01  0.33504545868E-02  0.31479169943E+00  0.31519873708E+00  0.51109989000E-03 0.  1.
     -623    1    1    2    0    0  0.39534807903E-02 -0.20175450059E-02  0.67657247414E-03  0.17130000006E+03  0.17130000000E+03 0. -1.
      622    1    1    2    0    0 -0.19604137393E-01 -0.13329095809E-02  0.36845316955E+01  0.36848012041E+01  0.40000000000E-01 0.  1.
</event>
<event>
 5   0  0.6200596E+07  0.9118800E+02  0.7818608E-02  0.1180000E+00
       11   -1    0    0    0    0  0.00000000000E+00  0.00000000000E+00  0.39999999673E+01  0.40000000000E+01  0.51109989000E-03 0.  1.
     -623   -1    0    0    0    0  0.00000000000E+00  0.00000000000E+00  0.12525980253E-10  0.17130000000E+03  0.17130000000E+03 0. -1.
       11    1    1    2    0    0  0.35373051174E-02  0.59363597536E-02  0.31297556542E-01  0.32055438869E-01  0.51109989000E-03 0.  1.
     -623    1    1    2    0    0 -0.19677985879E-02  0.28767998251E-04  0.96427897852E-03  0.17130000001E+03  0.17130000000E+03 0. -1.
      622    1    1    2    0    0 -0.15695065295E-02 -0.59651277519E-02  0.39677381318E+01  0.39679445471E+01  0.40000000000E-01 0.  1.
</event>
<event>
 5   0  0.6200596E+07  0.9118800E+02  0.7818608E-02  0.1180000E+00
       11   -1    0    0    0    0  0.00000000000E+00  0.00000000000E+00  0.39999999673E+01  0.40000000000E+01  0.51109989000E-03 0.  1.
     -623   -1    0    0    0    0  0.00000000000E+00  0.00000000000E+00  0.12525980253E-10  0.17130000000E+03  0.17130000000E+03 0.  1.
       11    1    1    2    0    0  0.90411148439E-04  0.56014019372E-03  0.67376033454E-02  0.67807411561E-02  0.51109989000E-03 0.  1.
     -623    1    1    2    0    0  0.65044003135E-03 -0.10457866189E-03  0.24354596386E-03  0.17130000000E+03  0.17130000000E+03 0.  1.
      622    1    1    2    0    0 -0.74085117979E-03 -0.45556153183E-03  0.39930188181E+01  0.39932192574E+01  0.40000000000E-01 0.  1.
</event>
<event>
 5   0  0.6200596E+07  0.9118800E+02  0.7818608E-02  0.1180000E+00
       11   -1    0    0    0    0  0.00000000000E+00  0.00000000000E+00  0.39999999673E+01  0.40000000000E+01  0.51109989000E-03 0.  1.
     -623   -1    0    0    0    0  0.00000000000E+00  0.00000000000E+00  0.12525980253E-10  0.17130000000E+03  0.17130000000E+03 0. -1.
       11    1    1    2    0    0 -0.39304471075E-01 -0.83828701603E-02  0.11559035713E+01  0.11566021102E+01  0.51109989000E-03 0.  1.
     -623    1    1    2    0    0  0.10476414092E-01  0.33702461381E-02  0.11308062484E-02  0.17130000036E+03  0.17130000000E+03 0. -1.
      622    1    1    2    0    0  0.28828056983E-01  0.50126240223E-02  0.28429655898E+01  0.28433975325E+01  0.40000000000E-01 0.  1.
</event>
<event>
 5   0  0.6200596E+07  0.9118800E+02  0.7818608E-02  0.1180000E+00
       11   -1    0    0    0    0  0.00000000000E+00  0.00000000000E+00  0.39999999673E+01  0.40000000000E+01  0.51109989000E-03 0. -1.
     -623   -1    0    0    0    0  0.00000000000E+00  0.00000000000E+00  0.12525980253E-10  0.17130000000E+03  0.17130000000E+03 0.  1.
       11    1    1    2    0    0  0.46362907059E-02  0.12968300453E-02  0.29667573529E+00  0.29671523401E+00  0.51109989000E-03 0. -1.
     -623    1    1    2    0    0  0.20336518701E-03 -0.32118984416E-03  0.25878850276E-03  0.17130000000E+03  0.17130000000E+03 0.  1.
      622    1    1    2    0    0 -0.48396558929E-02 -0.97564020115E-03  0.37030654436E+01  0.37032847654E+01  0.40000000000E-01 0. -1.
</event>
<event>
 5   0  0.6200596E+07  0.9118800E+02  0.7818608E-02  0.1180000E+00
       11   -1    0    0    0    0  0.00000000000E+00  0.00000000000E+00  0.39999999673E+01  0.40000000000E+01  0.51109989000E-03 0.  1.
     -623   -1    0    0    0    0  0.00000000000E+00  0.00000000000E+00  0.12525980253E-10  0.17130000000E+03  0.17130000000E+03 0. -1.
       11    1    1    2    0    0 -0.90293564891E-02 -0.41249913166E-02  0.57613731042E+00  0.57622305274E+00  0.51109989000E-03 0.  1.
     -623    1    1    2    0    0  0.10809517755E-01 -0.80026535423E-02  0.34184963105E-03  0.17130000053E+03  0.17130000000E+03 0. -1.
      622    1    1    2    0    0 -0.17801612657E-02  0.12127644859E-01  0.34235208073E+01  0.34237764189E+01  0.40000000000E-01 0.  1.
</event>
<event>
 5   0  0.6200596E+07  0.9118800E+02  0.7818608E-02  0.1180000E+00
       11   -1    0    0    0    0  0.00000000000E+00  0.00000000000E+00  0.39999999673E+01  0.40000000000E+01  0.51109989000E-03 0.  1.
     -623   -1    0    0    0    0  0.00000000000E+00  0.00000000000E+00  0.12525980253E-10  0.17130000000E+03  0.17130000000E+03 0.  1.
       11    1    1    2    0    0  0.22619291741E-02  0.59619645814E-03  0.84703175412E-02  0.88022311805E-02  0.51109989000E-03 0.  1.
     -623    1    1    2    0    0  0.38049286341E-03 -0.91714133200E-03  0.53321849559E-03  0.17130000000E+03  0.17130000000E+03 0.  1.
      622    1    1    2    0    0 -0.26424220376E-02  0.32094487386E-03  0.39909964313E+01  0.39911977651E+01  0.40000000000E-01 0.  1.
</event>
<event>
 5   0  0.6200596E+07  0.9118800E+02  0.7818608E-02  0.1180000E+00
       11   -1    0    0    0    0  0.00000000000E+00  0.00000000000E+00  0.39999999673E+01  0.40000000000E+01  0.51109989000E-03 0.  1.
     -623   -1    0    0    0    0  0.00000000000E+00  0.00000000000E+00  0.12525980253E-10  0.17130000000E+03  0.17130000000E+03 0.  1.
       11    1    1    2    0    0  0.13874120422E-01 -0.57092246341E-02  0.16808191636E+00  0.16875093568E+00  0.51109989000E-03 0.  1.
     -623    1    1    2    0    0  0.16918870087E-02  0.50043375951E-02  0.90957374716E-03  0.17130000008E+03  0.17130000000E+03 0.  1.
      622    1    1    2    0    0 -0.15566007431E-01  0.70488703896E-03  0.38310084772E+01  0.38312489805E+01  0.40000000000E-01 0.  1.
</event>
<event>
 5   0  0.6200596E+07  0.9118800E+02  0.7818608E-02  0.1180000E+00
       11   -1    0    0    0    0  0.00000000000E+00  0.00000000000E+00  0.39999999673E+01  0.40000000000E+01  0.51109989000E-03 0.  1.
     -623   -1    0    0    0    0  0.00000000000E+00  0.00000000000E+00  0.12525980253E-10  0.17130000000E+03  0.17130000000E+03 0.  1.
       11    1    1    2    0    0  0.14255277131E-01 -0.96052702221E-02  0.12864852805E+01  0.12866002147E+01  0.51109989000E-03 0.  1.
     -623    1    1    2    0    0 -0.59965936238E-02  0.39875707952E-03  0.43804689643E-03  0.17130000011E+03  0.17130000000E+03 0.  1.
      622    1    1    2    0    0 -0.82586835068E-02  0.92065131426E-02  0.27130766399E+01  0.27133996793E+01  0.40000000000E-01 0.  1.
</event>
<event>
 5   0  0.6200596E+07  0.9118800E+02  0.7818608E-02  0.1180000E+00
       11   -1    0    0    0    0  0.00000000000E+00  0.00000000000E+00  0.39999999673E+01  0.40000000000E+01  0.51109989000E-03 0.  1.
     -623   -1    0    0    0    0  0.00000000000E+00  0.00000000000E+00  0.12525980253E-10  0.17130000000E+03  0.17130000000E+03 0. -1.
       11    1    1    2    0    0 -0.30829768325E-01  0.22143162196E-01  0.29939277749E+01  0.29941684282E+01  0.51109989000E-03 0.  1.
     -623    1    1    2    0    0  0.54095900983E-02  0.21830094263E-02  0.16524660617E-02  0.17130000011E+03  0.17130000000E+03 0. -1.
      622    1    1    2    0    0  0.25420178227E-01 -0.24326171623E-01  0.10044197264E+01  0.10058314645E+01  0.40000000000E-01 0. -1.
</event>
<event>
 5   0  0.6200596E+07  0.9118800E+02  0.7818608E-02  0.1180000E+00
       11   -1    0    0    0    0  0.00000000000E+00  0.00000000000E+00  0.39999999673E+01  0.40000000000E+01  0.51109989000E-03 0.  1.
     -623   -1    0    0    0    0  0.00000000000E+00  0.00000000000E+00  0.12525980253E-10  0.17130000000E+03  0.17130000000E+03 0. -1.
       11    1    1    2    0    0  0.43552502306E-02  0.36255748998E-02  0.86351466145E-01  0.86538719220E-01  0.51109989000E-03 0.  1.
     -623    1    1    2    0    0 -0.18034215761E-02  0.12264288332E-02  0.39550272915E-03  0.17130000001E+03  0.17130000000E+03 0. -1.
      622    1    1    2    0    0 -0.25518286545E-02 -0.48520037331E-02  0.39132529985E+01  0.39134612664E+01  0.40000000000E-01 0.  1.
</event>
<event>
 5   0  0.6200596E+07  0.9118800E+02  0.7818608E-02  0.1180000E+00
       11   -1    0    0    0    0  0.00000000000E+00  0.00000000000E+00  0.39999999673E+01  0.40000000000E+01  0.51109989000E-03 0. -1.
     -623   -1    0    0    0    0  0.00000000000E+00  0.00000000000E+00  0.12525980253E-10  0.17130000000E+03  0.17130000000E+03 0.  1.
       11    1    1    2    0    0  0.42924167254E-02 -0.16130586409E-01  0.11194164357E+01  0.11195409945E+01  0.51109989000E-03 0. -1.
     -623    1    1    2    0    0  0.87488480607E-03 -0.53919793816E-03  0.45515286661E-03  0.17130000000E+03  0.17130000000E+03 0.  1.
      622    1    1    2    0    0 -0.51673015314E-02  0.16669784347E-01  0.28801283788E+01  0.28804590018E+01  0.40000000000E-01 0.  0.
</event>
<event>
 5   0  0.6200596E+07  0.9118800E+02  0.7818608E-02  0.1180000E+00
       11   -1    0    0    0    0  0.00000000000E+00  0.00000000000E+00  0.39999999673E+01  0.40000000000E+01  0.51109989000E-03 0. -1.
     -623   -1    0    0    0    0  0.00000000000E+00  0.00000000000E+00  0.12525980253E-10  0.17130000000E+03  0.17130000000E+03 0. -1.
       11    1    1    2    0    0  0.46633261065E-02 -0.14108687234E-02  0.41670493429E+00  0.41673372871E+00  0.51109989000E-03 0. -1.
     -623    1    1    2    0    0 -0.14612100708E-01  0.22032607916E-02  0.26656602538E-03  0.17130000064E+03  0.17130000000E+03 0. -1.
      622    1    1    2    0    0  0.99487746016E-02 -0.79239206822E-03  0.35830284670E+01  0.35832656337E+01  0.40000000000E-01 0. -1.
</event>
<event>
 5   0  0.6200596E+07  0.9118800E+02  0.7818608E-02  0.1180000E+00
       11   -1    0    0    0    0  0.00000000000E+00  0.00000000000E+00  0.39999999673E+01  0.40000000000E+01  0.51109989000E-03 0. -1.
     -623   -1    0    0    0    0  0.00000000000E+00  0.00000000000E+00  0.12525980253E-10  0.17130000000E+03  0.17130000000E+03 0. -1.
       11    1    1    2    0    0  0.38260426298E-02 -0.18864680835E-02  0.39303949327E+00  0.39306297441E+00  0.51109989000E-03 0. -1.
     -623    1    1    2    0    0 -0.69766600764E-02 -0.40716828279E-02  0.25173823595E-03  0.17130000019E+03  0.17130000000E+03 0. -1.
      622    1    1    2    0    0  0.31506174466E-02  0.59581509114E-02  0.36067087359E+01  0.36069368349E+01  0.40000000000E-01 0. -1.
</event>
<event>
 5   0  0.6200596E+07  0.9118800E+02  0.7818608E-02  0.1180000E+00
       11   -1    0    0    0    0  0.00000000000E+00  0.00000000000E+00  0.39999999673E+01  0.40000000000E+01  0.51109989000E-03 0. -1.
     -623   -1    0    0    0    0  0.00000000000E+00  0.00000000000E+00  0.12525980253E-10  0.17130000000E+03  0.17130000000E+03 0. -1.
       11    1    1    2    0    0 -0.66810267471E-04 -0.22625890367E-04  0.77199666351E-02  0.77371882711E-02  0.51109989000E-03 0. -1.
     -623    1    1    2    0    0  0.24873403347E-03 -0.17634615354E-03  0.21759114787E-03  0.17130000000E+03  0.17130000000E+03 0. -1.
      622    1    1    2    0    0 -0.18192376599E-03  0.19897204391E-03  0.39920624096E+01  0.39922628113E+01  0.40000000000E-01 0. -1.
</event>
<event>
 5   0  0.6200596E+07  0.9118800E+02  0.7818608E-02  0.1180000E+00
       11   -1    0    0    0    0  0.00000000000E+00  0.00000000000E+00  0.39999999673E+01  0.40000000000E+01  0.51109989000E-03 0.  1.
     -623   -1    0    0    0    0  0.00000000000E+00  0.00000000000E+00  0.12525980253E-10  0.17130000000E+03  0.17130000000E+03 0. -1.
       11    1    1    2    0    0  0.13459471013E-01  0.75346995877E-02  0.15647403066E+01  0.15648164165E+01  0.51109989000E-03 0.  1.
     -623    1    1    2    0    0 -0.52008639225E-03 -0.19244240068E-02  0.44547419021E-03  0.17130000001E+03  0.17130000000E+03 0. -1.
      622    1    1    2    0    0 -0.12939384620E-01 -0.56102755809E-02  0.24348141865E+01  0.24351835713E+01  0.40000000000E-01 0.  0.
</event>
<event>
 5   0  0.6200596E+07  0.9118800E+02  0.7818608E-02  0.1180000E+00
       11   -1    0    0    0    0  0.00000000000E+00  0.00000000000E+00  0.39999999673E+01  0.40000000000E+01  0.51109989000E-03 0.  1.
     -623   -1    0    0    0    0  0.00000000000E+00  0.00000000000E+00  0.12525980253E-10  0.17130000000E+03  0.17130000000E+03 0. -1.
       11    1    1    2    0    0 -0.85121592220E-02  0.26840284470E-01  0.15768160964E+01  0.15770675701E+01  0.51109989000E-03 0.  1.
     -623    1    1    2    0    0  0.10090265947E-02 -0.67942752537E-02  0.67633818782E-03  0.17130000014E+03  0.17130000000E+03 0. -1.
      622    1    1    2    0    0  0.75031326273E-02 -0.20046009217E-01  0.24225075328E+01  0.24229322909E+01  0.40000000000E-01 0.  0.
</event>
<event>
 5   0  0.6200596E+07  0.9118800E+02  0.7818608E-02  0.1180000E+00
       11   -1    0    0    0    0  0.00000000000E+00  0.00000000000E+00  0.39999999673E+01  0.40000000000E+01  0.51109989000E-03 0. -1.
     -623   -1    0    0    0    0  0.00000000000E+00  0.00000000000E+00  0.12525980253E-10  0.17130000000E+03  0.17130000000E+03 0. -1.
       11    1    1    2    0    0  0.35466431203E-01 -0.21896772542E-01  0.16431576885E+01  0.16436863408E+01  0.51109989000E-03 0. -1.
     -623    1    1    2    0    0  0.61869725713E-02  0.74512962517E-02  0.12809720959E-02  0.17130000028E+03  0.17130000000E+03 0. -1.
      622    1    1    2    0    0 -0.41653403774E-01  0.14445476290E-01  0.23555613068E+01  0.23563133807E+01  0.40000000000E-01 0. -1.
</event>
<event>
 5   0  0.6200596E+07  0.9118800E+02  0.7818608E-02  0.1180000E+00
       11   -1    0    0    0    0  0.00000000000E+00  0.00000000000E+00  0.39999999673E+01  0.40000000000E+01  0.51109989000E-03 0.  1.
     -623   -1    0    0    0    0  0.00000000000E+00  0.00000000000E+00  0.12525980253E-10  0.17130000000E+03  0.17130000000E+03 0.  1.
       11    1    1    2    0    0  0.14887686713E-02  0.68352875333E-02  0.48739891686E+00  0.48744938503E+00  0.51109989000E-03 0.  1.
     -623    1    1    2    0    0  0.33773555265E-02 -0.63407066840E-03  0.28707753955E-03  0.17130000003E+03  0.17130000000E+03 0.  1.
      622    1    1    2    0    0 -0.48661241978E-02 -0.62012168649E-02  0.35123139730E+01  0.35125505803E+01  0.40000000000E-01 0.  1.
</event>
<event>
 5   0  0.6200596E+07  0.9118800E+02  0.7818608E-02  0.1180000E+00
       11   -1    0    0    0    0  0.00000000000E+00  0.00000000000E+00  0.39999999673E+01  0.40000000000E+01  0.51109989000E-03 0.  1.
     -623   -1    0    0    0    0  0.00000000000E+00  0.00000000000E+00  0.12525980253E-10  0.17130000000E+03  0.17130000000E+03 0.  1.
       11    1    1    2    0    0  0.67666649337E-02 -0.70168074698E-02  0.52818953146E-02  0.11098782805E-01  0.51109989000E-03 0.  1.
     -623    1    1    2    0    0 -0.93311101444E-02  0.40684725248E-02  0.60197386652E-02  0.17130000041E+03  0.17130000000E+03 0.  1.
      622    1    1    2    0    0  0.25644452108E-02  0.29483349450E-02  0.39886983334E+01  0.39889008090E+01  0.40000000000E-01 0.  1.
</event>
<event>
 5   0  0.6200596E+07  0.9118800E+02  0.7818608E-02  0.1180000E+00
       11   -1    0    0    0    0  0.00000000000E+00  0.00000000000E+00  0.39999999673E+01  0.40000000000E+01  0.51109989000E-03 0. -1.
     -623   -1    0    0    0    0  0.00000000000E+00  0.00000000000E+00  0.12525980253E-10  0.17130000000E+03  0.17130000000E+03 0.  1.
       11    1    1    2    0    0  0.69698090916E-02 -0.19693067219E-02  0.10729464032E+01  0.10729709697E+01  0.51109989000E-03 0. -1.
     -623    1    1    2    0    0 -0.45473688626E-05 -0.54838672428E-03  0.30723351393E-03  0.17130000000E+03  0.17130000000E+03 0.  1.
      622    1    1    2    0    0 -0.69652617228E-02  0.25176934462E-02  0.29267463306E+01  0.29270290292E+01  0.40000000000E-01 0. -1.
</event>
<event>
 5   0  0.6200596E+07  0.9118800E+02  0.7818608E-02  0.1180000E+00
       11   -1    0    0    0    0  0.00000000000E+00  0.00000000000E+00  0.39999999673E+01  0.40000000000E+01  0.51109989000E-03 0. -1.
     -623   -1    0    0    0    0  0.00000000000E+00  0.00000000000E+00  0.12525980253E-10  0.17130000000E+03  0.17130000000E+03 0.  1.
       11    1    1    2    0    0  0.11249401900E-02  0.26957976753E-02  0.36620069289E+00  0.36621269982E+00  0.51109989000E-03 0. -1.
     -623    1    1    2    0    0  0.19966426564E-02 -0.27670835122E-03  0.23429509779E-03  0.17130000001E+03  0.17130000000E+03 0.  1.
      622    1    1    2    0    0 -0.31215828465E-02 -0.24190893241E-02  0.36335649794E+01  0.36337872882E+01  0.40000000000E-01 0. -1.
</event>
<event>
 5   0  0.6200596E+07  0.9118800E+02  0.7818608E-02  0.1180000E+00
       11   -1    0    0    0    0  0.00000000000E+00  0.00000000000E+00  0.39999999673E+01  0.40000000000E+01  0.51109989000E-03 0.  1.
     -623   -1    0    0    0    0  0.00000000000E+00  0.00000000000E+00  0.12525980253E-10  0.17130000000E+03  0.17130000000E+03 0. -1.
       11    1    1    2    0    0  0.17014240055E-01 -0.56261008012E-02  0.86510173620E+00  0.86528747395E+00  0.51109989000E-03 0.  1.
     -623    1    1    2    0    0 -0.53006621910E-02 -0.21457421108E-01  0.58124813536E-03  0.17130000143E+03  0.17130000000E+03 0. -1.
      622    1    1    2    0    0 -0.11713577864E-01  0.27083521910E-01  0.31343169830E+01  0.31347110992E+01  0.40000000000E-01 0.  0.
</event>
<event>
 5   0  0.6200596E+07  0.9118800E+02  0.7818608E-02  0.1180000E+00
       11   -1    0    0    0    0  0.00000000000E+00  0.00000000000E+00  0.39999999673E+01  0.40000000000E+01  0.51109989000E-03 0. -1.
     -623   -1    0    0    0    0  0.00000000000E+00  0.00000000000E+00  0.12525980253E-10  0.17130000000E+03  0.17130000000E+03 0. -1.
       11    1    1    2    0    0  0.88084288825E-02  0.30055988207E-01  0.10999475260E+01  0.11003934624E+01  0.51109989000E-03 0. -1.
     -623    1    1    2    0    0  0.10124925387E-01 -0.95319511628E-02  0.85684957460E-03  0.17130000057E+03  0.17130000000E+03 0. -1.
      622    1    1    2    0    0 -0.18933354269E-01 -0.20524037044E-01  0.28991955917E+01  0.28996059710E+01  0.40000000000E-01 0. -1.
</event>
<event>
 5   0  0.6200596E+07  0.9118800E+02  0.7818608E-02  0.1180000E+00
       11   -1    0    0    0    0  0.00000000000E+00  0.00000000000E+00  0.39999999673E+01  0.40000000000E+01  0.51109989000E-03 0. -1.
     -623   -1    0    0    0    0  0.00000000000E+00  0.00000000000E+00  0.12525980253E-10  0.17130000000E+03  0.17130000000E+03 0.  1.
       11    1    1    2    0    0 -0.47037766628E-02 -0.36664436777E-03  0.11176826286E+01  0.11176927035E+01  0.51109989000E-03 0. -1.
     -623    1    1    2    0    0  0.38808439552E-02 -0.11542054558E-01  0.31276545348E-03  0.17130000043E+03  0.17130000000E+03 0.  1.
      622    1    1    2    0    0  0.82293270755E-03  0.11908698925E-01  0.28820045733E+01  0.28823068634E+01  0.40000000000E-01 0. -1.
</event>
<event>
 5   0  0.6200596E+07  0.9118800E+02  0.7818608E-02  0.1180000E+00
       11   -1    0    0    0    0  0.00000000000E+00  0.00000000000E+00  0.39999999673E+01  0.40000000000E+01  0.51109989000E-03 0. -1.
     -623   -1    0    0    0    0  0.00000000000E+00  0.00000000000E+00  0.12525980253E-10  0.17130000000E+03  0.17130000000E+03 0. -1.
       11    1    1    2    0    0 -0.33239288737E-03 -0.46025039340E-02  0.28244765759E+00  0.28248581208E+00  0.51109989000E-03 0. -1.
     -623    1    1    2    0    0  0.36646101303E-02  0.38212808414E-02  0.25498326362E-03  0.17130000008E+03  0.17130000000E+03 0. -1.
      622    1    1    2    0    0 -0.33322172430E-02  0.78122309261E-03  0.37172973265E+01  0.37175141059E+01  0.40000000000E-01 0. -1.
</event>
<event>
 5   0  0.6200596E+07  0.9118800E+02  0.7818608E-02  0.1180000E+00
       11   -1    0    0    0    0  0.00000000000E+00  0.00000000000E+00  0.39999999673E+01  0.40000000000E+01  0.51109989000E-03 0.  1.
     -623   -1    0    0    0    0  0.00000000000E+00  0.00000000000E+00  0.12525980253E-10  0.17130000000E+03  0.17130000000E+03 0. -1.
       11    1    1    2    0    0  0.37703361202E-03 -0.19848886303E-03  0.49610692602E-02  0.50054951433E-02  0.51109989000E-03 0.  1.
     -623    1    1    2    0    0  0.22108659238E-04  0.45261027591E-03  0.24467764766E-03  0.17130000000E+03  0.17130000000E+03 0. -1.
      622    1    1    2    0    0 -0.39914227125E-03 -0.25412141289E-03  0.39947942205E+01  0.39949945041E+01  0.40000000000E-01 0.  1.
</event>
<event>
 5   0  0.6200596E+07  0.9118800E+02  0.7818608E-02  0.1180000E+00
       11   -1    0    0    0    0  0.00000000000E+00  0.00000000000E+00  0.39999999673E+01  0.40000000000E+01  0.51109989000E-03 0. -1.
     -623   -1    0    0    0    0  0.00000000000E+00  0.00000000000E+00  0.12525980253E-10  0.17130000000E+03  0.17130000000E+03 0.  1.
       11    1    1    2    0    0 -0.16364829581E-01  0.29891059594E-02  0.58716341456E-01  0.61029602468E-01  0.51109989000E-03 0. -1.
     -623    1    1    2    0    0  0.31772886385E-02  0.15908269556E-01  0.25845303197E-02  0.17130000079E+03  0.17130000000E+03 0.  1.
      622    1    1    2    0    0  0.13187540942E-01 -0.18897375516E-01  0.39386990956E+01  0.39389696099E+01  0.40000000000E-01 0. -1.
</event>
</LesHouchesEvents>
