<LesHouchesEvents version="1.0">
<header>
<!--
#*********************************************************************
#                                                                    *
#                       MadGraph/MadEvent                            *
#                                                                    *
#                      The new web generation                        *
#                                                                    *
#                   http://madgraph.hep.uiuc.edu                     *
#                   http://madgraph.phys.ucl.ac.be                   *
#                   http://madgraph.roma2.infn.it                    *
#                                                                    *
#            CP3 team                      Tim Stelzer               *
#      Universite de Louvain          University of Illinois         *
#                                                                    *
#....................................................................*
#                                                                    *
# This file contains all the information necessary to reproduce      *
# the events generated:                                              *
#                                                                    *
# 1. software version                                                *
# 2. proc_card.dat      : code generation info including model       *
# 3. param_card.dat     : model primary parameters in the LH format  *
# 4. run_card.dat       : running parameters (collider and cuts)     *
# 5. pythia_card.dat    : present only in the pythia event file      *
# 6. pgs_card.dat       : present only in the pgs event file         *
#                                                                    *
#                                                                    *
#*********************************************************************
-->
<MGVersion>
# MG/ME version    : 4.4.17
# madgraph version : 4.4.2
# template version : 2.4.8
# helas version    : 3.5
# model version    : usrmod_1.0.4
</MGVersion>
<MGProcCard>
#*********************************************************************
#                        MadGraph/MadEvent                           *
#                   http://madgraph.hep.uiuc.edu                     *
#                                                                    *
#                          proc_card.dat                             *
#                                                                    *
# This file is used to generate the code for a specific process.     *
# Some notation/conventions:                                         *
#                                                                    *
# 0. Do not modify the TAGS and their order.                         *
# 1. hash/pound is a comment.                                        *
# 2. The number after the @ is used as an identifier for the class   *
#    of processes. It can be any positive integer.                   *
# 3. The number of lines for the max couplings depends on how many   *
#    different classes of couplings are present in the model         *
#    In the SM these are just two: QED (which include EW) and QCD    *
# 4. Write "end_coup" after  the couplings list,                     *
#    to tell MG that the couplings input is over.                    *
# 5. Write "done" after the proc list to                             *
#    to tell MG that the proc input is over.                         *
# 6. Some model names available at present are:                      *
#    sm     =  Standard Model                                        *
#    smckm =  Standard Model with Cabibbo matrix                     *
#    mssm   =  Minimal Supersymmetric Standard Model                 *
#    2hdm   =  Generic Two Higgs Doublet model                       *
#    heft   =  Higgs EFT (+Standard Model)                           *
#    usrmod =  User Model                                            *
# 7. Don't leave spaces between the particles name in the            *
#    definition of the multiparticles.                               *
#*********************************************************************
#*********************************************************************
# Process(es) requested : mg2 input                                  *
#*********************************************************************
# Begin PROCESS # This is TAG. Do not modify this line
e- N+ > e- N+ x      # Radiative
QCD=0             # Max QCD couplings
QED=1             # Max QED couplings
QFD=0 
QND=1
QWD=9
QDS=2
end_coup           # End the couplings input
done               # this tells MG there are no more procs
# End PROCESS  # This is TAG. Do not modify this line
#*********************************************************************
# Model information                                                  *
#*********************************************************************
# Begin MODEL  # This is TAG. Do not modify this line
fixedAP2     
# End   MODEL  # This is TAG. Do not modify this line
#*********************************************************************
# Start multiparticle definitions                                    *
#*********************************************************************
# Begin MULTIPARTICLES # This is TAG. Do not modify this line
P uu~cc~dd~ss~gf+f-
J uu~cc~dd~ss~gf+f-
L+ e+mu+
L- e-mu-
vl vevm
vl~ ve~vm~
# End  MULTIPARTICLES # This is TAG. Do not modify this line
</MGProcCard>
<slha>
#*********************************************************************
#                        MadGraph/MadEvent                           *
#                   http://madgraph.hep.uiuc.edu                     *
#                                                                    *
#                         param_card.dat                             *
#                                                                    *
#   Les Houches friendly file for the SM parameters of MadGraph      *
#        Spectrum and decay widths produced by SMCalc                *
#                                                                    *
#  Please note the following IMPORTANT issues:                       *
#                                                                    *
# 0. REFRAIN from editing this file by hand! Some of the parame-     *
#    ters are not independent                                        *
#    (such as G_Fermi, alpha_em, sin(theta_W),MZ,MW) and serious     *
#    problems might be encountered (such as violation of unitarity   *
#    or gauge invariance).  Always use a calculator.                 *
#                                                                    *
# 1. alpha_S(MZ) has been used in the calculation of the parameters  *
#    but, for consistency, it will be reset by madgraph to the       *
#    value expected IF the pdfs for collisions with hadrons are      *
#    used. This value is KEPT by madgraph when no pdf are used       *
#    lpp(i)=0 .                                                      *
#                                                                    *
#  2. Values of the charm and bottom kinematic (pole) masses are     *
#     those used in the matrix elements and phase space UNLESS they  *
#     are set to ZERO from the start in the model (particles.dat)    *
#     This happens, for example,  when using 5-flavor QCD where      *
#     charm and bottom are treated as partons in the initial state   *
#     and a zero mass might be hardwired in the model definition.    *
#                                                                    *
##********************************************************************
Block MODSEL # Select Model
     0   1   #  0 1 = SM
Block SMINPUTS      # Standard Model inputs
     1         1.27900000E+02   # alpha_em(MZ)(-1) SM MSbar
     2         1.16600000E-05   # G_Fermi
     3         1.18000000E-01   # alpha_s(MZ) SM MSbar
     4         9.15445065E+01   # Z mass (as input parameter)
Block MGYUKAWA     # Yukawa masses m/v=y/sqrt(2)
#    PDG          YMASS
     5         4.20000000E+00   # mbottom for the Yukawa  y_b
     4         1.25000000E+00   # mcharm  for the Yukawa  y_c
     6         1.74300000E+02   # mtop    for the Yukawa  y_t
    15         1.77700000E+00   # mtau    for the Yukawa  y_ta
Block MGCKM     # CKM elements for MadGraph
     1   1     9.75000000E-01   # Vud for Cabibbo matrix
#===========================================================
# QUANTUM NUMBERS OF NEW STATE(S) (NON SM PDG CODE) IF ANY
# (see below for masses and decay tables)
# These blocks are automatically created by the MadGraph
# qnumbers.pl script from the particles.dat model file
#===========================================================
BLOCK QNUMBERS 611 # f-
         1  -3 # 3 times electric charge
         2  2 # number of spin states (2S+1)
         3  1 # colour rep (1: singlet, 3: triplet, 8: octet)
         4  1 # Particle/Antiparticle distinction (0=own anti)
BLOCK QNUMBERS 622 # x
         1  0 # 3 times electric charge
         2  3 # number of spin states (2S+1)
         3  1 # colour rep (1: singlet, 3: triplet, 8: octet)
         4  0 # Particle/Antiparticle distinction (0=own anti)
BLOCK QNUMBERS 623 # N-
         1  0 # 3 times electric charge
         2  2 # number of spin states (2S+1)
         3  1 # colour rep (1: singlet, 3: triplet, 8: octet)
         4  1 # Particle/Antiparticle distinction (0=own anti)
# END of QNUMBERS blocks
#===========================================================
Block MASS      #  Mass spectrum (kinematic masses)
#       PDG       Mass
         4     1.40000000E+00   # charm    pole mass
         5     4.20000000E+00   # bottom   pole mass
         6     1.74300000E+02   # top      pole mass
        11     0.51109989E-03   # electron mass
        13     0.10565837E+00   # muon     mass
        15     1.77700000E+00   # tau      mass
        23     9.15445065E+01   # Z        mass
        24     8.02673592E+01   # W        mass
        25     1.20000000E+02   # H        mass
       611 0.0001 # FMASS
       622 0.1 # APMASS
       623     1.71300000e+02   # HPMASS (tungsten)
#            PDG       Width
DECAY       611     0.00000000e+00   # ELWIDTH
DECAY 622 0.0035939536085 # APWIDTH
DECAY       623     0.00000000e+00   # HPWIDTH
DECAY         6     1.51013490E+00   # top width
DECAY        23     2.44639985E+00   # Z   width
DECAY        24     2.03535570E+00   # W   width
DECAY        25     6.79485838E-03   # H   width
#        BR           NDA        ID1       ID2
     7.00588389E-02    2           4        -4   # BR( H -> c  cbar  )
     7.61074375E-01    2           5        -5   # BR( H -> b  bbar  )
     0.00000000E+00    2           6        -6   # BR( H -> t  tbar  )
     3.65529942E-02    2          15       -15   # BR( H -> tau- tau+)
     5.84716539E-03    2          23        23   # BR( H -> Z   Z^(*))
     6.31545979E-02    2          24       -24   # BR( H -> W   W^(*))
     2.55499652E-02    2          21        21   # BR( H -> g   g    )
     1.20906932E-03    2          22        22   # BR( H -> A   A    )
BLOCK MGUSER
         1     1.00000000e-00   # epsilon ,mixing coefficient
         2     74.0000000e+00   # Znuc    ,nuclear charge
</slha>
<MGRunCard>
#*********************************************************************
#                       MadGraph/MadEvent                            *
#                  http://madgraph.hep.uiuc.edu                      *
#                                                                    *
#                        run_card.dat                                *
#                                                                    *
#  This file is used to set the parameters of the run.               *
#                                                                    *
#  Some notation/conventions:                                        *
#                                                                    *
#   Lines starting with a '# ' are info or comments                  *
#                                                                    *
#   mind the format:   value    = variable     ! comment             *
#*********************************************************************
#
#*******************                                                 
# Running parameters
#*******************                                                 
#                                                                    
#*********************************************************************
# Tag name for the run (one word)                                    *
#*********************************************************************
  'HPS'     = run_tag ! name of the run 
#*********************************************************************
# Run to generate the grid pack                                      *
#*********************************************************************
  .false.     = gridpack  !True = setting up the grid pack
#*********************************************************************
# Number of events and rnd seed                                      *
#*********************************************************************
   50000      = nevents ! Number of unweighted events requested 
226510 = iseed ! rnd seed (0=assigned automatically=default))
#*********************************************************************
# Collider type and energy                                           *
#*********************************************************************
        0     = lpp1  ! beam 1 type (0=NO PDF)
        0     = lpp2  ! beam 2 type (0=NO PDF)
4.0 = ebeam1  ! beam 1 energy in GeV
    171.3    = ebeam2  ! beam 2 energy in GeV
    0.000511  = mbeam1  ! beam 1 energy in GeV
    171.3    = mbeam2  ! beam 2 energy in GeV
#*********************************************************************
# Beam polarization from -100 (left-handed) to 100 (right-handed)    *
#*********************************************************************
        0     = polbeam1 ! beam polarization for beam 1
        0     = polbeam2 ! beam polarization for beam 2
#*********************************************************************
# PDF CHOICE: this automatically fixes also alpha_s and its evol.    *
#*********************************************************************
 'cteq6l1'    = pdlabel     ! PDF set                                     
#*********************************************************************
# Renormalization and factorization scales                           *
#*********************************************************************
 F        = fixed_ren_scale  ! if .true. use fixed ren scale
 F        = fixed_fac_scale  ! if .true. use fixed fac scale
 91.1880  = scale            ! fixed ren scale
 91.1880  = dsqrt_q2fact1    ! fixed fact scale for pdf1
 91.1880  = dsqrt_q2fact2    ! fixed fact scale for pdf2
 1        = scalefact        ! scale factor for event-by-event scales
 F        = fixed_couplings  ! if .false. calc. coupl. for every event
#*********************************************************************
# Matching - Warning! ickkw > 0 is still beta
#*********************************************************************
 0        = ickkw            ! 0 no matching, 1 MLM, 2 CKKW matching
#*********************************************************************
#                                                                    
#**********************************
27.8245105233 = bwcutoff*Gamma)
#**********************************
27.8245105233 = bwcutoff
#*******************                                                 
# Fixed-Target Cuts
#*******************                                                 
#
 0.0 = ef        ! minimum E for all f's
 100.0 = efmax     ! maximum E for all f's
 0.0 = thetafmin ! min angle for both f's
 100.0 = thetafmax ! max angle for both f's
 0.0 = thetaxfmin ! min angle (x direction) for both f's
 100.0 = thetaxfmax ! max angle (x direction) for both f's 
 0.0 = thetayfmin ! min angle (y direction) for both f's
 100.0 = thetayfmax ! max angle (y direction) for both f's 
 0.0 = xthetaxfmin ! min angle (x direction) for >=1 f's
 100.0 = xthetaxfmax ! max angle (x direction) for >=1 f's 
 0.0 = xthetayfmin ! min angle (y direction) for >=1 f's
 100.0 = xthetayfmax ! max angle (y direction) for >=1 f's 
 0.0 = mmff      ! min invariant mass of f+f- lepton pair
 100.0 = mmffmax  ! max invariant mass of f+f- lepton pair
 0.0 = xef       ! min. energy for at least one f
 0.0 = xthetaf   ! minimum angle for at least one f
 0.0 = eftot     ! minimum energy for the two f's
 0d0 = efrat     ! min. ratio Emin/Emax for the two f's
0.0 = el  ! minimum E for the charged leptons
 0.0  = drll  !!! was 0.1  ! min distance between leptons 
 0.0  = mmll    ! min invariant mass of l+l- (same flavour) lepton pair
#
#*******************                                                 
# Standard Cuts
#*******************                                                 
#                                                                    
#*********************************************************************
# Minimum and maximum pt's                                           *
#*********************************************************************
  0  = ptj       ! minimum pt for the jets 
  0  = ptb       ! minimum pt for the b 
  0  = pta       ! minimum pt for the photons 
  0  = ptl       ! minimum pt for the charged leptons 
  0  = misset    ! minimum missing Et (sum of neutrino's momenta)
  0  = ptheavy   ! minimum pt for one heavy final state
 1.0 = ptonium   ! minimum pt for the quarkonium states
 1d5 = ptjmax    ! maximum pt for the jets
 1d5 = ptbmax    ! maximum pt for the b
 1d5 = ptamax    ! maximum pt for the photons
 1d9 = ptlmax    ! maximum pt for the charged leptons
 1d9 = missetmax ! maximum missing Et (sum of neutrino's momenta)
#*********************************************************************
# Minimum and maximum E's (in the lab frame)                         *
#*********************************************************************
  0  = ej     ! minimum E for the jets 
  0  = eb     ! minimum E for the b 
  0  = ea     ! minimum E for the photons 
 1d5  = ejmax ! maximum E for the jets
 1d5  = ebmax ! maximum E for the b
 1d5  = eamax ! maximum E for the photons
4.0 = elmax  ! maximum E for the charged leptons
#*********************************************************************
# Maximum and minimum rapidity                                       *
#*********************************************************************
 1d5  = etaj    ! max rap for the jets 
 1d5  = etab    ! max rap for the b 
 1d5  = etaa    ! max rap for the photons 
 1d5  = etal     !!! 1(2) wth cuts ! max rap for the charged leptons 
 1d5  = etafl     !!! 0(1) wth cuts ! max rap for the charged leptons 
 0.0  = etaonium ! max rap for the quarkonium states
 0d0  = etajmin ! min rap for the jets
 0d0  = etabmin ! min rap for the b
 0d0  = etaamin ! min rap for the photons
 0d0  = etalmin ! main rap for the charged lepton
#*********************************************************************
# Minimum and maximum DeltaR distance                                *
#*********************************************************************
 0   = drjj    ! min distance between jets 
 0   = drbb    ! min distance between b's 
 0   = draa    ! min distance between gammas 
 0   = drbj    ! min distance between b and jet 
 0   = draj    ! min distance between gamma and jet 
 0   = drjl    ! min distance between jet and lepton 
 0   = drab    ! min distance between gamma and b 
 0   = drbl    ! min distance between b and lepton 
 0   = dral    ! min distance between gamma and lepton 
 1d2 = drjjmax ! max distance between jets
 1d2 = drbbmax ! max distance between b's
 1d9 = drllmax ! max distance between leptons
 1d2 = draamax ! max distance between gammas
 1d2 = drbjmax ! max distance between b and jet
 1d2 = drajmax ! max distance between gamma and jet
 1d2 = drjlmax ! max distance between jet and lepton
 1d2 = drabmax ! max distance between gamma and b
 1d2 = drblmax ! max distance between b and lepton
 1d2 = dralmax ! maxdistance between gamma and lepton
#*********************************************************************
# Minimum and maximum invariant mass for pairs                       *
#*********************************************************************
 0   = mmjj    ! min invariant mass of a jet pair 
 0   = mmbb    ! min invariant mass of a b pair 
 0   = mmaa    ! min invariant mass of gamma gamma pair
 1d5 = mmjjmax ! max invariant mass of a jet pair
 1d5 = mmbbmax ! max invariant mass of a b pair
 1d5 = mmaamax ! max invariant mass of gamma gamma pair
 1d5 = mmllmax ! max invariant mass of l+l- (same flavour) lepton pair
#*********************************************************************
# Minimum and maximum invariant mass for all letpons                 *
#*********************************************************************
 0   = mmnl    ! min invariant mass for all letpons (l+- and vl) 
 1d9 = mmnlmax ! max invariant mass for all letpons (l+- and vl) 
#*********************************************************************
# Inclusive cuts                                                     *
#*********************************************************************
 0  = xptj ! minimum pt for at least one jet  
 0  = xptb ! minimum pt for at least one b 
 0  = xpta ! minimum pt for at least one photon 
 0  = xptl ! minimum pt for at least one charged lepton 
#*********************************************************************
# Control the pt's of the jets sorted by pt                          *
#*********************************************************************
 0   = ptj1min ! minimum pt for the leading jet in pt
 0   = ptj2min ! minimum pt for the second jet in pt
 0   = ptj3min ! minimum pt for the third jet in pt
 0   = ptj4min ! minimum pt for the fourth jet in pt
 1d5 = ptj1max ! maximum pt for the leading jet in pt 
 1d5 = ptj2max ! maximum pt for the second jet in pt
 1d5 = ptj3max ! maximum pt for the third jet in pt
 1d5 = ptj4max ! maximum pt for the fourth jet in pt
 0   = cutuse  ! reject event if fails any (0) / all (1) jet pt cuts
#*********************************************************************
# Control the Ht(k)=Sum of k leading jets                            *
#*********************************************************************
 0   = htjmin ! minimum jet HT=Sum(jet pt)
 1d5 = htjmax ! maximum jet HT=Sum(jet pt)
 0   = ht2min ! minimum Ht for the two leading jets
 0   = ht3min ! minimum Ht for the three leading jets
 0   = ht4min ! minimum Ht for the four leading jets
 1d5 = ht2max ! maximum Ht for the two leading jets
 1d5 = ht3max ! maximum Ht for the three leading jets
 1d5 = ht4max ! maximum Ht for the four leading jets
#*********************************************************************
# WBF cuts                                                           *
#*********************************************************************
 0   = xetamin ! minimum rapidity for two jets in the WBF case  
 0   = deltaeta ! minimum rapidity for two jets in the WBF case 
#*********************************************************************
# maximal pdg code for quark to be considered as a jet               *
# otherwise b cuts are applied                                       *
#*********************************************************************
 4 = maxjetflavor
#*********************************************************************
# Jet measure cuts                                                   *
#*********************************************************************
 0   = xqcut   ! minimum kt jet measure between partons
#*********************************************************************
</MGRunCard>
<MGGenerationInfo>
#  Number of Events        :        4285
#  Integrated weight (pb)  :  .26835E+10
#  Truncated wgt (pb)      :  .16396E+08
#  Unit wgt                :  .62625E+06
</MGGenerationInfo>
</header>
<init>
       11     -623  0.40000000000E+01  0.17130000000E+03 0 0     0     0 3  1
  0.26410861258E+10  0.00000000000E+00  0.62625437573E+06   0
</init>
<event>
 5   0  0.6262544E+06  0.9118800E+02  0.7818608E-02  0.1180000E+00
       11   -1    0    0    0    0  0.00000000000E+00  0.00000000000E+00  0.39999999673E+01  0.40000000000E+01  0.51109989000E-03 0. -1.
     -623   -1    0    0    0    0  0.00000000000E+00  0.00000000000E+00  0.12525980253E-10  0.17130000000E+03  0.17130000000E+03 0. -1.
       11    1    1    2    0    0  0.26179172380E-02 -0.28324249174E-02  0.25636551989E-01  0.25930101090E-01  0.51109989000E-03 0. -1.
     -623    1    1    2    0    0 -0.96121486908E-02 -0.58681933235E-02  0.15679333474E-02  0.17130000038E+03  0.17130000000E+03 0. -1.
      622    1    1    2    0    0  0.69942314532E-02  0.87006182412E-02  0.39727954822E+01  0.39740695217E+01  0.10000000000E+00 0. -1.
</event>
<event>
 5   0  0.6262544E+06  0.9118800E+02  0.7818608E-02  0.1180000E+00
       11   -1    0    0    0    0  0.00000000000E+00  0.00000000000E+00  0.39999999673E+01  0.40000000000E+01  0.51109989000E-03 0.  1.
     -623   -1    0    0    0    0  0.00000000000E+00  0.00000000000E+00  0.12525980253E-10  0.17130000000E+03  0.17130000000E+03 0.  1.
       11    1    1    2    0    0  0.41427632807E-02  0.41267908037E-02  0.21233986879E-02  0.62420295965E-02  0.51109989000E-03 0.  1.
     -623    1    1    2    0    0 -0.10700436685E-01 -0.49972714970E-02  0.53767202514E-02  0.17130000049E+03  0.17130000000E+03 0.  1.
      622    1    1    2    0    0  0.65576734045E-02  0.87048069328E-03  0.39924998484E+01  0.39937574789E+01  0.10000000000E+00 0.  1.
</event>
<event>
 5   0  0.6262544E+06  0.9118800E+02  0.7818608E-02  0.1180000E+00
       11   -1    0    0    0    0  0.00000000000E+00  0.00000000000E+00  0.39999999673E+01  0.40000000000E+01  0.51109989000E-03 0. -1.
     -623   -1    0    0    0    0  0.00000000000E+00  0.00000000000E+00  0.12525980253E-10  0.17130000000E+03  0.17130000000E+03 0.  1.
       11    1    1    2    0    0  0.57132014405E-02 -0.23635551745E-01  0.10020141597E+00  0.10311093521E+00  0.51109989000E-03 0. -1.
     -623    1    1    2    0    0 -0.28439851284E-02 -0.64117238921E-02  0.43099080576E-02  0.17130000020E+03  0.17130000000E+03 0.  1.
      622    1    1    2    0    0 -0.28692163121E-02  0.30047275637E-01  0.38954886433E+01  0.38968888670E+01  0.10000000000E+00 0. -1.
</event>
<event>
 5   0  0.6262544E+06  0.9118800E+02  0.7818608E-02  0.1180000E+00
       11   -1    0    0    0    0  0.00000000000E+00  0.00000000000E+00  0.39999999673E+01  0.40000000000E+01  0.51109989000E-03 0.  1.
     -623   -1    0    0    0    0  0.00000000000E+00  0.00000000000E+00  0.12525980253E-10  0.17130000000E+03  0.17130000000E+03 0. -1.
       11    1    1    2    0    0 -0.75247809472E-02  0.10262158115E-01  0.14320516861E+01  0.14321083154E+01  0.51109989000E-03 0.  1.
     -623    1    1    2    0    0  0.10868006011E-01  0.93623906998E-02  0.20822960472E-02  0.17130000061E+03  0.17130000000E+03 0. -1.
      622    1    1    2    0    0 -0.33432250634E-02 -0.19624548815E-01  0.25658659852E+01  0.25678910713E+01  0.10000000000E+00 0.  1.
</event>
<event>
 5   0  0.6262544E+06  0.9118800E+02  0.7818608E-02  0.1180000E+00
       11   -1    0    0    0    0  0.00000000000E+00  0.00000000000E+00  0.39999999673E+01  0.40000000000E+01  0.51109989000E-03 0. -1.
     -623   -1    0    0    0    0  0.00000000000E+00  0.00000000000E+00  0.12525980253E-10  0.17130000000E+03  0.17130000000E+03 0.  1.
       11    1    1    2    0    0  0.21065946290E-02  0.44405209552E-03  0.90389289217E-01  0.90416368820E-01  0.51109989000E-03 0. -1.
     -623    1    1    2    0    0 -0.13986144719E-01  0.88854714288E-02  0.13361613840E-02  0.17130000081E+03  0.17130000000E+03 0.  1.
      622    1    1    2    0    0  0.11879550090E-01 -0.93295235243E-02  0.39082745168E+01  0.39095828246E+01  0.10000000000E+00 0. -1.
</event>
<event>
 5   0  0.6262544E+06  0.9118800E+02  0.7818608E-02  0.1180000E+00
       11   -1    0    0    0    0  0.00000000000E+00  0.00000000000E+00  0.39999999673E+01  0.40000000000E+01  0.51109989000E-03 0. -1.
     -623   -1    0    0    0    0  0.00000000000E+00  0.00000000000E+00  0.12525980253E-10  0.17130000000E+03  0.17130000000E+03 0. -1.
       11    1    1    2    0    0 -0.15355750935E-01  0.31929156397E-01  0.10024887550E+00  0.10632670585E+00  0.51109989000E-03 0. -1.
     -623    1    1    2    0    0  0.13848088143E-01 -0.16450224219E-02  0.74809795443E-02  0.17130000073E+03  0.17130000000E+03 0. -1.
      622    1    1    2    0    0  0.15076627917E-02 -0.30284133975E-01  0.38922701123E+01  0.38936725632E+01  0.10000000000E+00 0. -1.
</event>
<event>
 5   0  0.6262544E+06  0.9118800E+02  0.7818608E-02  0.1180000E+00
       11   -1    0    0    0    0  0.00000000000E+00  0.00000000000E+00  0.39999999673E+01  0.40000000000E+01  0.51109989000E-03 0.  1.
     -623   -1    0    0    0    0  0.00000000000E+00  0.00000000000E+00  0.12525980253E-10  0.17130000000E+03  0.17130000000E+03 0.  1.
       11    1    1    2    0    0  0.52878321345E-02 -0.31645458909E-02  0.86289840687E-02  0.10615842337E-01  0.51109989000E-03 0.  1.
     -623    1    1    2    0    0 -0.58466518269E-02 -0.15268963960E-02  0.32432847166E-02  0.17130000014E+03  0.17130000000E+03 0.  1.
      622    1    1    2    0    0  0.55881969236E-03  0.46914422869E-02  0.39881276986E+01  0.39893840204E+01  0.10000000000E+00 0.  1.
</event>
<event>
 5   0  0.6262544E+06  0.9118800E+02  0.7818608E-02  0.1180000E+00
       11   -1    0    0    0    0  0.00000000000E+00  0.00000000000E+00  0.39999999673E+01  0.40000000000E+01  0.51109989000E-03 0. -1.
     -623   -1    0    0    0    0  0.00000000000E+00  0.00000000000E+00  0.12525980253E-10  0.17130000000E+03  0.17130000000E+03 0. -1.
       11    1    1    2    0    0  0.13033632144E-01 -0.19782948917E-02  0.14256286900E+00  0.14317200165E+00  0.51109989000E-03 0. -1.
     -623    1    1    2    0    0 -0.64401679835E-02 -0.37306329276E-03  0.19122071335E-02  0.17130000013E+03  0.17130000000E+03 0. -1.
      622    1    1    2    0    0 -0.65934641609E-02  0.23513581844E-02  0.38555248912E+01  0.38568278661E+01  0.10000000000E+00 0. -1.
</event>
<event>
 5   0  0.6262544E+06  0.9118800E+02  0.7818608E-02  0.1180000E+00
       11   -1    0    0    0    0  0.00000000000E+00  0.00000000000E+00  0.39999999673E+01  0.40000000000E+01  0.51109989000E-03 0.  1.
     -623   -1    0    0    0    0  0.00000000000E+00  0.00000000000E+00  0.12525980253E-10  0.17130000000E+03  0.17130000000E+03 0. -1.
       11    1    1    2    0    0 -0.19936532331E-01  0.25161564566E-01  0.32295818211E+01  0.32297414092E+01  0.51109989000E-03 0.  1.
     -623    1    1    2    0    0  0.11185584741E-01 -0.17273390285E-01  0.67707249850E-02  0.17130000137E+03  0.17130000000E+03 0. -1.
      622    1    1    2    0    0  0.87509475903E-02 -0.78881742806E-02  0.76364742128E+00  0.77025722093E+00  0.10000000000E+00 0.  1.
</event>
<event>
 5   0  0.6262544E+06  0.9118800E+02  0.7818608E-02  0.1180000E+00
       11   -1    0    0    0    0  0.00000000000E+00  0.00000000000E+00  0.39999999673E+01  0.40000000000E+01  0.51109989000E-03 0.  1.
     -623   -1    0    0    0    0  0.00000000000E+00  0.00000000000E+00  0.12525980253E-10  0.17130000000E+03  0.17130000000E+03 0.  1.
       11    1    1    2    0    0 -0.21022875859E-02 -0.10011055298E-01  0.67405725042E+00  0.67413505984E+00  0.51109989000E-03 0.  1.
     -623    1    1    2    0    0  0.35940683436E-02  0.22428778252E-02  0.15909556816E-02  0.17130000006E+03  0.17130000000E+03 0.  1.
      622    1    1    2    0    0 -0.14917807577E-02  0.77681774730E-02  0.33243517613E+01  0.33258648804E+01  0.10000000000E+00 0.  1.
</event>
<event>
 5   0  0.6262544E+06  0.9118800E+02  0.7818608E-02  0.1180000E+00
       11   -1    0    0    0    0  0.00000000000E+00  0.00000000000E+00  0.39999999673E+01  0.40000000000E+01  0.51109989000E-03 0.  1.
     -623   -1    0    0    0    0  0.00000000000E+00  0.00000000000E+00  0.12525980253E-10  0.17130000000E+03  0.17130000000E+03 0.  1.
       11    1    1    2    0    0  0.74872169497E-02  0.54778716855E-02  0.84351535665E-01  0.84861700950E-01  0.51109989000E-03 0.  1.
     -623    1    1    2    0    0  0.11809272298E-01 -0.21146404562E-01  0.18680909193E-02  0.17130000172E+03  0.17130000000E+03 0.  1.
      622    1    1    2    0    0 -0.19296489248E-01  0.15668532877E-01  0.39137803409E+01  0.39151365767E+01  0.10000000000E+00 0.  1.
</event>
<event>
 5   0  0.6262544E+06  0.9118800E+02  0.7818608E-02  0.1180000E+00
       11   -1    0    0    0    0  0.00000000000E+00  0.00000000000E+00  0.39999999673E+01  0.40000000000E+01  0.51109989000E-03 0.  1.
     -623   -1    0    0    0    0  0.00000000000E+00  0.00000000000E+00  0.12525980253E-10  0.17130000000E+03  0.17130000000E+03 0. -1.
       11    1    1    2    0    0  0.38086360086E-02  0.12376728899E-01  0.29234246758E+00  0.29262957591E+00  0.51109989000E-03 0.  1.
     -623    1    1    2    0    0  0.12562586886E-02 -0.10110047711E-02  0.16568909237E-02  0.17130000002E+03  0.17130000000E+03 0. -1.
      622    1    1    2    0    0 -0.50648946972E-02 -0.11365724128E-01  0.37060006088E+01  0.37073704084E+01  0.10000000000E+00 0.  1.
</event>
<event>
 5   0  0.6262544E+06  0.9118800E+02  0.7818608E-02  0.1180000E+00
       11   -1    0    0    0    0  0.00000000000E+00  0.00000000000E+00  0.39999999673E+01  0.40000000000E+01  0.51109989000E-03 0.  1.
     -623   -1    0    0    0    0  0.00000000000E+00  0.00000000000E+00  0.12525980253E-10  0.17130000000E+03  0.17130000000E+03 0. -1.
       11    1    1    2    0    0 -0.75730567522E-03 -0.33187263049E-03  0.38204625594E-03  0.10444298769E-02  0.51109989000E-03 0. -1.
     -623    1    1    2    0    0  0.55080452734E-03  0.25788936499E-02  0.19135408063E-02  0.17130000003E+03  0.17130000000E+03 0. -1.
      622    1    1    2    0    0  0.20650114787E-03 -0.22470210195E-02  0.39977043803E+01  0.39989555392E+01  0.10000000000E+00 0.  1.
</event>
<event>
 5   0  0.6262544E+06  0.9118800E+02  0.7818608E-02  0.1180000E+00
       11   -1    0    0    0    0  0.00000000000E+00  0.00000000000E+00  0.39999999673E+01  0.40000000000E+01  0.51109989000E-03 0.  1.
     -623   -1    0    0    0    0  0.00000000000E+00  0.00000000000E+00  0.12525980253E-10  0.17130000000E+03  0.17130000000E+03 0. -1.
       11    1    1    2    0    0  0.18395198699E-01 -0.26052656784E-02  0.72212691487E-01  0.74566110111E-01  0.51109989000E-03 0.  1.
     -623    1    1    2    0    0 -0.10929639929E-02 -0.84571705411E-02  0.36813264712E-02  0.17130000025E+03  0.17130000000E+03 0. -1.
      622    1    1    2    0    0 -0.17302234706E-01  0.11062436219E-01  0.39241059494E+01  0.39254336381E+01  0.10000000000E+00 0.  1.
</event>
<event>
 5   0  0.6262544E+06  0.9118800E+02  0.7818608E-02  0.1180000E+00
       11   -1    0    0    0    0  0.00000000000E+00  0.00000000000E+00  0.39999999673E+01  0.40000000000E+01  0.51109989000E-03 0. -1.
     -623   -1    0    0    0    0  0.00000000000E+00  0.00000000000E+00  0.12525980253E-10  0.17130000000E+03  0.17130000000E+03 0.  1.
       11    1    1    2    0    0 -0.10950276668E-03 -0.59327893879E-02  0.53673514297E-02  0.80174600245E-02  0.51109989000E-03 0. -1.
     -623    1    1    2    0    0  0.35846087198E-02  0.61196431368E-02  0.39044917977E-02  0.17130000019E+03  0.17130000000E+03 0.  1.
      622    1    1    2    0    0 -0.34751059532E-02 -0.18685374900E-03  0.39907281242E+01  0.39919823487E+01  0.10000000000E+00 0. -1.
</event>
<event>
 5   0  0.6262544E+06  0.9118800E+02  0.7818608E-02  0.1180000E+00
       11   -1    0    0    0    0  0.00000000000E+00  0.00000000000E+00  0.39999999673E+01  0.40000000000E+01  0.51109989000E-03 0.  1.
     -623   -1    0    0    0    0  0.00000000000E+00  0.00000000000E+00  0.12525980253E-10  0.17130000000E+03  0.17130000000E+03 0. -1.
       11    1    1    2    0    0  0.13387513849E-01  0.13799307894E-02  0.48373803008E+00  0.48392548259E+00  0.51109989000E-03 0.  1.
     -623    1    1    2    0    0 -0.15461035958E-02  0.80582357548E-02  0.16425728704E-02  0.17130000020E+03  0.17130000000E+03 0. -1.
      622    1    1    2    0    0 -0.11841410254E-01 -0.94381665442E-02  0.35146193644E+01  0.35160743130E+01  0.10000000000E+00 0.  1.
</event>
<event>
 5   0  0.6262544E+06  0.9118800E+02  0.7818608E-02  0.1180000E+00
       11   -1    0    0    0    0  0.00000000000E+00  0.00000000000E+00  0.39999999673E+01  0.40000000000E+01  0.51109989000E-03 0.  1.
     -623   -1    0    0    0    0  0.00000000000E+00  0.00000000000E+00  0.12525980253E-10  0.17130000000E+03  0.17130000000E+03 0.  1.
       11    1    1    2    0    0  0.25376084483E-01  0.13019425638E-01  0.28963488004E+00  0.29103621092E+00  0.51109989000E-03 0.  1.
     -623    1    1    2    0    0 -0.43876051286E-03  0.90806217128E-02  0.28996276102E-02  0.17130000027E+03  0.17130000000E+03 0.  1.
      622    1    1    2    0    0 -0.24937323970E-01 -0.22100047351E-01  0.37074654597E+01  0.37089635233E+01  0.10000000000E+00 0.  1.
</event>
<event>
 5   0  0.6262544E+06  0.9118800E+02  0.7818608E-02  0.1180000E+00
       11   -1    0    0    0    0  0.00000000000E+00  0.00000000000E+00  0.39999999673E+01  0.40000000000E+01  0.51109989000E-03 0. -1.
     -623   -1    0    0    0    0  0.00000000000E+00  0.00000000000E+00  0.12525980253E-10  0.17130000000E+03  0.17130000000E+03 0. -1.
       11    1    1    2    0    0 -0.15481904376E-01 -0.59186186802E-02  0.46043156736E+00  0.46073008242E+00  0.51109989000E-03 0. -1.
     -623    1    1    2    0    0  0.13575338469E-02 -0.82024568137E-02  0.17680729536E-02  0.17130000021E+03  0.17130000000E+03 0. -1.
      622    1    1    2    0    0  0.14124370529E-01  0.14121075494E-01  0.35378003271E+01  0.35392697067E+01  0.10000000000E+00 0. -1.
</event>
<event>
 5   0  0.6262544E+06  0.9118800E+02  0.7818608E-02  0.1180000E+00
       11   -1    0    0    0    0  0.00000000000E+00  0.00000000000E+00  0.39999999673E+01  0.40000000000E+01  0.51109989000E-03 0.  1.
     -623   -1    0    0    0    0  0.00000000000E+00  0.00000000000E+00  0.12525980253E-10  0.17130000000E+03  0.17130000000E+03 0. -1.
       11    1    1    2    0    0 -0.48532451621E-02  0.28781102789E-02  0.31255652395E-01  0.31764989172E-01  0.51109989000E-03 0.  1.
     -623    1    1    2    0    0  0.38245607274E-01  0.16998612534E-01  0.19649791042E-02  0.17130000512E+03  0.17130000000E+03 0. -1.
      622    1    1    2    0    0 -0.33392362112E-01 -0.19876722813E-01  0.39667793358E+01  0.39682298866E+01  0.10000000000E+00 0.  1.
</event>
<event>
 5   0  0.6262544E+06  0.9118800E+02  0.7818608E-02  0.1180000E+00
       11   -1    0    0    0    0  0.00000000000E+00  0.00000000000E+00  0.39999999673E+01  0.40000000000E+01  0.51109989000E-03 0. -1.
     -623   -1    0    0    0    0  0.00000000000E+00  0.00000000000E+00  0.12525980253E-10  0.17130000000E+03  0.17130000000E+03 0. -1.
       11    1    1    2    0    0 -0.17143830387E-01  0.32938457363E-01  0.55737168954E+00  0.55860747794E+00  0.51109989000E-03 0. -1.
     -623    1    1    2    0    0  0.80483907560E-02  0.44514255940E-02  0.29044674572E-02  0.17130000027E+03  0.17130000000E+03 0. -1.
      622    1    1    2    0    0  0.90954396305E-02 -0.37389882957E-01  0.34397238104E+01  0.34413922505E+01  0.10000000000E+00 0. -1.
</event>
<event>
 5   0  0.6262544E+06  0.9118800E+02  0.7818608E-02  0.1180000E+00
       11   -1    0    0    0    0  0.00000000000E+00  0.00000000000E+00  0.39999999673E+01  0.40000000000E+01  0.51109989000E-03 0.  1.
     -623   -1    0    0    0    0  0.00000000000E+00  0.00000000000E+00  0.12525980253E-10  0.17130000000E+03  0.17130000000E+03 0. -1.
       11    1    1    2    0    0 -0.32491682117E-02 -0.16271608593E-02  0.33165804988E-01  0.33368197247E-01  0.51109989000E-03 0.  1.
     -623    1    1    2    0    0  0.76808663646E-03 -0.72093642910E-02  0.14738570310E-02  0.17130000016E+03  0.17130000000E+03 0. -1.
      622    1    1    2    0    0  0.24810815752E-02  0.88365251503E-02  0.39653603053E+01  0.39666316430E+01  0.10000000000E+00 0.  1.
</event>
<event>
 5   0  0.6262544E+06  0.9118800E+02  0.7818608E-02  0.1180000E+00
       11   -1    0    0    0    0  0.00000000000E+00  0.00000000000E+00  0.39999999673E+01  0.40000000000E+01  0.51109989000E-03 0. -1.
     -623   -1    0    0    0    0  0.00000000000E+00  0.00000000000E+00  0.12525980253E-10  0.17130000000E+03  0.17130000000E+03 0.  1.
       11    1    1    2    0    0 -0.39229092291E-01 -0.36791152659E-01  0.22583750500E+00  0.23215372167E+00  0.51109989000E-03 0. -1.
     -623    1    1    2    0    0  0.17033972588E-01  0.77826656578E-02  0.78217447162E-02  0.17130000120E+03  0.17130000000E+03 0.  1.
      622    1    1    2    0    0  0.22195119703E-01  0.29008487001E-01  0.37663407177E+01  0.37678450761E+01  0.10000000000E+00 0. -1.
</event>
<event>
 5   0  0.6262544E+06  0.9118800E+02  0.7818608E-02  0.1180000E+00
       11   -1    0    0    0    0  0.00000000000E+00  0.00000000000E+00  0.39999999673E+01  0.40000000000E+01  0.51109989000E-03 0.  1.
     -623   -1    0    0    0    0  0.00000000000E+00  0.00000000000E+00  0.12525980253E-10  0.17130000000E+03  0.17130000000E+03 0.  1.
       11    1    1    2    0    0 -0.72833617668E-02 -0.16051914133E-01  0.82341466023E-01  0.84208607374E-01  0.51109989000E-03 0.  1.
     -623    1    1    2    0    0  0.51447016371E-02 -0.19216337456E-02  0.31861631071E-02  0.17130000012E+03  0.17130000000E+03 0.  1.
      622    1    1    2    0    0  0.21386601295E-02  0.17973547879E-01  0.39144723384E+01  0.39157912751E+01  0.10000000000E+00 0.  1.
</event>
<event>
 5   0  0.6262544E+06  0.9118800E+02  0.7818608E-02  0.1180000E+00
       11   -1    0    0    0    0  0.00000000000E+00  0.00000000000E+00  0.39999999673E+01  0.40000000000E+01  0.51109989000E-03 0.  1.
     -623   -1    0    0    0    0  0.00000000000E+00  0.00000000000E+00  0.12525980253E-10  0.17130000000E+03  0.17130000000E+03 0.  1.
       11    1    1    2    0    0 -0.42919758954E-03 -0.92138979429E-02  0.11109475378E+00  0.11147818471E+00  0.51109989000E-03 0.  1.
     -623    1    1    2    0    0 -0.40392010937E-02  0.51031909774E-02  0.16743202128E-02  0.17130000013E+03  0.17130000000E+03 0.  1.
      622    1    1    2    0    0  0.44683986833E-02  0.41107069655E-02  0.38872308934E+01  0.38885216835E+01  0.10000000000E+00 0.  1.
</event>
<event>
 5   0  0.6262544E+06  0.9118800E+02  0.7818608E-02  0.1180000E+00
       11   -1    0    0    0    0  0.00000000000E+00  0.00000000000E+00  0.39999999673E+01  0.40000000000E+01  0.51109989000E-03 0.  1.
     -623   -1    0    0    0    0  0.00000000000E+00  0.00000000000E+00  0.12525980253E-10  0.17130000000E+03  0.17130000000E+03 0. -1.
       11    1    1    2    0    0  0.13132873309E-01 -0.36818219675E-01  0.16135411035E+01  0.16140146243E+01  0.51109989000E-03 0.  1.
     -623    1    1    2    0    0 -0.18305238060E-01 -0.17887996897E-01  0.32053267525E-02  0.17130000194E+03  0.17130000000E+03 0. -1.
      622    1    1    2    0    0  0.51723647509E-02  0.54706216572E-01  0.23832535372E+01  0.23859834337E+01  0.10000000000E+00 0.  0.
</event>
<event>
 5   0  0.6262544E+06  0.9118800E+02  0.7818608E-02  0.1180000E+00
       11   -1    0    0    0    0  0.00000000000E+00  0.00000000000E+00  0.39999999673E+01  0.40000000000E+01  0.51109989000E-03 0. -1.
     -623   -1    0    0    0    0  0.00000000000E+00  0.00000000000E+00  0.12525980253E-10  0.17130000000E+03  0.17130000000E+03 0.  1.
       11    1    1    2    0    0 -0.76386261425E-02  0.20342095604E-02  0.16913445468E+00  0.16931984998E+00  0.51109989000E-03 0. -1.
     -623    1    1    2    0    0  0.11210986812E-01 -0.58442163239E-02  0.14948712544E-02  0.17130000047E+03  0.17130000000E+03 0.  1.
      622    1    1    2    0    0 -0.35723606693E-02  0.38100067635E-02  0.38293706414E+01  0.38306796769E+01  0.10000000000E+00 0. -1.
</event>
<event>
 5   0  0.6262544E+06  0.9118800E+02  0.7818608E-02  0.1180000E+00
       11   -1    0    0    0    0  0.00000000000E+00  0.00000000000E+00  0.39999999673E+01  0.40000000000E+01  0.51109989000E-03 0.  1.
     -623   -1    0    0    0    0  0.00000000000E+00  0.00000000000E+00  0.12525980253E-10  0.17130000000E+03  0.17130000000E+03 0. -1.
       11    1    1    2    0    0  0.31649080773E-02 -0.38431540558E-02  0.21535808631E-01  0.22109698141E-01  0.51109989000E-03 0.  1.
     -623    1    1    2    0    0 -0.26911649948E-02  0.82323797749E-02  0.18336825797E-02  0.17130000023E+03  0.17130000000E+03 0. -1.
      622    1    1    2    0    0 -0.47374308248E-03 -0.43892257191E-02  0.39766304761E+01  0.39778900731E+01  0.10000000000E+00 0.  1.
</event>
<event>
 5   0  0.6262544E+06  0.9118800E+02  0.7818608E-02  0.1180000E+00
       11   -1    0    0    0    0  0.00000000000E+00  0.00000000000E+00  0.39999999673E+01  0.40000000000E+01  0.51109989000E-03 0. -1.
     -623   -1    0    0    0    0  0.00000000000E+00  0.00000000000E+00  0.12525980253E-10  0.17130000000E+03  0.17130000000E+03 0. -1.
       11    1    1    2    0    0 -0.93995656772E-02 -0.43624757915E-02  0.11113583883E-01  0.15203815246E-01  0.51109989000E-03 0. -1.
     -623    1    1    2    0    0 -0.50504385513E-02  0.11245482783E-01  0.53778485585E-02  0.17130000053E+03  0.17130000000E+03 0. -1.
      622    1    1    2    0    0  0.14450004228E-01 -0.68830069910E-02  0.39835085349E+01  0.39847956568E+01  0.10000000000E+00 0. -1.
</event>
<event>
 5   0  0.6262544E+06  0.9118800E+02  0.7818608E-02  0.1180000E+00
       11   -1    0    0    0    0  0.00000000000E+00  0.00000000000E+00  0.39999999673E+01  0.40000000000E+01  0.51109989000E-03 0.  1.
     -623   -1    0    0    0    0  0.00000000000E+00  0.00000000000E+00  0.12525980253E-10  0.17130000000E+03  0.17130000000E+03 0. -1.
       11    1    1    2    0    0  0.65681140354E-02 -0.21318543163E-01  0.13775395851E+00  0.13954939883E+00  0.51109989000E-03 0.  1.
     -623    1    1    2    0    0 -0.16281474433E-01  0.31791664883E-02  0.31464982371E-02  0.17130000083E+03  0.17130000000E+03 0. -1.
      622    1    1    2    0    0  0.97133603979E-02  0.18139376675E-01  0.38590995107E+01  0.38604497691E+01  0.10000000000E+00 0.  1.
</event>
<event>
 5   0  0.6262544E+06  0.9118800E+02  0.7818608E-02  0.1180000E+00
       11   -1    0    0    0    0  0.00000000000E+00  0.00000000000E+00  0.39999999673E+01  0.40000000000E+01  0.51109989000E-03 0. -1.
     -623   -1    0    0    0    0  0.00000000000E+00  0.00000000000E+00  0.12525980253E-10  0.17130000000E+03  0.17130000000E+03 0.  1.
       11    1    1    2    0    0 -0.38988465184E-02  0.21728738612E-02  0.11080184430E-01  0.11956341209E-01  0.51109989000E-03 0. -1.
     -623    1    1    2    0    0  0.24752516759E-02 -0.20569556980E-03  0.21308395967E-02  0.17130000003E+03  0.17130000000E+03 0.  1.
      622    1    1    2    0    0  0.14235948425E-02 -0.19671782914E-02  0.39867889434E+01  0.39880436276E+01  0.10000000000E+00 0. -1.
</event>
<event>
 5   0  0.6262544E+06  0.9118800E+02  0.7818608E-02  0.1180000E+00
       11   -1    0    0    0    0  0.00000000000E+00  0.00000000000E+00  0.39999999673E+01  0.40000000000E+01  0.51109989000E-03 0. -1.
     -623   -1    0    0    0    0  0.00000000000E+00  0.00000000000E+00  0.12525980253E-10  0.17130000000E+03  0.17130000000E+03 0.  1.
       11    1    1    2    0    0 -0.28599633114E-03  0.32465188372E-02  0.32088796977E+00  0.32090492680E+00  0.51109989000E-03 0. -1.
     -623    1    1    2    0    0  0.63147018495E-02  0.53272426769E-02  0.13913454122E-02  0.17130000020E+03  0.17130000000E+03 0.  1.
      622    1    1    2    0    0 -0.60287055184E-02 -0.85737615142E-02  0.36777206522E+01  0.36790948683E+01  0.10000000000E+00 0. -1.
</event>
<event>
 5   0  0.6262544E+06  0.9118800E+02  0.7818608E-02  0.1180000E+00
       11   -1    0    0    0    0  0.00000000000E+00  0.00000000000E+00  0.39999999673E+01  0.40000000000E+01  0.51109989000E-03 0.  1.
     -623   -1    0    0    0    0  0.00000000000E+00  0.00000000000E+00  0.12525980253E-10  0.17130000000E+03  0.17130000000E+03 0. -1.
       11    1    1    2    0    0 -0.75092774011E-02  0.14024507579E-01  0.72577943850E-01  0.74302726837E-01  0.51109989000E-03 0.  1.
     -623    1    1    2    0    0  0.51202804165E-02 -0.18070203527E-02  0.30184736991E-02  0.17130000011E+03  0.17130000000E+03 0. -1.
      622    1    1    2    0    0  0.23889969846E-02 -0.12217487226E-01  0.39244035498E+01  0.39256971605E+01  0.10000000000E+00 0.  1.
</event>
<event>
 5   0  0.6262544E+06  0.9118800E+02  0.7818608E-02  0.1180000E+00
       11   -1    0    0    0    0  0.00000000000E+00  0.00000000000E+00  0.39999999673E+01  0.40000000000E+01  0.51109989000E-03 0. -1.
     -623   -1    0    0    0    0  0.00000000000E+00  0.00000000000E+00  0.12525980253E-10  0.17130000000E+03  0.17130000000E+03 0.  1.
       11    1    1    2    0    0 -0.12427300497E-01  0.13240448623E-01  0.36797792161E-01  0.41037616992E-01  0.51109989000E-03 0. -1.
     -623    1    1    2    0    0  0.23197778918E-01 -0.30918126918E-01  0.55615394271E-02  0.17130000445E+03  0.17130000000E+03 0.  1.
      622    1    1    2    0    0 -0.10770478421E-01  0.17677678295E-01  0.39576406358E+01  0.39589579318E+01  0.10000000000E+00 0. -1.
</event>
<event>
 5   0  0.6262544E+06  0.9118800E+02  0.7818608E-02  0.1180000E+00
       11   -1    0    0    0    0  0.00000000000E+00  0.00000000000E+00  0.39999999673E+01  0.40000000000E+01  0.51109989000E-03 0. -1.
     -623   -1    0    0    0    0  0.00000000000E+00  0.00000000000E+00  0.12525980253E-10  0.17130000000E+03  0.17130000000E+03 0. -1.
       11    1    1    2    0    0  0.37804188540E-01 -0.11146413868E-01  0.20636440543E+01  0.20640204561E+01  0.51109989000E-03 0. -1.
     -623    1    1    2    0    0 -0.13611738747E-01  0.94247923036E-02  0.31137274357E-02  0.17130000083E+03  0.17130000000E+03 0. -1.
      622    1    1    2    0    0 -0.24192449793E-01  0.17216215643E-02  0.19332421857E+01  0.19359787155E+01  0.10000000000E+00 0.  1.
</event>
<event>
 5   0  0.6262544E+06  0.9118800E+02  0.7818608E-02  0.1180000E+00
       11   -1    0    0    0    0  0.00000000000E+00  0.00000000000E+00  0.39999999673E+01  0.40000000000E+01  0.51109989000E-03 0.  1.
     -623   -1    0    0    0    0  0.00000000000E+00  0.00000000000E+00  0.12525980253E-10  0.17130000000E+03  0.17130000000E+03 0. -1.
       11    1    1    2    0    0 -0.15827654683E-01  0.61627436189E-03  0.14198013713E+00  0.14286187387E+00  0.51109989000E-03 0.  1.
     -623    1    1    2    0    0  0.33741968524E-02 -0.20092522178E-01  0.22487464284E-02  0.17130000123E+03  0.17130000000E+03 0. -1.
      622    1    1    2    0    0  0.12453457830E-01  0.19476247816E-01  0.38557710838E+01  0.38571368998E+01  0.10000000000E+00 0.  1.
</event>
<event>
 5   0  0.6262544E+06  0.9118800E+02  0.7818608E-02  0.1180000E+00
       11   -1    0    0    0    0  0.00000000000E+00  0.00000000000E+00  0.39999999673E+01  0.40000000000E+01  0.51109989000E-03 0. -1.
     -623   -1    0    0    0    0  0.00000000000E+00  0.00000000000E+00  0.12525980253E-10  0.17130000000E+03  0.17130000000E+03 0. -1.
       11    1    1    2    0    0  0.65565820650E-01  0.22326095527E-01  0.10391050405E+00  0.12487988409E+00  0.51109989000E-03 0. -1.
     -623    1    1    2    0    0 -0.17289789786E-01 -0.31091300196E-01  0.22575767859E-01  0.17130000518E+03  0.17130000000E+03 0. -1.
      622    1    1    2    0    0 -0.48276030864E-01  0.87652046690E-02  0.38735136955E+01  0.38751149341E+01  0.10000000000E+00 0. -1.
</event>
<event>
 5   0  0.6262544E+06  0.9118800E+02  0.7818608E-02  0.1180000E+00
       11   -1    0    0    0    0  0.00000000000E+00  0.00000000000E+00  0.39999999673E+01  0.40000000000E+01  0.51109989000E-03 0.  1.
     -623   -1    0    0    0    0  0.00000000000E+00  0.00000000000E+00  0.12525980253E-10  0.17130000000E+03  0.17130000000E+03 0.  1.
       11    1    1    2    0    0 -0.11613417053E-02  0.66320738127E-02  0.14164286893E+00  0.14180372583E+00  0.51109989000E-03 0.  1.
     -623    1    1    2    0    0 -0.58743676846E-02 -0.42685543238E-02  0.14642859836E-02  0.17130000016E+03  0.17130000000E+03 0.  1.
      622    1    1    2    0    0  0.70357093899E-02 -0.23635194889E-02  0.38568928124E+01  0.38581961140E+01  0.10000000000E+00 0.  1.
</event>
<event>
 5   0  0.6262544E+06  0.9118800E+02  0.7818608E-02  0.1180000E+00
       11   -1    0    0    0    0  0.00000000000E+00  0.00000000000E+00  0.39999999673E+01  0.40000000000E+01  0.51109989000E-03 0.  1.
     -623   -1    0    0    0    0  0.00000000000E+00  0.00000000000E+00  0.12525980253E-10  0.17130000000E+03  0.17130000000E+03 0. -1.
       11    1    1    2    0    0  0.41800411995E-01  0.43889470620E-01  0.18121308441E+01  0.18131442351E+01  0.51109989000E-03 0.  1.
     -623    1    1    2    0    0  0.19764158694E-02 -0.33787534209E-01  0.37663620193E-02  0.17130000338E+03  0.17130000000E+03 0. -1.
      622    1    1    2    0    0 -0.43776827864E-01 -0.10101936411E-01  0.21841027612E+01  0.21868523799E+01  0.10000000000E+00 0.  1.
</event>
<event>
 5   0  0.6262544E+06  0.9118800E+02  0.7818608E-02  0.1180000E+00
       11   -1    0    0    0    0  0.00000000000E+00  0.00000000000E+00  0.39999999673E+01  0.40000000000E+01  0.51109989000E-03 0.  1.
     -623   -1    0    0    0    0  0.00000000000E+00  0.00000000000E+00  0.12525980253E-10  0.17130000000E+03  0.17130000000E+03 0.  1.
       11    1    1    2    0    0  0.38512815820E-02 -0.18472301883E-01  0.98680282732E-01  0.10046948656E+00  0.51109989000E-03 0.  1.
     -623    1    1    2    0    0  0.26568369448E-03  0.18144731858E-01  0.30747645412E-02  0.17130000099E+03  0.17130000000E+03 0.  1.
      622    1    1    2    0    0 -0.41169652765E-02  0.32757002472E-03  0.38982449202E+01  0.38995295248E+01  0.10000000000E+00 0.  1.
</event>
<event>
 5   0  0.6262544E+06  0.9118800E+02  0.7818608E-02  0.1180000E+00
       11   -1    0    0    0    0  0.00000000000E+00  0.00000000000E+00  0.39999999673E+01  0.40000000000E+01  0.51109989000E-03 0.  1.
     -623   -1    0    0    0    0  0.00000000000E+00  0.00000000000E+00  0.12525980253E-10  0.17130000000E+03  0.17130000000E+03 0. -1.
       11    1    1    2    0    0  0.63701522559E-02 -0.77259877083E-02  0.50560955963E-01  0.51545525657E-01  0.51109989000E-03 0.  1.
     -623    1    1    2    0    0 -0.88241928038E-02  0.10830454608E-03  0.22594142919E-02  0.17130000024E+03  0.17130000000E+03 0. -1.
      622    1    1    2    0    0  0.24540405479E-02  0.76176831622E-02  0.39471795971E+01  0.39484542321E+01  0.10000000000E+00 0.  1.
</event>
<event>
 5   0  0.6262544E+06  0.9118800E+02  0.7818608E-02  0.1180000E+00
       11   -1    0    0    0    0  0.00000000000E+00  0.00000000000E+00  0.39999999673E+01  0.40000000000E+01  0.51109989000E-03 0.  1.
     -623   -1    0    0    0    0  0.00000000000E+00  0.00000000000E+00  0.12525980253E-10  0.17130000000E+03  0.17130000000E+03 0.  1.
       11    1    1    2    0    0  0.99900977786E-02 -0.84798792003E-01  0.15214190861E+00  0.17446506457E+00  0.51109989000E-03 0.  1.
     -623    1    1    2    0    0 -0.28859936715E-01 -0.27533266416E-01  0.25333615787E-01  0.17130000652E+03  0.17130000000E+03 0.  1.
      622    1    1    2    0    0  0.18869838936E-01  0.11233205842E+00  0.38225244430E+01  0.38255284183E+01  0.10000000000E+00 0.  1.
</event>
<event>
 5   0  0.6262544E+06  0.9118800E+02  0.7818608E-02  0.1180000E+00
       11   -1    0    0    0    0  0.00000000000E+00  0.00000000000E+00  0.39999999673E+01  0.40000000000E+01  0.51109989000E-03 0. -1.
     -623   -1    0    0    0    0  0.00000000000E+00  0.00000000000E+00  0.12525980253E-10  0.17130000000E+03  0.17130000000E+03 0. -1.
       11    1    1    2    0    0  0.23785906501E-02 -0.46497607682E-02  0.76204439624E-01  0.76384918735E-01  0.51109989000E-03 0. -1.
     -623    1    1    2    0    0 -0.68561061008E-02 -0.40388449657E-03  0.14609436957E-02  0.17130000014E+03  0.17130000000E+03 0. -1.
      622    1    1    2    0    0  0.44775154511E-02  0.50536452648E-02  0.39223345843E+01  0.39236149376E+01  0.10000000000E+00 0. -1.
</event>
<event>
 5   0  0.6262544E+06  0.9118800E+02  0.7818608E-02  0.1180000E+00
       11   -1    0    0    0    0  0.00000000000E+00  0.00000000000E+00  0.39999999673E+01  0.40000000000E+01  0.51109989000E-03 0. -1.
     -623   -1    0    0    0    0  0.00000000000E+00  0.00000000000E+00  0.12525980253E-10  0.17130000000E+03  0.17130000000E+03 0. -1.
       11    1    1    2    0    0  0.63474555020E-02  0.41209464867E-02  0.10957704519E+01  0.10957967042E+01  0.51109989000E-03 0. -1.
     -623    1    1    2    0    0 -0.15744732530E-02 -0.26846958023E-03  0.17548704176E-02  0.17130000002E+03  0.17130000000E+03 0. -1.
      622    1    1    2    0    0 -0.47729822490E-02 -0.38524769064E-02  0.29024746451E+01  0.29042032794E+01  0.10000000000E+00 0. -1.
</event>
<event>
 5   0  0.6262544E+06  0.9118800E+02  0.7818608E-02  0.1180000E+00
       11   -1    0    0    0    0  0.00000000000E+00  0.00000000000E+00  0.39999999673E+01  0.40000000000E+01  0.51109989000E-03 0.  1.
     -623   -1    0    0    0    0  0.00000000000E+00  0.00000000000E+00  0.12525980253E-10  0.17130000000E+03  0.17130000000E+03 0.  1.
       11    1    1    2    0    0 -0.34341439311E-01 -0.12745476390E-01  0.10623925499E+01  0.10630239757E+01  0.51109989000E-03 0.  1.
     -623    1    1    2    0    0  0.81027846879E-02  0.74612715553E-02  0.24567239146E-02  0.17130000037E+03  0.17130000000E+03 0.  1.
      622    1    1    2    0    0  0.26238654623E-01  0.52842048343E-02  0.29351506936E+01  0.29369756526E+01  0.10000000000E+00 0.  0.
</event>
<event>
 5   0  0.6262544E+06  0.9118800E+02  0.7818608E-02  0.1180000E+00
       11   -1    0    0    0    0  0.00000000000E+00  0.00000000000E+00  0.39999999673E+01  0.40000000000E+01  0.51109989000E-03 0. -1.
     -623   -1    0    0    0    0  0.00000000000E+00  0.00000000000E+00  0.12525980253E-10  0.17130000000E+03  0.17130000000E+03 0. -1.
       11    1    1    2    0    0 -0.18758986007E-01  0.20329850143E-02  0.52628630683E+00  0.52662469612E+00  0.51109989000E-03 0. -1.
     -623    1    1    2    0    0 -0.47578407665E-02 -0.10316634513E-01  0.18680917060E-02  0.17130000039E+03  0.17130000000E+03 0. -1.
      622    1    1    2    0    0  0.23516826774E-01  0.82836494992E-02  0.34718455688E+01  0.34733749170E+01  0.10000000000E+00 0. -1.
</event>
<event>
 5   0  0.6262544E+06  0.9118800E+02  0.7818608E-02  0.1180000E+00
       11   -1    0    0    0    0  0.00000000000E+00  0.00000000000E+00  0.39999999673E+01  0.40000000000E+01  0.51109989000E-03 0. -1.
     -623   -1    0    0    0    0  0.00000000000E+00  0.00000000000E+00  0.12525980253E-10  0.17130000000E+03  0.17130000000E+03 0.  1.
       11    1    1    2    0    0  0.52435797174E-01  0.28020988534E-01  0.87945697062E+00  0.88146441393E+00  0.51109989000E-03 0. -1.
     -623    1    1    2    0    0 -0.22229767586E-01  0.12103539456E-01  0.40177100593E-02  0.17130000192E+03  0.17130000000E+03 0.  1.
      622    1    1    2    0    0 -0.30206029588E-01 -0.40124527989E-01  0.31165252867E+01  0.31185336690E+01  0.10000000000E+00 0. -1.
</event>
<event>
 5   0  0.6262544E+06  0.9118800E+02  0.7818608E-02  0.1180000E+00
       11   -1    0    0    0    0  0.00000000000E+00  0.00000000000E+00  0.39999999673E+01  0.40000000000E+01  0.51109989000E-03 0. -1.
     -623   -1    0    0    0    0  0.00000000000E+00  0.00000000000E+00  0.12525980253E-10  0.17130000000E+03  0.17130000000E+03 0.  1.
       11    1    1    2    0    0  0.36928131850E-02  0.17507595908E-01  0.64493406370E+00  0.64518242422E+00  0.51109989000E-03 0. -1.
     -623    1    1    2    0    0 -0.24956977525E-01 -0.48332990481E-01  0.19568131034E-02  0.17130000865E+03  0.17130000000E+03 0.  1.
      622    1    1    2    0    0  0.21264164340E-01  0.30825394572E-01  0.33531090906E+01  0.33548089279E+01  0.10000000000E+00 0. -1.
</event>
<event>
 5   0  0.6262544E+06  0.9118800E+02  0.7818608E-02  0.1180000E+00
       11   -1    0    0    0    0  0.00000000000E+00  0.00000000000E+00  0.39999999673E+01  0.40000000000E+01  0.51109989000E-03 0. -1.
     -623   -1    0    0    0    0  0.00000000000E+00  0.00000000000E+00  0.12525980253E-10  0.17130000000E+03  0.17130000000E+03 0. -1.
       11    1    1    2    0    0  0.97418170271E-03  0.37071222065E-02 -0.60214988626E-03  0.39135141020E-02  0.51109989000E-03 0. -1.
     -623    1    1    2    0    0 -0.42881514923E-02  0.72166039429E-03  0.57710334304E-02  0.17130000015E+03  0.17130000000E+03 0. -1.
      622    1    1    2    0    0  0.33139697896E-02 -0.44287826007E-02  0.39948310838E+01  0.39960863335E+01  0.10000000000E+00 0. -1.
</event>
<event>
 5   0  0.6262544E+06  0.9118800E+02  0.7818608E-02  0.1180000E+00
       11   -1    0    0    0    0  0.00000000000E+00  0.00000000000E+00  0.39999999673E+01  0.40000000000E+01  0.51109989000E-03 0.  1.
     -623   -1    0    0    0    0  0.00000000000E+00  0.00000000000E+00  0.12525980253E-10  0.17130000000E+03  0.17130000000E+03 0. -1.
       11    1    1    2    0    0  0.12877842066E-02 -0.14130209556E-01  0.41312536893E+00  0.41336926940E+00  0.51109989000E-03 0.  1.
     -623    1    1    2    0    0  0.20268662977E-02  0.13977901050E-02  0.16623715904E-02  0.17130000003E+03  0.17130000000E+03 0. -1.
      622    1    1    2    0    0 -0.33146505042E-02  0.12732419451E-01  0.35852122268E+01  0.35866307048E+01  0.10000000000E+00 0.  1.
</event>
<event>
 5   0  0.6262544E+06  0.9118800E+02  0.7818608E-02  0.1180000E+00
       11   -1    0    0    0    0  0.00000000000E+00  0.00000000000E+00  0.39999999673E+01  0.40000000000E+01  0.51109989000E-03 0.  1.
     -623   -1    0    0    0    0  0.00000000000E+00  0.00000000000E+00  0.12525980253E-10  0.17130000000E+03  0.17130000000E+03 0.  1.
       11    1    1    2    0    0 -0.37240760162E-02 -0.14642944286E-01  0.19883115141E+00  0.19940504645E+00  0.51109989000E-03 0.  1.
     -623    1    1    2    0    0  0.13224746301E-01 -0.51172710738E-03  0.19322998661E-02  0.17130000052E+03  0.17130000000E+03 0.  1.
      622    1    1    2    0    0 -0.95006702845E-02  0.15154671394E-01  0.37992365161E+01  0.38005944314E+01  0.10000000000E+00 0.  1.
</event>
<event>
 5   0  0.6262544E+06  0.9118800E+02  0.7818608E-02  0.1180000E+00
       11   -1    0    0    0    0  0.00000000000E+00  0.00000000000E+00  0.39999999673E+01  0.40000000000E+01  0.51109989000E-03 0.  1.
     -623   -1    0    0    0    0  0.00000000000E+00  0.00000000000E+00  0.12525980253E-10  0.17130000000E+03  0.17130000000E+03 0.  1.
       11    1    1    2    0    0 -0.29724870943E-02 -0.12851795607E-02  0.43443573677E-01  0.43567105515E-01  0.51109989000E-03 0.  1.
     -623    1    1    2    0    0  0.22063396767E-02  0.28787889053E-02  0.13879050267E-02  0.17130000004E+03  0.17130000000E+03 0.  1.
      622    1    1    2    0    0  0.76614741739E-03 -0.15936093448E-02  0.39551684890E+01  0.39564328508E+01  0.10000000000E+00 0.  1.
</event>
<event>
 5   0  0.6262544E+06  0.9118800E+02  0.7818608E-02  0.1180000E+00
       11   -1    0    0    0    0  0.00000000000E+00  0.00000000000E+00  0.39999999673E+01  0.40000000000E+01  0.51109989000E-03 0. -1.
     -623   -1    0    0    0    0  0.00000000000E+00  0.00000000000E+00  0.12525980253E-10  0.17130000000E+03  0.17130000000E+03 0.  1.
       11    1    1    2    0    0 -0.20083436584E-01 -0.31553475309E-01  0.88337963406E+00  0.88417125339E+00  0.51109989000E-03 0. -1.
     -623    1    1    2    0    0  0.36521530893E-01  0.28044433809E-01  0.24482799489E-02  0.17130000621E+03  0.17130000000E+03 0.  1.
      622    1    1    2    0    0 -0.16438094310E-01  0.35090415002E-02  0.31141720534E+01  0.31158225402E+01  0.10000000000E+00 0.  0.
</event>
<event>
 5   0  0.6262544E+06  0.9118800E+02  0.7818608E-02  0.1180000E+00
       11   -1    0    0    0    0  0.00000000000E+00  0.00000000000E+00  0.39999999673E+01  0.40000000000E+01  0.51109989000E-03 0. -1.
     -623   -1    0    0    0    0  0.00000000000E+00  0.00000000000E+00  0.12525980253E-10  0.17130000000E+03  0.17130000000E+03 0.  1.
       11    1    1    2    0    0  0.82211897938E-02  0.11834805931E-01  0.57693783225E-01  0.59468348211E-01  0.51109989000E-03 0. -1.
     -623    1    1    2    0    0  0.10786469624E-01 -0.10185102966E-02  0.31046795968E-02  0.17130000037E+03  0.17130000000E+03 0.  1.
      622    1    1    2    0    0 -0.19007659418E-01 -0.10816295634E-01  0.39392015045E+01  0.39405312810E+01  0.10000000000E+00 0. -1.
</event>
<event>
 5   0  0.6262544E+06  0.9118800E+02  0.7818608E-02  0.1180000E+00
       11   -1    0    0    0    0  0.00000000000E+00  0.00000000000E+00  0.39999999673E+01  0.40000000000E+01  0.51109989000E-03 0. -1.
     -623   -1    0    0    0    0  0.00000000000E+00  0.00000000000E+00  0.12525980253E-10  0.17130000000E+03  0.17130000000E+03 0. -1.
       11    1    1    2    0    0  0.79037764808E-02 -0.30293124805E-02  0.18624878019E-03  0.84818823659E-02  0.51109989000E-03 0. -1.
     -623    1    1    2    0    0 -0.10141007963E-01 -0.41984815427E-02  0.95562454053E-02  0.17130000062E+03  0.17130000000E+03 0. -1.
      622    1    1    2    0    0  0.22372314819E-02  0.72277940232E-02  0.39902574732E+01  0.39915174995E+01  0.10000000000E+00 0. -1.
</event>
<event>
 5   0  0.6262544E+06  0.9118800E+02  0.7818608E-02  0.1180000E+00
       11   -1    0    0    0    0  0.00000000000E+00  0.00000000000E+00  0.39999999673E+01  0.40000000000E+01  0.51109989000E-03 0.  1.
     -623   -1    0    0    0    0  0.00000000000E+00  0.00000000000E+00  0.12525980253E-10  0.17130000000E+03  0.17130000000E+03 0.  1.
       11    1    1    2    0    0 -0.54150725465E-02  0.32371432111E-02  0.76339272619E-02  0.99166615043E-02  0.51109989000E-03 0.  1.
     -623    1    1    2    0    0  0.49689355999E-02 -0.11155011050E-01  0.35443606664E-02  0.17130000047E+03  0.17130000000E+03 0.  1.
      622    1    1    2    0    0  0.44613694645E-03  0.79178678394E-02  0.39888216795E+01  0.39900828667E+01  0.10000000000E+00 0.  1.
</event>
<event>
 5   0  0.6262544E+06  0.9118800E+02  0.7818608E-02  0.1180000E+00
       11   -1    0    0    0    0  0.00000000000E+00  0.00000000000E+00  0.39999999673E+01  0.40000000000E+01  0.51109989000E-03 0. -1.
     -623   -1    0    0    0    0  0.00000000000E+00  0.00000000000E+00  0.12525980253E-10  0.17130000000E+03  0.17130000000E+03 0. -1.
       11    1    1    2    0    0 -0.11449679725E-01 -0.21545976250E-01  0.41148969034E+00  0.41221274936E+00  0.51109989000E-03 0. -1.
     -623    1    1    2    0    0 -0.57354924265E-02  0.48138765241E-02  0.21972975012E-02  0.17130000018E+03  0.17130000000E+03 0. -1.
      622    1    1    2    0    0  0.17185172151E-01  0.16732099726E-01  0.35863129794E+01  0.35877870727E+01  0.10000000000E+00 0. -1.
</event>
<event>
 5   0  0.6262544E+06  0.9118800E+02  0.7818608E-02  0.1180000E+00
       11   -1    0    0    0    0  0.00000000000E+00  0.00000000000E+00  0.39999999673E+01  0.40000000000E+01  0.51109989000E-03 0.  1.
     -623   -1    0    0    0    0  0.00000000000E+00  0.00000000000E+00  0.12525980253E-10  0.17130000000E+03  0.17130000000E+03 0. -1.
       11    1    1    2    0    0 -0.33911082027E-01  0.21752138535E-02  0.36502795896E+00  0.36660655352E+00  0.51109989000E-03 0.  1.
     -623    1    1    2    0    0  0.22848840408E-02 -0.39780294394E-02  0.30931804299E-02  0.17130000009E+03  0.17130000000E+03 0. -1.
      622    1    1    2    0    0  0.31626197987E-01  0.18028155859E-02  0.36318788280E+01  0.36333933571E+01  0.10000000000E+00 0.  1.
</event>
<event>
 5   0  0.6262544E+06  0.9118800E+02  0.7818608E-02  0.1180000E+00
       11   -1    0    0    0    0  0.00000000000E+00  0.00000000000E+00  0.39999999673E+01  0.40000000000E+01  0.51109989000E-03 0. -1.
     -623   -1    0    0    0    0  0.00000000000E+00  0.00000000000E+00  0.12525980253E-10  0.17130000000E+03  0.17130000000E+03 0.  1.
       11    1    1    2    0    0  0.74553500141E-02 -0.10911340961E-01  0.70192005231E-01  0.71427014685E-01  0.51109989000E-03 0. -1.
     -623    1    1    2    0    0  0.32662945143E-02  0.24600765685E-03  0.25370771164E-02  0.17130000005E+03  0.17130000000E+03 0.  1.
      622    1    1    2    0    0 -0.10721644528E-01  0.10665333304E-01  0.39272708849E+01  0.39285729351E+01  0.10000000000E+00 0. -1.
</event>
<event>
 5   0  0.6262544E+06  0.9118800E+02  0.7818608E-02  0.1180000E+00
       11   -1    0    0    0    0  0.00000000000E+00  0.00000000000E+00  0.39999999673E+01  0.40000000000E+01  0.51109989000E-03 0.  1.
     -623   -1    0    0    0    0  0.00000000000E+00  0.00000000000E+00  0.12525980253E-10  0.17130000000E+03  0.17130000000E+03 0.  1.
       11    1    1    2    0    0  0.80887244811E-02  0.15958690079E-02  0.69682498664E-01  0.70170407606E-01  0.51109989000E-03 0.  1.
     -623    1    1    2    0    0 -0.83309018865E-03 -0.36928669457E-02  0.17677129769E-02  0.17130000005E+03  0.17130000000E+03 0.  1.
      622    1    1    2    0    0 -0.72556342924E-02  0.20969979377E-02  0.39285497557E+01  0.39298295414E+01  0.10000000000E+00 0.  1.
</event>
<event>
 5   0  0.6262544E+06  0.9118800E+02  0.7818608E-02  0.1180000E+00
       11   -1    0    0    0    0  0.00000000000E+00  0.00000000000E+00  0.39999999673E+01  0.40000000000E+01  0.51109989000E-03 0.  1.
     -623   -1    0    0    0    0  0.00000000000E+00  0.00000000000E+00  0.12525980253E-10  0.17130000000E+03  0.17130000000E+03 0.  1.
       11    1    1    2    0    0  0.70927586602E-02  0.97912813440E-02  0.40489550397E+00  0.40507629747E+00  0.51109989000E-03 0.  1.
     -623    1    1    2    0    0  0.38797189582E-02 -0.67659192990E-02  0.15900903444E-02  0.17130000018E+03  0.17130000000E+03 0.  1.
      622    1    1    2    0    0 -0.10972477618E-01 -0.30253620450E-02  0.35935143730E+01  0.35949235176E+01  0.10000000000E+00 0.  1.
</event>
<event>
 5   0  0.6262544E+06  0.9118800E+02  0.7818608E-02  0.1180000E+00
       11   -1    0    0    0    0  0.00000000000E+00  0.00000000000E+00  0.39999999673E+01  0.40000000000E+01  0.51109989000E-03 0. -1.
     -623   -1    0    0    0    0  0.00000000000E+00  0.00000000000E+00  0.12525980253E-10  0.17130000000E+03  0.17130000000E+03 0. -1.
       11    1    1    2    0    0 -0.17301766604E-01 -0.82479111093E-02  0.17286472735E+00  0.17392485259E+00  0.51109989000E-03 0. -1.
     -623    1    1    2    0    0 -0.23172026953E-02  0.14165744649E-02  0.24235951233E-02  0.17130000004E+03  0.17130000000E+03 0. -1.
      622    1    1    2    0    0  0.19618969299E-01  0.68313366444E-02  0.38247116450E+01  0.38260751089E+01  0.10000000000E+00 0. -1.
</event>
<event>
 5   0  0.6262544E+06  0.9118800E+02  0.7818608E-02  0.1180000E+00
       11   -1    0    0    0    0  0.00000000000E+00  0.00000000000E+00  0.39999999673E+01  0.40000000000E+01  0.51109989000E-03 0. -1.
     -623   -1    0    0    0    0  0.00000000000E+00  0.00000000000E+00  0.12525980253E-10  0.17130000000E+03  0.17130000000E+03 0. -1.
       11    1    1    2    0    0  0.16872674821E-01  0.92234812006E-02  0.36955628843E-01  0.41662206943E-01  0.51109989000E-03 0. -1.
     -623    1    1    2    0    0 -0.27644724778E-01  0.33937771849E-02  0.60070513366E-02  0.17130000237E+03  0.17130000000E+03 0. -1.
      622    1    1    2    0    0  0.10772049957E-01 -0.12617258386E-01  0.39570372872E+01  0.39583354235E+01  0.10000000000E+00 0. -1.
</event>
<event>
 5   0  0.6262544E+06  0.9118800E+02  0.7818608E-02  0.1180000E+00
       11   -1    0    0    0    0  0.00000000000E+00  0.00000000000E+00  0.39999999673E+01  0.40000000000E+01  0.51109989000E-03 0.  1.
     -623   -1    0    0    0    0  0.00000000000E+00  0.00000000000E+00  0.12525980253E-10  0.17130000000E+03  0.17130000000E+03 0.  1.
       11    1    1    2    0    0  0.17799774858E-01 -0.14639985405E-01  0.72907492461E-01  0.76465187089E-01  0.51109989000E-03 0.  1.
     -623    1    1    2    0    0 -0.23006072296E-01  0.25765326272E-01  0.48550163213E-02  0.17130000355E+03  0.17130000000E+03 0.  1.
      622    1    1    2    0    0  0.52062974381E-02 -0.11125340867E-01  0.39222374586E+01  0.39235312615E+01  0.10000000000E+00 0.  1.
</event>
<event>
 5   0  0.6262544E+06  0.9118800E+02  0.7818608E-02  0.1180000E+00
       11   -1    0    0    0    0  0.00000000000E+00  0.00000000000E+00  0.39999999673E+01  0.40000000000E+01  0.51109989000E-03 0.  1.
     -623   -1    0    0    0    0  0.00000000000E+00  0.00000000000E+00  0.12525980253E-10  0.17130000000E+03  0.17130000000E+03 0. -1.
       11    1    1    2    0    0  0.39891299191E-01 -0.33973741943E-02  0.39015774343E+00  0.39220681264E+00  0.51109989000E-03 0.  1.
     -623    1    1    2    0    0 -0.22433094989E-01 -0.25727943219E-01  0.35984999072E-02  0.17130000344E+03  0.17130000000E+03 0. -1.
      622    1    1    2    0    0 -0.17458204201E-01  0.29125317415E-01  0.36062437242E+01  0.36077897488E+01  0.10000000000E+00 0.  1.
</event>
<event>
 5   0  0.6262544E+06  0.9118800E+02  0.7818608E-02  0.1180000E+00
       11   -1    0    0    0    0  0.00000000000E+00  0.00000000000E+00  0.39999999673E+01  0.40000000000E+01  0.51109989000E-03 0.  1.
     -623   -1    0    0    0    0  0.00000000000E+00  0.00000000000E+00  0.12525980253E-10  0.17130000000E+03  0.17130000000E+03 0. -1.
       11    1    1    2    0    0  0.40060319876E-02  0.13049430720E-02  0.58348192250E-01  0.58502341241E-01  0.51109989000E-03 0.  1.
     -623    1    1    2    0    0 -0.21895112476E-02  0.32451458177E-02  0.14259704705E-02  0.17130000005E+03  0.17130000000E+03 0. -1.
      622    1    1    2    0    0 -0.18165207399E-02 -0.45500888899E-02  0.39402258049E+01  0.39414976083E+01  0.10000000000E+00 0.  1.
</event>
<event>
 5   0  0.6262544E+06  0.9118800E+02  0.7818608E-02  0.1180000E+00
       11   -1    0    0    0    0  0.00000000000E+00  0.00000000000E+00  0.39999999673E+01  0.40000000000E+01  0.51109989000E-03 0. -1.
     -623   -1    0    0    0    0  0.00000000000E+00  0.00000000000E+00  0.12525980253E-10  0.17130000000E+03  0.17130000000E+03 0.  1.
       11    1    1    2    0    0 -0.59730538418E-01 -0.65652470615E-01  0.10686332858E+01  0.10723130816E+01  0.51109989000E-03 0. -1.
     -623    1    1    2    0    0  0.56150919261E-02  0.53866277255E-02  0.65096799131E-02  0.17130000030E+03  0.17130000000E+03 0.  1.
      622    1    1    2    0    0  0.54115446492E-01  0.60265842889E-01  0.29248570016E+01  0.29276866180E+01  0.10000000000E+00 0. -1.
</event>
<event>
 5   0  0.6262544E+06  0.9118800E+02  0.7818608E-02  0.1180000E+00
       11   -1    0    0    0    0  0.00000000000E+00  0.00000000000E+00  0.39999999673E+01  0.40000000000E+01  0.51109989000E-03 0.  1.
     -623   -1    0    0    0    0  0.00000000000E+00  0.00000000000E+00  0.12525980253E-10  0.17130000000E+03  0.17130000000E+03 0. -1.
       11    1    1    2    0    0 -0.42728737421E-01  0.59147275690E-01  0.17891752864E+01  0.17906626182E+01  0.51109989000E-03 0.  1.
     -623    1    1    2    0    0 -0.19946710055E-01 -0.37436618154E-01  0.47538290050E-02  0.17130000532E+03  0.17130000000E+03 0. -1.
      622    1    1    2    0    0  0.62675447476E-01 -0.21710657536E-01  0.22060708519E+01  0.22093320638E+01  0.10000000000E+00 0.  1.
</event>
<event>
 5   0  0.6262544E+06  0.9118800E+02  0.7818608E-02  0.1180000E+00
       11   -1    0    0    0    0  0.00000000000E+00  0.00000000000E+00  0.39999999673E+01  0.40000000000E+01  0.51109989000E-03 0. -1.
     -623   -1    0    0    0    0  0.00000000000E+00  0.00000000000E+00  0.12525980253E-10  0.17130000000E+03  0.17130000000E+03 0. -1.
       11    1    1    2    0    0  0.70026364365E-01 -0.85515468818E-01  0.16226829996E+01  0.16264430409E+01  0.51109989000E-03 0. -1.
     -623    1    1    2    0    0  0.17737993640E-02  0.20263667080E-01  0.78543728547E-02  0.17130000139E+03  0.17130000000E+03 0. -1.
      622    1    1    2    0    0 -0.71800163729E-01  0.65251801738E-01  0.23694625949E+01  0.23735555713E+01  0.10000000000E+00 0. -1.
</event>
<event>
 5   0  0.6262544E+06  0.9118800E+02  0.7818608E-02  0.1180000E+00
       11   -1    0    0    0    0  0.00000000000E+00  0.00000000000E+00  0.39999999673E+01  0.40000000000E+01  0.51109989000E-03 0. -1.
     -623   -1    0    0    0    0  0.00000000000E+00  0.00000000000E+00  0.12525980253E-10  0.17130000000E+03  0.17130000000E+03 0. -1.
       11    1    1    2    0    0  0.41650927488E-03  0.13328412417E-02 -0.18380281679E-03  0.14983164969E-02  0.51109989000E-03 0. -1.
     -623    1    1    2    0    0 -0.41191797700E-02  0.14624644769E-02  0.29355239022E-02  0.17130000008E+03  0.17130000000E+03 0. -1.
      622    1    1    2    0    0  0.37026704951E-02 -0.27953057187E-02  0.39972482463E+01  0.39985016026E+01  0.10000000000E+00 0. -1.
</event>
<event>
 5   0  0.6262544E+06  0.9118800E+02  0.7818608E-02  0.1180000E+00
       11   -1    0    0    0    0  0.00000000000E+00  0.00000000000E+00  0.39999999673E+01  0.40000000000E+01  0.51109989000E-03 0.  1.
     -623   -1    0    0    0    0  0.00000000000E+00  0.00000000000E+00  0.12525980253E-10  0.17130000000E+03  0.17130000000E+03 0.  1.
       11    1    1    2    0    0 -0.15726094108E-01 -0.58245055157E-01  0.21574662724E+01  0.21583097031E+01  0.51109989000E-03 0.  1.
     -623    1    1    2    0    0  0.25429035429E-01  0.31448959838E-01  0.37859600895E-02  0.17130000482E+03  0.17130000000E+03 0.  1.
      622    1    1    2    0    0 -0.97029413207E-02  0.26796095318E-01  0.18387477348E+01  0.18416854808E+01  0.10000000000E+00 0. -1.
</event>
<event>
 5   0  0.6262544E+06  0.9118800E+02  0.7818608E-02  0.1180000E+00
       11   -1    0    0    0    0  0.00000000000E+00  0.00000000000E+00  0.39999999673E+01  0.40000000000E+01  0.51109989000E-03 0. -1.
     -623   -1    0    0    0    0  0.00000000000E+00  0.00000000000E+00  0.12525980253E-10  0.17130000000E+03  0.17130000000E+03 0. -1.
       11    1    1    2    0    0  0.35016992027E-02  0.36739338817E-02  0.78235192747E-02  0.93396126308E-02  0.51109989000E-03 0. -1.
     -623    1    1    2    0    0 -0.50799138546E-02  0.15352936429E-02  0.27730007913E-02  0.17130000010E+03  0.17130000000E+03 0. -1.
      622    1    1    2    0    0  0.15782146519E-02 -0.52092275246E-02  0.39894034473E+01  0.39906602827E+01  0.10000000000E+00 0. -1.
</event>
<event>
 5   0  0.6262544E+06  0.9118800E+02  0.7818608E-02  0.1180000E+00
       11   -1    0    0    0    0  0.00000000000E+00  0.00000000000E+00  0.39999999673E+01  0.40000000000E+01  0.51109989000E-03 0.  1.
     -623   -1    0    0    0    0  0.00000000000E+00  0.00000000000E+00  0.12525980253E-10  0.17130000000E+03  0.17130000000E+03 0. -1.
       11    1    1    2    0    0 -0.78972264276E-03  0.38938764805E-01  0.18707767800E+01  0.18711822126E+01  0.51109989000E-03 0.  1.
     -623    1    1    2    0    0  0.13176686063E-02 -0.76816549459E-02  0.29854253704E-02  0.17130000020E+03  0.17130000000E+03 0. -1.
      622    1    1    2    0    0 -0.52794596364E-03 -0.31257109858E-01  0.21262377621E+01  0.21288175842E+01  0.10000000000E+00 0.  0.
</event>
<event>
 5   0  0.6262544E+06  0.9118800E+02  0.7818608E-02  0.1180000E+00
       11   -1    0    0    0    0  0.00000000000E+00  0.00000000000E+00  0.39999999673E+01  0.40000000000E+01  0.51109989000E-03 0.  1.
     -623   -1    0    0    0    0  0.00000000000E+00  0.00000000000E+00  0.12525980253E-10  0.17130000000E+03  0.17130000000E+03 0. -1.
       11    1    1    2    0    0 -0.12049237721E-01  0.11334323779E-02  0.59664714218E-01  0.60881919679E-01  0.51109989000E-03 0.  1.
     -623    1    1    2    0    0  0.18241235983E-01 -0.96666598600E-02  0.25020736406E-02  0.17130000126E+03  0.17130000000E+03 0. -1.
      622    1    1    2    0    0 -0.61919982616E-02  0.85332274822E-02  0.39378331795E+01  0.39391168181E+01  0.10000000000E+00 0.  1.
</event>
<event>
 5   0  0.6262544E+06  0.9118800E+02  0.7818608E-02  0.1180000E+00
       11   -1    0    0    0    0  0.00000000000E+00  0.00000000000E+00  0.39999999673E+01  0.40000000000E+01  0.51109989000E-03 0. -1.
     -623   -1    0    0    0    0  0.00000000000E+00  0.00000000000E+00  0.12525980253E-10  0.17130000000E+03  0.17130000000E+03 0. -1.
       11    1    1    2    0    0 -0.18943736024E-01 -0.61098539351E-01  0.18840325699E+00  0.19896719607E+00  0.51109989000E-03 0. -1.
     -623    1    1    2    0    0 -0.15497139348E-02  0.23612824484E-01  0.12121808430E-01  0.17130000206E+03  0.17130000000E+03 0. -1.
      622    1    1    2    0    0  0.20493449958E-01  0.37485714867E-01  0.37994749020E+01  0.38010307406E+01  0.10000000000E+00 0. -1.
</event>
<event>
 5   0  0.6262544E+06  0.9118800E+02  0.7818608E-02  0.1180000E+00
       11   -1    0    0    0    0  0.00000000000E+00  0.00000000000E+00  0.39999999673E+01  0.40000000000E+01  0.51109989000E-03 0. -1.
     -623   -1    0    0    0    0  0.00000000000E+00  0.00000000000E+00  0.12525980253E-10  0.17130000000E+03  0.17130000000E+03 0.  1.
       11    1    1    2    0    0  0.83228958926E-03 -0.31457047094E-01  0.83822900226E+00  0.83881962302E+00  0.51109989000E-03 0. -1.
     -623    1    1    2    0    0 -0.50802679515E-02  0.75710247572E-02  0.22660735771E-02  0.17130000026E+03  0.17130000000E+03 0.  1.
      622    1    1    2    0    0  0.42479783623E-02  0.23886022336E-01  0.31595048915E+01  0.31611801193E+01  0.10000000000E+00 0.  0.
</event>
<event>
 5   0  0.6262544E+06  0.9118800E+02  0.7818608E-02  0.1180000E+00
       11   -1    0    0    0    0  0.00000000000E+00  0.00000000000E+00  0.39999999673E+01  0.40000000000E+01  0.51109989000E-03 0. -1.
     -623   -1    0    0    0    0  0.00000000000E+00  0.00000000000E+00  0.12525980253E-10  0.17130000000E+03  0.17130000000E+03 0. -1.
       11    1    1    2    0    0 -0.11609584525E-01  0.17338568691E-01  0.52919403860E+00  0.52960551369E+00  0.51109989000E-03 0. -1.
     -623    1    1    2    0    0  0.14126927204E-02  0.11761057784E-01  0.19899632155E-02  0.17130000042E+03  0.17130000000E+03 0. -1.
      622    1    1    2    0    0  0.10196891805E-01 -0.29099626475E-01  0.34688159655E+01  0.34703940652E+01  0.10000000000E+00 0. -1.
</event>
<event>
 5   0  0.6262544E+06  0.9118800E+02  0.7818608E-02  0.1180000E+00
       11   -1    0    0    0    0  0.00000000000E+00  0.00000000000E+00  0.39999999673E+01  0.40000000000E+01  0.51109989000E-03 0. -1.
     -623   -1    0    0    0    0  0.00000000000E+00  0.00000000000E+00  0.12525980253E-10  0.17130000000E+03  0.17130000000E+03 0.  1.
       11    1    1    2    0    0 -0.36255386135E-01  0.14821444154E-01  0.27970320102E+00  0.28243277096E+00  0.51109989000E-03 0. -1.
     -623    1    1    2    0    0 -0.37310140751E-02  0.20423877571E-01  0.44583452901E-02  0.17130000132E+03  0.17130000000E+03 0.  1.
      622    1    1    2    0    0  0.39986400210E-01 -0.35245321724E-01  0.37158384211E+01  0.37175659128E+01  0.10000000000E+00 0. -1.
</event>
<event>
 5   0  0.6262544E+06  0.9118800E+02  0.7818608E-02  0.1180000E+00
       11   -1    0    0    0    0  0.00000000000E+00  0.00000000000E+00  0.39999999673E+01  0.40000000000E+01  0.51109989000E-03 0. -1.
     -623   -1    0    0    0    0  0.00000000000E+00  0.00000000000E+00  0.12525980253E-10  0.17130000000E+03  0.17130000000E+03 0.  1.
       11    1    1    2    0    0 -0.24226055140E-02 -0.23075682316E-02  0.45811180054E+00  0.45812430290E+00  0.51109989000E-03 0. -1.
     -623    1    1    2    0    0 -0.26421412970E-02 -0.44421376585E-03  0.14291515074E-02  0.17130000003E+03  0.17130000000E+03 0.  1.
      622    1    1    2    0    0  0.50647468111E-02  0.27517819974E-02  0.35404590155E+01  0.35418756704E+01  0.10000000000E+00 0. -1.
</event>
<event>
 5   0  0.6262544E+06  0.9118800E+02  0.7818608E-02  0.1180000E+00
       11   -1    0    0    0    0  0.00000000000E+00  0.00000000000E+00  0.39999999673E+01  0.40000000000E+01  0.51109989000E-03 0. -1.
     -623   -1    0    0    0    0  0.00000000000E+00  0.00000000000E+00  0.12525980253E-10  0.17130000000E+03  0.17130000000E+03 0. -1.
       11    1    1    2    0    0 -0.32819783906E-01  0.10420806965E-01  0.19469431845E+01  0.19472477388E+01  0.51109989000E-03 0. -1.
     -623    1    1    2    0    0  0.20498902086E-02 -0.11954980053E-01  0.29736536317E-02  0.17130000046E+03  0.17130000000E+03 0. -1.
      622    1    1    2    0    0  0.30769893698E-01  0.15341730877E-02  0.20500831293E+01  0.20527518060E+01  0.10000000000E+00 0. -1.
</event>
<event>
 5   0  0.6262544E+06  0.9118800E+02  0.7818608E-02  0.1180000E+00
       11   -1    0    0    0    0  0.00000000000E+00  0.00000000000E+00  0.39999999673E+01  0.40000000000E+01  0.51109989000E-03 0. -1.
     -623   -1    0    0    0    0  0.00000000000E+00  0.00000000000E+00  0.12525980253E-10  0.17130000000E+03  0.17130000000E+03 0. -1.
       11    1    1    2    0    0  0.23875515313E-01 -0.28856289989E-01  0.21877533035E+01  0.21880739256E+01  0.51109989000E-03 0. -1.
     -623    1    1    2    0    0 -0.21690982656E-01  0.20398343545E-01  0.31058981667E-02  0.17130000262E+03  0.17130000000E+03 0. -1.
      622    1    1    2    0    0 -0.21845326570E-02  0.84579464436E-02  0.18091407657E+01  0.18119234584E+01  0.10000000000E+00 0. -1.
</event>
<event>
 5   0  0.6262544E+06  0.9118800E+02  0.7818608E-02  0.1180000E+00
       11   -1    0    0    0    0  0.00000000000E+00  0.00000000000E+00  0.39999999673E+01  0.40000000000E+01  0.51109989000E-03 0. -1.
     -623   -1    0    0    0    0  0.00000000000E+00  0.00000000000E+00  0.12525980253E-10  0.17130000000E+03  0.17130000000E+03 0.  1.
       11    1    1    2    0    0 -0.13894437551E-01  0.21994405917E-01  0.43874659372E+00  0.43951751275E+00  0.51109989000E-03 0. -1.
     -623    1    1    2    0    0 -0.43947966645E-02 -0.29750880538E-02  0.22733766940E-02  0.17130000010E+03  0.17130000000E+03 0.  1.
      622    1    1    2    0    0  0.18289234215E-01 -0.19019317863E-01  0.35589799970E+01  0.35604823901E+01  0.10000000000E+00 0. -1.
</event>
<event>
 5   0  0.6262544E+06  0.9118800E+02  0.7818608E-02  0.1180000E+00
       11   -1    0    0    0    0  0.00000000000E+00  0.00000000000E+00  0.39999999673E+01  0.40000000000E+01  0.51109989000E-03 0.  1.
     -623   -1    0    0    0    0  0.00000000000E+00  0.00000000000E+00  0.12525980253E-10  0.17130000000E+03  0.17130000000E+03 0.  1.
       11    1    1    2    0    0  0.25669933500E-01 -0.46765714981E-01  0.55680703513E+00  0.55935705339E+00  0.51109989000E-03 0.  1.
     -623    1    1    2    0    0  0.48307315884E-02  0.19589609033E-02  0.44307988210E-02  0.17130000014E+03  0.17130000000E+03 0.  1.
      622    1    1    2    0    0 -0.30500665088E-01  0.44806754078E-01  0.34387621334E+01  0.34406428100E+01  0.10000000000E+00 0.  1.
</event>
<event>
 5   0  0.6262544E+06  0.9118800E+02  0.7818608E-02  0.1180000E+00
       11   -1    0    0    0    0  0.00000000000E+00  0.00000000000E+00  0.39999999673E+01  0.40000000000E+01  0.51109989000E-03 0.  1.
     -623   -1    0    0    0    0  0.00000000000E+00  0.00000000000E+00  0.12525980253E-10  0.17130000000E+03  0.17130000000E+03 0.  1.
       11    1    1    2    0    0 -0.26410857891E-03 -0.68755853460E-02  0.73228029676E-02  0.10061217286E-01  0.51109989000E-03 0.  1.
     -623    1    1    2    0    0  0.22074556807E-02  0.91052363610E-02  0.39931300356E-02  0.17130000030E+03  0.17130000000E+03 0.  1.
      622    1    1    2    0    0 -0.19433471018E-02 -0.22296510150E-02  0.39886840344E+01  0.39899384800E+01  0.10000000000E+00 0.  1.
</event>
<event>
 5   0  0.6262544E+06  0.9118800E+02  0.7818608E-02  0.1180000E+00
       11   -1    0    0    0    0  0.00000000000E+00  0.00000000000E+00  0.39999999673E+01  0.40000000000E+01  0.51109989000E-03 0.  1.
     -623   -1    0    0    0    0  0.00000000000E+00  0.00000000000E+00  0.12525980253E-10  0.17130000000E+03  0.17130000000E+03 0. -1.
       11    1    1    2    0    0  0.85126447814E-01 -0.11038762792E+00  0.26764892947E+01  0.26801170024E+01  0.51109989000E-03 0.  1.
     -623    1    1    2    0    0  0.77546921352E-02  0.29526806960E-01  0.13198791567E-01  0.17130000323E+03  0.17130000000E+03 0. -1.
      622    1    1    2    0    0 -0.92881139949E-01  0.80860820962E-01  0.13103118811E+01  0.13198797689E+01  0.10000000000E+00 0.  1.
</event>
<event>
 5   0  0.6262544E+06  0.9118800E+02  0.7818608E-02  0.1180000E+00
       11   -1    0    0    0    0  0.00000000000E+00  0.00000000000E+00  0.39999999673E+01  0.40000000000E+01  0.51109989000E-03 0. -1.
     -623   -1    0    0    0    0  0.00000000000E+00  0.00000000000E+00  0.12525980253E-10  0.17130000000E+03  0.17130000000E+03 0.  1.
       11    1    1    2    0    0 -0.62972608611E-02 -0.30414374553E-02  0.90295087575E-02  0.11432370111E-01  0.51109989000E-03 0. -1.
     -623    1    1    2    0    0  0.11407982056E-02  0.37035682762E-02  0.36600807811E-02  0.17130000008E+03  0.17130000000E+03 0.  1.
      622    1    1    2    0    0  0.51564626555E-02 -0.66213082098E-03  0.39873103778E+01  0.39885675470E+01  0.10000000000E+00 0. -1.
</event>
<event>
 5   0  0.6262544E+06  0.9118800E+02  0.7818608E-02  0.1180000E+00
       11   -1    0    0    0    0  0.00000000000E+00  0.00000000000E+00  0.39999999673E+01  0.40000000000E+01  0.51109989000E-03 0.  1.
     -623   -1    0    0    0    0  0.00000000000E+00  0.00000000000E+00  0.12525980253E-10  0.17130000000E+03  0.17130000000E+03 0. -1.
       11    1    1    2    0    0 -0.31819381603E-01  0.28373844374E-01  0.38940465278E+00  0.39173178697E+00  0.51109989000E-03 0.  1.
     -623    1    1    2    0    0  0.27858703850E-01  0.36246840906E-02  0.38595374612E-02  0.17130000235E+03  0.17130000000E+03 0. -1.
      622    1    1    2    0    0  0.39606777531E-02 -0.31998528464E-01  0.36067357771E+01  0.36082658659E+01  0.10000000000E+00 0.  1.
</event>
<event>
 5   0  0.6262544E+06  0.9118800E+02  0.7818608E-02  0.1180000E+00
       11   -1    0    0    0    0  0.00000000000E+00  0.00000000000E+00  0.39999999673E+01  0.40000000000E+01  0.51109989000E-03 0. -1.
     -623   -1    0    0    0    0  0.00000000000E+00  0.00000000000E+00  0.12525980253E-10  0.17130000000E+03  0.17130000000E+03 0. -1.
       11    1    1    2    0    0 -0.38895294781E-01 -0.25391223437E-01  0.12198219988E+01  0.12207061597E+01  0.51109989000E-03 0. -1.
     -623    1    1    2    0    0 -0.55532174250E-02 -0.36278371110E-02  0.31911850316E-02  0.17130000016E+03  0.17130000000E+03 0. -1.
      622    1    1    2    0    0  0.44448512206E-01  0.29019060548E-01  0.27769867835E+01  0.27792936822E+01  0.10000000000E+00 0.  0.
</event>
<event>
 5   0  0.6262544E+06  0.9118800E+02  0.7818608E-02  0.1180000E+00
       11   -1    0    0    0    0  0.00000000000E+00  0.00000000000E+00  0.39999999673E+01  0.40000000000E+01  0.51109989000E-03 0.  1.
     -623   -1    0    0    0    0  0.00000000000E+00  0.00000000000E+00  0.12525980253E-10  0.17130000000E+03  0.17130000000E+03 0. -1.
       11    1    1    2    0    0 -0.21651476842E-01 -0.55249860709E-01  0.12703787400E+00  0.14021489296E+00  0.51109989000E-03 0.  1.
     -623    1    1    2    0    0 -0.16501223857E-01  0.42645118385E-02  0.14999635855E-01  0.17130000150E+03  0.17130000000E+03 0. -1.
      622    1    1    2    0    0  0.38152700699E-01  0.50985348871E-01  0.38579624575E+01  0.38597836025E+01  0.10000000000E+00 0.  1.
</event>
<event>
 5   0  0.6262544E+06  0.9118800E+02  0.7818608E-02  0.1180000E+00
       11   -1    0    0    0    0  0.00000000000E+00  0.00000000000E+00  0.39999999673E+01  0.40000000000E+01  0.51109989000E-03 0. -1.
     -623   -1    0    0    0    0  0.00000000000E+00  0.00000000000E+00  0.12525980253E-10  0.17130000000E+03  0.17130000000E+03 0.  1.
       11    1    1    2    0    0 -0.17677108705E-01 -0.24847597441E-01  0.16055488401E+00  0.16342587088E+00  0.51109989000E-03 0. -1.
     -623    1    1    2    0    0  0.21745472430E-02 -0.16121676613E-01  0.44254130297E-02  0.17130000083E+03  0.17130000000E+03 0.  1.
      622    1    1    2    0    0  0.15502561462E-01  0.40969274055E-01  0.38350196704E+01  0.38365732996E+01  0.10000000000E+00 0. -1.
</event>
<event>
 5   0  0.6262544E+06  0.9118800E+02  0.7818608E-02  0.1180000E+00
       11   -1    0    0    0    0  0.00000000000E+00  0.00000000000E+00  0.39999999673E+01  0.40000000000E+01  0.51109989000E-03 0. -1.
     -623   -1    0    0    0    0  0.00000000000E+00  0.00000000000E+00  0.12525980253E-10  0.17130000000E+03  0.17130000000E+03 0.  1.
       11    1    1    2    0    0  0.14261423615E+00 -0.10784661982E-01  0.15012429921E+01  0.15080404211E+01  0.51109989000E-03 0. -1.
     -623    1    1    2    0    0  0.16868600088E-02  0.53094390659E-02  0.12996156186E-01  0.17130000058E+03  0.17130000000E+03 0.  1.
      622    1    1    2    0    0 -0.14430109616E+00  0.54752229162E-02  0.24857608191E+01  0.24919589953E+01  0.10000000000E+00 0. -1.
</event>
<event>
 5   0  0.6262544E+06  0.9118800E+02  0.7818608E-02  0.1180000E+00
       11   -1    0    0    0    0  0.00000000000E+00  0.00000000000E+00  0.39999999673E+01  0.40000000000E+01  0.51109989000E-03 0. -1.
     -623   -1    0    0    0    0  0.00000000000E+00  0.00000000000E+00  0.12525980253E-10  0.17130000000E+03  0.17130000000E+03 0.  1.
       11    1    1    2    0    0  0.30218930733E-02 -0.11435478411E-01  0.15049092211E+00  0.15095589045E+00  0.51109989000E-03 0. -1.
     -623    1    1    2    0    0 -0.34925048415E-01  0.14778123193E-01  0.19021037006E-02  0.17130000421E+03  0.17130000000E+03 0.  1.
      622    1    1    2    0    0  0.31903155342E-01 -0.33426447820E-02  0.38476069416E+01  0.38490399012E+01  0.10000000000E+00 0. -1.
</event>
<event>
 5   0  0.6262544E+06  0.9118800E+02  0.7818608E-02  0.1180000E+00
       11   -1    0    0    0    0  0.00000000000E+00  0.00000000000E+00  0.39999999673E+01  0.40000000000E+01  0.51109989000E-03 0.  1.
     -623   -1    0    0    0    0  0.00000000000E+00  0.00000000000E+00  0.12525980253E-10  0.17130000000E+03  0.17130000000E+03 0. -1.
       11    1    1    2    0    0 -0.33623987560E-02  0.89641731675E-03  0.29389131132E-02  0.45834182424E-02  0.51109989000E-03 0.  1.
     -623    1    1    2    0    0  0.21022099271E-02  0.16718228035E-02  0.28971725549E-02  0.17130000005E+03  0.17130000000E+03 0. -1.
      622    1    1    2    0    0  0.12601888289E-02 -0.25682401202E-02  0.39941638817E+01  0.39954165362E+01  0.10000000000E+00 0.  1.
</event>
<event>
 5   0  0.6262544E+06  0.9118800E+02  0.7818608E-02  0.1180000E+00
       11   -1    0    0    0    0  0.00000000000E+00  0.00000000000E+00  0.39999999673E+01  0.40000000000E+01  0.51109989000E-03 0.  1.
     -623   -1    0    0    0    0  0.00000000000E+00  0.00000000000E+00  0.12525980253E-10  0.17130000000E+03  0.17130000000E+03 0. -1.
       11    1    1    2    0    0  0.21214439001E-01  0.22418406475E-01  0.58492129575E+00  0.58573528220E+00  0.51109989000E-03 0.  1.
     -623    1    1    2    0    0 -0.11622973875E-01 -0.16971732813E-02  0.23555159927E-02  0.17130000042E+03  0.17130000000E+03 0. -1.
      622    1    1    2    0    0 -0.95914651260E-02 -0.20721233194E-01  0.34127231556E+01  0.34142642989E+01  0.10000000000E+00 0.  1.
</event>
<event>
 5   0  0.6262544E+06  0.9118800E+02  0.7818608E-02  0.1180000E+00
       11   -1    0    0    0    0  0.00000000000E+00  0.00000000000E+00  0.39999999673E+01  0.40000000000E+01  0.51109989000E-03 0. -1.
     -623   -1    0    0    0    0  0.00000000000E+00  0.00000000000E+00  0.12525980253E-10  0.17130000000E+03  0.17130000000E+03 0. -1.
       11    1    1    2    0    0  0.14335446659E-01  0.64462880675E-02  0.33309809929E-01  0.36835639282E-01  0.51109989000E-03 0. -1.
     -623    1    1    2    0    0 -0.74272857550E-02 -0.19692714586E-01  0.48171440342E-02  0.17130000136E+03  0.17130000000E+03 0. -1.
      622    1    1    2    0    0 -0.69081609040E-02  0.13246426519E-01  0.39618730134E+01  0.39631630001E+01  0.10000000000E+00 0. -1.
</event>
<event>
 5   0  0.6262544E+06  0.9118800E+02  0.7818608E-02  0.1180000E+00
       11   -1    0    0    0    0  0.00000000000E+00  0.00000000000E+00  0.39999999673E+01  0.40000000000E+01  0.51109989000E-03 0. -1.
     -623   -1    0    0    0    0  0.00000000000E+00  0.00000000000E+00  0.12525980253E-10  0.17130000000E+03  0.17130000000E+03 0.  1.
       11    1    1    2    0    0  0.31285347239E-02 -0.59132788128E-02  0.51156896937E-01  0.51594999014E-01  0.51109989000E-03 0. -1.
     -623    1    1    2    0    0 -0.57834732817E-02  0.34683034323E-02  0.17063981179E-02  0.17130000014E+03  0.17130000000E+03 0.  1.
      622    1    1    2    0    0  0.26549385578E-02  0.24449753805E-02  0.39471366723E+01  0.39484048597E+01  0.10000000000E+00 0. -1.
</event>
<event>
 5   0  0.6262544E+06  0.9118800E+02  0.7818608E-02  0.1180000E+00
       11   -1    0    0    0    0  0.00000000000E+00  0.00000000000E+00  0.39999999673E+01  0.40000000000E+01  0.51109989000E-03 0. -1.
     -623   -1    0    0    0    0  0.00000000000E+00  0.00000000000E+00  0.12525980253E-10  0.17130000000E+03  0.17130000000E+03 0.  1.
       11    1    1    2    0    0 -0.79307009136E-02 -0.52399682868E-01  0.26547340083E+00  0.27071204360E+00  0.51109989000E-03 0. -1.
     -623    1    1    2    0    0  0.40242842541E-01  0.43743885137E-01  0.67401241494E-02  0.17130001044E+03  0.17130000000E+03 0.  1.
      622    1    1    2    0    0 -0.32312141627E-01  0.86557977312E-02  0.37277864424E+01  0.37292775114E+01  0.10000000000E+00 0. -1.
</event>
<event>
 5   0  0.6262544E+06  0.9118800E+02  0.7818608E-02  0.1180000E+00
       11   -1    0    0    0    0  0.00000000000E+00  0.00000000000E+00  0.39999999673E+01  0.40000000000E+01  0.51109989000E-03 0. -1.
     -623   -1    0    0    0    0  0.00000000000E+00  0.00000000000E+00  0.12525980253E-10  0.17130000000E+03  0.17130000000E+03 0. -1.
       11    1    1    2    0    0 -0.24780630155E-01 -0.31472945151E-01  0.11783064959E+00  0.12445460664E+00  0.51109989000E-03 0. -1.
     -623    1    1    2    0    0  0.32277308500E-02  0.32179836055E-01  0.79775356179E-02  0.17130000324E+03  0.17130000000E+03 0. -1.
      622    1    1    2    0    0  0.21552899305E-01 -0.70689090417E-03  0.38741917822E+01  0.38755421546E+01  0.10000000000E+00 0. -1.
</event>
<event>
 5   0  0.6262544E+06  0.9118800E+02  0.7818608E-02  0.1180000E+00
       11   -1    0    0    0    0  0.00000000000E+00  0.00000000000E+00  0.39999999673E+01  0.40000000000E+01  0.51109989000E-03 0.  1.
     -623   -1    0    0    0    0  0.00000000000E+00  0.00000000000E+00  0.12525980253E-10  0.17130000000E+03  0.17130000000E+03 0. -1.
       11    1    1    2    0    0 -0.52885287908E-02  0.40219880218E-03  0.10114685464E+00  0.10128710543E+00  0.51109989000E-03 0.  1.
     -623    1    1    2    0    0  0.14670325174E-01  0.65669482875E-02  0.14411868229E-02  0.17130000076E+03  0.17130000000E+03 0. -1.
      622    1    1    2    0    0 -0.93817963828E-02 -0.69691470897E-02  0.38974119259E+01  0.38987121344E+01  0.10000000000E+00 0.  1.
</event>
<event>
 5   0  0.6262544E+06  0.9118800E+02  0.7818608E-02  0.1180000E+00
       11   -1    0    0    0    0  0.00000000000E+00  0.00000000000E+00  0.39999999673E+01  0.40000000000E+01  0.51109989000E-03 0.  1.
     -623   -1    0    0    0    0  0.00000000000E+00  0.00000000000E+00  0.12525980253E-10  0.17130000000E+03  0.17130000000E+03 0.  1.
       11    1    1    2    0    0  0.10313945615E-01  0.62554407119E-01  0.64829142622E+00  0.65138426897E+00  0.51109989000E-03 0.  1.
     -623    1    1    2    0    0 -0.16361090063E-01 -0.10382936117E-01  0.49995524502E-02  0.17130000117E+03  0.17130000000E+03 0.  1.
      622    1    1    2    0    0  0.60471444489E-02 -0.52171471003E-01  0.33467089887E+01  0.33486145621E+01  0.10000000000E+00 0.  1.
</event>
<event>
 5   0  0.6262544E+06  0.9118800E+02  0.7818608E-02  0.1180000E+00
       11   -1    0    0    0    0  0.00000000000E+00  0.00000000000E+00  0.39999999673E+01  0.40000000000E+01  0.51109989000E-03 0.  1.
     -623   -1    0    0    0    0  0.00000000000E+00  0.00000000000E+00  0.12525980253E-10  0.17130000000E+03  0.17130000000E+03 0. -1.
       11    1    1    2    0    0 -0.38145590668E-02  0.63298823145E-02  0.26873429302E+00  0.26883638098E+00  0.51109989000E-03 0.  1.
     -623    1    1    2    0    0 -0.32174161204E-02 -0.58097235808E-02  0.14491605896E-02  0.17130000013E+03  0.17130000000E+03 0. -1.
      622    1    1    2    0    0  0.70319751874E-02 -0.52015873340E-03  0.37298165139E+01  0.37311634844E+01  0.10000000000E+00 0.  1.
</event>
<event>
 5   0  0.6262544E+06  0.9118800E+02  0.7818608E-02  0.1180000E+00
       11   -1    0    0    0    0  0.00000000000E+00  0.00000000000E+00  0.39999999673E+01  0.40000000000E+01  0.51109989000E-03 0. -1.
     -623   -1    0    0    0    0  0.00000000000E+00  0.00000000000E+00  0.12525980253E-10  0.17130000000E+03  0.17130000000E+03 0. -1.
       11    1    1    2    0    0  0.78650056058E-02 -0.29643233565E-01  0.35111305111E+00  0.35245030216E+00  0.51109989000E-03 0. -1.
     -623    1    1    2    0    0  0.29225468384E-02  0.92814054679E-03  0.28373418852E-02  0.17130000005E+03  0.17130000000E+03 0. -1.
      622    1    1    2    0    0 -0.10787552444E-01  0.28715093018E-01  0.36460495743E+01  0.36475496469E+01  0.10000000000E+00 0. -1.
</event>
<event>
 5   0  0.6262544E+06  0.9118800E+02  0.7818608E-02  0.1180000E+00
       11   -1    0    0    0    0  0.00000000000E+00  0.00000000000E+00  0.39999999673E+01  0.40000000000E+01  0.51109989000E-03 0. -1.
     -623   -1    0    0    0    0  0.00000000000E+00  0.00000000000E+00  0.12525980253E-10  0.17130000000E+03  0.17130000000E+03 0. -1.
       11    1    1    2    0    0  0.19956529870E-01 -0.15314436057E-01  0.17018152038E+01  0.17020011881E+01  0.51109989000E-03 0. -1.
     -623    1    1    2    0    0  0.85340845937E-02 -0.12383593929E-01  0.27073598119E-02  0.17130000068E+03  0.17130000000E+03 0. -1.
      622    1    1    2    0    0 -0.28490614463E-01  0.27698029986E-01  0.22954774036E+01  0.22979981302E+01  0.10000000000E+00 0.  0.
</event>
<event>
 5   0  0.6262544E+06  0.9118800E+02  0.7818608E-02  0.1180000E+00
       11   -1    0    0    0    0  0.00000000000E+00  0.00000000000E+00  0.39999999673E+01  0.40000000000E+01  0.51109989000E-03 0.  1.
     -623   -1    0    0    0    0  0.00000000000E+00  0.00000000000E+00  0.12525980253E-10  0.17130000000E+03  0.17130000000E+03 0. -1.
       11    1    1    2    0    0 -0.39568598784E-02 -0.17907530531E-01  0.91847519916E-01  0.93661969473E-01  0.51109989000E-03 0.  1.
     -623    1    1    2    0    0  0.26459715392E-02 -0.37355613826E-02  0.31548850838E-02  0.17130000009E+03  0.17130000000E+03 0. -1.
      622    1    1    2    0    0  0.13108883392E-02  0.21643091914E-01  0.39049975624E+01  0.39063379403E+01  0.10000000000E+00 0.  1.
</event>
<event>
 5   0  0.6262544E+06  0.9118800E+02  0.7818608E-02  0.1180000E+00
       11   -1    0    0    0    0  0.00000000000E+00  0.00000000000E+00  0.39999999673E+01  0.40000000000E+01  0.51109989000E-03 0. -1.
     -623   -1    0    0    0    0  0.00000000000E+00  0.00000000000E+00  0.12525980253E-10  0.17130000000E+03  0.17130000000E+03 0.  1.
       11    1    1    2    0    0  0.31931706488E-01  0.54631019522E-01  0.25310054340E+01  0.25317963880E+01  0.51109989000E-03 0. -1.
     -623    1    1    2    0    0 -0.86741218555E-02 -0.31509921044E-01  0.45707517952E-02  0.17130000318E+03  0.17130000000E+03 0.  1.
      622    1    1    2    0    0 -0.23257584632E-01 -0.23121098478E-01  0.14644237816E+01  0.14682004334E+01  0.10000000000E+00 0.  0.
</event>
<event>
 5   0  0.6262544E+06  0.9118800E+02  0.7818608E-02  0.1180000E+00
       11   -1    0    0    0    0  0.00000000000E+00  0.00000000000E+00  0.39999999673E+01  0.40000000000E+01  0.51109989000E-03 0. -1.
     -623   -1    0    0    0    0  0.00000000000E+00  0.00000000000E+00  0.12525980253E-10  0.17130000000E+03  0.17130000000E+03 0.  1.
       11    1    1    2    0    0 -0.20791945898E-02  0.73524643129E-02  0.73740069433E-02  0.10631038666E-01  0.51109989000E-03 0. -1.
     -623    1    1    2    0    0  0.17947343950E-01  0.23277586416E-01  0.46623090225E-02  0.17130000259E+03  0.17130000000E+03 0.  1.
      622    1    1    2    0    0 -0.15868149360E-01 -0.30630050729E-01  0.39879636514E+01  0.39893663761E+01  0.10000000000E+00 0. -1.
</event>
<event>
 5   0  0.6262544E+06  0.9118800E+02  0.7818608E-02  0.1180000E+00
       11   -1    0    0    0    0  0.00000000000E+00  0.00000000000E+00  0.39999999673E+01  0.40000000000E+01  0.51109989000E-03 0. -1.
     -623   -1    0    0    0    0  0.00000000000E+00  0.00000000000E+00  0.12525980253E-10  0.17130000000E+03  0.17130000000E+03 0.  1.
       11    1    1    2    0    0  0.39879712015E-02 -0.17685653600E-01  0.31386232981E+00  0.31438592455E+00  0.51109989000E-03 0. -1.
     -623    1    1    2    0    0 -0.25263467245E-01  0.76194679513E-02  0.19576643907E-02  0.17130000204E+03  0.17130000000E+03 0.  1.
      622    1    1    2    0    0  0.21275496044E-01  0.10066185649E-01  0.36841799733E+01  0.36856120320E+01  0.10000000000E+00 0.  0.
</event>
<event>
 5   0  0.6262544E+06  0.9118800E+02  0.7818608E-02  0.1180000E+00
       11   -1    0    0    0    0  0.00000000000E+00  0.00000000000E+00  0.39999999673E+01  0.40000000000E+01  0.51109989000E-03 0.  1.
     -623   -1    0    0    0    0  0.00000000000E+00  0.00000000000E+00  0.12525980253E-10  0.17130000000E+03  0.17130000000E+03 0.  1.
       11    1    1    2    0    0 -0.25522983037E-02 -0.17914420672E-01  0.25271470700E-01  0.31086156873E-01  0.51109989000E-03 0.  1.
     -623    1    1    2    0    0 -0.14311880993E-02  0.24440195435E-01  0.70839069146E-02  0.17130000190E+03  0.17130000000E+03 0.  1.
      622    1    1    2    0    0  0.39834864030E-02 -0.65257747636E-02  0.39676445898E+01  0.39689119472E+01  0.10000000000E+00 0.  1.
</event>
<event>
 5   0  0.6262544E+06  0.9118800E+02  0.7818608E-02  0.1180000E+00
       11   -1    0    0    0    0  0.00000000000E+00  0.00000000000E+00  0.39999999673E+01  0.40000000000E+01  0.51109989000E-03 0. -1.
     -623   -1    0    0    0    0  0.00000000000E+00  0.00000000000E+00  0.12525980253E-10  0.17130000000E+03  0.17130000000E+03 0.  1.
       11    1    1    2    0    0 -0.35283154983E-01  0.60637000282E-01  0.39941912747E+00  0.40553378089E+00  0.51109989000E-03 0. -1.
     -623    1    1    2    0    0 -0.17053100158E-01  0.33527776522E-01  0.91257205574E-02  0.17130000437E+03  0.17130000000E+03 0.  1.
      622    1    1    2    0    0  0.52336255141E-01 -0.94164776804E-01  0.35914551193E+01  0.35944618461E+01  0.10000000000E+00 0. -1.
</event>
<event>
 5   0  0.6262544E+06  0.9118800E+02  0.7818608E-02  0.1180000E+00
       11   -1    0    0    0    0  0.00000000000E+00  0.00000000000E+00  0.39999999673E+01  0.40000000000E+01  0.51109989000E-03 0.  1.
     -623   -1    0    0    0    0  0.00000000000E+00  0.00000000000E+00  0.12525980253E-10  0.17130000000E+03  0.17130000000E+03 0.  1.
       11    1    1    2    0    0  0.97649171863E-03  0.13942990140E-02  0.29208202261E-02  0.34190670815E-02  0.51109989000E-03 0. -1.
     -623    1    1    2    0    0 -0.45301429968E-02  0.13952718809E-02  0.17521082818E-02  0.17130000007E+03  0.17130000000E+03 0.  1.
      622    1    1    2    0    0  0.35536512784E-02 -0.27895708950E-02  0.39953270391E+01  0.39965808586E+01  0.10000000000E+00 0.  1.
</event>
<event>
 5   0  0.6262544E+06  0.9118800E+02  0.7818608E-02  0.1180000E+00
       11   -1    0    0    0    0  0.00000000000E+00  0.00000000000E+00  0.39999999673E+01  0.40000000000E+01  0.51109989000E-03 0.  1.
     -623   -1    0    0    0    0  0.00000000000E+00  0.00000000000E+00  0.12525980253E-10  0.17130000000E+03  0.17130000000E+03 0.  1.
       11    1    1    2    0    0 -0.36093615772E-02  0.44874373293E-02  0.14152219788E-01  0.15287613705E-01  0.51109989000E-03 0.  1.
     -623    1    1    2    0    0  0.23776410423E-02 -0.37154465449E-02  0.23906933517E-02  0.17130000007E+03  0.17130000000E+03 0.  1.
      622    1    1    2    0    0  0.12317205349E-02 -0.77199078437E-03  0.39834570542E+01  0.39847123128E+01  0.10000000000E+00 0.  1.
</event>
<event>
 5   0  0.6262544E+06  0.9118800E+02  0.7818608E-02  0.1180000E+00
       11   -1    0    0    0    0  0.00000000000E+00  0.00000000000E+00  0.39999999673E+01  0.40000000000E+01  0.51109989000E-03 0.  1.
     -623   -1    0    0    0    0  0.00000000000E+00  0.00000000000E+00  0.12525980253E-10  0.17130000000E+03  0.17130000000E+03 0. -1.
       11    1    1    2    0    0 -0.12126089548E-01 -0.47581266988E-01  0.73442084501E+00  0.73606063460E+00  0.51109989000E-03 0.  1.
     -623    1    1    2    0    0 -0.40718213946E-01 -0.11781736792E-02  0.39693572281E-02  0.17130000489E+03  0.17130000000E+03 0. -1.
      622    1    1    2    0    0  0.52844303493E-01  0.48759440667E-01  0.32616097651E+01  0.32639344760E+01  0.10000000000E+00 0.  1.
</event>
<event>
 5   0  0.6262544E+06  0.9118800E+02  0.7818608E-02  0.1180000E+00
       11   -1    0    0    0    0  0.00000000000E+00  0.00000000000E+00  0.39999999673E+01  0.40000000000E+01  0.51109989000E-03 0. -1.
     -623   -1    0    0    0    0  0.00000000000E+00  0.00000000000E+00  0.12525980253E-10  0.17130000000E+03  0.17130000000E+03 0.  1.
       11    1    1    2    0    0  0.79493979802E-02  0.26429440269E-02  0.21901174436E-01  0.23454226591E-01  0.51109989000E-03 0. -1.
     -623    1    1    2    0    0 -0.75402431446E-02 -0.68078188678E-02  0.28131182823E-02  0.17130000032E+03  0.17130000000E+03 0.  1.
      622    1    1    2    0    0 -0.40915483558E-03  0.41648748409E-02  0.39752856746E+01  0.39765454491E+01  0.10000000000E+00 0. -1.
</event>
<event>
 5   0  0.6262544E+06  0.9118800E+02  0.7818608E-02  0.1180000E+00
       11   -1    0    0    0    0  0.00000000000E+00  0.00000000000E+00  0.39999999673E+01  0.40000000000E+01  0.51109989000E-03 0. -1.
     -623   -1    0    0    0    0  0.00000000000E+00  0.00000000000E+00  0.12525980253E-10  0.17130000000E+03  0.17130000000E+03 0.  1.
       11    1    1    2    0    0  0.31428766733E-02 -0.57379135795E-01  0.50008749898E+00  0.50337859585E+00  0.51109989000E-03 0. -1.
     -623    1    1    2    0    0  0.77647356290E-03  0.10204819802E-01  0.50422548231E-02  0.17130000038E+03  0.17130000000E+03 0.  1.
      622    1    1    2    0    0 -0.39193502362E-02  0.47174315993E-01  0.34948702136E+01  0.34966210243E+01  0.10000000000E+00 0.  0.
</event>
<event>
 5   0  0.6262544E+06  0.9118800E+02  0.7818608E-02  0.1180000E+00
       11   -1    0    0    0    0  0.00000000000E+00  0.00000000000E+00  0.39999999673E+01  0.40000000000E+01  0.51109989000E-03 0. -1.
     -623   -1    0    0    0    0  0.00000000000E+00  0.00000000000E+00  0.12525980253E-10  0.17130000000E+03  0.17130000000E+03 0.  1.
       11    1    1    2    0    0 -0.54704532575E-01 -0.91122549264E-01  0.13515913954E+01  0.13557637944E+01  0.51109989000E-03 0. -1.
     -623    1    1    2    0    0  0.95777410588E-01  0.35036451885E-01  0.70090998593E-02  0.17130003050E+03  0.17130000000E+03 0.  1.
      622    1    1    2    0    0 -0.41072878013E-01  0.56086097379E-01  0.26413994721E+01  0.26442057036E+01  0.10000000000E+00 0. -1.
</event>
<event>
 5   0  0.6262544E+06  0.9118800E+02  0.7818608E-02  0.1180000E+00
       11   -1    0    0    0    0  0.00000000000E+00  0.00000000000E+00  0.39999999673E+01  0.40000000000E+01  0.51109989000E-03 0.  1.
     -623   -1    0    0    0    0  0.00000000000E+00  0.00000000000E+00  0.12525980253E-10  0.17130000000E+03  0.17130000000E+03 0.  1.
       11    1    1    2    0    0  0.15666150388E-01 -0.50486731041E-01  0.15186143885E+01  0.15195342249E+01  0.51109989000E-03 0.  1.
     -623    1    1    2    0    0 -0.22833274867E-02  0.18162976176E-01  0.31843082999E-02  0.17130000101E+03  0.17130000000E+03 0.  1.
      622    1    1    2    0    0 -0.13382822901E-01  0.32323754864E-01  0.24782012705E+01  0.24804647674E+01  0.10000000000E+00 0.  0.
</event>
<event>
 5   0  0.6262544E+06  0.9118800E+02  0.7818608E-02  0.1180000E+00
       11   -1    0    0    0    0  0.00000000000E+00  0.00000000000E+00  0.39999999673E+01  0.40000000000E+01  0.51109989000E-03 0. -1.
     -623   -1    0    0    0    0  0.00000000000E+00  0.00000000000E+00  0.12525980253E-10  0.17130000000E+03  0.17130000000E+03 0.  1.
       11    1    1    2    0    0  0.36216299642E-01 -0.33671072040E-01  0.57253430213E+00  0.57466612027E+00  0.51109989000E-03 0. -1.
     -623    1    1    2    0    0 -0.70662465496E-02  0.49818807035E-03  0.38768000406E-02  0.17130000019E+03  0.17130000000E+03 0.  1.
      622    1    1    2    0    0 -0.29150053093E-01  0.33172883970E-01  0.34235888652E+01  0.34253336894E+01  0.10000000000E+00 0. -1.
</event>
<event>
 5   0  0.6262544E+06  0.9118800E+02  0.7818608E-02  0.1180000E+00
       11   -1    0    0    0    0  0.00000000000E+00  0.00000000000E+00  0.39999999673E+01  0.40000000000E+01  0.51109989000E-03 0.  1.
     -623   -1    0    0    0    0  0.00000000000E+00  0.00000000000E+00  0.12525980253E-10  0.17130000000E+03  0.17130000000E+03 0.  1.
       11    1    1    2    0    0 -0.12536687772E-02  0.38540879893E-03  0.44563425655E-02  0.46733753865E-02  0.51109989000E-03 0.  1.
     -623    1    1    2    0    0  0.23882358990E-02  0.13336081009E-02  0.14692175975E-02  0.17130000003E+03  0.17130000000E+03 0.  1.
      622    1    1    2    0    0 -0.11345671218E-02 -0.17190168998E-02  0.39940744071E+01  0.39953265964E+01  0.10000000000E+00 0.  1.
</event>
<event>
 5   0  0.6262544E+06  0.9118800E+02  0.7818608E-02  0.1180000E+00
       11   -1    0    0    0    0  0.00000000000E+00  0.00000000000E+00  0.39999999673E+01  0.40000000000E+01  0.51109989000E-03 0. -1.
     -623   -1    0    0    0    0  0.00000000000E+00  0.00000000000E+00  0.12525980253E-10  0.17130000000E+03  0.17130000000E+03 0. -1.
       11    1    1    2    0    0 -0.22657718525E-01  0.36906525667E-02  0.14907997300E+00  0.15083796835E+00  0.51109989000E-03 0. -1.
     -623    1    1    2    0    0 -0.37786480065E-02  0.20488733445E-01  0.32252514882E-02  0.17130000130E+03  0.17130000000E+03 0. -1.
      622    1    1    2    0    0  0.26436366532E-01 -0.24179386012E-01  0.38476947430E+01  0.38491607344E+01  0.10000000000E+00 0. -1.
</event>
<event>
 5   0  0.6262544E+06  0.9118800E+02  0.7818608E-02  0.1180000E+00
       11   -1    0    0    0    0  0.00000000000E+00  0.00000000000E+00  0.39999999673E+01  0.40000000000E+01  0.51109989000E-03 0. -1.
     -623   -1    0    0    0    0  0.00000000000E+00  0.00000000000E+00  0.12525980253E-10  0.17130000000E+03  0.17130000000E+03 0.  1.
       11    1    1    2    0    0  0.33443929578E-02 -0.19592033171E-03  0.47667615295E-03  0.34222495941E-02  0.51109989000E-03 0. -1.
     -623    1    1    2    0    0 -0.90021775414E-03 -0.72327349001E-02  0.42046675858E-02  0.17130000021E+03  0.17130000000E+03 0.  1.
      622    1    1    2    0    0 -0.24441752036E-02  0.74286552317E-02  0.39953186236E+01  0.39965775437E+01  0.10000000000E+00 0. -1.
</event>
<event>
 5   0  0.6262544E+06  0.9118800E+02  0.7818608E-02  0.1180000E+00
       11   -1    0    0    0    0  0.00000000000E+00  0.00000000000E+00  0.39999999673E+01  0.40000000000E+01  0.51109989000E-03 0.  1.
     -623   -1    0    0    0    0  0.00000000000E+00  0.00000000000E+00  0.12525980253E-10  0.17130000000E+03  0.17130000000E+03 0. -1.
       11    1    1    2    0    0  0.32813101864E-02 -0.17291494972E-01  0.10488973379E+00  0.10635732355E+00  0.51109989000E-03 0.  1.
     -623    1    1    2    0    0  0.53138069734E-02  0.38036918448E-03  0.27982462539E-02  0.17130000011E+03  0.17130000000E+03 0. -1.
      622    1    1    2    0    0 -0.85951171598E-02  0.16911125788E-01  0.38923119873E+01  0.38936425708E+01  0.10000000000E+00 0.  1.
</event>
<event>
 5   0  0.6262544E+06  0.9118800E+02  0.7818608E-02  0.1180000E+00
       11   -1    0    0    0    0  0.00000000000E+00  0.00000000000E+00  0.39999999673E+01  0.40000000000E+01  0.51109989000E-03 0.  1.
     -623   -1    0    0    0    0  0.00000000000E+00  0.00000000000E+00  0.12525980253E-10  0.17130000000E+03  0.17130000000E+03 0.  1.
       11    1    1    2    0    0 -0.20885127462E-01 -0.22661090276E-01  0.31790880992E+00  0.31939941485E+00  0.51109989000E-03 0.  1.
     -623    1    1    2    0    0  0.73372323527E-02  0.45774629681E-02  0.29189252161E-02  0.17130000024E+03  0.17130000000E+03 0.  1.
      622    1    1    2    0    0  0.13547895110E-01  0.18083627308E-01  0.36791722322E+01  0.36806003420E+01  0.10000000000E+00 0.  0.
</event>
<event>
 5   0  0.6262544E+06  0.9118800E+02  0.7818608E-02  0.1180000E+00
       11   -1    0    0    0    0  0.00000000000E+00  0.00000000000E+00  0.39999999673E+01  0.40000000000E+01  0.51109989000E-03 0. -1.
     -623   -1    0    0    0    0  0.00000000000E+00  0.00000000000E+00  0.12525980253E-10  0.17130000000E+03  0.17130000000E+03 0. -1.
       11    1    1    2    0    0 -0.25958604744E-02 -0.66021998109E-02  0.34087950612E-01  0.34822078220E-01  0.51109989000E-03 0. -1.
     -623    1    1    2    0    0 -0.10917809146E-01  0.62648947114E-02  0.20187971568E-02  0.17130000047E+03  0.17130000000E+03 0. -1.
      622    1    1    2    0    0  0.13513669621E-01  0.33730509946E-03  0.39638932196E+01  0.39651774474E+01  0.10000000000E+00 0. -1.
</event>
<event>
 5   0  0.6262544E+06  0.9118800E+02  0.7818608E-02  0.1180000E+00
       11   -1    0    0    0    0  0.00000000000E+00  0.00000000000E+00  0.39999999673E+01  0.40000000000E+01  0.51109989000E-03 0. -1.
     -623   -1    0    0    0    0  0.00000000000E+00  0.00000000000E+00  0.12525980253E-10  0.17130000000E+03  0.17130000000E+03 0. -1.
       11    1    1    2    0    0 -0.22585229056E-02 -0.51223945956E-02  0.95694545131E+00  0.95696196260E+00  0.51109989000E-03 0. -1.
     -623    1    1    2    0    0 -0.99590033534E-02  0.11466119248E-02  0.16874572339E-02  0.17130000030E+03  0.17130000000E+03 0. -1.
      622    1    1    2    0    0  0.12217526259E-01  0.39757826708E-02  0.30413670588E+01  0.30430377358E+01  0.10000000000E+00 0. -1.
</event>
<event>
 5   0  0.6262544E+06  0.9118800E+02  0.7818608E-02  0.1180000E+00
       11   -1    0    0    0    0  0.00000000000E+00  0.00000000000E+00  0.39999999673E+01  0.40000000000E+01  0.51109989000E-03 0. -1.
     -623   -1    0    0    0    0  0.00000000000E+00  0.00000000000E+00  0.12525980253E-10  0.17130000000E+03  0.17130000000E+03 0.  1.
       11    1    1    2    0    0 -0.13078839689E-03 -0.31255816551E-02  0.27981805240E-01  0.28160770833E-01  0.51109989000E-03 0. -1.
     -623    1    1    2    0    0 -0.96510047286E-03 -0.68096191486E-03  0.14399811513E-02  0.17130000001E+03  0.17130000000E+03 0.  1.
      622    1    1    2    0    0  0.10958888698E-02  0.38065435700E-02  0.39705781812E+01  0.39718392193E+01  0.10000000000E+00 0. -1.
</event>
<event>
 5   0  0.6262544E+06  0.9118800E+02  0.7818608E-02  0.1180000E+00
       11   -1    0    0    0    0  0.00000000000E+00  0.00000000000E+00  0.39999999673E+01  0.40000000000E+01  0.51109989000E-03 0.  1.
     -623   -1    0    0    0    0  0.00000000000E+00  0.00000000000E+00  0.12525980253E-10  0.17130000000E+03  0.17130000000E+03 0.  1.
       11    1    1    2    0    0 -0.81269446629E-02 -0.45515787044E-02  0.34435592398E-01  0.35676818019E-01  0.51109989000E-03 0.  1.
     -623    1    1    2    0    0  0.14915467209E-02 -0.44993186970E-02  0.25186173196E-02  0.17130000008E+03  0.17130000000E+03 0.  1.
      622    1    1    2    0    0  0.66353979420E-02  0.90508974013E-02  0.39630457576E+01  0.39643230979E+01  0.10000000000E+00 0.  1.
</event>
<event>
 5   0  0.6262544E+06  0.9118800E+02  0.7818608E-02  0.1180000E+00
       11   -1    0    0    0    0  0.00000000000E+00  0.00000000000E+00  0.39999999673E+01  0.40000000000E+01  0.51109989000E-03 0.  1.
     -623   -1    0    0    0    0  0.00000000000E+00  0.00000000000E+00  0.12525980253E-10  0.17130000000E+03  0.17130000000E+03 0.  1.
       11    1    1    2    0    0 -0.32577333589E-01  0.15606237541E-01  0.31775825656E+00  0.31980526598E+00  0.51109989000E-03 0.  1.
     -623    1    1    2    0    0  0.11132263245E-01  0.24050265823E-01  0.36841986315E-02  0.17130000209E+03  0.17130000000E+03 0.  1.
      622    1    1    2    0    0  0.21445070344E-01 -0.39656503365E-01  0.36785575123E+01  0.36801926445E+01  0.10000000000E+00 0.  1.
</event>
<event>
 5   0  0.6262544E+06  0.9118800E+02  0.7818608E-02  0.1180000E+00
       11   -1    0    0    0    0  0.00000000000E+00  0.00000000000E+00  0.39999999673E+01  0.40000000000E+01  0.51109989000E-03 0. -1.
     -623   -1    0    0    0    0  0.00000000000E+00  0.00000000000E+00  0.12525980253E-10  0.17130000000E+03  0.17130000000E+03 0. -1.
       11    1    1    2    0    0  0.11780356440E-02 -0.73686124064E-03  0.51665601800E+00  0.51665813929E+00  0.51109989000E-03 0. -1.
     -623    1    1    2    0    0  0.17412654480E-01  0.39091050948E-02  0.14897995797E-02  0.17130000094E+03  0.17130000000E+03 0. -1.
      622    1    1    2    0    0 -0.18590690124E-01 -0.31722438541E-02  0.34818541498E+01  0.34833409246E+01  0.10000000000E+00 0. -1.
</event>
<event>
 5   0  0.6262544E+06  0.9118800E+02  0.7818608E-02  0.1180000E+00
       11   -1    0    0    0    0  0.00000000000E+00  0.00000000000E+00  0.39999999673E+01  0.40000000000E+01  0.51109989000E-03 0.  1.
     -623   -1    0    0    0    0  0.00000000000E+00  0.00000000000E+00  0.12525980253E-10  0.17130000000E+03  0.17130000000E+03 0.  1.
       11    1    1    2    0    0 -0.29057356279E-01  0.20636307818E-01  0.36642133661E+00  0.36815084450E+00  0.51109989000E-03 0.  1.
     -623    1    1    2    0    0  0.74860003528E-02  0.73025572395E-02  0.32783899796E-02  0.17130000035E+03  0.17130000000E+03 0.  1.
      622    1    1    2    0    0  0.21571355926E-01 -0.27938865057E-01  0.36303002408E+01  0.36318488050E+01  0.10000000000E+00 0.  1.
</event>
<event>
 5   0  0.6262544E+06  0.9118800E+02  0.7818608E-02  0.1180000E+00
       11   -1    0    0    0    0  0.00000000000E+00  0.00000000000E+00  0.39999999673E+01  0.40000000000E+01  0.51109989000E-03 0. -1.
     -623   -1    0    0    0    0  0.00000000000E+00  0.00000000000E+00  0.12525980253E-10  0.17130000000E+03  0.17130000000E+03 0.  1.
       11    1    1    2    0    0  0.28139617016E-01  0.98978104240E-02  0.29203786214E+00  0.29355779473E+00  0.51109989000E-03 0. -1.
     -623    1    1    2    0    0 -0.24098999491E-02  0.12644008893E-02  0.29753500548E-02  0.17130000005E+03  0.17130000000E+03 0.  1.
      622    1    1    2    0    0 -0.25729717067E-01 -0.11162211313E-01  0.37049867552E+01  0.37064421579E+01  0.10000000000E+00 0. -1.
</event>
<event>
 5   0  0.6262544E+06  0.9118800E+02  0.7818608E-02  0.1180000E+00
       11   -1    0    0    0    0  0.00000000000E+00  0.00000000000E+00  0.39999999673E+01  0.40000000000E+01  0.51109989000E-03 0. -1.
     -623   -1    0    0    0    0  0.00000000000E+00  0.00000000000E+00  0.12525980253E-10  0.17130000000E+03  0.17130000000E+03 0.  1.
       11    1    1    2    0    0 -0.10603529941E-01 -0.31263782228E-02  0.82751818707E-02  0.13818427725E-01  0.51109989000E-03 0. -1.
     -623    1    1    2    0    0  0.11221730872E-01  0.13143624767E-02  0.67987114681E-02  0.17130000051E+03  0.17130000000E+03 0.  1.
      622    1    1    2    0    0 -0.61820093106E-03  0.18120157461E-02  0.39849260740E+01  0.39861810648E+01  0.10000000000E+00 0. -1.
</event>
<event>
 5   0  0.6262544E+06  0.9118800E+02  0.7818608E-02  0.1180000E+00
       11   -1    0    0    0    0  0.00000000000E+00  0.00000000000E+00  0.39999999673E+01  0.40000000000E+01  0.51109989000E-03 0. -1.
     -623   -1    0    0    0    0  0.00000000000E+00  0.00000000000E+00  0.12525980253E-10  0.17130000000E+03  0.17130000000E+03 0. -1.
       11    1    1    2    0    0  0.52566172703E-02  0.27789500147E-01  0.11016430347E+00  0.11373795903E+00  0.51109989000E-03 0. -1.
     -623    1    1    2    0    0 -0.13056472586E-01 -0.28659172095E-01  0.48713117524E-02  0.17130000296E+03  0.17130000000E+03 0. -1.
      622    1    1    2    0    0  0.77998553157E-02  0.86967194861E-03  0.38849643521E+01  0.38862590767E+01  0.10000000000E+00 0. -1.
</event>
<event>
 5   0  0.6262544E+06  0.9118800E+02  0.7818608E-02  0.1180000E+00
       11   -1    0    0    0    0  0.00000000000E+00  0.00000000000E+00  0.39999999673E+01  0.40000000000E+01  0.51109989000E-03 0.  1.
     -623   -1    0    0    0    0  0.00000000000E+00  0.00000000000E+00  0.12525980253E-10  0.17130000000E+03  0.17130000000E+03 0.  1.
       11    1    1    2    0    0 -0.51305992071E-02  0.10549355724E-03  0.99874699586E-01  0.10000775479E+00  0.51109989000E-03 0.  1.
     -623    1    1    2    0    0  0.11899769425E-02 -0.36236444647E-02  0.14189144042E-02  0.17130000005E+03  0.17130000000E+03 0.  1.
      622    1    1    2    0    0  0.39406222645E-02  0.35181509077E-02  0.38987063537E+01  0.38999921972E+01  0.10000000000E+00 0.  1.
</event>
<event>
 5   0  0.6262544E+06  0.9118800E+02  0.7818608E-02  0.1180000E+00
       11   -1    0    0    0    0  0.00000000000E+00  0.00000000000E+00  0.39999999673E+01  0.40000000000E+01  0.51109989000E-03 0. -1.
     -623   -1    0    0    0    0  0.00000000000E+00  0.00000000000E+00  0.12525980253E-10  0.17130000000E+03  0.17130000000E+03 0.  1.
       11    1    1    2    0    0 -0.62487999542E-02 -0.81612985616E-02  0.17140091128E-01  0.19992454578E-01  0.51109989000E-03 0. -1.
     -623    1    1    2    0    0  0.12906674223E-02 -0.66028992921E-02  0.41394729866E-02  0.17130000018E+03  0.17130000000E+03 0.  1.
      622    1    1    2    0    0  0.49581325319E-02  0.14764197854E-01  0.39787204032E+01  0.39800073633E+01  0.10000000000E+00 0. -1.
</event>
<event>
 5   0  0.6262544E+06  0.9118800E+02  0.7818608E-02  0.1180000E+00
       11   -1    0    0    0    0  0.00000000000E+00  0.00000000000E+00  0.39999999673E+01  0.40000000000E+01  0.51109989000E-03 0.  1.
     -623   -1    0    0    0    0  0.00000000000E+00  0.00000000000E+00  0.12525980253E-10  0.17130000000E+03  0.17130000000E+03 0.  1.
       11    1    1    2    0    0 -0.32220107966E-02 -0.75208048118E-03  0.49934574924E-02  0.60118898401E-02  0.51109989000E-03 0.  1.
     -623    1    1    2    0    0 -0.52115031008E-03  0.24536509414E-02  0.22726281297E-02  0.17130000003E+03  0.17130000000E+03 0.  1.
      622    1    1    2    0    0  0.37431611067E-02 -0.17015704603E-02  0.39927338817E+01  0.39939880767E+01  0.10000000000E+00 0.  1.
</event>
<event>
 5   0  0.6262544E+06  0.9118800E+02  0.7818608E-02  0.1180000E+00
       11   -1    0    0    0    0  0.00000000000E+00  0.00000000000E+00  0.39999999673E+01  0.40000000000E+01  0.51109989000E-03 0.  1.
     -623   -1    0    0    0    0  0.00000000000E+00  0.00000000000E+00  0.12525980253E-10  0.17130000000E+03  0.17130000000E+03 0.  1.
       11    1    1    2    0    0 -0.42237927716E-03 -0.23728122325E-02  0.80603575617E-01  0.80641219407E-01  0.51109989000E-03 0.  1.
     -623    1    1    2    0    0  0.40896429392E-03 -0.61398306333E-02  0.13229009373E-02  0.17130000012E+03  0.17130000000E+03 0.  1.
      622    1    1    2    0    0  0.13414983239E-04  0.85126428658E-02  0.39180734908E+01  0.39193586650E+01  0.10000000000E+00 0.  1.
</event>
<event>
 5   0  0.6262544E+06  0.9118800E+02  0.7818608E-02  0.1180000E+00
       11   -1    0    0    0    0  0.00000000000E+00  0.00000000000E+00  0.39999999673E+01  0.40000000000E+01  0.51109989000E-03 0. -1.
     -623   -1    0    0    0    0  0.00000000000E+00  0.00000000000E+00  0.12525980253E-10  0.17130000000E+03  0.17130000000E+03 0. -1.
       11    1    1    2    0    0 -0.14635663559E-02  0.12171716419E-02  0.22590681101E-01  0.22676499463E-01  0.51109989000E-03 0. -1.
     -623    1    1    2    0    0 -0.11324707404E-03 -0.59239954854E-02  0.13463176688E-02  0.17130000011E+03  0.17130000000E+03 0. -1.
      622    1    1    2    0    0  0.15768134300E-02  0.47068238435E-02  0.39760629686E+01  0.39773233928E+01  0.10000000000E+00 0. -1.
</event>
<event>
 5   0  0.6262544E+06  0.9118800E+02  0.7818608E-02  0.1180000E+00
       11   -1    0    0    0    0  0.00000000000E+00  0.00000000000E+00  0.39999999673E+01  0.40000000000E+01  0.51109989000E-03 0. -1.
     -623   -1    0    0    0    0  0.00000000000E+00  0.00000000000E+00  0.12525980253E-10  0.17130000000E+03  0.17130000000E+03 0. -1.
       11    1    1    2    0    0  0.35199086393E-01 -0.80697403511E-02  0.24534663635E+01  0.24537321684E+01  0.51109989000E-03 0. -1.
     -623    1    1    2    0    0  0.13943318373E-01  0.38098329858E-03  0.43052840469E-02  0.17130000062E+03  0.17130000000E+03 0. -1.
      622    1    1    2    0    0 -0.49142404766E-01  0.76887570525E-02  0.15422283198E+01  0.15462672096E+01  0.10000000000E+00 0.  0.
</event>
<event>
 5   0  0.6262544E+06  0.9118800E+02  0.7818608E-02  0.1180000E+00
       11   -1    0    0    0    0  0.00000000000E+00  0.00000000000E+00  0.39999999673E+01  0.40000000000E+01  0.51109989000E-03 0.  1.
     -623   -1    0    0    0    0  0.00000000000E+00  0.00000000000E+00  0.12525980253E-10  0.17130000000E+03  0.17130000000E+03 0.  1.
       11    1    1    2    0    0 -0.26214681192E-01 -0.37078987495E-02  0.10721529108E+01  0.10724798756E+01  0.51109989000E-03 0.  1.
     -623    1    1    2    0    0 -0.20901185190E-02 -0.28321078275E-02  0.21796364710E-02  0.17130000005E+03  0.17130000000E+03 0.  1.
      622    1    1    2    0    0  0.28304799711E-01  0.65400065770E-02  0.29256674201E+01  0.29275200745E+01  0.10000000000E+00 0.  0.
</event>
<event>
 5   0  0.6262544E+06  0.9118800E+02  0.7818608E-02  0.1180000E+00
       11   -1    0    0    0    0  0.00000000000E+00  0.00000000000E+00  0.39999999673E+01  0.40000000000E+01  0.51109989000E-03 0.  1.
     -623   -1    0    0    0    0  0.00000000000E+00  0.00000000000E+00  0.12525980253E-10  0.17130000000E+03  0.17130000000E+03 0.  1.
       11    1    1    2    0    0  0.88961224610E-02 -0.10773021209E-01  0.13392172791E-01  0.19360023140E-01  0.51109989000E-03 0.  1.
     -623    1    1    2    0    0  0.37619602742E-03  0.94474874065E-02  0.72355327045E-02  0.17130000041E+03  0.17130000000E+03 0.  1.
      622    1    1    2    0    0 -0.92723184884E-02  0.13255338027E-02  0.39793722618E+01  0.39806395631E+01  0.10000000000E+00 0.  1.
</event>
<event>
 5   0  0.6262544E+06  0.9118800E+02  0.7818608E-02  0.1180000E+00
       11   -1    0    0    0    0  0.00000000000E+00  0.00000000000E+00  0.39999999673E+01  0.40000000000E+01  0.51109989000E-03 0.  1.
     -623   -1    0    0    0    0  0.00000000000E+00  0.00000000000E+00  0.12525980253E-10  0.17130000000E+03  0.17130000000E+03 0. -1.
       11    1    1    2    0    0  0.19726570415E-01  0.92840285632E-02  0.27083265318E-01  0.34772046922E-01  0.51109989000E-03 0.  1.
     -623    1    1    2    0    0 -0.10966523753E-01 -0.19467885304E-01  0.89743652606E-02  0.17130000169E+03  0.17130000000E+03 0. -1.
      622    1    1    2    0    0 -0.87600466615E-02  0.10183856740E-01  0.39639423368E+01  0.39652262607E+01  0.10000000000E+00 0.  1.
</event>
<event>
 5   0  0.6262544E+06  0.9118800E+02  0.7818608E-02  0.1180000E+00
       11   -1    0    0    0    0  0.00000000000E+00  0.00000000000E+00  0.39999999673E+01  0.40000000000E+01  0.51109989000E-03 0.  1.
     -623   -1    0    0    0    0  0.00000000000E+00  0.00000000000E+00  0.12525980253E-10  0.17130000000E+03  0.17130000000E+03 0. -1.
       11    1    1    2    0    0  0.75346346513E-01  0.32290810969E-01  0.77730115985E+00  0.78161187474E+00  0.51109989000E-03 0.  1.
     -623    1    1    2    0    0 -0.46174767546E-01  0.19124163338E-01  0.64152470130E-02  0.17130000741E+03  0.17130000000E+03 0. -1.
      622    1    1    2    0    0 -0.29171578965E-01 -0.51414974308E-01  0.32162835606E+01  0.32183807144E+01  0.10000000000E+00 0.  1.
</event>
<event>
 5   0  0.6262544E+06  0.9118800E+02  0.7818608E-02  0.1180000E+00
       11   -1    0    0    0    0  0.00000000000E+00  0.00000000000E+00  0.39999999673E+01  0.40000000000E+01  0.51109989000E-03 0.  1.
     -623   -1    0    0    0    0  0.00000000000E+00  0.00000000000E+00  0.12525980253E-10  0.17130000000E+03  0.17130000000E+03 0. -1.
       11    1    1    2    0    0 -0.25785467977E-01 -0.72663959434E-02  0.45017983187E+00  0.45097653278E+00  0.51109989000E-03 0.  1.
     -623    1    1    2    0    0  0.10028610286E-01  0.12560176385E-01  0.22454975679E-02  0.17130000077E+03  0.17130000000E+03 0. -1.
      622    1    1    2    0    0  0.15756857691E-01 -0.52937804413E-02  0.35475746379E+01  0.35490226985E+01  0.10000000000E+00 0.  1.
</event>
<event>
 5   0  0.6262544E+06  0.9118800E+02  0.7818608E-02  0.1180000E+00
       11   -1    0    0    0    0  0.00000000000E+00  0.00000000000E+00  0.39999999673E+01  0.40000000000E+01  0.51109989000E-03 0.  1.
     -623   -1    0    0    0    0  0.00000000000E+00  0.00000000000E+00  0.12525980253E-10  0.17130000000E+03  0.17130000000E+03 0.  1.
       11    1    1    2    0    0 -0.14399017411E-03  0.74685041928E-03  0.47599076934E-02  0.48473150368E-02  0.51109989000E-03 0.  1.
     -623    1    1    2    0    0  0.11557678595E-02 -0.16121788429E-02  0.13393260388E-02  0.17130000002E+03  0.17130000000E+03 0.  1.
      622    1    1    2    0    0 -0.10117776854E-02  0.86532842361E-03  0.39939007335E+01  0.39951526681E+01  0.10000000000E+00 0.  1.
</event>
<event>
 5   0  0.6262544E+06  0.9118800E+02  0.7818608E-02  0.1180000E+00
       11   -1    0    0    0    0  0.00000000000E+00  0.00000000000E+00  0.39999999673E+01  0.40000000000E+01  0.51109989000E-03 0.  1.
     -623   -1    0    0    0    0  0.00000000000E+00  0.00000000000E+00  0.12525980253E-10  0.17130000000E+03  0.17130000000E+03 0.  1.
       11    1    1    2    0    0 -0.11967978853E-01 -0.22757909894E-01  0.88013954978E-01  0.91694451710E-01  0.51109989000E-03 0.  1.
     -623    1    1    2    0    0 -0.14816302617E-01  0.11991176818E-02  0.51120136509E-02  0.17130000072E+03  0.17130000000E+03 0.  1.
      622    1    1    2    0    0  0.26784281471E-01  0.21558792212E-01  0.39068739988E+01  0.39083048272E+01  0.10000000000E+00 0.  1.
</event>
<event>
 5   0  0.6262544E+06  0.9118800E+02  0.7818608E-02  0.1180000E+00
       11   -1    0    0    0    0  0.00000000000E+00  0.00000000000E+00  0.39999999673E+01  0.40000000000E+01  0.51109989000E-03 0.  1.
     -623   -1    0    0    0    0  0.00000000000E+00  0.00000000000E+00  0.12525980253E-10  0.17130000000E+03  0.17130000000E+03 0. -1.
       11    1    1    2    0    0 -0.30613329856E-02  0.11751258527E+00  0.15850493577E+01  0.15894025000E+01  0.51109989000E-03 0.  1.
     -623    1    1    2    0    0 -0.31806588999E-01 -0.13486576332E+00  0.67993355146E-02  0.17130005618E+03  0.17130000000E+03 0. -1.
      622    1    1    2    0    0  0.34867921984E-01  0.17353178046E-01  0.24081512741E+01  0.24105413217E+01  0.10000000000E+00 0.  1.
</event>
<event>
 5   0  0.6262544E+06  0.9118800E+02  0.7818608E-02  0.1180000E+00
       11   -1    0    0    0    0  0.00000000000E+00  0.00000000000E+00  0.39999999673E+01  0.40000000000E+01  0.51109989000E-03 0.  1.
     -623   -1    0    0    0    0  0.00000000000E+00  0.00000000000E+00  0.12525980253E-10  0.17130000000E+03  0.17130000000E+03 0.  1.
       11    1    1    2    0    0 -0.47225303567E-03  0.48255418347E-02  0.10150435604E-01  0.11260614680E-01  0.51109989000E-03 0.  1.
     -623    1    1    2    0    0  0.85274480716E-02 -0.75350825884E-02  0.23733237060E-02  0.17130000039E+03  0.17130000000E+03 0.  1.
      622    1    1    2    0    0 -0.80551950360E-02  0.27095407538E-02  0.39874762081E+01  0.39887389909E+01  0.10000000000E+00 0.  1.
</event>
<event>
 5   0  0.6262544E+06  0.9118800E+02  0.7818608E-02  0.1180000E+00
       11   -1    0    0    0    0  0.00000000000E+00  0.00000000000E+00  0.39999999673E+01  0.40000000000E+01  0.51109989000E-03 0.  1.
     -623   -1    0    0    0    0  0.00000000000E+00  0.00000000000E+00  0.12525980253E-10  0.17130000000E+03  0.17130000000E+03 0.  1.
       11    1    1    2    0    0  0.49429394234E-03 -0.18698879824E-03  0.39973180122E-03  0.83683924536E-03  0.51109989000E-03 0.  1.
     -623    1    1    2    0    0  0.29472746806E-03  0.84551138440E-03  0.16876746190E-02  0.17130000001E+03  0.17130000000E+03 0.  1.
      622    1    1    2    0    0 -0.78902141042E-03 -0.65852258622E-03  0.39979125612E+01  0.39991631504E+01  0.10000000000E+00 0.  1.
</event>
<event>
 5   0  0.6262544E+06  0.9118800E+02  0.7818608E-02  0.1180000E+00
       11   -1    0    0    0    0  0.00000000000E+00  0.00000000000E+00  0.39999999673E+01  0.40000000000E+01  0.51109989000E-03 0.  1.
     -623   -1    0    0    0    0  0.00000000000E+00  0.00000000000E+00  0.12525980253E-10  0.17130000000E+03  0.17130000000E+03 0.  1.
       11    1    1    2    0    0 -0.10258137581E+00  0.83367543879E-01  0.11688266423E+01  0.11762776318E+01  0.51109989000E-03 0.  1.
     -623    1    1    2    0    0  0.10214968867E-01  0.28604078902E-01  0.12960976942E-01  0.17130000318E+03  0.17130000000E+03 0.  1.
      622    1    1    2    0    0  0.92366406944E-01 -0.11197162278E+00  0.28182123481E+01  0.28237191852E+01  0.10000000000E+00 0.  1.
</event>
<event>
 5   0  0.6262544E+06  0.9118800E+02  0.7818608E-02  0.1180000E+00
       11   -1    0    0    0    0  0.00000000000E+00  0.00000000000E+00  0.39999999673E+01  0.40000000000E+01  0.51109989000E-03 0. -1.
     -623   -1    0    0    0    0  0.00000000000E+00  0.00000000000E+00  0.12525980253E-10  0.17130000000E+03  0.17130000000E+03 0. -1.
       11    1    1    2    0    0  0.19101149978E-02 -0.91888467493E-02  0.91883121048E-02  0.13144190592E-01  0.51109989000E-03 0. -1.
     -623    1    1    2    0    0  0.40288694359E-02 -0.88313820366E-03  0.52274450459E-02  0.17130000013E+03  0.17130000000E+03 0. -1.
      622    1    1    2    0    0 -0.59389844338E-02  0.10071984953E-01  0.39855842103E+01  0.39868556801E+01  0.10000000000E+00 0. -1.
</event>
<event>
 5   0  0.6262544E+06  0.9118800E+02  0.7818608E-02  0.1180000E+00
       11   -1    0    0    0    0  0.00000000000E+00  0.00000000000E+00  0.39999999673E+01  0.40000000000E+01  0.51109989000E-03 0.  1.
     -623   -1    0    0    0    0  0.00000000000E+00  0.00000000000E+00  0.12525980253E-10  0.17130000000E+03  0.17130000000E+03 0.  1.
       11    1    1    2    0    0 -0.14137426430E-03  0.15492372495E-02  0.27233569748E-02  0.31777380395E-02  0.51109989000E-03 0.  1.
     -623    1    1    2    0    0  0.37307930525E-03 -0.26493960645E-03  0.17057603284E-02  0.17130000001E+03  0.17130000000E+03 0.  1.
      622    1    1    2    0    0 -0.23170504097E-03 -0.12842976431E-02  0.39955708502E+01  0.39968222530E+01  0.10000000000E+00 0.  1.
</event>
<event>
 5   0  0.6262544E+06  0.9118800E+02  0.7818608E-02  0.1180000E+00
       11   -1    0    0    0    0  0.00000000000E+00  0.00000000000E+00  0.39999999673E+01  0.40000000000E+01  0.51109989000E-03 0.  1.
     -623   -1    0    0    0    0  0.00000000000E+00  0.00000000000E+00  0.12525980253E-10  0.17130000000E+03  0.17130000000E+03 0.  1.
       11    1    1    2    0    0  0.78381113865E-01 -0.27599264036E-01  0.27849091350E+01  0.27861486805E+01  0.51109989000E-03 0.  1.
     -623    1    1    2    0    0 -0.13966345600E-01  0.36430764575E-02  0.73201551978E-02  0.17130000076E+03  0.17130000000E+03 0.  1.
      622    1    1    2    0    0 -0.64414768265E-01  0.23956187578E-01  0.12077706772E+01  0.12138505550E+01  0.10000000000E+00 0.  0.
</event>
<event>
 5   0  0.6262544E+06  0.9118800E+02  0.7818608E-02  0.1180000E+00
       11   -1    0    0    0    0  0.00000000000E+00  0.00000000000E+00  0.39999999673E+01  0.40000000000E+01  0.51109989000E-03 0. -1.
     -623   -1    0    0    0    0  0.00000000000E+00  0.00000000000E+00  0.12525980253E-10  0.17130000000E+03  0.17130000000E+03 0.  1.
       11    1    1    2    0    0 -0.59272695994E-02  0.42093469158E-02  0.15271945404E+00  0.15289324377E+00  0.51109989000E-03 0. -1.
     -623    1    1    2    0    0 -0.16426171245E-01 -0.90183228228E-02  0.15426580302E-02  0.17130000103E+03  0.17130000000E+03 0.  1.
      622    1    1    2    0    0  0.22353440844E-01  0.48089759070E-02  0.38457378553E+01  0.38471057243E+01  0.10000000000E+00 0. -1.
</event>
<event>
 5   0  0.6262544E+06  0.9118800E+02  0.7818608E-02  0.1180000E+00
       11   -1    0    0    0    0  0.00000000000E+00  0.00000000000E+00  0.39999999673E+01  0.40000000000E+01  0.51109989000E-03 0. -1.
     -623   -1    0    0    0    0  0.00000000000E+00  0.00000000000E+00  0.12525980253E-10  0.17130000000E+03  0.17130000000E+03 0.  1.
       11    1    1    2    0    0 -0.99968395075E-03  0.35574876462E-01  0.50590558193E+00  0.50715608076E+00  0.51109989000E-03 0. -1.
     -623    1    1    2    0    0  0.16466852840E-01 -0.49126086769E-01  0.27506780309E-02  0.17130000786E+03  0.17130000000E+03 0.  1.
      622    1    1    2    0    0 -0.15467168890E-01  0.13551210306E-01  0.34913437074E+01  0.34928360614E+01  0.10000000000E+00 0. -1.
</event>
<event>
 5   0  0.6262544E+06  0.9118800E+02  0.7818608E-02  0.1180000E+00
       11   -1    0    0    0    0  0.00000000000E+00  0.00000000000E+00  0.39999999673E+01  0.40000000000E+01  0.51109989000E-03 0.  1.
     -623   -1    0    0    0    0  0.00000000000E+00  0.00000000000E+00  0.12525980253E-10  0.17130000000E+03  0.17130000000E+03 0.  1.
       11    1    1    2    0    0  0.64882268258E-03  0.22178454464E-02  0.13133928606E-01  0.13345452816E-01  0.51109989000E-03 0.  1.
     -623    1    1    2    0    0 -0.93568512719E-03  0.73224965333E-03  0.14669859250E-02  0.17130000001E+03  0.17130000000E+03 0.  1.
      622    1    1    2    0    0  0.28686244462E-03 -0.29500950997E-02  0.39853990528E+01  0.39866545368E+01  0.10000000000E+00 0.  1.
</event>
<event>
 5   0  0.6262544E+06  0.9118800E+02  0.7818608E-02  0.1180000E+00
       11   -1    0    0    0    0  0.00000000000E+00  0.00000000000E+00  0.39999999673E+01  0.40000000000E+01  0.51109989000E-03 0.  1.
     -623   -1    0    0    0    0  0.00000000000E+00  0.00000000000E+00  0.12525980253E-10  0.17130000000E+03  0.17130000000E+03 0. -1.
       11    1    1    2    0    0 -0.16917949808E-01  0.66413072508E-02  0.15391008937E+00  0.15498032398E+00  0.51109989000E-03 0.  1.
     -623    1    1    2    0    0  0.14956111693E-01  0.23978979706E-02  0.23826212395E-02  0.17130000069E+03  0.17130000000E+03 0. -1.
      622    1    1    2    0    0  0.19618381143E-02 -0.90392052215E-02  0.38437072568E+01  0.38450189898E+01  0.10000000000E+00 0.  1.
</event>
<event>
 5   0  0.6262544E+06  0.9118800E+02  0.7818608E-02  0.1180000E+00
       11   -1    0    0    0    0  0.00000000000E+00  0.00000000000E+00  0.39999999673E+01  0.40000000000E+01  0.51109989000E-03 0. -1.
     -623   -1    0    0    0    0  0.00000000000E+00  0.00000000000E+00  0.12525980253E-10  0.17130000000E+03  0.17130000000E+03 0. -1.
       11    1    1    2    0    0 -0.73598389689E-02  0.48915720149E-02  0.57351137473E+00  0.57357968310E+00  0.51109989000E-03 0. -1.
     -623    1    1    2    0    0 -0.10967457227E-01 -0.12303034656E-01  0.15856911599E-02  0.17130000080E+03  0.17130000000E+03 0. -1.
      622    1    1    2    0    0  0.18327296196E-01  0.74114626411E-02  0.34249029015E+01  0.34264195167E+01  0.10000000000E+00 0. -1.
</event>
<event>
 5   0  0.6262544E+06  0.9118800E+02  0.7818608E-02  0.1180000E+00
       11   -1    0    0    0    0  0.00000000000E+00  0.00000000000E+00  0.39999999673E+01  0.40000000000E+01  0.51109989000E-03 0.  1.
     -623   -1    0    0    0    0  0.00000000000E+00  0.00000000000E+00  0.12525980253E-10  0.17130000000E+03  0.17130000000E+03 0.  1.
       11    1    1    2    0    0  0.39168385858E-02  0.84961030232E-03 -0.16406185389E-02  0.43607699390E-02  0.51109989000E-03 0.  1.
     -623    1    1    2    0    0 -0.82696421944E-03  0.21208395443E-01  0.73164881804E-02  0.17130000147E+03  0.17130000000E+03 0.  1.
      622    1    1    2    0    0 -0.30898743664E-02 -0.22058005746E-01  0.39943240978E+01  0.39956377590E+01  0.10000000000E+00 0.  1.
</event>
<event>
 5   0  0.6262544E+06  0.9118800E+02  0.7818608E-02  0.1180000E+00
       11   -1    0    0    0    0  0.00000000000E+00  0.00000000000E+00  0.39999999673E+01  0.40000000000E+01  0.51109989000E-03 0.  1.
     -623   -1    0    0    0    0  0.00000000000E+00  0.00000000000E+00  0.12525980253E-10  0.17130000000E+03  0.17130000000E+03 0. -1.
       11    1    1    2    0    0 -0.21701631795E-01  0.96274510244E-01  0.81043168651E+00  0.81641871725E+00  0.51109989000E-03 0.  1.
     -623    1    1    2    0    0  0.16870969963E-01  0.61750791150E-02  0.92124902960E-02  0.17130000119E+03  0.17130000000E+03 0. -1.
      622    1    1    2    0    0  0.48306618324E-02 -0.10244958936E+00  0.31803557905E+01  0.31835800929E+01  0.10000000000E+00 0.  1.
</event>
<event>
 5   0  0.6262544E+06  0.9118800E+02  0.7818608E-02  0.1180000E+00
       11   -1    0    0    0    0  0.00000000000E+00  0.00000000000E+00  0.39999999673E+01  0.40000000000E+01  0.51109989000E-03 0. -1.
     -623   -1    0    0    0    0  0.00000000000E+00  0.00000000000E+00  0.12525980253E-10  0.17130000000E+03  0.17130000000E+03 0.  1.
       11    1    1    2    0    0  0.18515568300E-02 -0.17307322645E-02 -0.12824160642E-03  0.25886996491E-02  0.51109989000E-03 0. -1.
     -623    1    1    2    0    0  0.76656633995E-02  0.52618234943E-02  0.39811057081E-02  0.17130000030E+03  0.17130000000E+03 0.  1.
      622    1    1    2    0    0 -0.95172202295E-02 -0.35310912299E-02  0.39961471033E+01  0.39974110018E+01  0.10000000000E+00 0. -1.
</event>
<event>
 5   0  0.6262544E+06  0.9118800E+02  0.7818608E-02  0.1180000E+00
       11   -1    0    0    0    0  0.00000000000E+00  0.00000000000E+00  0.39999999673E+01  0.40000000000E+01  0.51109989000E-03 0.  1.
     -623   -1    0    0    0    0  0.00000000000E+00  0.00000000000E+00  0.12525980253E-10  0.17130000000E+03  0.17130000000E+03 0.  1.
       11    1    1    2    0    0  0.26267524160E-02 -0.52859221084E-01  0.24084202179E+00  0.24658900577E+00  0.51109989000E-03 0.  1.
     -623    1    1    2    0    0  0.17022486425E-01 -0.31688625226E-01  0.80874482608E-02  0.17130000397E+03  0.17130000000E+03 0.  1.
      622    1    1    2    0    0 -0.19649238842E-01  0.84547846310E-01  0.37510704974E+01  0.37534070266E+01  0.10000000000E+00 0.  1.
</event>
<event>
 5   0  0.6262544E+06  0.9118800E+02  0.7818608E-02  0.1180000E+00
       11   -1    0    0    0    0  0.00000000000E+00  0.00000000000E+00  0.39999999673E+01  0.40000000000E+01  0.51109989000E-03 0. -1.
     -623   -1    0    0    0    0  0.00000000000E+00  0.00000000000E+00  0.12525980253E-10  0.17130000000E+03  0.17130000000E+03 0.  1.
       11    1    1    2    0    0  0.18914872199E-01 -0.13109189414E-01  0.54309606470E-01  0.58986590121E-01  0.51109989000E-03 0. -1.
     -623    1    1    2    0    0 -0.25313278293E-02 -0.77926779398E-02  0.60356798752E-02  0.17130000030E+03  0.17130000000E+03 0.  1.
      622    1    1    2    0    0 -0.16383544370E-01  0.20901867354E-01  0.39396546810E+01  0.39410131076E+01  0.10000000000E+00 0. -1.
</event>
<event>
 5   0  0.6262544E+06  0.9118800E+02  0.7818608E-02  0.1180000E+00
       11   -1    0    0    0    0  0.00000000000E+00  0.00000000000E+00  0.39999999673E+01  0.40000000000E+01  0.51109989000E-03 0.  1.
     -623   -1    0    0    0    0  0.00000000000E+00  0.00000000000E+00  0.12525980253E-10  0.17130000000E+03  0.17130000000E+03 0.  1.
       11    1    1    2    0    0  0.17255881308E-01  0.17889177214E-01  0.61840611790E+00  0.61890562769E+00  0.51109989000E-03 0.  1.
     -623    1    1    2    0    0  0.27537761844E-02  0.56538116112E-02  0.21199811655E-02  0.17130000013E+03  0.17130000000E+03 0.  1.
      622    1    1    2    0    0 -0.20009657492E-01 -0.23542988825E-01  0.33794738683E+01  0.33810942438E+01  0.10000000000E+00 0.  0.
</event>
<event>
 5   0  0.6262544E+06  0.9118800E+02  0.7818608E-02  0.1180000E+00
       11   -1    0    0    0    0  0.00000000000E+00  0.00000000000E+00  0.39999999673E+01  0.40000000000E+01  0.51109989000E-03 0. -1.
     -623   -1    0    0    0    0  0.00000000000E+00  0.00000000000E+00  0.12525980253E-10  0.17130000000E+03  0.17130000000E+03 0. -1.
       11    1    1    2    0    0 -0.30075200998E-01  0.42895215455E-02  0.18502687415E+00  0.18750499483E+00  0.51109989000E-03 0. -1.
     -623    1    1    2    0    0  0.10159328365E-01 -0.85441303494E-02  0.38447603071E-02  0.17130000056E+03  0.17130000000E+03 0. -1.
      622    1    1    2    0    0  0.19915872633E-01  0.42546088039E-02  0.38111283329E+01  0.38124944477E+01  0.10000000000E+00 0. -1.
</event>
<event>
 5   0  0.6262544E+06  0.9118800E+02  0.7818608E-02  0.1180000E+00
       11   -1    0    0    0    0  0.00000000000E+00  0.00000000000E+00  0.39999999673E+01  0.40000000000E+01  0.51109989000E-03 0.  1.
     -623   -1    0    0    0    0  0.00000000000E+00  0.00000000000E+00  0.12525980253E-10  0.17130000000E+03  0.17130000000E+03 0. -1.
       11    1    1    2    0    0 -0.26375502215E-02 -0.40781587003E-02  0.29969955522E-01  0.30365235143E-01  0.51109989000E-03 0.  1.
     -623    1    1    2    0    0 -0.12294669544E-02  0.59126295913E-03  0.16584381029E-02  0.17130000001E+03  0.17130000000E+03 0. -1.
      622    1    1    2    0    0  0.38670171758E-02  0.34868957411E-02  0.39683715737E+01  0.39696347514E+01  0.10000000000E+00 0.  1.
</event>
<event>
 5   0  0.6262544E+06  0.9118800E+02  0.7818608E-02  0.1180000E+00
       11   -1    0    0    0    0  0.00000000000E+00  0.00000000000E+00  0.39999999673E+01  0.40000000000E+01  0.51109989000E-03 0.  1.
     -623   -1    0    0    0    0  0.00000000000E+00  0.00000000000E+00  0.12525980253E-10  0.17130000000E+03  0.17130000000E+03 0.  1.
       11    1    1    2    0    0  0.33575552522E-02  0.23370579807E-03  0.22424966258E+01  0.22424992097E+01  0.51109989000E-03 0.  1.
     -623    1    1    2    0    0  0.36741939898E-02 -0.37727049061E-03  0.28639662193E-02  0.17130000006E+03  0.17130000000E+03 0.  1.
      622    1    1    2    0    0 -0.70317492420E-02  0.14356469254E-03  0.17546393754E+01  0.17575007265E+01  0.10000000000E+00 0.  1.
</event>
<event>
 5   0  0.6262544E+06  0.9118800E+02  0.7818608E-02  0.1180000E+00
       11   -1    0    0    0    0  0.00000000000E+00  0.00000000000E+00  0.39999999673E+01  0.40000000000E+01  0.51109989000E-03 0.  1.
     -623   -1    0    0    0    0  0.00000000000E+00  0.00000000000E+00  0.12525980253E-10  0.17130000000E+03  0.17130000000E+03 0.  1.
       11    1    1    2    0    0 -0.22153635142E-02 -0.52434493810E-02  0.13911077883E-01  0.15039312081E-01  0.51109989000E-03 0.  1.
     -623    1    1    2    0    0  0.11664171185E-01 -0.14873539711E-02  0.24004290087E-02  0.17130000042E+03  0.17130000000E+03 0.  1.
      622    1    1    2    0    0 -0.94488076713E-02  0.67308033521E-02  0.39836884606E+01  0.39849602676E+01  0.10000000000E+00 0.  1.
</event>
<event>
 5   0  0.6262544E+06  0.9118800E+02  0.7818608E-02  0.1180000E+00
       11   -1    0    0    0    0  0.00000000000E+00  0.00000000000E+00  0.39999999673E+01  0.40000000000E+01  0.51109989000E-03 0. -1.
     -623   -1    0    0    0    0  0.00000000000E+00  0.00000000000E+00  0.12525980253E-10  0.17130000000E+03  0.17130000000E+03 0. -1.
       11    1    1    2    0    0  0.35530253012E-01 -0.22026298064E-01  0.11830859026E+00  0.12547804764E+00  0.51109989000E-03 0. -1.
     -623    1    1    2    0    0 -0.42340687050E-01  0.48544829170E-02  0.85096893188E-02  0.17130000551E+03  0.17130000000E+03 0. -1.
      622    1    1    2    0    0  0.68104340381E-02  0.17171815147E-01  0.38731816878E+01  0.38745164395E+01  0.10000000000E+00 0. -1.
</event>
<event>
 5   0  0.6262544E+06  0.9118800E+02  0.7818608E-02  0.1180000E+00
       11   -1    0    0    0    0  0.00000000000E+00  0.00000000000E+00  0.39999999673E+01  0.40000000000E+01  0.51109989000E-03 0. -1.
     -623   -1    0    0    0    0  0.00000000000E+00  0.00000000000E+00  0.12525980253E-10  0.17130000000E+03  0.17130000000E+03 0.  1.
       11    1    1    2    0    0 -0.19599583616E-01 -0.57146305607E-01  0.26643676892E+01  0.26650525864E+01  0.51109989000E-03 0. -1.
     -623    1    1    2    0    0  0.66001656185E-02  0.21324015034E-01  0.49827002888E-02  0.17130000153E+03  0.17130000000E+03 0.  1.
      622    1    1    2    0    0  0.12999417997E-01  0.35822290574E-01  0.13306495779E+01  0.13349458867E+01  0.10000000000E+00 0. -1.
</event>
<event>
 5   0  0.6262544E+06  0.9118800E+02  0.7818608E-02  0.1180000E+00
       11   -1    0    0    0    0  0.00000000000E+00  0.00000000000E+00  0.39999999673E+01  0.40000000000E+01  0.51109989000E-03 0.  1.
     -623   -1    0    0    0    0  0.00000000000E+00  0.00000000000E+00  0.12525980253E-10  0.17130000000E+03  0.17130000000E+03 0. -1.
       11    1    1    2    0    0 -0.60573305307E-02 -0.32178382943E-01  0.28371812558E+01  0.28373702401E+01  0.51109989000E-03 0.  1.
     -623    1    1    2    0    0 -0.26488290166E-02  0.26782291816E-01  0.45450014251E-02  0.17130000217E+03  0.17130000000E+03 0. -1.
      622    1    1    2    0    0  0.87061595473E-02  0.53960911262E-02  0.11582737101E+01  0.11626275855E+01  0.10000000000E+00 0.  1.
</event>
<event>
 5   0  0.6262544E+06  0.9118800E+02  0.7818608E-02  0.1180000E+00
       11   -1    0    0    0    0  0.00000000000E+00  0.00000000000E+00  0.39999999673E+01  0.40000000000E+01  0.51109989000E-03 0.  1.
     -623   -1    0    0    0    0  0.00000000000E+00  0.00000000000E+00  0.12525980253E-10  0.17130000000E+03  0.17130000000E+03 0. -1.
       11    1    1    2    0    0 -0.28954804048E-01 -0.38439788678E-01  0.46175238952E+00  0.46425373287E+00  0.51109989000E-03 0.  1.
     -623    1    1    2    0    0  0.68894869361E-02 -0.80902896175E-02  0.42912922665E-02  0.17130000038E+03  0.17130000000E+03 0. -1.
      622    1    1    2    0    0  0.22065317112E-01  0.46530078296E-01  0.35339562856E+01  0.35357458838E+01  0.10000000000E+00 0.  1.
</event>
<event>
 5   0  0.6262544E+06  0.9118800E+02  0.7818608E-02  0.1180000E+00
       11   -1    0    0    0    0  0.00000000000E+00  0.00000000000E+00  0.39999999673E+01  0.40000000000E+01  0.51109989000E-03 0. -1.
     -623   -1    0    0    0    0  0.00000000000E+00  0.00000000000E+00  0.12525980253E-10  0.17130000000E+03  0.17130000000E+03 0.  1.
       11    1    1    2    0    0 -0.98664781529E-02 -0.27780619942E-01  0.26547434196E+00  0.26710671593E+00  0.51109989000E-03 0. -1.
     -623    1    1    2    0    0 -0.29587685400E-02  0.50006533566E-02  0.30637247254E-02  0.17130000013E+03  0.17130000000E+03 0.  1.
      622    1    1    2    0    0  0.12825246693E-01  0.22779966585E-01  0.37314619007E+01  0.37328931581E+01  0.10000000000E+00 0. -1.
</event>
<event>
 5   0  0.6262544E+06  0.9118800E+02  0.7818608E-02  0.1180000E+00
       11   -1    0    0    0    0  0.00000000000E+00  0.00000000000E+00  0.39999999673E+01  0.40000000000E+01  0.51109989000E-03 0. -1.
     -623   -1    0    0    0    0  0.00000000000E+00  0.00000000000E+00  0.12525980253E-10  0.17130000000E+03  0.17130000000E+03 0.  1.
       11    1    1    2    0    0  0.10560188841E-01  0.49967110635E-01  0.16055200393E+01  0.16063321847E+01  0.51109989000E-03 0. -1.
     -623    1    1    2    0    0 -0.12842762184E-01  0.51316562595E-02  0.35383398659E-02  0.17130000059E+03  0.17130000000E+03 0.  1.
      622    1    1    2    0    0  0.22825733425E-02 -0.55098766894E-01  0.23909415882E+01  0.23936672205E+01  0.10000000000E+00 0.  1.
</event>
<event>
 5   0  0.6262544E+06  0.9118800E+02  0.7818608E-02  0.1180000E+00
       11   -1    0    0    0    0  0.00000000000E+00  0.00000000000E+00  0.39999999673E+01  0.40000000000E+01  0.51109989000E-03 0.  1.
     -623   -1    0    0    0    0  0.00000000000E+00  0.00000000000E+00  0.12525980253E-10  0.17130000000E+03  0.17130000000E+03 0. -1.
       11    1    1    2    0    0  0.51269332003E-01 -0.12738123386E-01  0.23671065779E+01  0.23676960566E+01  0.51109989000E-03 0.  1.
     -623    1    1    2    0    0 -0.11563852452E-01 -0.49088114145E-02  0.42354912629E-02  0.17130000051E+03  0.17130000000E+03 0. -1.
      622    1    1    2    0    0 -0.39705479551E-01  0.17646934800E-01  0.16286578983E+01  0.16323034304E+01  0.10000000000E+00 0.  1.
</event>
<event>
 5   0  0.6262544E+06  0.9118800E+02  0.7818608E-02  0.1180000E+00
       11   -1    0    0    0    0  0.00000000000E+00  0.00000000000E+00  0.39999999673E+01  0.40000000000E+01  0.51109989000E-03 0. -1.
     -623   -1    0    0    0    0  0.00000000000E+00  0.00000000000E+00  0.12525980253E-10  0.17130000000E+03  0.17130000000E+03 0. -1.
       11    1    1    2    0    0  0.46612072231E-02  0.43962207981E-02  0.12342542361E+00  0.12359267788E+00  0.51109989000E-03 0. -1.
     -623    1    1    2    0    0 -0.10779410761E-01  0.35880001211E-02  0.14707287358E-02  0.17130000038E+03  0.17130000000E+03 0. -1.
      622    1    1    2    0    0  0.61182035378E-02 -0.79842209192E-02  0.38751038150E+01  0.38764069391E+01  0.10000000000E+00 0. -1.
</event>
<event>
 5   0  0.6262544E+06  0.9118800E+02  0.7818608E-02  0.1180000E+00
       11   -1    0    0    0    0  0.00000000000E+00  0.00000000000E+00  0.39999999673E+01  0.40000000000E+01  0.51109989000E-03 0.  1.
     -623   -1    0    0    0    0  0.00000000000E+00  0.00000000000E+00  0.12525980253E-10  0.17130000000E+03  0.17130000000E+03 0.  1.
       11    1    1    2    0    0  0.32163684020E-02 -0.50525046634E-02  0.47636314101E-01  0.48014086197E-01  0.51109989000E-03 0.  1.
     -623    1    1    2    0    0 -0.93314480211E-03  0.32820597082E-03  0.16466239509E-02  0.17130000001E+03  0.17130000000E+03 0.  1.
      622    1    1    2    0    0 -0.22832235999E-02  0.47242986926E-02  0.39507170291E+01  0.39519859029E+01  0.10000000000E+00 0.  1.
</event>
<event>
 5   0  0.6262544E+06  0.9118800E+02  0.7818608E-02  0.1180000E+00
       11   -1    0    0    0    0  0.00000000000E+00  0.00000000000E+00  0.39999999673E+01  0.40000000000E+01  0.51109989000E-03 0.  1.
     -623   -1    0    0    0    0  0.00000000000E+00  0.00000000000E+00  0.12525980253E-10  0.17130000000E+03  0.17130000000E+03 0. -1.
       11    1    1    2    0    0  0.38208973901E-02 -0.17593900983E-02  0.15226940948E-01  0.15805558011E-01  0.51109989000E-03 0.  1.
     -623    1    1    2    0    0 -0.11591871827E-02  0.52807362142E-02  0.18362821582E-02  0.17130000010E+03  0.17130000000E+03 0. -1.
      622    1    1    2    0    0 -0.26617102074E-02 -0.35213461158E-02  0.39829367443E+01  0.39841943468E+01  0.10000000000E+00 0.  1.
</event>
<event>
 5   0  0.6262544E+06  0.9118800E+02  0.7818608E-02  0.1180000E+00
       11   -1    0    0    0    0  0.00000000000E+00  0.00000000000E+00  0.39999999673E+01  0.40000000000E+01  0.51109989000E-03 0. -1.
     -623   -1    0    0    0    0  0.00000000000E+00  0.00000000000E+00  0.12525980253E-10  0.17130000000E+03  0.17130000000E+03 0.  1.
       11    1    1    2    0    0  0.40357128363E-02 -0.24502406823E-01  0.20566809662E+00  0.20716245342E+00  0.51109989000E-03 0. -1.
     -623    1    1    2    0    0 -0.74197595360E-02  0.20245694666E-02  0.28811647082E-02  0.17130000020E+03  0.17130000000E+03 0.  1.
      622    1    1    2    0    0  0.33840466998E-02  0.22477837356E-01  0.37914507061E+01  0.37928373498E+01  0.10000000000E+00 0. -1.
</event>
<event>
 5   0  0.6262544E+06  0.9118800E+02  0.7818608E-02  0.1180000E+00
       11   -1    0    0    0    0  0.00000000000E+00  0.00000000000E+00  0.39999999673E+01  0.40000000000E+01  0.51109989000E-03 0. -1.
     -623   -1    0    0    0    0  0.00000000000E+00  0.00000000000E+00  0.12525980253E-10  0.17130000000E+03  0.17130000000E+03 0.  1.
       11    1    1    2    0    0 -0.20329031916E-02 -0.23753283332E-01  0.11305860849E+00  0.11554592741E+00  0.51109989000E-03 0. -1.
     -623    1    1    2    0    0  0.33889332257E-01 -0.12824974936E-01  0.40815249332E-02  0.17130000388E+03  0.17130000000E+03 0.  1.
      622    1    1    2    0    0 -0.31856429065E-01  0.36578258268E-01  0.38828598339E+01  0.38844501916E+01  0.10000000000E+00 0. -1.
</event>
<event>
 5   0  0.6262544E+06  0.9118800E+02  0.7818608E-02  0.1180000E+00
       11   -1    0    0    0    0  0.00000000000E+00  0.00000000000E+00  0.39999999673E+01  0.40000000000E+01  0.51109989000E-03 0. -1.
     -623   -1    0    0    0    0  0.00000000000E+00  0.00000000000E+00  0.12525980253E-10  0.17130000000E+03  0.17130000000E+03 0.  1.
       11    1    1    2    0    0 -0.36831256599E-01 -0.33242588140E-02  0.45401251132E+00  0.45551642541E+00  0.51109989000E-03 0. -1.
     -623    1    1    2    0    0  0.39868623873E-01  0.22815734318E-01  0.29759088745E-02  0.17130000618E+03  0.17130000000E+03 0.  1.
      622    1    1    2    0    0 -0.30373672736E-02 -0.19491475504E-01  0.35430115471E+01  0.35444773897E+01  0.10000000000E+00 0. -1.
</event>
<event>
 5   0  0.6262544E+06  0.9118800E+02  0.7818608E-02  0.1180000E+00
       11   -1    0    0    0    0  0.00000000000E+00  0.00000000000E+00  0.39999999673E+01  0.40000000000E+01  0.51109989000E-03 0. -1.
     -623   -1    0    0    0    0  0.00000000000E+00  0.00000000000E+00  0.12525980253E-10  0.17130000000E+03  0.17130000000E+03 0. -1.
       11    1    1    2    0    0  0.22170737762E-01 -0.24774343765E-01  0.16773424476E+01  0.16776719756E+01  0.51109989000E-03 0. -1.
     -623    1    1    2    0    0  0.93300526032E-02  0.61071632603E-02  0.27728459426E-02  0.17130000039E+03  0.17130000000E+03 0. -1.
      622    1    1    2    0    0 -0.31500790366E-01  0.18667180505E-01  0.23198846738E+01  0.23223276391E+01  0.10000000000E+00 0. -1.
</event>
<event>
 5   0  0.6262544E+06  0.9118800E+02  0.7818608E-02  0.1180000E+00
       11   -1    0    0    0    0  0.00000000000E+00  0.00000000000E+00  0.39999999673E+01  0.40000000000E+01  0.51109989000E-03 0.  1.
     -623   -1    0    0    0    0  0.00000000000E+00  0.00000000000E+00  0.12525980253E-10  0.17130000000E+03  0.17130000000E+03 0. -1.
       11    1    1    2    0    0 -0.31103044894E-01  0.31805084626E-01  0.29957568172E+00  0.30286104588E+00  0.51109989000E-03 0.  1.
     -623    1    1    2    0    0  0.17860155223E-01 -0.44605173262E-02  0.47639193745E-02  0.17130000106E+03  0.17130000000E+03 0. -1.
      622    1    1    2    0    0  0.13242889670E-01 -0.27344567300E-01  0.36956603663E+01  0.36971378987E+01  0.10000000000E+00 0.  0.
</event>
<event>
 5   0  0.6262544E+06  0.9118800E+02  0.7818608E-02  0.1180000E+00
       11   -1    0    0    0    0  0.00000000000E+00  0.00000000000E+00  0.39999999673E+01  0.40000000000E+01  0.51109989000E-03 0. -1.
     -623   -1    0    0    0    0  0.00000000000E+00  0.00000000000E+00  0.12525980253E-10  0.17130000000E+03  0.17130000000E+03 0.  1.
       11    1    1    2    0    0 -0.22842032891E-02  0.37212755859E-03  0.26948896433E-02  0.35888322437E-02  0.51109989000E-03 0. -1.
     -623    1    1    2    0    0  0.25007858292E-02 -0.16774931198E-02  0.21454874203E-02  0.17130000004E+03  0.17130000000E+03 0.  1.
      622    1    1    2    0    0 -0.21658254007E-03  0.13053655612E-02  0.39951595903E+01  0.39964111278E+01  0.10000000000E+00 0. -1.
</event>
<event>
 5   0  0.6262544E+06  0.9118800E+02  0.7818608E-02  0.1180000E+00
       11   -1    0    0    0    0  0.00000000000E+00  0.00000000000E+00  0.39999999673E+01  0.40000000000E+01  0.51109989000E-03 0.  1.
     -623   -1    0    0    0    0  0.00000000000E+00  0.00000000000E+00  0.12525980253E-10  0.17130000000E+03  0.17130000000E+03 0.  1.
       11    1    1    2    0    0 -0.15801262862E-01  0.24439153997E-01  0.51024582920E+00  0.51107535608E+00  0.51109989000E-03 0.  1.
     -623    1    1    2    0    0  0.61944896751E-02  0.90883080257E-03  0.23683768893E-02  0.17130000013E+03  0.17130000000E+03 0.  1.
      622    1    1    2    0    0  0.96067731862E-02 -0.25347984799E-01  0.34873857615E+01  0.34889245133E+01  0.10000000000E+00 0.  1.
</event>
<event>
 5   0  0.6262544E+06  0.9118800E+02  0.7818608E-02  0.1180000E+00
       11   -1    0    0    0    0  0.00000000000E+00  0.00000000000E+00  0.39999999673E+01  0.40000000000E+01  0.51109989000E-03 0.  1.
     -623   -1    0    0    0    0  0.00000000000E+00  0.00000000000E+00  0.12525980253E-10  0.17130000000E+03  0.17130000000E+03 0. -1.
       11    1    1    2    0    0 -0.43770237429E-02  0.29915172014E-02  0.33656670082E+00  0.33660884247E+00  0.51109989000E-03 0.  1.
     -623    1    1    2    0    0  0.66200693296E-03 -0.18345478032E-01  0.14422812754E-02  0.17130000099E+03  0.17130000000E+03 0. -1.
      622    1    1    2    0    0  0.37150168100E-02  0.15353960830E-01  0.36619909853E+01  0.36633901678E+01  0.10000000000E+00 0.  1.
</event>
<event>
 5   0  0.6262544E+06  0.9118800E+02  0.7818608E-02  0.1180000E+00
       11   -1    0    0    0    0  0.00000000000E+00  0.00000000000E+00  0.39999999673E+01  0.40000000000E+01  0.51109989000E-03 0.  1.
     -623   -1    0    0    0    0  0.00000000000E+00  0.00000000000E+00  0.12525980253E-10  0.17130000000E+03  0.17130000000E+03 0. -1.
       11    1    1    2    0    0 -0.87860762907E-02 -0.10737963017E-01  0.24906186096E+00  0.24944853335E+00  0.51109989000E-03 0.  1.
     -623    1    1    2    0    0  0.13829936655E-01 -0.15751499466E-02  0.17442007670E-02  0.17130000057E+03  0.17130000000E+03 0. -1.
      622    1    1    2    0    0 -0.50438603643E-02  0.12313112964E-01  0.37491939056E+01  0.37505508922E+01  0.10000000000E+00 0.  1.
</event>
<event>
 5   0  0.6262544E+06  0.9118800E+02  0.7818608E-02  0.1180000E+00
       11   -1    0    0    0    0  0.00000000000E+00  0.00000000000E+00  0.39999999673E+01  0.40000000000E+01  0.51109989000E-03 0. -1.
     -623   -1    0    0    0    0  0.00000000000E+00  0.00000000000E+00  0.12525980253E-10  0.17130000000E+03  0.17130000000E+03 0. -1.
       11    1    1    2    0    0 -0.36608061629E-01  0.21848782573E+00  0.14991862799E+01  0.15154658832E+01  0.51109989000E-03 0. -1.
     -623    1    1    2    0    0  0.23879769052E-01 -0.47747082827E-01  0.24214098106E-01  0.17130001003E+03  0.17130000000E+03 0. -1.
      622    1    1    2    0    0  0.12728292577E-01 -0.17074074290E+00  0.24765995894E+01  0.24845240866E+01  0.10000000000E+00 0.  0.
</event>
<event>
 5   0  0.6262544E+06  0.9118800E+02  0.7818608E-02  0.1180000E+00
       11   -1    0    0    0    0  0.00000000000E+00  0.00000000000E+00  0.39999999673E+01  0.40000000000E+01  0.51109989000E-03 0. -1.
     -623   -1    0    0    0    0  0.00000000000E+00  0.00000000000E+00  0.12525980253E-10  0.17130000000E+03  0.17130000000E+03 0.  1.
       11    1    1    2    0    0 -0.39731606575E-02 -0.61417216078E-02  0.24074182083E-01  0.25166132321E-01  0.51109989000E-03 0. -1.
     -623    1    1    2    0    0  0.44266569142E-02 -0.67831265764E-02  0.23712851478E-02  0.17130000021E+03  0.17130000000E+03 0.  1.
      622    1    1    2    0    0 -0.45349625661E-03  0.12924848184E-01  0.39735545001E+01  0.39748336597E+01  0.10000000000E+00 0. -1.
</event>
<event>
 5   0  0.6262544E+06  0.9118800E+02  0.7818608E-02  0.1180000E+00
       11   -1    0    0    0    0  0.00000000000E+00  0.00000000000E+00  0.39999999673E+01  0.40000000000E+01  0.51109989000E-03 0. -1.
     -623   -1    0    0    0    0  0.00000000000E+00  0.00000000000E+00  0.12525980253E-10  0.17130000000E+03  0.17130000000E+03 0. -1.
       11    1    1    2    0    0  0.20541659669E-01  0.88349637170E-02  0.10279730273E+01  0.10282163306E+01  0.51109989000E-03 0. -1.
     -623    1    1    2    0    0 -0.18973129197E-01 -0.66936711050E-02  0.19286175151E-02  0.17130000119E+03  0.17130000000E+03 0. -1.
      622    1    1    2    0    0 -0.15685304705E-02 -0.21412926115E-02  0.29700983228E+01  0.29717824773E+01  0.10000000000E+00 0. -1.
</event>
<event>
 5   0  0.6262544E+06  0.9118800E+02  0.7818608E-02  0.1180000E+00
       11   -1    0    0    0    0  0.00000000000E+00  0.00000000000E+00  0.39999999673E+01  0.40000000000E+01  0.51109989000E-03 0.  1.
     -623   -1    0    0    0    0  0.00000000000E+00  0.00000000000E+00  0.12525980253E-10  0.17130000000E+03  0.17130000000E+03 0.  1.
       11    1    1    2    0    0  0.20454493563E-01  0.50193826638E-01  0.10580620904E+01  0.10594496000E+01  0.51109989000E-03 0.  1.
     -623    1    1    2    0    0 -0.58341674949E-03  0.41125671974E-02  0.36574129580E-02  0.17130000009E+03  0.17130000000E+03 0.  1.
      622    1    1    2    0    0 -0.19871076814E-01 -0.54306393835E-01  0.29382804640E+01  0.29405503106E+01  0.10000000000E+00 0.  1.
</event>
<event>
 5   0  0.6262544E+06  0.9118800E+02  0.7818608E-02  0.1180000E+00
       11   -1    0    0    0    0  0.00000000000E+00  0.00000000000E+00  0.39999999673E+01  0.40000000000E+01  0.51109989000E-03 0.  1.
     -623   -1    0    0    0    0  0.00000000000E+00  0.00000000000E+00  0.12525980253E-10  0.17130000000E+03  0.17130000000E+03 0.  1.
       11    1    1    2    0    0  0.52289144840E-01 -0.22422455694E-01  0.14958535860E+00  0.16004050087E+00  0.51109989000E-03 0.  1.
     -623    1    1    2    0    0 -0.60838779947E-01  0.91976887016E-02  0.11801190567E-01  0.17130001146E+03  0.17130000000E+03 0.  1.
      622    1    1    2    0    0  0.85496351072E-02  0.13224766992E-01  0.38386134182E+01  0.38399480420E+01  0.10000000000E+00 0.  0.
</event>
<event>
 5   0  0.6262544E+06  0.9118800E+02  0.7818608E-02  0.1180000E+00
       11   -1    0    0    0    0  0.00000000000E+00  0.00000000000E+00  0.39999999673E+01  0.40000000000E+01  0.51109989000E-03 0. -1.
     -623   -1    0    0    0    0  0.00000000000E+00  0.00000000000E+00  0.12525980253E-10  0.17130000000E+03  0.17130000000E+03 0. -1.
       11    1    1    2    0    0  0.18118993505E-02 -0.67066761368E-02  0.38480316771E+00  0.38486621258E+00  0.51109989000E-03 0. -1.
     -623    1    1    2    0    0  0.30177122404E-02  0.10548785197E-02  0.14540344986E-02  0.17130000004E+03  0.17130000000E+03 0. -1.
      622    1    1    2    0    0 -0.48296115912E-02  0.56517976170E-02  0.36137427654E+01  0.36151337517E+01  0.10000000000E+00 0. -1.
</event>
<event>
 5   0  0.6262544E+06  0.9118800E+02  0.7818608E-02  0.1180000E+00
       11   -1    0    0    0    0  0.00000000000E+00  0.00000000000E+00  0.39999999673E+01  0.40000000000E+01  0.51109989000E-03 0.  1.
     -623   -1    0    0    0    0  0.00000000000E+00  0.00000000000E+00  0.12525980253E-10  0.17130000000E+03  0.17130000000E+03 0. -1.
       11    1    1    2    0    0 -0.41703746119E-02 -0.19809949700E-02  0.43392216867E-01  0.43640142910E-01  0.51109989000E-03 0.  1.
     -623    1    1    2    0    0  0.31939429700E-02  0.64786333531E-02  0.15147201563E-02  0.17130000016E+03  0.17130000000E+03 0. -1.
      622    1    1    2    0    0  0.97643164208E-03 -0.44976383828E-02  0.39550930302E+01  0.39563596979E+01  0.10000000000E+00 0.  1.
</event>
<event>
 5   0  0.6262544E+06  0.9118800E+02  0.7818608E-02  0.1180000E+00
       11   -1    0    0    0    0  0.00000000000E+00  0.00000000000E+00  0.39999999673E+01  0.40000000000E+01  0.51109989000E-03 0. -1.
     -623   -1    0    0    0    0  0.00000000000E+00  0.00000000000E+00  0.12525980253E-10  0.17130000000E+03  0.17130000000E+03 0. -1.
       11    1    1    2    0    0  0.30339040320E-01  0.58654096977E-01  0.78508359817E+00  0.78785612760E+00  0.51109989000E-03 0. -1.
     -623    1    1    2    0    0 -0.50360455417E-02 -0.22396514929E-02  0.49250294317E-02  0.17130000016E+03  0.17130000000E+03 0. -1.
      622    1    1    2    0    0 -0.25302994778E-01 -0.56414445484E-01  0.32099913398E+01  0.32121437129E+01  0.10000000000E+00 0. -1.
</event>
<event>
 5   0  0.6262544E+06  0.9118800E+02  0.7818608E-02  0.1180000E+00
       11   -1    0    0    0    0  0.00000000000E+00  0.00000000000E+00  0.39999999673E+01  0.40000000000E+01  0.51109989000E-03 0.  1.
     -623   -1    0    0    0    0  0.00000000000E+00  0.00000000000E+00  0.12525980253E-10  0.17130000000E+03  0.17130000000E+03 0.  1.
       11    1    1    2    0    0  0.23041125470E-02  0.16457268008E-02  0.84664687201E-02  0.89420168716E-02  0.51109989000E-03 0.  1.
     -623    1    1    2    0    0 -0.25496483609E-03  0.12619030807E-02  0.17301121279E-02  0.17130000001E+03  0.17130000000E+03 0.  1.
      622    1    1    2    0    0 -0.20491477109E-02 -0.29076298815E-02  0.39898033865E+01  0.39910579696E+01  0.10000000000E+00 0.  1.
</event>
<event>
 5   0  0.6262544E+06  0.9118800E+02  0.7818608E-02  0.1180000E+00
       11   -1    0    0    0    0  0.00000000000E+00  0.00000000000E+00  0.39999999673E+01  0.40000000000E+01  0.51109989000E-03 0. -1.
     -623   -1    0    0    0    0  0.00000000000E+00  0.00000000000E+00  0.12525980253E-10  0.17130000000E+03  0.17130000000E+03 0. -1.
       11    1    1    2    0    0 -0.54315677046E-02  0.14768213655E-01  0.84879734307E+00  0.84894333903E+00  0.51109989000E-03 0. -1.
     -623    1    1    2    0    0  0.77508326815E-02  0.10090766669E-02  0.17736923931E-02  0.17130000019E+03  0.17130000000E+03 0. -1.
      622    1    1    2    0    0 -0.23192649770E-02 -0.15777290322E-01  0.31494289319E+01  0.31510564735E+01  0.10000000000E+00 0. -1.
</event>
<event>
 5   0  0.6262544E+06  0.9118800E+02  0.7818608E-02  0.1180000E+00
       11   -1    0    0    0    0  0.00000000000E+00  0.00000000000E+00  0.39999999673E+01  0.40000000000E+01  0.51109989000E-03 0. -1.
     -623   -1    0    0    0    0  0.00000000000E+00  0.00000000000E+00  0.12525980253E-10  0.17130000000E+03  0.17130000000E+03 0.  1.
       11    1    1    2    0    0 -0.22137751239E-02 -0.17711287616E-01  0.13013651757E+00  0.13135587135E+00  0.51109989000E-03 0. -1.
     -623    1    1    2    0    0  0.10478726405E-02 -0.14718852134E-03  0.25534108713E-02  0.17130000002E+03  0.17130000000E+03 0.  1.
      622    1    1    2    0    0  0.11659024834E-02  0.17858476137E-01  0.38673100389E+01  0.38686441064E+01  0.10000000000E+00 0. -1.
</event>
<event>
 5   0  0.6262544E+06  0.9118800E+02  0.7818608E-02  0.1180000E+00
       11   -1    0    0    0    0  0.00000000000E+00  0.00000000000E+00  0.39999999673E+01  0.40000000000E+01  0.51109989000E-03 0. -1.
     -623   -1    0    0    0    0  0.00000000000E+00  0.00000000000E+00  0.12525980253E-10  0.17130000000E+03  0.17130000000E+03 0. -1.
       11    1    1    2    0    0  0.16855247867E-02  0.89453421535E-02  0.50815136234E-01  0.51626538053E-01  0.51109989000E-03 0. -1.
     -623    1    1    2    0    0  0.11045954765E-01 -0.12162166866E-01  0.21005613132E-02  0.17130000080E+03  0.17130000000E+03 0. -1.
      622    1    1    2    0    0 -0.12731479552E-01  0.32168247126E-02  0.39470842698E+01  0.39483726612E+01  0.10000000000E+00 0. -1.
</event>
<event>
 5   0  0.6262544E+06  0.9118800E+02  0.7818608E-02  0.1180000E+00
       11   -1    0    0    0    0  0.00000000000E+00  0.00000000000E+00  0.39999999673E+01  0.40000000000E+01  0.51109989000E-03 0. -1.
     -623   -1    0    0    0    0  0.00000000000E+00  0.00000000000E+00  0.12525980253E-10  0.17130000000E+03  0.17130000000E+03 0.  1.
       11    1    1    2    0    0  0.41546651471E-02  0.97401367388E-02  0.10220009912E+00  0.10274849386E+00  0.51109989000E-03 0. -1.
     -623    1    1    2    0    0  0.12448766024E-01 -0.11571329408E-01  0.18681923087E-02  0.17130000085E+03  0.17130000000E+03 0.  1.
      622    1    1    2    0    0 -0.16603431171E-01  0.18311926699E-02  0.38959316761E+01  0.38972506529E+01  0.10000000000E+00 0. -1.
</event>
<event>
 5   0  0.6262544E+06  0.9118800E+02  0.7818608E-02  0.1180000E+00
       11   -1    0    0    0    0  0.00000000000E+00  0.00000000000E+00  0.39999999673E+01  0.40000000000E+01  0.51109989000E-03 0.  1.
     -623   -1    0    0    0    0  0.00000000000E+00  0.00000000000E+00  0.12525980253E-10  0.17130000000E+03  0.17130000000E+03 0. -1.
       11    1    1    2    0    0  0.55817683591E-02  0.36395056094E-02  0.72926015845E-01  0.73231599390E-01  0.51109989000E-03 0.  1.
     -623    1    1    2    0    0  0.24819233286E-02 -0.75095912933E-02  0.15894489998E-02  0.17130000019E+03  0.17130000000E+03 0. -1.
      622    1    1    2    0    0 -0.80636916878E-02  0.38700856841E-02  0.39254845026E+01  0.39267682108E+01  0.10000000000E+00 0.  1.
</event>
<event>
 5   0  0.6262544E+06  0.9118800E+02  0.7818608E-02  0.1180000E+00
       11   -1    0    0    0    0  0.00000000000E+00  0.00000000000E+00  0.39999999673E+01  0.40000000000E+01  0.51109989000E-03 0.  1.
     -623   -1    0    0    0    0  0.00000000000E+00  0.00000000000E+00  0.12525980253E-10  0.17130000000E+03  0.17130000000E+03 0. -1.
       11    1    1    2    0    0  0.74568482938E-02 -0.26262710784E-02  0.89815659984E-01  0.90164382580E-01  0.51109989000E-03 0.  1.
     -623    1    1    2    0    0 -0.10001402996E-01  0.11080058070E-01  0.16383542744E-02  0.17130000066E+03  0.17130000000E+03 0. -1.
      622    1    1    2    0    0  0.25445547022E-02 -0.84537869916E-02  0.39085459531E+01  0.39098349593E+01  0.10000000000E+00 0.  1.
</event>
<event>
 5   0  0.6262544E+06  0.9118800E+02  0.7818608E-02  0.1180000E+00
       11   -1    0    0    0    0  0.00000000000E+00  0.00000000000E+00  0.39999999673E+01  0.40000000000E+01  0.51109989000E-03 0.  1.
     -623   -1    0    0    0    0  0.00000000000E+00  0.00000000000E+00  0.12525980253E-10  0.17130000000E+03  0.17130000000E+03 0.  1.
       11    1    1    2    0    0  0.30542384844E-01 -0.55592163819E-02  0.94205414657E-01  0.99190037466E-01  0.51109989000E-03 0.  1.
     -623    1    1    2    0    0  0.22511110987E-01  0.53661317210E-02  0.66291988057E-02  0.17130000169E+03  0.17130000000E+03 0.  1.
      622    1    1    2    0    0 -0.53053495831E-01  0.19308466090E-03  0.38991653539E+01  0.39008082711E+01  0.10000000000E+00 0.  1.
</event>
<event>
 5   0  0.6262544E+06  0.9118800E+02  0.7818608E-02  0.1180000E+00
       11   -1    0    0    0    0  0.00000000000E+00  0.00000000000E+00  0.39999999673E+01  0.40000000000E+01  0.51109989000E-03 0.  1.
     -623   -1    0    0    0    0  0.00000000000E+00  0.00000000000E+00  0.12525980253E-10  0.17130000000E+03  0.17130000000E+03 0. -1.
       11    1    1    2    0    0 -0.68244047873E-02 -0.13425843774E-01  0.15714526554E+00  0.15786615054E+00  0.51109989000E-03 0.  1.
     -623    1    1    2    0    0 -0.34402404398E-01  0.36613505704E-02  0.22596227599E-02  0.17130000351E+03  0.17130000000E+03 0. -1.
      622    1    1    2    0    0  0.41226809185E-01  0.97644932032E-02  0.38405950791E+01  0.38421303409E+01  0.10000000000E+00 0.  1.
</event>
<event>
 5   0  0.6262544E+06  0.9118800E+02  0.7818608E-02  0.1180000E+00
       11   -1    0    0    0    0  0.00000000000E+00  0.00000000000E+00  0.39999999673E+01  0.40000000000E+01  0.51109989000E-03 0. -1.
     -623   -1    0    0    0    0  0.00000000000E+00  0.00000000000E+00  0.12525980253E-10  0.17130000000E+03  0.17130000000E+03 0. -1.
       11    1    1    2    0    0 -0.53051031613E-01 -0.36240549796E-01  0.10254352967E+01  0.10274461535E+01  0.51109989000E-03 0. -1.
     -623    1    1    2    0    0  0.37378317554E-02 -0.30827521797E-02  0.43630749962E-02  0.17130000012E+03  0.17130000000E+03 0. -1.
      622    1    1    2    0    0  0.49313199857E-01  0.39323301975E-01  0.29702015956E+01  0.29725537224E+01  0.10000000000E+00 0. -1.
</event>
<event>
 5   0  0.6262544E+06  0.9118800E+02  0.7818608E-02  0.1180000E+00
       11   -1    0    0    0    0  0.00000000000E+00  0.00000000000E+00  0.39999999673E+01  0.40000000000E+01  0.51109989000E-03 0.  1.
     -623   -1    0    0    0    0  0.00000000000E+00  0.00000000000E+00  0.12525980253E-10  0.17130000000E+03  0.17130000000E+03 0. -1.
       11    1    1    2    0    0 -0.57556349306E-01 -0.75406709662E-01  0.31882967809E+01  0.31897077499E+01  0.51109989000E-03 0.  1.
     -623    1    1    2    0    0  0.62146719755E-02  0.28735093818E-01  0.10607248149E-01  0.17130000285E+03  0.17130000000E+03 0. -1.
      622    1    1    2    0    0  0.51341677331E-01  0.46671615844E-01  0.80109593831E+00  0.81028939888E+00  0.10000000000E+00 0.  1.
</event>
<event>
 5   0  0.6262544E+06  0.9118800E+02  0.7818608E-02  0.1180000E+00
       11   -1    0    0    0    0  0.00000000000E+00  0.00000000000E+00  0.39999999673E+01  0.40000000000E+01  0.51109989000E-03 0.  1.
     -623   -1    0    0    0    0  0.00000000000E+00  0.00000000000E+00  0.12525980253E-10  0.17130000000E+03  0.17130000000E+03 0. -1.
       11    1    1    2    0    0  0.31485746057E-02  0.14474815121E-02  0.44030460408E-01  0.44169575374E-01  0.51109989000E-03 0.  1.
     -623    1    1    2    0    0  0.17946512231E-02  0.14197486950E-03  0.14066656250E-02  0.17130000002E+03  0.17130000000E+03 0. -1.
      622    1    1    2    0    0 -0.49432258288E-02 -0.15894563816E-02  0.39545628413E+01  0.39558304094E+01  0.10000000000E+00 0.  1.
</event>
<event>
 5   0  0.6262544E+06  0.9118800E+02  0.7818608E-02  0.1180000E+00
       11   -1    0    0    0    0  0.00000000000E+00  0.00000000000E+00  0.39999999673E+01  0.40000000000E+01  0.51109989000E-03 0.  1.
     -623   -1    0    0    0    0  0.00000000000E+00  0.00000000000E+00  0.12525980253E-10  0.17130000000E+03  0.17130000000E+03 0. -1.
       11    1    1    2    0    0  0.22535026096E-02  0.24632807500E-02  0.10094791204E+00  0.10100439690E+00  0.51109989000E-03 0.  1.
     -623    1    1    2    0    0 -0.88241867558E-03  0.14235588670E-02  0.13412373160E-02  0.17130000001E+03  0.17130000000E+03 0. -1.
      622    1    1    2    0    0 -0.13710839341E-02 -0.38868396170E-02  0.38977108180E+01  0.38989955897E+01  0.10000000000E+00 0.  1.
</event>
<event>
 5   0  0.6262544E+06  0.9118800E+02  0.7818608E-02  0.1180000E+00
       11   -1    0    0    0    0  0.00000000000E+00  0.00000000000E+00  0.39999999673E+01  0.40000000000E+01  0.51109989000E-03 0. -1.
     -623   -1    0    0    0    0  0.00000000000E+00  0.00000000000E+00  0.12525980253E-10  0.17130000000E+03  0.17130000000E+03 0. -1.
       11    1    1    2    0    0 -0.34659491094E-02 -0.23056029551E-01  0.10384691967E+01  0.10387310177E+01  0.51109989000E-03 0. -1.
     -623    1    1    2    0    0  0.74402892355E-02  0.12410330822E-01  0.19731731789E-02  0.17130000062E+03  0.17130000000E+03 0. -1.
      622    1    1    2    0    0 -0.39743401263E-02  0.10645698728E-01  0.29595575976E+01  0.29612683599E+01  0.10000000000E+00 0. -1.
</event>
<event>
 5   0  0.6262544E+06  0.9118800E+02  0.7818608E-02  0.1180000E+00
       11   -1    0    0    0    0  0.00000000000E+00  0.00000000000E+00  0.39999999673E+01  0.40000000000E+01  0.51109989000E-03 0. -1.
     -623   -1    0    0    0    0  0.00000000000E+00  0.00000000000E+00  0.12525980253E-10  0.17130000000E+03  0.17130000000E+03 0. -1.
       11    1    1    2    0    0  0.50902267323E-01  0.26281417572E-02  0.27244145738E+00  0.27716882377E+00  0.51109989000E-03 0. -1.
     -623    1    1    2    0    0 -0.32092424305E-01  0.39191745739E-01  0.63607713884E-02  0.17130000761E+03  0.17130000000E+03 0. -1.
      622    1    1    2    0    0 -0.18809843018E-01 -0.41819887496E-01  0.37211977386E+01  0.37228235686E+01  0.10000000000E+00 0. -1.
</event>
<event>
 5   0  0.6262544E+06  0.9118800E+02  0.7818608E-02  0.1180000E+00
       11   -1    0    0    0    0  0.00000000000E+00  0.00000000000E+00  0.39999999673E+01  0.40000000000E+01  0.51109989000E-03 0.  1.
     -623   -1    0    0    0    0  0.00000000000E+00  0.00000000000E+00  0.12525980253E-10  0.17130000000E+03  0.17130000000E+03 0. -1.
       11    1    1    2    0    0  0.22848630123E-01  0.18252087136E-01  0.33076097104E+00  0.33205162214E+00  0.51109989000E-03 0.  1.
     -623    1    1    2    0    0 -0.88802285987E-03 -0.16134538983E-01  0.27211931822E-02  0.17130000078E+03  0.17130000000E+03 0. -1.
      622    1    1    2    0    0 -0.21960607263E-01 -0.21175481525E-02  0.36665178033E+01  0.36679475942E+01  0.10000000000E+00 0.  1.
</event>
<event>
 5   0  0.6262544E+06  0.9118800E+02  0.7818608E-02  0.1180000E+00
       11   -1    0    0    0    0  0.00000000000E+00  0.00000000000E+00  0.39999999673E+01  0.40000000000E+01  0.51109989000E-03 0. -1.
     -623   -1    0    0    0    0  0.00000000000E+00  0.00000000000E+00  0.12525980253E-10  0.17130000000E+03  0.17130000000E+03 0.  1.
       11    1    1    2    0    0 -0.69517236842E-04  0.12827665863E-01  0.56947053287E-02  0.14044384469E-01  0.51109989000E-03 0. -1.
     -623    1    1    2    0    0 -0.12943803009E-01 -0.14033960684E-01  0.96270153679E-02  0.17130000133E+03  0.17130000000E+03 0.  1.
      622    1    1    2    0    0  0.13013320245E-01  0.12062948218E-02  0.39846782467E+01  0.39859542811E+01  0.10000000000E+00 0. -1.
</event>
<event>
 5   0  0.6262544E+06  0.9118800E+02  0.7818608E-02  0.1180000E+00
       11   -1    0    0    0    0  0.00000000000E+00  0.00000000000E+00  0.39999999673E+01  0.40000000000E+01  0.51109989000E-03 0.  1.
     -623   -1    0    0    0    0  0.00000000000E+00  0.00000000000E+00  0.12525980253E-10  0.17130000000E+03  0.17130000000E+03 0. -1.
       11    1    1    2    0    0 -0.26876525465E-04 -0.16971473573E-02  0.12824380236E-02  0.21878989652E-02  0.51109989000E-03 0.  1.
     -623    1    1    2    0    0 -0.59316720760E-03  0.38661896948E-02  0.21570030409E-02  0.17130000006E+03  0.17130000000E+03 0. -1.
      622    1    1    2    0    0  0.62004373308E-03 -0.21690423376E-02  0.39965605264E+01  0.39978120429E+01  0.10000000000E+00 0.  1.
</event>
<event>
 5   0  0.6262544E+06  0.9118800E+02  0.7818608E-02  0.1180000E+00
       11   -1    0    0    0    0  0.00000000000E+00  0.00000000000E+00  0.39999999673E+01  0.40000000000E+01  0.51109989000E-03 0. -1.
     -623   -1    0    0    0    0  0.00000000000E+00  0.00000000000E+00  0.12525980253E-10  0.17130000000E+03  0.17130000000E+03 0.  1.
       11    1    1    2    0    0  0.50887218977E-02 -0.43655625879E-02  0.12286422961E+01  0.12286606962E+01  0.51109989000E-03 0. -1.
     -623    1    1    2    0    0 -0.13723138573E-02 -0.43363316507E-02  0.18393714275E-02  0.17130000007E+03  0.17130000000E+03 0.  1.
      622    1    1    2    0    0 -0.37164080403E-02  0.87018942386E-02  0.27695182998E+01  0.27713392336E+01  0.10000000000E+00 0. -1.
</event>
<event>
 5   0  0.6262544E+06  0.9118800E+02  0.7818608E-02  0.1180000E+00
       11   -1    0    0    0    0  0.00000000000E+00  0.00000000000E+00  0.39999999673E+01  0.40000000000E+01  0.51109989000E-03 0. -1.
     -623   -1    0    0    0    0  0.00000000000E+00  0.00000000000E+00  0.12525980253E-10  0.17130000000E+03  0.17130000000E+03 0.  1.
       11    1    1    2    0    0  0.51244374709E-02 -0.14847876240E-01  0.44158994739E-01  0.46872138075E-01  0.51109989000E-03 0. -1.
     -623    1    1    2    0    0 -0.11236109037E-01  0.23122271698E-01  0.39934989634E-02  0.17130000198E+03  0.17130000000E+03 0.  1.
      622    1    1    2    0    0  0.61116715662E-02 -0.82743954578E-02  0.39518474737E+01  0.39531258863E+01  0.10000000000E+00 0. -1.
</event>
<event>
 5   0  0.6262544E+06  0.9118800E+02  0.7818608E-02  0.1180000E+00
       11   -1    0    0    0    0  0.00000000000E+00  0.00000000000E+00  0.39999999673E+01  0.40000000000E+01  0.51109989000E-03 0. -1.
     -623   -1    0    0    0    0  0.00000000000E+00  0.00000000000E+00  0.12525980253E-10  0.17130000000E+03  0.17130000000E+03 0. -1.
       11    1    1    2    0    0  0.13183523708E-01 -0.98610520594E-03  0.11935940959E+00  0.12009041419E+00  0.51109989000E-03 0. -1.
     -623    1    1    2    0    0 -0.15196559557E-02  0.50290718295E-02  0.20396137116E-02  0.17130000009E+03  0.17130000000E+03 0. -1.
      622    1    1    2    0    0 -0.11663867752E-01 -0.40429666235E-02  0.38786009440E+01  0.38799094931E+01  0.10000000000E+00 0. -1.
</event>
<event>
 5   0  0.6262544E+06  0.9118800E+02  0.7818608E-02  0.1180000E+00
       11   -1    0    0    0    0  0.00000000000E+00  0.00000000000E+00  0.39999999673E+01  0.40000000000E+01  0.51109989000E-03 0. -1.
     -623   -1    0    0    0    0  0.00000000000E+00  0.00000000000E+00  0.12525980253E-10  0.17130000000E+03  0.17130000000E+03 0. -1.
       11    1    1    2    0    0  0.79091438912E-02 -0.60271941343E-02  0.73289667677E-01  0.73962951777E-01  0.51109989000E-03 0. -1.
     -623    1    1    2    0    0 -0.16071107177E-02  0.50981996512E-02  0.19522710768E-02  0.17130000009E+03  0.17130000000E+03 0. -1.
      622    1    1    2    0    0 -0.63020331735E-02  0.92899448309E-03  0.39247580286E+01  0.39260369537E+01  0.10000000000E+00 0. -1.
</event>
<event>
 5   0  0.6262544E+06  0.9118800E+02  0.7818608E-02  0.1180000E+00
       11   -1    0    0    0    0  0.00000000000E+00  0.00000000000E+00  0.39999999673E+01  0.40000000000E+01  0.51109989000E-03 0. -1.
     -623   -1    0    0    0    0  0.00000000000E+00  0.00000000000E+00  0.12525980253E-10  0.17130000000E+03  0.17130000000E+03 0.  1.
       11    1    1    2    0    0 -0.25151877654E-01  0.16013408151E-01  0.19888636970E+01  0.19890872561E+01  0.51109989000E-03 0. -1.
     -623    1    1    2    0    0  0.34504768472E-02  0.20355569888E-02  0.29099236671E-02  0.17130000007E+03  0.17130000000E+03 0.  1.
      622    1    1    2    0    0  0.21701400807E-01 -0.18048965140E-01  0.20082263467E+01  0.20109126723E+01  0.10000000000E+00 0.  1.
</event>
<event>
 5   0  0.6262544E+06  0.9118800E+02  0.7818608E-02  0.1180000E+00
       11   -1    0    0    0    0  0.00000000000E+00  0.00000000000E+00  0.39999999673E+01  0.40000000000E+01  0.51109989000E-03 0.  1.
     -623   -1    0    0    0    0  0.00000000000E+00  0.00000000000E+00  0.12525980253E-10  0.17130000000E+03  0.17130000000E+03 0.  1.
       11    1    1    2    0    0  0.19741766085E-01  0.12158567983E-01  0.57644405961E+00  0.57691037709E+00  0.51109989000E-03 0.  1.
     -623    1    1    2    0    0 -0.85359653098E-03 -0.32443377958E-02  0.19910558207E-02  0.17130000004E+03  0.17130000000E+03 0.  1.
      622    1    1    2    0    0 -0.18888169554E-01 -0.89142301875E-02  0.34215648519E+01  0.34230895785E+01  0.10000000000E+00 0.  1.
</event>
<event>
 5   0  0.6262544E+06  0.9118800E+02  0.7818608E-02  0.1180000E+00
       11   -1    0    0    0    0  0.00000000000E+00  0.00000000000E+00  0.39999999673E+01  0.40000000000E+01  0.51109989000E-03 0.  1.
     -623   -1    0    0    0    0  0.00000000000E+00  0.00000000000E+00  0.12525980253E-10  0.17130000000E+03  0.17130000000E+03 0.  1.
       11    1    1    2    0    0 -0.14555172436E-01 -0.92429864048E-02  0.10523226916E+00  0.10663666131E+00  0.51109989000E-03 0.  1.
     -623    1    1    2    0    0 -0.83065765414E-02  0.80805422232E-02  0.27565405582E-02  0.17130000041E+03  0.17130000000E+03 0.  1.
      622    1    1    2    0    0  0.22861748977E-01  0.11624441816E-02  0.38920111576E+01  0.38933629245E+01  0.10000000000E+00 0.  1.
</event>
<event>
 5   0  0.6262544E+06  0.9118800E+02  0.7818608E-02  0.1180000E+00
       11   -1    0    0    0    0  0.00000000000E+00  0.00000000000E+00  0.39999999673E+01  0.40000000000E+01  0.51109989000E-03 0.  1.
     -623   -1    0    0    0    0  0.00000000000E+00  0.00000000000E+00  0.12525980253E-10  0.17130000000E+03  0.17130000000E+03 0. -1.
       11    1    1    2    0    0 -0.50095754316E-02 -0.18348891975E-01  0.14091984447E+00  0.14219859869E+00  0.51109989000E-03 0.  1.
     -623    1    1    2    0    0  0.13131456561E-01  0.65518510005E-02  0.26022590568E-02  0.17130000065E+03  0.17130000000E+03 0. -1.
      622    1    1    2    0    0 -0.81218811294E-02  0.11797040974E-01  0.38564778638E+01  0.38578007529E+01  0.10000000000E+00 0.  1.
</event>
<event>
 5   0  0.6262544E+06  0.9118800E+02  0.7818608E-02  0.1180000E+00
       11   -1    0    0    0    0  0.00000000000E+00  0.00000000000E+00  0.39999999673E+01  0.40000000000E+01  0.51109989000E-03 0.  1.
     -623   -1    0    0    0    0  0.00000000000E+00  0.00000000000E+00  0.12525980253E-10  0.17130000000E+03  0.17130000000E+03 0. -1.
       11    1    1    2    0    0 -0.13353161668E-03  0.27734574955E-02  0.35792707845E-02  0.45587607547E-02  0.51109989000E-03 0.  1.
     -623    1    1    2    0    0  0.57473368412E-03 -0.41753074811E-02  0.22314163881E-02  0.17130000007E+03  0.17130000000E+03 0. -1.
      622    1    1    2    0    0 -0.44120206744E-03  0.14018499856E-02  0.39941892802E+01  0.39954411729E+01  0.10000000000E+00 0.  1.
</event>
<event>
 5   0  0.6262544E+06  0.9118800E+02  0.7818608E-02  0.1180000E+00
       11   -1    0    0    0    0  0.00000000000E+00  0.00000000000E+00  0.39999999673E+01  0.40000000000E+01  0.51109989000E-03 0. -1.
     -623   -1    0    0    0    0  0.00000000000E+00  0.00000000000E+00  0.12525980253E-10  0.17130000000E+03  0.17130000000E+03 0. -1.
       11    1    1    2    0    0 -0.10624415563E+00 -0.74307337551E-01  0.22956751146E+01  0.22993333586E+01  0.51109989000E-03 0. -1.
     -623    1    1    2    0    0 -0.14873029493E-02  0.68903722629E-01  0.10045182827E-01  0.17130001416E+03  0.17130000000E+03 0. -1.
      622    1    1    2    0    0  0.10773145858E+00  0.54036149220E-02  0.16942796700E+01  0.17006524825E+01  0.10000000000E+00 0. -1.
</event>
<event>
 5   0  0.6262544E+06  0.9118800E+02  0.7818608E-02  0.1180000E+00
       11   -1    0    0    0    0  0.00000000000E+00  0.00000000000E+00  0.39999999673E+01  0.40000000000E+01  0.51109989000E-03 0. -1.
     -623   -1    0    0    0    0  0.00000000000E+00  0.00000000000E+00  0.12525980253E-10  0.17130000000E+03  0.17130000000E+03 0. -1.
       11    1    1    2    0    0 -0.74281271261E-01  0.12450977262E+00  0.17485818745E+01  0.17545823503E+01  0.51109989000E-03 0. -1.
     -623    1    1    2    0    0  0.71267361762E-01  0.30172860455E-01  0.13587962758E-01  0.17130001802E+03  0.17130000000E+03 0. -1.
      622    1    1    2    0    0  0.30139094983E-02 -0.15468263307E+00  0.22378301301E+01  0.22453996285E+01  0.10000000000E+00 0. -1.
</event>
<event>
 5   0  0.6262544E+06  0.9118800E+02  0.7818608E-02  0.1180000E+00
       11   -1    0    0    0    0  0.00000000000E+00  0.00000000000E+00  0.39999999673E+01  0.40000000000E+01  0.51109989000E-03 0. -1.
     -623   -1    0    0    0    0  0.00000000000E+00  0.00000000000E+00  0.12525980253E-10  0.17130000000E+03  0.17130000000E+03 0.  1.
       11    1    1    2    0    0 -0.36323053935E-01 -0.15938878266E-01  0.14534559474E+00  0.15066192359E+00  0.51109989000E-03 0. -1.
     -623    1    1    2    0    0  0.41110359628E-02 -0.15460124589E-01  0.68792621466E-02  0.17130000089E+03  0.17130000000E+03 0.  1.
      622    1    1    2    0    0  0.32212017972E-01  0.31399002855E-01  0.38477751105E+01  0.38493371913E+01  0.10000000000E+00 0. -1.
</event>
<event>
 5   0  0.6262544E+06  0.9118800E+02  0.7818608E-02  0.1180000E+00
       11   -1    0    0    0    0  0.00000000000E+00  0.00000000000E+00  0.39999999673E+01  0.40000000000E+01  0.51109989000E-03 0. -1.
     -623   -1    0    0    0    0  0.00000000000E+00  0.00000000000E+00  0.12525980253E-10  0.17130000000E+03  0.17130000000E+03 0. -1.
       11    1    1    2    0    0  0.43673490969E-01  0.67228307108E-01  0.44476629954E+00  0.45193400129E+00  0.51109989000E-03 0. -1.
     -623    1    1    2    0    0  0.11192270872E-01 -0.46934926468E-01  0.90666760688E-02  0.17130000704E+03  0.17130000000E+03 0. -1.
      622    1    1    2    0    0 -0.54865761841E-01 -0.20293380640E-01  0.35461669918E+01  0.35480589632E+01  0.10000000000E+00 0. -1.
</event>
<event>
 5   0  0.6262544E+06  0.9118800E+02  0.7818608E-02  0.1180000E+00
       11   -1    0    0    0    0  0.00000000000E+00  0.00000000000E+00  0.39999999673E+01  0.40000000000E+01  0.51109989000E-03 0.  1.
     -623   -1    0    0    0    0  0.00000000000E+00  0.00000000000E+00  0.12525980253E-10  0.17130000000E+03  0.17130000000E+03 0.  1.
       11    1    1    2    0    0  0.40287287706E-01 -0.62840492077E-01  0.64179131055E+00  0.64611789986E+00  0.51109989000E-03 0.  1.
     -623    1    1    2    0    0 -0.22752743729E-01  0.20590130843E-02  0.64162604336E-02  0.17130000164E+03  0.17130000000E+03 0.  1.
      622    1    1    2    0    0 -0.17534543976E-01  0.60781478993E-01  0.33517923964E+01  0.33538804565E+01  0.10000000000E+00 0.  1.
</event>
<event>
 5   0  0.6262544E+06  0.9118800E+02  0.7818608E-02  0.1180000E+00
       11   -1    0    0    0    0  0.00000000000E+00  0.00000000000E+00  0.39999999673E+01  0.40000000000E+01  0.51109989000E-03 0.  1.
     -623   -1    0    0    0    0  0.00000000000E+00  0.00000000000E+00  0.12525980253E-10  0.17130000000E+03  0.17130000000E+03 0.  1.
       11    1    1    2    0    0  0.17886257156E-01  0.24169491229E-01  0.11186423926E+01  0.11190465345E+01  0.51109989000E-03 0.  1.
     -623    1    1    2    0    0 -0.18411845712E-02 -0.78100285946E-01  0.27078686187E-02  0.17130001784E+03  0.17130000000E+03 0.  1.
      622    1    1    2    0    0 -0.16045072585E-01  0.53930794720E-01  0.28786497062E+01  0.28809356303E+01  0.10000000000E+00 0.  1.
</event>
<event>
 5   0  0.6262544E+06  0.9118800E+02  0.7818608E-02  0.1180000E+00
       11   -1    0    0    0    0  0.00000000000E+00  0.00000000000E+00  0.39999999673E+01  0.40000000000E+01  0.51109989000E-03 0. -1.
     -623   -1    0    0    0    0  0.00000000000E+00  0.00000000000E+00  0.12525980253E-10  0.17130000000E+03  0.17130000000E+03 0. -1.
       11    1    1    2    0    0  0.44586460698E-01 -0.82948861388E-02  0.27859630442E+00  0.28226391848E+00  0.51109989000E-03 0. -1.
     -623    1    1    2    0    0 -0.58847738712E-02 -0.11490849665E-01  0.52674899066E-02  0.17130000057E+03  0.17130000000E+03 0. -1.
      622    1    1    2    0    0 -0.38701686827E-01  0.19785735804E-01  0.37161361731E+01  0.37177355141E+01  0.10000000000E+00 0. -1.
</event>
<event>
 5   0  0.6262544E+06  0.9118800E+02  0.7818608E-02  0.1180000E+00
       11   -1    0    0    0    0  0.00000000000E+00  0.00000000000E+00  0.39999999673E+01  0.40000000000E+01  0.51109989000E-03 0.  1.
     -623   -1    0    0    0    0  0.00000000000E+00  0.00000000000E+00  0.12525980253E-10  0.17130000000E+03  0.17130000000E+03 0. -1.
       11    1    1    2    0    0  0.30502670532E-02  0.18280146315E-02  0.69836867140E-02  0.78535894945E-02  0.51109989000E-03 0.  1.
     -623    1    1    2    0    0 -0.75431621892E-02  0.23826305272E-02  0.21274719405E-02  0.17130000020E+03  0.17130000000E+03 0. -1.
      622    1    1    2    0    0  0.44928951359E-02 -0.42106451588E-02  0.39908888087E+01  0.39921462146E+01  0.10000000000E+00 0.  1.
</event>
<event>
 5   0  0.6262544E+06  0.9118800E+02  0.7818608E-02  0.1180000E+00
       11   -1    0    0    0    0  0.00000000000E+00  0.00000000000E+00  0.39999999673E+01  0.40000000000E+01  0.51109989000E-03 0.  1.
     -623   -1    0    0    0    0  0.00000000000E+00  0.00000000000E+00  0.12525980253E-10  0.17130000000E+03  0.17130000000E+03 0.  1.
       11    1    1    2    0    0 -0.80172259643E-01  0.73469064993E-02  0.25686006536E+01  0.25698620872E+01  0.51109989000E-03 0.  1.
     -623    1    1    2    0    0  0.10840900495E-01 -0.79711013515E-03  0.64630424643E-02  0.17130000047E+03  0.17130000000E+03 0.  1.
      622    1    1    2    0    0  0.69331359149E-01 -0.65497963641E-02  0.14249362713E+01  0.14301374460E+01  0.10000000000E+00 0.  0.
</event>
<event>
 5   0  0.6262544E+06  0.9118800E+02  0.7818608E-02  0.1180000E+00
       11   -1    0    0    0    0  0.00000000000E+00  0.00000000000E+00  0.39999999673E+01  0.40000000000E+01  0.51109989000E-03 0.  1.
     -623   -1    0    0    0    0  0.00000000000E+00  0.00000000000E+00  0.12525980253E-10  0.17130000000E+03  0.17130000000E+03 0.  1.
       11    1    1    2    0    0 -0.11376304434E-03 -0.38732885467E-02  0.14678355741E-01  0.15189820784E-01  0.51109989000E-03 0.  1.
     -623    1    1    2    0    0  0.31601992963E-02  0.30838856434E-02  0.17677040864E-02  0.17130000007E+03  0.17130000000E+03 0.  1.
      622    1    1    2    0    0 -0.30464362520E-02  0.78940290330E-03  0.39835539075E+01  0.39848101132E+01  0.10000000000E+00 0.  1.
</event>
<event>
 5   0  0.6262544E+06  0.9118800E+02  0.7818608E-02  0.1180000E+00
       11   -1    0    0    0    0  0.00000000000E+00  0.00000000000E+00  0.39999999673E+01  0.40000000000E+01  0.51109989000E-03 0. -1.
     -623   -1    0    0    0    0  0.00000000000E+00  0.00000000000E+00  0.12525980253E-10  0.17130000000E+03  0.17130000000E+03 0.  1.
       11    1    1    2    0    0  0.43718714530E-02 -0.25189380133E-03  0.16173955613E-01  0.16764091796E-01  0.51109989000E-03 0. -1.
     -623    1    1    2    0    0 -0.10355048068E-02  0.45926782638E-02  0.18494006004E-02  0.17130000007E+03  0.17130000000E+03 0.  1.
      622    1    1    2    0    0 -0.33363666462E-02 -0.43407844625E-02  0.39819766112E+01  0.39832358335E+01  0.10000000000E+00 0. -1.
</event>
<event>
 5   0  0.6262544E+06  0.9118800E+02  0.7818608E-02  0.1180000E+00
       11   -1    0    0    0    0  0.00000000000E+00  0.00000000000E+00  0.39999999673E+01  0.40000000000E+01  0.51109989000E-03 0. -1.
     -623   -1    0    0    0    0  0.00000000000E+00  0.00000000000E+00  0.12525980253E-10  0.17130000000E+03  0.17130000000E+03 0. -1.
       11    1    1    2    0    0  0.24907920323E-01  0.35194914549E-01  0.72473927884E-02  0.43724963434E-01  0.51109989000E-03 0. -1.
     -623    1    1    2    0    0 -0.25040637019E-01 -0.31139835608E-01  0.37752459586E-01  0.17130000882E+03  0.17130000000E+03 0. -1.
      622    1    1    2    0    0  0.13271669625E-03 -0.40550789410E-02  0.39550001150E+01  0.39562662159E+01  0.10000000000E+00 0. -1.
</event>
<event>
 5   0  0.6262544E+06  0.9118800E+02  0.7818608E-02  0.1180000E+00
       11   -1    0    0    0    0  0.00000000000E+00  0.00000000000E+00  0.39999999673E+01  0.40000000000E+01  0.51109989000E-03 0. -1.
     -623   -1    0    0    0    0  0.00000000000E+00  0.00000000000E+00  0.12525980253E-10  0.17130000000E+03  0.17130000000E+03 0. -1.
       11    1    1    2    0    0  0.61881083342E-01  0.18852741805E-02  0.29448040697E+01  0.29454548194E+01  0.51109989000E-03 0. -1.
     -623    1    1    2    0    0 -0.21346984971E-01 -0.23285294036E-01  0.64069922339E-02  0.17130000303E+03  0.17130000000E+03 0. -1.
      622    1    1    2    0    0 -0.40534098371E-01  0.21400019856E-01  0.10487889054E+01  0.10545421481E+01  0.10000000000E+00 0. -1.
</event>
<event>
 5   0  0.6262544E+06  0.9118800E+02  0.7818608E-02  0.1180000E+00
       11   -1    0    0    0    0  0.00000000000E+00  0.00000000000E+00  0.39999999673E+01  0.40000000000E+01  0.51109989000E-03 0.  1.
     -623   -1    0    0    0    0  0.00000000000E+00  0.00000000000E+00  0.12525980253E-10  0.17130000000E+03  0.17130000000E+03 0.  1.
       11    1    1    2    0    0 -0.96123226446E-01  0.71682006084E-01  0.21789293721E+01  0.21822262611E+01  0.51109989000E-03 0.  1.
     -623    1    1    2    0    0  0.28583899557E-01  0.16249077837E-01  0.94427329097E-02  0.17130000342E+03  0.17130000000E+03 0.  1.
      622    1    1    2    0    0  0.67539326890E-01 -0.87931083922E-01  0.18116278623E+01  0.18177703232E+01  0.10000000000E+00 0. -1.
</event>
<event>
 5   0  0.6262544E+06  0.9118800E+02  0.7818608E-02  0.1180000E+00
       11   -1    0    0    0    0  0.00000000000E+00  0.00000000000E+00  0.39999999673E+01  0.40000000000E+01  0.51109989000E-03 0.  1.
     -623   -1    0    0    0    0  0.00000000000E+00  0.00000000000E+00  0.12525980253E-10  0.17130000000E+03  0.17130000000E+03 0.  1.
       11    1    1    2    0    0  0.30198891499E-01 -0.28840093469E-01  0.36074480397E+00  0.36315396026E+00  0.51109989000E-03 0.  1.
     -623    1    1    2    0    0 -0.13065961373E-01 -0.28752849794E-04  0.39397417094E-02  0.17130000054E+03  0.17130000000E+03 0.  1.
      622    1    1    2    0    0 -0.17132930126E-01  0.28868846319E-01  0.36353154216E+01  0.36368454961E+01  0.10000000000E+00 0.  1.
</event>
<event>
 5   0  0.6262544E+06  0.9118800E+02  0.7818608E-02  0.1180000E+00
       11   -1    0    0    0    0  0.00000000000E+00  0.00000000000E+00  0.39999999673E+01  0.40000000000E+01  0.51109989000E-03 0. -1.
     -623   -1    0    0    0    0  0.00000000000E+00  0.00000000000E+00  0.12525980253E-10  0.17130000000E+03  0.17130000000E+03 0.  1.
       11    1    1    2    0    0 -0.23780807418E-01  0.34349753823E-02  0.10920202201E+00  0.11181533298E+00  0.51109989000E-03 0. -1.
     -623    1    1    2    0    0  0.20548111092E-01  0.87151636981E-02  0.39212722437E-02  0.17130000150E+03  0.17130000000E+03 0.  1.
      622    1    1    2    0    0  0.32326963261E-02 -0.12150139080E-01  0.38868766731E+01  0.38881831680E+01  0.10000000000E+00 0. -1.
</event>
<event>
 5   0  0.6262544E+06  0.9118800E+02  0.7818608E-02  0.1180000E+00
       11   -1    0    0    0    0  0.00000000000E+00  0.00000000000E+00  0.39999999673E+01  0.40000000000E+01  0.51109989000E-03 0.  1.
     -623   -1    0    0    0    0  0.00000000000E+00  0.00000000000E+00  0.12525980253E-10  0.17130000000E+03  0.17130000000E+03 0.  1.
       11    1    1    2    0    0 -0.43419604121E-02 -0.24927267100E-02  0.33226613087E-01  0.33605585057E-01  0.51109989000E-03 0.  1.
     -623    1    1    2    0    0  0.53579507442E-03  0.55265075200E-02  0.16428157105E-02  0.17130000010E+03  0.17130000000E+03 0.  1.
      622    1    1    2    0    0  0.38061653376E-02 -0.30337808103E-02  0.39651305388E+01  0.39663943173E+01  0.10000000000E+00 0.  1.
</event>
<event>
 5   0  0.6262544E+06  0.9118800E+02  0.7818608E-02  0.1180000E+00
       11   -1    0    0    0    0  0.00000000000E+00  0.00000000000E+00  0.39999999673E+01  0.40000000000E+01  0.51109989000E-03 0.  1.
     -623   -1    0    0    0    0  0.00000000000E+00  0.00000000000E+00  0.12525980253E-10  0.17130000000E+03  0.17130000000E+03 0. -1.
       11    1    1    2    0    0  0.12442384885E-01 -0.87226740743E-03  0.53692554975E-01  0.55124635825E-01  0.51109989000E-03 0.  1.
     -623    1    1    2    0    0 -0.11823379378E-02 -0.13699249089E-01  0.27432891871E-02  0.17130000057E+03  0.17130000000E+03 0. -1.
      622    1    1    2    0    0 -0.11260046947E-01  0.14571516496E-01  0.39435641233E+01  0.39448747904E+01  0.10000000000E+00 0.  1.
</event>
<event>
 5   0  0.6262544E+06  0.9118800E+02  0.7818608E-02  0.1180000E+00
       11   -1    0    0    0    0  0.00000000000E+00  0.00000000000E+00  0.39999999673E+01  0.40000000000E+01  0.51109989000E-03 0.  1.
     -623   -1    0    0    0    0  0.00000000000E+00  0.00000000000E+00  0.12525980253E-10  0.17130000000E+03  0.17130000000E+03 0. -1.
       11    1    1    2    0    0  0.48406579212E-02 -0.23571018108E-03  0.42016706639E-01  0.42298373332E-01  0.51109989000E-03 0.  1.
     -623    1    1    2    0    0 -0.26394489878E-01 -0.46839861985E-02  0.16090706130E-02  0.17130000211E+03  0.17130000000E+03 0. -1.
      622    1    1    2    0    0  0.21553831956E-01  0.49196963796E-02  0.39563741901E+01  0.39576995216E+01  0.10000000000E+00 0.  1.
</event>
<event>
 5   0  0.6262544E+06  0.9118800E+02  0.7818608E-02  0.1180000E+00
       11   -1    0    0    0    0  0.00000000000E+00  0.00000000000E+00  0.39999999673E+01  0.40000000000E+01  0.51109989000E-03 0.  1.
     -623   -1    0    0    0    0  0.00000000000E+00  0.00000000000E+00  0.12525980253E-10  0.17130000000E+03  0.17130000000E+03 0. -1.
       11    1    1    2    0    0 -0.14113239666E-01 -0.82677989896E-03  0.27927668935E+00  0.27963475738E+00  0.51109989000E-03 0.  1.
     -623    1    1    2    0    0  0.26674734304E-01 -0.82953362968E-02  0.17369213861E-02  0.17130000229E+03  0.17130000000E+03 0. -1.
      622    1    1    2    0    0 -0.12561494639E-01  0.91221161960E-02  0.37189863567E+01  0.37203629562E+01  0.10000000000E+00 0.  1.
</event>
<event>
 5   0  0.6262544E+06  0.9118800E+02  0.7818608E-02  0.1180000E+00
       11   -1    0    0    0    0  0.00000000000E+00  0.00000000000E+00  0.39999999673E+01  0.40000000000E+01  0.51109989000E-03 0.  1.
     -623   -1    0    0    0    0  0.00000000000E+00  0.00000000000E+00  0.12525980253E-10  0.17130000000E+03  0.17130000000E+03 0. -1.
       11    1    1    2    0    0 -0.16712241244E-04  0.56620330429E-03  0.16575248601E-03  0.78074481425E-03  0.51109989000E-03 0.  1.
     -623    1    1    2    0    0 -0.69724889350E-03 -0.91548955308E-03  0.18654922418E-02  0.17130000001E+03  0.17130000000E+03 0. -1.
      622    1    1    2    0    0  0.71396113478E-03  0.34928624882E-03  0.39979687228E+01  0.39992192413E+01  0.10000000000E+00 0.  1.
</event>
<event>
 5   0  0.6262544E+06  0.9118800E+02  0.7818608E-02  0.1180000E+00
       11   -1    0    0    0    0  0.00000000000E+00  0.00000000000E+00  0.39999999673E+01  0.40000000000E+01  0.51109989000E-03 0.  1.
     -623   -1    0    0    0    0  0.00000000000E+00  0.00000000000E+00  0.12525980253E-10  0.17130000000E+03  0.17130000000E+03 0.  1.
       11    1    1    2    0    0 -0.68234242042E-03  0.23074662017E-02  0.14039801939E-01  0.14253674990E-01  0.51109989000E-03 0.  1.
     -623    1    1    2    0    0  0.45304372905E-02 -0.16819270963E-02  0.14704898790E-02  0.17130000007E+03  0.17130000000E+03 0.  1.
      622    1    1    2    0    0 -0.38480948700E-02 -0.62553910540E-03  0.39844896755E+01  0.39857462505E+01  0.10000000000E+00 0.  1.
</event>
<event>
 5   0  0.6262544E+06  0.9118800E+02  0.7818608E-02  0.1180000E+00
       11   -1    0    0    0    0  0.00000000000E+00  0.00000000000E+00  0.39999999673E+01  0.40000000000E+01  0.51109989000E-03 0.  1.
     -623   -1    0    0    0    0  0.00000000000E+00  0.00000000000E+00  0.12525980253E-10  0.17130000000E+03  0.17130000000E+03 0. -1.
       11    1    1    2    0    0  0.21356486748E-03  0.33344756789E-03  0.41742775642E-02  0.42240515583E-02  0.51109989000E-03 0.  1.
     -623    1    1    2    0    0 -0.31638416977E-02 -0.81852985608E-02  0.13102951485E-02  0.17130000023E+03  0.17130000000E+03 0. -1.
      622    1    1    2    0    0  0.29502768302E-02  0.78518509929E-02  0.39945153946E+01  0.39957757187E+01  0.10000000000E+00 0.  1.
</event>
<event>
 5   0  0.6262544E+06  0.9118800E+02  0.7818608E-02  0.1180000E+00
       11   -1    0    0    0    0  0.00000000000E+00  0.00000000000E+00  0.39999999673E+01  0.40000000000E+01  0.51109989000E-03 0. -1.
     -623   -1    0    0    0    0  0.00000000000E+00  0.00000000000E+00  0.12525980253E-10  0.17130000000E+03  0.17130000000E+03 0. -1.
       11    1    1    2    0    0 -0.15731483815E+00  0.56678828882E-02  0.20939833074E+01  0.20998920058E+01  0.51109989000E-03 0. -1.
     -623    1    1    2    0    0  0.12356750963E-01  0.43697185872E-01  0.14737899575E-01  0.17130000665E+03  0.17130000000E+03 0. -1.
      622    1    1    2    0    0  0.14495808719E+00 -0.49365068760E-01  0.18912787604E+01  0.19001013411E+01  0.10000000000E+00 0.  1.
</event>
<event>
 5   0  0.6262544E+06  0.9118800E+02  0.7818608E-02  0.1180000E+00
       11   -1    0    0    0    0  0.00000000000E+00  0.00000000000E+00  0.39999999673E+01  0.40000000000E+01  0.51109989000E-03 0. -1.
     -623   -1    0    0    0    0  0.00000000000E+00  0.00000000000E+00  0.12525980253E-10  0.17130000000E+03  0.17130000000E+03 0. -1.
       11    1    1    2    0    0  0.27342982507E-01 -0.23469193501E-01  0.78629074920E+00  0.78711615739E+00  0.51109989000E-03 0. -1.
     -623    1    1    2    0    0 -0.29875288597E-01  0.28737938490E-01  0.23923424327E-02  0.17130000503E+03  0.17130000000E+03 0. -1.
      622    1    1    2    0    0  0.25323060905E-02 -0.52687449904E-02  0.32113168758E+01  0.32128788102E+01  0.10000000000E+00 0. -1.
</event>
<event>
 5   0  0.6262544E+06  0.9118800E+02  0.7818608E-02  0.1180000E+00
       11   -1    0    0    0    0  0.00000000000E+00  0.00000000000E+00  0.39999999673E+01  0.40000000000E+01  0.51109989000E-03 0. -1.
     -623   -1    0    0    0    0  0.00000000000E+00  0.00000000000E+00  0.12525980253E-10  0.17130000000E+03  0.17130000000E+03 0.  1.
       11    1    1    2    0    0 -0.42330823711E-02 -0.57441187919E-02  0.58140788815E-01  0.58579232087E-01  0.51109989000E-03 0. -1.
     -623    1    1    2    0    0  0.15078942859E-01 -0.43194535815E-02  0.17356993481E-02  0.17130000073E+03  0.17130000000E+03 0.  1.
      622    1    1    2    0    0 -0.10845860488E-01  0.10063572373E-01  0.39401234792E+01  0.39414200410E+01  0.10000000000E+00 0. -1.
</event>
<event>
 5   0  0.6262544E+06  0.9118800E+02  0.7818608E-02  0.1180000E+00
       11   -1    0    0    0    0  0.00000000000E+00  0.00000000000E+00  0.39999999673E+01  0.40000000000E+01  0.51109989000E-03 0. -1.
     -623   -1    0    0    0    0  0.00000000000E+00  0.00000000000E+00  0.12525980253E-10  0.17130000000E+03  0.17130000000E+03 0.  1.
       11    1    1    2    0    0  0.13515137313E-01 -0.61649280335E-02  0.57043664931E+00  0.57063026328E+00  0.51109989000E-03 0. -1.
     -623    1    1    2    0    0 -0.27553764469E-01  0.14093506265E-01  0.16926068355E-02  0.17130000280E+03  0.17130000000E+03 0.  1.
      622    1    1    2    0    0  0.14038627156E-01 -0.79285782319E-02  0.34278707112E+01  0.34293669326E+01  0.10000000000E+00 0. -1.
</event>
<event>
 5   0  0.6262544E+06  0.9118800E+02  0.7818608E-02  0.1180000E+00
       11   -1    0    0    0    0  0.00000000000E+00  0.00000000000E+00  0.39999999673E+01  0.40000000000E+01  0.51109989000E-03 0. -1.
     -623   -1    0    0    0    0  0.00000000000E+00  0.00000000000E+00  0.12525980253E-10  0.17130000000E+03  0.17130000000E+03 0.  1.
       11    1    1    2    0    0 -0.58074368452E-02 -0.11533646898E-01  0.30393418281E+00  0.30420880993E+00  0.51109989000E-03 0. -1.
     -623    1    1    2    0    0  0.42975281594E-02 -0.85671575567E-03  0.16488824179E-02  0.17130000006E+03  0.17130000000E+03 0.  1.
      622    1    1    2    0    0  0.15099086855E-02  0.12390362654E-01  0.36944169024E+01  0.36957911263E+01  0.10000000000E+00 0. -1.
</event>
<event>
 5   0  0.6262544E+06  0.9118800E+02  0.7818608E-02  0.1180000E+00
       11   -1    0    0    0    0  0.00000000000E+00  0.00000000000E+00  0.39999999673E+01  0.40000000000E+01  0.51109989000E-03 0.  1.
     -623   -1    0    0    0    0  0.00000000000E+00  0.00000000000E+00  0.12525980253E-10  0.17130000000E+03  0.17130000000E+03 0.  1.
       11    1    1    2    0    0 -0.54082244572E-02  0.64127358660E-02  0.33439377202E+00  0.33449936930E+00  0.51109989000E-03 0.  1.
     -623    1    1    2    0    0  0.10365721694E-01  0.18439963448E-02  0.14828753281E-02  0.17130000033E+03  0.17130000000E+03 0.  1.
      622    1    1    2    0    0 -0.49574972364E-02 -0.82567322108E-02  0.36641233200E+01  0.36655003007E+01  0.10000000000E+00 0.  1.
</event>
<event>
 5   0  0.6262544E+06  0.9118800E+02  0.7818608E-02  0.1180000E+00
       11   -1    0    0    0    0  0.00000000000E+00  0.00000000000E+00  0.39999999673E+01  0.40000000000E+01  0.51109989000E-03 0. -1.
     -623   -1    0    0    0    0  0.00000000000E+00  0.00000000000E+00  0.12525980253E-10  0.17130000000E+03  0.17130000000E+03 0. -1.
       11    1    1    2    0    0  0.31335494133E-02 -0.13535444618E-02  0.17004035132E-01  0.17350782357E-01  0.51109989000E-03 0. -1.
     -623    1    1    2    0    0 -0.16571873348E-02  0.61147349218E-03  0.16027177597E-02  0.17130000002E+03  0.17130000000E+03 0. -1.
      622    1    1    2    0    0 -0.14763620786E-02  0.74207096968E-03  0.39813932144E+01  0.39826492009E+01  0.10000000000E+00 0. -1.
</event>
<event>
 5   0  0.6262544E+06  0.9118800E+02  0.7818608E-02  0.1180000E+00
       11   -1    0    0    0    0  0.00000000000E+00  0.00000000000E+00  0.39999999673E+01  0.40000000000E+01  0.51109989000E-03 0. -1.
     -623   -1    0    0    0    0  0.00000000000E+00  0.00000000000E+00  0.12525980253E-10  0.17130000000E+03  0.17130000000E+03 0. -1.
       11    1    1    2    0    0  0.74474928508E-02  0.84464155253E-02  0.17812084987E+00  0.17847718473E+00  0.51109989000E-03 0. -1.
     -623    1    1    2    0    0 -0.80128222605E-02 -0.62508200259E-02  0.16658876411E-02  0.17130000031E+03  0.17130000000E+03 0. -1.
      622    1    1    2    0    0  0.56532940947E-03 -0.21955954996E-02  0.38202132297E+01  0.38215225056E+01  0.10000000000E+00 0. -1.
</event>
<event>
 5   0  0.6262544E+06  0.9118800E+02  0.7818608E-02  0.1180000E+00
       11   -1    0    0    0    0  0.00000000000E+00  0.00000000000E+00  0.39999999673E+01  0.40000000000E+01  0.51109989000E-03 0.  1.
     -623   -1    0    0    0    0  0.00000000000E+00  0.00000000000E+00  0.12525980253E-10  0.17130000000E+03  0.17130000000E+03 0. -1.
       11    1    1    2    0    0  0.70228773561E-03 -0.36003634274E-03  0.10023106961E-02  0.13742940226E-02  0.51109989000E-03 0.  1.
     -623    1    1    2    0    0 -0.17875427372E-02 -0.10921643259E-02  0.16230074825E-02  0.17130000002E+03  0.17130000000E+03 0. -1.
      622    1    1    2    0    0  0.10852550016E-02  0.14522006686E-02  0.39973746492E+01  0.39986256855E+01  0.10000000000E+00 0.  1.
</event>
<event>
 5   0  0.6262544E+06  0.9118800E+02  0.7818608E-02  0.1180000E+00
       11   -1    0    0    0    0  0.00000000000E+00  0.00000000000E+00  0.39999999673E+01  0.40000000000E+01  0.51109989000E-03 0.  1.
     -623   -1    0    0    0    0  0.00000000000E+00  0.00000000000E+00  0.12525980253E-10  0.17130000000E+03  0.17130000000E+03 0.  1.
       11    1    1    2    0    0  0.88304183052E-03  0.11941606727E-01  0.90341645706E+00  0.90349595342E+00  0.51109989000E-03 0.  1.
     -623    1    1    2    0    0 -0.41084216369E-02 -0.88149069722E-04  0.17190473084E-02  0.17130000006E+03  0.17130000000E+03 0.  1.
      622    1    1    2    0    0  0.32253798065E-02 -0.11853457657E-01  0.30948644632E+01  0.30965039889E+01  0.10000000000E+00 0.  1.
</event>
<event>
 5   0  0.6262544E+06  0.9118800E+02  0.7818608E-02  0.1180000E+00
       11   -1    0    0    0    0  0.00000000000E+00  0.00000000000E+00  0.39999999673E+01  0.40000000000E+01  0.51109989000E-03 0.  1.
     -623   -1    0    0    0    0  0.00000000000E+00  0.00000000000E+00  0.12525980253E-10  0.17130000000E+03  0.17130000000E+03 0.  1.
       11    1    1    2    0    0  0.70041747675E-02 -0.71923086043E-02  0.41796386788E-01  0.42988218605E-01  0.51109989000E-03 0.  1.
     -623    1    1    2    0    0  0.17299002432E-02  0.33680552912E-03  0.24711903192E-02  0.17130000003E+03  0.17130000000E+03 0.  1.
      622    1    1    2    0    0 -0.87340750107E-02  0.68555030751E-02  0.39557323904E+01  0.39570117547E+01  0.10000000000E+00 0.  1.
</event>
<event>
 5   0  0.6262544E+06  0.9118800E+02  0.7818608E-02  0.1180000E+00
       11   -1    0    0    0    0  0.00000000000E+00  0.00000000000E+00  0.39999999673E+01  0.40000000000E+01  0.51109989000E-03 0. -1.
     -623   -1    0    0    0    0  0.00000000000E+00  0.00000000000E+00  0.12525980253E-10  0.17130000000E+03  0.17130000000E+03 0.  1.
       11    1    1    2    0    0 -0.71239145135E-02  0.30826848143E-01  0.15152033751E+00  0.15478927167E+00  0.51109989000E-03 0. -1.
     -623    1    1    2    0    0 -0.78665390434E-02 -0.22869995717E-01  0.46086755261E-02  0.17130000177E+03  0.17130000000E+03 0.  1.
      622    1    1    2    0    0  0.14990453557E-01 -0.79568524267E-02  0.38438709543E+01  0.38452089590E+01  0.10000000000E+00 0. -1.
</event>
<event>
 5   0  0.6262544E+06  0.9118800E+02  0.7818608E-02  0.1180000E+00
       11   -1    0    0    0    0  0.00000000000E+00  0.00000000000E+00  0.39999999673E+01  0.40000000000E+01  0.51109989000E-03 0. -1.
     -623   -1    0    0    0    0  0.00000000000E+00  0.00000000000E+00  0.12525980253E-10  0.17130000000E+03  0.17130000000E+03 0.  1.
       11    1    1    2    0    0  0.12049000659E-02  0.59260040655E-02  0.11173414560E+00  0.11189883745E+00  0.51109989000E-03 0. -1.
     -623    1    1    2    0    0 -0.20957777619E-01 -0.79930560267E-02  0.15030645938E-02  0.17130000148E+03  0.17130000000E+03 0.  1.
      622    1    1    2    0    0  0.19752877553E-01  0.20670519612E-02  0.38867627572E+01  0.38880996874E+01  0.10000000000E+00 0. -1.
</event>
<event>
 5   0  0.6262544E+06  0.9118800E+02  0.7818608E-02  0.1180000E+00
       11   -1    0    0    0    0  0.00000000000E+00  0.00000000000E+00  0.39999999673E+01  0.40000000000E+01  0.51109989000E-03 0.  1.
     -623   -1    0    0    0    0  0.00000000000E+00  0.00000000000E+00  0.12525980253E-10  0.17130000000E+03  0.17130000000E+03 0. -1.
       11    1    1    2    0    0 -0.12626483329E-01 -0.59896459135E-03  0.48395468393E-01  0.50021689535E-01  0.51109989000E-03 0.  1.
     -623    1    1    2    0    0  0.45395177513E-02 -0.11547350699E-01  0.29196578176E-02  0.17130000047E+03  0.17130000000E+03 0. -1.
      622    1    1    2    0    0  0.80869655778E-02  0.12146315290E-01  0.39486848412E+01  0.39499778363E+01  0.10000000000E+00 0.  1.
</event>
<event>
 5   0  0.6262544E+06  0.9118800E+02  0.7818608E-02  0.1180000E+00
       11   -1    0    0    0    0  0.00000000000E+00  0.00000000000E+00  0.39999999673E+01  0.40000000000E+01  0.51109989000E-03 0. -1.
     -623   -1    0    0    0    0  0.00000000000E+00  0.00000000000E+00  0.12525980253E-10  0.17130000000E+03  0.17130000000E+03 0.  1.
       11    1    1    2    0    0 -0.73094054815E-02 -0.31517834760E-02  0.10658590060E+01  0.10658888512E+01  0.51109989000E-03 0. -1.
     -623    1    1    2    0    0  0.35659763644E-02  0.75523041585E-02  0.17403050352E-02  0.17130000021E+03  0.17130000000E+03 0.  1.
      622    1    1    2    0    0  0.37434291173E-02 -0.44005206822E-02  0.29324006562E+01  0.29341109362E+01  0.10000000000E+00 0. -1.
</event>
<event>
 5   0  0.6262544E+06  0.9118800E+02  0.7818608E-02  0.1180000E+00
       11   -1    0    0    0    0  0.00000000000E+00  0.00000000000E+00  0.39999999673E+01  0.40000000000E+01  0.51109989000E-03 0.  1.
     -623   -1    0    0    0    0  0.00000000000E+00  0.00000000000E+00  0.12525980253E-10  0.17130000000E+03  0.17130000000E+03 0.  1.
       11    1    1    2    0    0 -0.23279476732E-01  0.74050332201E-02  0.32100258496E+00  0.32193118726E+00  0.51109989000E-03 0.  1.
     -623    1    1    2    0    0  0.33143519797E-02  0.18503715518E-02  0.23541451266E-02  0.17130000006E+03  0.17130000000E+03 0.  1.
      622    1    1    2    0    0  0.19965124752E-01 -0.92554047719E-02  0.36766432373E+01  0.36780687545E+01  0.10000000000E+00 0.  1.
</event>
<event>
 5   0  0.6262544E+06  0.9118800E+02  0.7818608E-02  0.1180000E+00
       11   -1    0    0    0    0  0.00000000000E+00  0.00000000000E+00  0.39999999673E+01  0.40000000000E+01  0.51109989000E-03 0. -1.
     -623   -1    0    0    0    0  0.00000000000E+00  0.00000000000E+00  0.12525980253E-10  0.17130000000E+03  0.17130000000E+03 0. -1.
       11    1    1    2    0    0 -0.17812766086E-01 -0.87546604985E-02  0.58795035329E+00  0.58828549010E+00  0.51109989000E-03 0. -1.
     -623    1    1    2    0    0 -0.77189132698E-02  0.32766741624E-02  0.19011496273E-02  0.17130000022E+03  0.17130000000E+03 0. -1.
      622    1    1    2    0    0  0.25531679355E-01  0.54779863361E-02  0.34101484644E+01  0.34117142941E+01  0.10000000000E+00 0. -1.
</event>
<event>
 5   0  0.6262544E+06  0.9118800E+02  0.7818608E-02  0.1180000E+00
       11   -1    0    0    0    0  0.00000000000E+00  0.00000000000E+00  0.39999999673E+01  0.40000000000E+01  0.51109989000E-03 0.  1.
     -623   -1    0    0    0    0  0.00000000000E+00  0.00000000000E+00  0.12525980253E-10  0.17130000000E+03  0.17130000000E+03 0. -1.
       11    1    1    2    0    0  0.32171513472E-02 -0.66039556644E-03  0.10195248296E-01  0.10723362159E-01  0.51109989000E-03 0.  1.
     -623    1    1    2    0    0 -0.43882018267E-02  0.12000463013E-02  0.17819163826E-02  0.17130000007E+03  0.17130000000E+03 0. -1.
      622    1    1    2    0    0  0.11710504793E-02 -0.53965073483E-03  0.39880228026E+01  0.39892765681E+01  0.10000000000E+00 0.  1.
</event>
<event>
 5   0  0.6262544E+06  0.9118800E+02  0.7818608E-02  0.1180000E+00
       11   -1    0    0    0    0  0.00000000000E+00  0.00000000000E+00  0.39999999673E+01  0.40000000000E+01  0.51109989000E-03 0.  1.
     -623   -1    0    0    0    0  0.00000000000E+00  0.00000000000E+00  0.12525980253E-10  0.17130000000E+03  0.17130000000E+03 0.  1.
       11    1    1    2    0    0  0.15200277105E-01 -0.21341010839E-01  0.16208549960E+01  0.16210668298E+01  0.51109989000E-03 0.  1.
     -623    1    1    2    0    0  0.56967888796E-02  0.49241337380E-02  0.24632602974E-02  0.17130000018E+03  0.17130000000E+03 0.  1.
      622    1    1    2    0    0 -0.20897065984E-01  0.16416877101E-01  0.23766817110E+01  0.23789329870E+01  0.10000000000E+00 0.  1.
</event>
<event>
 5   0  0.6262544E+06  0.9118800E+02  0.7818608E-02  0.1180000E+00
       11   -1    0    0    0    0  0.00000000000E+00  0.00000000000E+00  0.39999999673E+01  0.40000000000E+01  0.51109989000E-03 0. -1.
     -623   -1    0    0    0    0  0.00000000000E+00  0.00000000000E+00  0.12525980253E-10  0.17130000000E+03  0.17130000000E+03 0.  1.
       11    1    1    2    0    0  0.17856702289E-02  0.80395687655E-02  0.15233708593E+00  0.15256038889E+00  0.51109989000E-03 0. -1.
     -623    1    1    2    0    0 -0.12734349069E-02 -0.19183294043E-02  0.15279828981E-02  0.17130000002E+03  0.17130000000E+03 0.  1.
      622    1    1    2    0    0 -0.51223532196E-03 -0.61212393612E-02  0.38461348986E+01  0.38474395889E+01  0.10000000000E+00 0. -1.
</event>
<event>
 5   0  0.6262544E+06  0.9118800E+02  0.7818608E-02  0.1180000E+00
       11   -1    0    0    0    0  0.00000000000E+00  0.00000000000E+00  0.39999999673E+01  0.40000000000E+01  0.51109989000E-03 0.  1.
     -623   -1    0    0    0    0  0.00000000000E+00  0.00000000000E+00  0.12525980253E-10  0.17130000000E+03  0.17130000000E+03 0.  1.
       11    1    1    2    0    0  0.43647385171E-01  0.15427375400E-01  0.94386193787E+00  0.94499667573E+00  0.51109989000E-03 0.  1.
     -623    1    1    2    0    0 -0.49032464593E-02  0.31351764697E-02  0.30741811367E-02  0.17130000013E+03  0.17130000000E+03 0.  1.
      622    1    1    2    0    0 -0.38744138711E-01 -0.18562551869E-01  0.30530638483E+01  0.30550031978E+01  0.10000000000E+00 0.  1.
</event>
<event>
 5   0  0.6262544E+06  0.9118800E+02  0.7818608E-02  0.1180000E+00
       11   -1    0    0    0    0  0.00000000000E+00  0.00000000000E+00  0.39999999673E+01  0.40000000000E+01  0.51109989000E-03 0. -1.
     -623   -1    0    0    0    0  0.00000000000E+00  0.00000000000E+00  0.12525980253E-10  0.17130000000E+03  0.17130000000E+03 0.  1.
       11    1    1    2    0    0 -0.13837888859E-02  0.23616619322E-01  0.17847152985E+00  0.18003335182E+00  0.51109989000E-03 0. -1.
     -623    1    1    2    0    0 -0.55225924439E-02 -0.39834742437E-03  0.29478727580E-02  0.17130000011E+03  0.17130000000E+03 0.  1.
      622    1    1    2    0    0  0.69063813298E-02 -0.23218271898E-01  0.38185805648E+01  0.38199665333E+01  0.10000000000E+00 0. -1.
</event>
<event>
 5   0  0.6262544E+06  0.9118800E+02  0.7818608E-02  0.1180000E+00
       11   -1    0    0    0    0  0.00000000000E+00  0.00000000000E+00  0.39999999673E+01  0.40000000000E+01  0.51109989000E-03 0.  1.
     -623   -1    0    0    0    0  0.00000000000E+00  0.00000000000E+00  0.12525980253E-10  0.17130000000E+03  0.17130000000E+03 0.  1.
       11    1    1    2    0    0 -0.76639795784E-01 -0.26301183985E-01  0.26435757640E+01  0.26448172889E+01  0.51109989000E-03 0.  1.
     -623    1    1    2    0    0  0.36485966800E-01 -0.19261947770E-01  0.63064047736E-02  0.17130000508E+03  0.17130000000E+03 0.  1.
      622    1    1    2    0    0  0.40153828984E-01  0.45563131755E-01  0.13501177986E+01  0.13551776264E+01  0.10000000000E+00 0.  1.
</event>
<event>
 5   0  0.6262544E+06  0.9118800E+02  0.7818608E-02  0.1180000E+00
       11   -1    0    0    0    0  0.00000000000E+00  0.00000000000E+00  0.39999999673E+01  0.40000000000E+01  0.51109989000E-03 0. -1.
     -623   -1    0    0    0    0  0.00000000000E+00  0.00000000000E+00  0.12525980253E-10  0.17130000000E+03  0.17130000000E+03 0. -1.
       11    1    1    2    0    0 -0.46048037499E-04 -0.32742627988E-02  0.25992187535E-01  0.26202632547E-01  0.51109989000E-03 0. -1.
     -623    1    1    2    0    0  0.32651476857E-02  0.10783383081E-02  0.14708059994E-02  0.17130000004E+03  0.17130000000E+03 0. -1.
      622    1    1    2    0    0 -0.32190996482E-02  0.21959244907E-02  0.39725369738E+01  0.39737973266E+01  0.10000000000E+00 0. -1.
</event>
<event>
 5   0  0.6262544E+06  0.9118800E+02  0.7818608E-02  0.1180000E+00
       11   -1    0    0    0    0  0.00000000000E+00  0.00000000000E+00  0.39999999673E+01  0.40000000000E+01  0.51109989000E-03 0.  1.
     -623   -1    0    0    0    0  0.00000000000E+00  0.00000000000E+00  0.12525980253E-10  0.17130000000E+03  0.17130000000E+03 0.  1.
       11    1    1    2    0    0 -0.98766788555E-03  0.48482873181E-03  0.64737538306E-02  0.65864450585E-02  0.51109989000E-03 0.  1.
     -623    1    1    2    0    0 -0.36609852261E-02 -0.16465237951E-02  0.13678446752E-02  0.17130000005E+03  0.17130000000E+03 0.  1.
      622    1    1    2    0    0  0.46486531120E-02  0.11616950634E-02  0.39921583692E+01  0.39934135028E+01  0.10000000000E+00 0.  0.
</event>
<event>
 5   0  0.6262544E+06  0.9118800E+02  0.7818608E-02  0.1180000E+00
       11   -1    0    0    0    0  0.00000000000E+00  0.00000000000E+00  0.39999999673E+01  0.40000000000E+01  0.51109989000E-03 0.  1.
     -623   -1    0    0    0    0  0.00000000000E+00  0.00000000000E+00  0.12525980253E-10  0.17130000000E+03  0.17130000000E+03 0.  1.
       11    1    1    2    0    0 -0.33557130228E-02  0.19216237130E-02  0.61062673084E-01  0.61187128658E-01  0.51109989000E-03 0.  1.
     -623    1    1    2    0    0 -0.44186068079E-02 -0.17999670114E-02  0.14017945000E-02  0.17130000007E+03  0.17130000000E+03 0.  1.
      622    1    1    2    0    0  0.77743198307E-02 -0.12165670161E-03  0.39375354998E+01  0.39388127992E+01  0.10000000000E+00 0.  1.
</event>
<event>
 5   0  0.6262544E+06  0.9118800E+02  0.7818608E-02  0.1180000E+00
       11   -1    0    0    0    0  0.00000000000E+00  0.00000000000E+00  0.39999999673E+01  0.40000000000E+01  0.51109989000E-03 0. -1.
     -623   -1    0    0    0    0  0.00000000000E+00  0.00000000000E+00  0.12525980253E-10  0.17130000000E+03  0.17130000000E+03 0. -1.
       11    1    1    2    0    0  0.67591746046E-03  0.25357714680E-01  0.43225994512E+00  0.43300391676E+00  0.51109989000E-03 0. -1.
     -623    1    1    2    0    0  0.34613385690E-02 -0.75709165268E-02  0.21929355280E-02  0.17130000022E+03  0.17130000000E+03 0. -1.
      622    1    1    2    0    0 -0.41372560294E-02 -0.17786798153E-01  0.35655470867E+01  0.35669958669E+01  0.10000000000E+00 0. -1.
</event>
<event>
 5   0  0.6262544E+06  0.9118800E+02  0.7818608E-02  0.1180000E+00
       11   -1    0    0    0    0  0.00000000000E+00  0.00000000000E+00  0.39999999673E+01  0.40000000000E+01  0.51109989000E-03 0.  1.
     -623   -1    0    0    0    0  0.00000000000E+00  0.00000000000E+00  0.12525980253E-10  0.17130000000E+03  0.17130000000E+03 0.  1.
       11    1    1    2    0    0  0.66623345866E-02 -0.54740592247E-02  0.14984373820E-01  0.17295800241E-01  0.51109989000E-03 0.  1.
     -623    1    1    2    0    0 -0.37952555182E-02  0.14698618189E-01  0.35794488492E-02  0.17130000071E+03  0.17130000000E+03 0.  1.
      622    1    1    2    0    0 -0.28670790684E-02 -0.92245589640E-02  0.39814361447E+01  0.39827034897E+01  0.10000000000E+00 0.  1.
</event>
<event>
 5   0  0.6262544E+06  0.9118800E+02  0.7818608E-02  0.1180000E+00
       11   -1    0    0    0    0  0.00000000000E+00  0.00000000000E+00  0.39999999673E+01  0.40000000000E+01  0.51109989000E-03 0.  1.
     -623   -1    0    0    0    0  0.00000000000E+00  0.00000000000E+00  0.12525980253E-10  0.17130000000E+03  0.17130000000E+03 0. -1.
       11    1    1    2    0    0 -0.10775670039E-02  0.29228050867E-02  0.10414862230E-01  0.10882762377E-01  0.51109989000E-03 0.  1.
     -623    1    1    2    0    0 -0.71597204173E-02 -0.26700865128E-02  0.17301692960E-02  0.17130000018E+03  0.17130000000E+03 0. -1.
      622    1    1    2    0    0  0.82372874212E-02 -0.25271857391E-03  0.39878549358E+01  0.39891170585E+01  0.10000000000E+00 0.  1.
</event>
<event>
 5   0  0.6262544E+06  0.9118800E+02  0.7818608E-02  0.1180000E+00
       11   -1    0    0    0    0  0.00000000000E+00  0.00000000000E+00  0.39999999673E+01  0.40000000000E+01  0.51109989000E-03 0. -1.
     -623   -1    0    0    0    0  0.00000000000E+00  0.00000000000E+00  0.12525980253E-10  0.17130000000E+03  0.17130000000E+03 0.  1.
       11    1    1    2    0    0 -0.47655368357E-02  0.66470177231E-02  0.98660890361E-02  0.12825526185E-01  0.51109989000E-03 0. -1.
     -623    1    1    2    0    0  0.32300217883E-02 -0.74048977414E-02  0.42142328764E-02  0.17130000024E+03  0.17130000000E+03 0.  1.
      622    1    1    2    0    0  0.15355150474E-02  0.75788001846E-03  0.39859196455E+01  0.39871742316E+01  0.10000000000E+00 0. -1.
</event>
<event>
 5   0  0.6262544E+06  0.9118800E+02  0.7818608E-02  0.1180000E+00
       11   -1    0    0    0    0  0.00000000000E+00  0.00000000000E+00  0.39999999673E+01  0.40000000000E+01  0.51109989000E-03 0. -1.
     -623   -1    0    0    0    0  0.00000000000E+00  0.00000000000E+00  0.12525980253E-10  0.17130000000E+03  0.17130000000E+03 0. -1.
       11    1    1    2    0    0  0.18270087892E-01  0.11666894936E-01  0.58502329742E-01  0.62391476640E-01  0.51109989000E-03 0. -1.
     -623    1    1    2    0    0 -0.36879608059E-01 -0.49775685896E-01  0.53988834149E-02  0.17130001129E+03  0.17130000000E+03 0. -1.
      622    1    1    2    0    0  0.18609520167E-01  0.38108790961E-01  0.39360987542E+01  0.39375972365E+01  0.10000000000E+00 0. -1.
</event>
<event>
 5   0  0.6262544E+06  0.9118800E+02  0.7818608E-02  0.1180000E+00
       11   -1    0    0    0    0  0.00000000000E+00  0.00000000000E+00  0.39999999673E+01  0.40000000000E+01  0.51109989000E-03 0.  1.
     -623   -1    0    0    0    0  0.00000000000E+00  0.00000000000E+00  0.12525980253E-10  0.17130000000E+03  0.17130000000E+03 0. -1.
       11    1    1    2    0    0 -0.28008529530E-01  0.58169513468E-01  0.38098763444E+00  0.38641947265E+00  0.51109989000E-03 0.  1.
     -623    1    1    2    0    0  0.31239598538E-01 -0.25914984993E-01  0.69661461283E-02  0.17130000495E+03  0.17130000000E+03 0. -1.
      622    1    1    2    0    0 -0.32310690085E-02 -0.32254528475E-01  0.36120461868E+01  0.36135755769E+01  0.10000000000E+00 0.  1.
</event>
<event>
 5   0  0.6262544E+06  0.9118800E+02  0.7818608E-02  0.1180000E+00
       11   -1    0    0    0    0  0.00000000000E+00  0.00000000000E+00  0.39999999673E+01  0.40000000000E+01  0.51109989000E-03 0. -1.
     -623   -1    0    0    0    0  0.00000000000E+00  0.00000000000E+00  0.12525980253E-10  0.17130000000E+03  0.17130000000E+03 0. -1.
       11    1    1    2    0    0 -0.10404075432E-01 -0.12669065560E-01  0.83361555189E-01  0.84959755852E-01  0.51109989000E-03 0. -1.
     -623    1    1    2    0    0 -0.10495272343E-01  0.18144246945E-01  0.29364416238E-02  0.17130000131E+03  0.17130000000E+03 0. -1.
      622    1    1    2    0    0  0.20899347776E-01 -0.54751813858E-02  0.39137019707E+01  0.39150389367E+01  0.10000000000E+00 0. -1.
</event>
<event>
 5   0  0.6262544E+06  0.9118800E+02  0.7818608E-02  0.1180000E+00
       11   -1    0    0    0    0  0.00000000000E+00  0.00000000000E+00  0.39999999673E+01  0.40000000000E+01  0.51109989000E-03 0.  1.
     -623   -1    0    0    0    0  0.00000000000E+00  0.00000000000E+00  0.12525980253E-10  0.17130000000E+03  0.17130000000E+03 0.  1.
       11    1    1    2    0    0 -0.67847830385E-02 -0.15700709158E-01  0.15093585463E+00  0.15190272869E+00  0.51109989000E-03 0.  1.
     -623    1    1    2    0    0  0.10938363334E-01  0.53551353734E-02  0.22830067599E-02  0.17130000045E+03  0.17130000000E+03 0.  1.
      622    1    1    2    0    0 -0.41535802960E-02  0.10345573785E-01  0.38467811060E+01  0.38480968232E+01  0.10000000000E+00 0.  1.
</event>
<event>
 5   0  0.6262544E+06  0.9118800E+02  0.7818608E-02  0.1180000E+00
       11   -1    0    0    0    0  0.00000000000E+00  0.00000000000E+00  0.39999999673E+01  0.40000000000E+01  0.51109989000E-03 0. -1.
     -623   -1    0    0    0    0  0.00000000000E+00  0.00000000000E+00  0.12525980253E-10  0.17130000000E+03  0.17130000000E+03 0. -1.
       11    1    1    2    0    0 -0.17129023655E-02 -0.64078600700E-03  0.15829521352E-02  0.24721654031E-02  0.51109989000E-03 0. -1.
     -623    1    1    2    0    0  0.12672642948E-02  0.17965993966E-03  0.21402190025E-02  0.17130000002E+03  0.17130000000E+03 0. -1.
      622    1    1    2    0    0  0.44563807057E-03  0.46112606733E-03  0.39962767965E+01  0.39975278167E+01  0.10000000000E+00 0. -1.
</event>
<event>
 5   0  0.6262544E+06  0.9118800E+02  0.7818608E-02  0.1180000E+00
       11   -1    0    0    0    0  0.00000000000E+00  0.00000000000E+00  0.39999999673E+01  0.40000000000E+01  0.51109989000E-03 0.  1.
     -623   -1    0    0    0    0  0.00000000000E+00  0.00000000000E+00  0.12525980253E-10  0.17130000000E+03  0.17130000000E+03 0.  1.
       11    1    1    2    0    0  0.83659537833E-01  0.11111615546E-01  0.13824882569E+00  0.16197340923E+00  0.51109989000E-03 0.  1.
     -623    1    1    2    0    0 -0.43764040916E-01 -0.39373413405E-01  0.25351047109E-01  0.17130001199E+03  0.17130000000E+03 0.  1.
      622    1    1    2    0    0 -0.39895496917E-01  0.28261797859E-01  0.38364000946E+01  0.38380145994E+01  0.10000000000E+00 0.  1.
</event>
<event>
 5   0  0.6262544E+06  0.9118800E+02  0.7818608E-02  0.1180000E+00
       11   -1    0    0    0    0  0.00000000000E+00  0.00000000000E+00  0.39999999673E+01  0.40000000000E+01  0.51109989000E-03 0. -1.
     -623   -1    0    0    0    0  0.00000000000E+00  0.00000000000E+00  0.12525980253E-10  0.17130000000E+03  0.17130000000E+03 0. -1.
       11    1    1    2    0    0 -0.42333477708E-02 -0.27507919992E-02  0.89173921608E+00  0.89175365366E+00  0.51109989000E-03 0. -1.
     -623    1    1    2    0    0  0.79645555929E-03 -0.16743057188E-01  0.16873371446E-02  0.17130000083E+03  0.17130000000E+03 0. -1.
      622    1    1    2    0    0  0.34368922115E-02  0.19493849187E-01  0.31065734141E+01  0.31082455179E+01  0.10000000000E+00 0. -1.
</event>
<event>
 5   0  0.6262544E+06  0.9118800E+02  0.7818608E-02  0.1180000E+00
       11   -1    0    0    0    0  0.00000000000E+00  0.00000000000E+00  0.39999999673E+01  0.40000000000E+01  0.51109989000E-03 0. -1.
     -623   -1    0    0    0    0  0.00000000000E+00  0.00000000000E+00  0.12525980253E-10  0.17130000000E+03  0.17130000000E+03 0. -1.
       11    1    1    2    0    0 -0.71624144644E-02  0.89378275258E-01  0.18392347341E+01  0.18414191388E+01  0.51109989000E-03 0. -1.
     -623    1    1    2    0    0 -0.15002335076E-01 -0.11320758546E-01  0.60304066286E-02  0.17130000114E+03  0.17130000000E+03 0. -1.
      622    1    1    2    0    0  0.22164749540E-01 -0.78057516711E-01  0.21547348266E+01  0.21585797241E+01  0.10000000000E+00 0. -1.
</event>
<event>
 5   0  0.6262544E+06  0.9118800E+02  0.7818608E-02  0.1180000E+00
       11   -1    0    0    0    0  0.00000000000E+00  0.00000000000E+00  0.39999999673E+01  0.40000000000E+01  0.51109989000E-03 0.  1.
     -623   -1    0    0    0    0  0.00000000000E+00  0.00000000000E+00  0.12525980253E-10  0.17130000000E+03  0.17130000000E+03 0. -1.
       11    1    1    2    0    0 -0.10167076214E-01  0.10424881935E-01  0.20494060192E+00  0.20545792547E+00  0.51109989000E-03 0.  1.
     -623    1    1    2    0    0 -0.20372382440E-03 -0.42215114436E-02  0.18545135798E-02  0.17130000006E+03  0.17130000000E+03 0. -1.
      622    1    1    2    0    0  0.10370800039E-01 -0.62033704907E-02  0.37932048521E+01  0.37945420126E+01  0.10000000000E+00 0.  1.
</event>
<event>
 5   0  0.6262544E+06  0.9118800E+02  0.7818608E-02  0.1180000E+00
       11   -1    0    0    0    0  0.00000000000E+00  0.00000000000E+00  0.39999999673E+01  0.40000000000E+01  0.51109989000E-03 0.  1.
     -623   -1    0    0    0    0  0.00000000000E+00  0.00000000000E+00  0.12525980253E-10  0.17130000000E+03  0.17130000000E+03 0. -1.
       11    1    1    2    0    0 -0.35110889876E-02 -0.64882416880E-02  0.25378837995E-01  0.26434289610E-01  0.51109989000E-03 0.  1.
     -623    1    1    2    0    0  0.13206499423E-02  0.55174865427E-02  0.23147661181E-02  0.17130000011E+03  0.17130000000E+03 0. -1.
      622    1    1    2    0    0  0.21904390453E-02  0.97075514541E-03  0.39723063631E+01  0.39735656007E+01  0.10000000000E+00 0.  1.
</event>
<event>
 5   0  0.6262544E+06  0.9118800E+02  0.7818608E-02  0.1180000E+00
       11   -1    0    0    0    0  0.00000000000E+00  0.00000000000E+00  0.39999999673E+01  0.40000000000E+01  0.51109989000E-03 0. -1.
     -623   -1    0    0    0    0  0.00000000000E+00  0.00000000000E+00  0.12525980253E-10  0.17130000000E+03  0.17130000000E+03 0.  1.
       11    1    1    2    0    0 -0.14044630973E-01  0.10442803839E-01  0.62919237894E-01  0.65309995633E-01  0.51109989000E-03 0. -1.
     -623    1    1    2    0    0  0.67075506034E-02  0.15157100087E-01  0.37526718593E-02  0.17130000084E+03  0.17130000000E+03 0.  1.
      622    1    1    2    0    0  0.73370803696E-02 -0.25599903926E-01  0.39333280576E+01  0.39346891614E+01  0.10000000000E+00 0. -1.
</event>
<event>
 5   0  0.6262544E+06  0.9118800E+02  0.7818608E-02  0.1180000E+00
       11   -1    0    0    0    0  0.00000000000E+00  0.00000000000E+00  0.39999999673E+01  0.40000000000E+01  0.51109989000E-03 0. -1.
     -623   -1    0    0    0    0  0.00000000000E+00  0.00000000000E+00  0.12525980253E-10  0.17130000000E+03  0.17130000000E+03 0. -1.
       11    1    1    2    0    0  0.51995714034E-01 -0.47109615793E-02  0.16447812516E+00  0.17256610999E+00  0.51109989000E-03 0. -1.
     -623    1    1    2    0    0 -0.68418676294E-01 -0.34263571513E-01  0.96456611576E-02  0.17130001736E+03  0.17130000000E+03 0. -1.
      622    1    1    2    0    0  0.16422962261E-01  0.38974533092E-01  0.38258761811E+01  0.38274165283E+01  0.10000000000E+00 0. -1.
</event>
<event>
 5   0  0.6262544E+06  0.9118800E+02  0.7818608E-02  0.1180000E+00
       11   -1    0    0    0    0  0.00000000000E+00  0.00000000000E+00  0.39999999673E+01  0.40000000000E+01  0.51109989000E-03 0. -1.
     -623   -1    0    0    0    0  0.00000000000E+00  0.00000000000E+00  0.12525980253E-10  0.17130000000E+03  0.17130000000E+03 0.  1.
       11    1    1    2    0    0 -0.23870313391E-02  0.13665042528E-02 -0.86361234027E-02  0.90779459687E-02  0.51109989000E-03 0. -1.
     -623    1    1    2    0    0  0.19957093844E-01 -0.15311308473E-01  0.19033040854E-01  0.17130000290E+03  0.17130000000E+03 0.  1.
      622    1    1    2    0    0 -0.17570062505E-01  0.13944804221E-01  0.39896030499E+01  0.39909191498E+01  0.10000000000E+00 0. -1.
</event>
<event>
 5   0  0.6262544E+06  0.9118800E+02  0.7818608E-02  0.1180000E+00
       11   -1    0    0    0    0  0.00000000000E+00  0.00000000000E+00  0.39999999673E+01  0.40000000000E+01  0.51109989000E-03 0.  1.
     -623   -1    0    0    0    0  0.00000000000E+00  0.00000000000E+00  0.12525980253E-10  0.17130000000E+03  0.17130000000E+03 0. -1.
       11    1    1    2    0    0  0.38480229091E-01  0.53544220330E-03  0.51436768356E-01  0.64241864008E-01  0.51109989000E-03 0.  1.
     -623    1    1    2    0    0  0.56200366247E-01 -0.50220757608E-01  0.15546164947E-01  0.17130001729E+03  0.17130000000E+03 0. -1.
      622    1    1    2    0    0 -0.94680595339E-01  0.49685315405E-01  0.39330170341E+01  0.39357408497E+01  0.10000000000E+00 0.  1.
</event>
<event>
 5   0  0.6262544E+06  0.9118800E+02  0.7818608E-02  0.1180000E+00
       11   -1    0    0    0    0  0.00000000000E+00  0.00000000000E+00  0.39999999673E+01  0.40000000000E+01  0.51109989000E-03 0. -1.
     -623   -1    0    0    0    0  0.00000000000E+00  0.00000000000E+00  0.12525980253E-10  0.17130000000E+03  0.17130000000E+03 0.  1.
       11    1    1    2    0    0  0.30203663063E-01  0.30697914112E-02  0.49030874688E+00  0.49124801615E+00  0.51109989000E-03 0. -1.
     -623    1    1    2    0    0 -0.61961975625E-01  0.22460636940E-02  0.25235938379E-02  0.17130001124E+03  0.17130000000E+03 0.  1.
      622    1    1    2    0    0  0.31758312565E-01 -0.53158551053E-02  0.35071676268E+01  0.35087407444E+01  0.10000000000E+00 0. -1.
</event>
<event>
 5   0  0.6262544E+06  0.9118800E+02  0.7818608E-02  0.1180000E+00
       11   -1    0    0    0    0  0.00000000000E+00  0.00000000000E+00  0.39999999673E+01  0.40000000000E+01  0.51109989000E-03 0. -1.
     -623   -1    0    0    0    0  0.00000000000E+00  0.00000000000E+00  0.12525980253E-10  0.17130000000E+03  0.17130000000E+03 0. -1.
       11    1    1    2    0    0 -0.85215655924E-01 -0.51254575531E-01  0.13621672957E+01  0.13657923496E+01  0.51109989000E-03 0. -1.
     -623    1    1    2    0    0 -0.39900162036E-01 -0.18650458539E-01  0.94342877858E-02  0.17130000592E+03  0.17130000000E+03 0. -1.
      622    1    1    2    0    0  0.12511581796E+00  0.69905034070E-01  0.26283983839E+01  0.26342017285E+01  0.10000000000E+00 0.  0.
</event>
<event>
 5   0  0.6262544E+06  0.9118800E+02  0.7818608E-02  0.1180000E+00
       11   -1    0    0    0    0  0.00000000000E+00  0.00000000000E+00  0.39999999673E+01  0.40000000000E+01  0.51109989000E-03 0. -1.
     -623   -1    0    0    0    0  0.00000000000E+00  0.00000000000E+00  0.12525980253E-10  0.17130000000E+03  0.17130000000E+03 0.  1.
       11    1    1    2    0    0 -0.57810924493E-01 -0.46154966837E-02  0.86083673791E+00  0.86278824538E+00  0.51109989000E-03 0. -1.
     -623    1    1    2    0    0  0.67282378102E-02 -0.12068908994E-01  0.40067752368E-02  0.17130000060E+03  0.17130000000E+03 0.  1.
      622    1    1    2    0    0  0.51082686683E-01  0.16684405678E-01  0.31351564542E+01  0.31372111505E+01  0.10000000000E+00 0. -1.
</event>
<event>
 5   0  0.6262544E+06  0.9118800E+02  0.7818608E-02  0.1180000E+00
       11   -1    0    0    0    0  0.00000000000E+00  0.00000000000E+00  0.39999999673E+01  0.40000000000E+01  0.51109989000E-03 0. -1.
     -623   -1    0    0    0    0  0.00000000000E+00  0.00000000000E+00  0.12525980253E-10  0.17130000000E+03  0.17130000000E+03 0.  1.
       11    1    1    2    0    0 -0.15153680010E-01 -0.26162504841E-01  0.27376083940E+00  0.27542579597E+00  0.51109989000E-03 0. -1.
     -623    1    1    2    0    0 -0.12274037467E-01  0.19671171376E-01  0.31158847783E-02  0.17130000160E+03  0.17130000000E+03 0.  1.
      622    1    1    2    0    0  0.27427717477E-01  0.64913334646E-02  0.37231232432E+01  0.37245726065E+01  0.10000000000E+00 0. -1.
</event>
<event>
 5   0  0.6262544E+06  0.9118800E+02  0.7818608E-02  0.1180000E+00
       11   -1    0    0    0    0  0.00000000000E+00  0.00000000000E+00  0.39999999673E+01  0.40000000000E+01  0.51109989000E-03 0. -1.
     -623   -1    0    0    0    0  0.00000000000E+00  0.00000000000E+00  0.12525980253E-10  0.17130000000E+03  0.17130000000E+03 0. -1.
       11    1    1    2    0    0 -0.18343846068E-02 -0.23541845774E-02  0.14122061184E-01  0.14443025552E-01  0.51109989000E-03 0. -1.
     -623    1    1    2    0    0  0.28041610800E-02  0.66122960719E-02  0.15782103174E-02  0.17130000016E+03  0.17130000000E+03 0. -1.
      622    1    1    2    0    0 -0.96977647309E-03 -0.42581114942E-02  0.39842996957E+01  0.39855568164E+01  0.10000000000E+00 0. -1.
</event>
<event>
 5   0  0.6262544E+06  0.9118800E+02  0.7818608E-02  0.1180000E+00
       11   -1    0    0    0    0  0.00000000000E+00  0.00000000000E+00  0.39999999673E+01  0.40000000000E+01  0.51109989000E-03 0. -1.
     -623   -1    0    0    0    0  0.00000000000E+00  0.00000000000E+00  0.12525980253E-10  0.17130000000E+03  0.17130000000E+03 0. -1.
       11    1    1    2    0    0  0.29428099133E-01  0.19066991742E-01  0.19765695620E+00  0.20074385856E+00  0.51109989000E-03 0. -1.
     -623    1    1    2    0    0  0.31759621848E-01 -0.11698979767E-01  0.49066308325E-02  0.17130000341E+03  0.17130000000E+03 0. -1.
      622    1    1    2    0    0 -0.61187720981E-01 -0.73680119748E-02  0.37974363804E+01  0.37992527276E+01  0.10000000000E+00 0. -1.
</event>
<event>
 5   0  0.6262544E+06  0.9118800E+02  0.7818608E-02  0.1180000E+00
       11   -1    0    0    0    0  0.00000000000E+00  0.00000000000E+00  0.39999999673E+01  0.40000000000E+01  0.51109989000E-03 0. -1.
     -623   -1    0    0    0    0  0.00000000000E+00  0.00000000000E+00  0.12525980253E-10  0.17130000000E+03  0.17130000000E+03 0. -1.
       11    1    1    2    0    0 -0.79898339393E-02  0.11417299614E-01  0.20150740148E+00  0.20198932212E+00  0.51109989000E-03 0. -1.
     -623    1    1    2    0    0  0.11785774620E-01 -0.21393941845E-01  0.18153520637E-02  0.17130000175E+03  0.17130000000E+03 0. -1.
      622    1    1    2    0    0 -0.37959406810E-02  0.99766422309E-02  0.37966772138E+01  0.37980089268E+01  0.10000000000E+00 0. -1.
</event>
<event>
 5   0  0.6262544E+06  0.9118800E+02  0.7818608E-02  0.1180000E+00
       11   -1    0    0    0    0  0.00000000000E+00  0.00000000000E+00  0.39999999673E+01  0.40000000000E+01  0.51109989000E-03 0.  1.
     -623   -1    0    0    0    0  0.00000000000E+00  0.00000000000E+00  0.12525980253E-10  0.17130000000E+03  0.17130000000E+03 0.  1.
       11    1    1    2    0    0 -0.81831948685E-04  0.14506246462E-02 -0.55064171233E-03  0.16356765343E-02  0.51109989000E-03 0.  1.
     -623    1    1    2    0    0 -0.21834263246E-02 -0.30706252636E-03  0.34378467535E-02  0.17130000005E+03  0.17130000000E+03 0.  1.
      622    1    1    2    0    0  0.22652582733E-02 -0.11435621199E-02  0.39971127623E+01  0.39983642748E+01  0.10000000000E+00 0.  1.
</event>
<event>
 5   0  0.6262544E+06  0.9118800E+02  0.7818608E-02  0.1180000E+00
       11   -1    0    0    0    0  0.00000000000E+00  0.00000000000E+00  0.39999999673E+01  0.40000000000E+01  0.51109989000E-03 0. -1.
     -623   -1    0    0    0    0  0.00000000000E+00  0.00000000000E+00  0.12525980253E-10  0.17130000000E+03  0.17130000000E+03 0.  1.
       11    1    1    2    0    0  0.50990422625E-01  0.71032186179E-02  0.87113325659E+00  0.87265336238E+00  0.51109989000E-03 0. -1.
     -623    1    1    2    0    0 -0.10185523334E-01  0.15805900039E-01  0.34706639613E-02  0.17130000107E+03  0.17130000000E+03 0.  1.
      622    1    1    2    0    0 -0.40804899291E-01 -0.22909118657E-01  0.31253960468E+01  0.31273455704E+01  0.10000000000E+00 0. -1.
</event>
<event>
 5   0  0.6262544E+06  0.9118800E+02  0.7818608E-02  0.1180000E+00
       11   -1    0    0    0    0  0.00000000000E+00  0.00000000000E+00  0.39999999673E+01  0.40000000000E+01  0.51109989000E-03 0.  1.
     -623   -1    0    0    0    0  0.00000000000E+00  0.00000000000E+00  0.12525980253E-10  0.17130000000E+03  0.17130000000E+03 0. -1.
       11    1    1    2    0    0 -0.79535648567E-02 -0.25652729934E-01  0.40491498736E+00  0.40580503934E+00  0.51109989000E-03 0.  1.
     -623    1    1    2    0    0  0.27160813375E-02 -0.23272908406E-02  0.23942455103E-02  0.17130000005E+03  0.17130000000E+03 0. -1.
      622    1    1    2    0    0  0.52374835192E-02  0.27980020775E-01  0.35926907346E+01  0.35941949067E+01  0.10000000000E+00 0.  1.
</event>
<event>
 5   0  0.6262544E+06  0.9118800E+02  0.7818608E-02  0.1180000E+00
       11   -1    0    0    0    0  0.00000000000E+00  0.00000000000E+00  0.39999999673E+01  0.40000000000E+01  0.51109989000E-03 0.  1.
     -623   -1    0    0    0    0  0.00000000000E+00  0.00000000000E+00  0.12525980253E-10  0.17130000000E+03  0.17130000000E+03 0.  1.
       11    1    1    2    0    0  0.60629523479E-02  0.11052527182E-01  0.36829682446E+00  0.36851286256E+00  0.51109989000E-03 0.  1.
     -623    1    1    2    0    0  0.27313506429E-02 -0.24159839756E-02  0.16140857854E-02  0.17130000005E+03  0.17130000000E+03 0.  1.
      622    1    1    2    0    0 -0.87943029908E-02 -0.86365432063E-02  0.36300890571E+01  0.36314870910E+01  0.10000000000E+00 0.  1.
</event>
<event>
 5   0  0.6262544E+06  0.9118800E+02  0.7818608E-02  0.1180000E+00
       11   -1    0    0    0    0  0.00000000000E+00  0.00000000000E+00  0.39999999673E+01  0.40000000000E+01  0.51109989000E-03 0.  1.
     -623   -1    0    0    0    0  0.00000000000E+00  0.00000000000E+00  0.12525980253E-10  0.17130000000E+03  0.17130000000E+03 0. -1.
       11    1    1    2    0    0 -0.56115149719E-01 -0.24949604625E-01  0.77286207787E+00  0.77529829448E+00  0.51109989000E-03 0.  1.
     -623    1    1    2    0    0  0.80349371668E-02  0.42739353475E-01  0.44003976645E-02  0.17130000558E+03  0.17130000000E+03 0. -1.
      622    1    1    2    0    0  0.48080212552E-01 -0.17789748850E-01  0.32227374919E+01  0.32246961289E+01  0.10000000000E+00 0. -1.
</event>
<event>
 5   0  0.6262544E+06  0.9118800E+02  0.7818608E-02  0.1180000E+00
       11   -1    0    0    0    0  0.00000000000E+00  0.00000000000E+00  0.39999999673E+01  0.40000000000E+01  0.51109989000E-03 0. -1.
     -623   -1    0    0    0    0  0.00000000000E+00  0.00000000000E+00  0.12525980253E-10  0.17130000000E+03  0.17130000000E+03 0. -1.
       11    1    1    2    0    0 -0.71311401680E-03  0.23811448709E-02  0.56579922880E-01  0.56636801438E-01  0.51109989000E-03 0. -1.
     -623    1    1    2    0    0 -0.50847949179E-02  0.13504190933E-02  0.13311188594E-02  0.17130000009E+03  0.17130000000E+03 0. -1.
      622    1    1    2    0    0  0.57979089347E-02 -0.37315639642E-02  0.39420889256E+01  0.39433631126E+01  0.10000000000E+00 0. -1.
</event>
<event>
 5   0  0.6262544E+06  0.9118800E+02  0.7818608E-02  0.1180000E+00
       11   -1    0    0    0    0  0.00000000000E+00  0.00000000000E+00  0.39999999673E+01  0.40000000000E+01  0.51109989000E-03 0. -1.
     -623   -1    0    0    0    0  0.00000000000E+00  0.00000000000E+00  0.12525980253E-10  0.17130000000E+03  0.17130000000E+03 0.  1.
       11    1    1    2    0    0 -0.99072614869E-03  0.24732428346E-02  0.29994877802E-01  0.30117310375E-01  0.51109989000E-03 0. -1.
     -623    1    1    2    0    0  0.20587652817E-02 -0.39638764575E-02  0.13825703418E-02  0.17130000006E+03  0.17130000000E+03 0.  1.
      622    1    1    2    0    0 -0.10680391330E-02  0.14906336229E-02  0.39686225192E+01  0.39698826258E+01  0.10000000000E+00 0. -1.
</event>
<event>
 5   0  0.6262544E+06  0.9118800E+02  0.7818608E-02  0.1180000E+00
       11   -1    0    0    0    0  0.00000000000E+00  0.00000000000E+00  0.39999999673E+01  0.40000000000E+01  0.51109989000E-03 0. -1.
     -623   -1    0    0    0    0  0.00000000000E+00  0.00000000000E+00  0.12525980253E-10  0.17130000000E+03  0.17130000000E+03 0.  1.
       11    1    1    2    0    0  0.59882421206E-01 -0.15248573752E-01  0.82906759588E+00  0.83136740562E+00  0.51109989000E-03 0. -1.
     -623    1    1    2    0    0  0.40006025423E-02 -0.51790195721E-03  0.45618609879E-02  0.17130000011E+03  0.17130000000E+03 0.  1.
      622    1    1    2    0    0 -0.63883023749E-01  0.15766475709E-01  0.31663705106E+01  0.31686324862E+01  0.10000000000E+00 0.  0.
</event>
<event>
 5   0  0.6262544E+06  0.9118800E+02  0.7818608E-02  0.1180000E+00
       11   -1    0    0    0    0  0.00000000000E+00  0.00000000000E+00  0.39999999673E+01  0.40000000000E+01  0.51109989000E-03 0.  1.
     -623   -1    0    0    0    0  0.00000000000E+00  0.00000000000E+00  0.12525980253E-10  0.17130000000E+03  0.17130000000E+03 0. -1.
       11    1    1    2    0    0 -0.32701170022E-01  0.56713786148E-02  0.10879446184E+00  0.11374544916E+00  0.51109989000E-03 0.  1.
     -623    1    1    2    0    0  0.14974744049E-01  0.14967036821E-01  0.63344415419E-02  0.17130000143E+03  0.17130000000E+03 0. -1.
      622    1    1    2    0    0  0.17726425973E-01 -0.20638415436E-01  0.38848710640E+01  0.38862531253E+01  0.10000000000E+00 0.  1.
</event>
<event>
 5   0  0.6262544E+06  0.9118800E+02  0.7818608E-02  0.1180000E+00
       11   -1    0    0    0    0  0.00000000000E+00  0.00000000000E+00  0.39999999673E+01  0.40000000000E+01  0.51109989000E-03 0. -1.
     -623   -1    0    0    0    0  0.00000000000E+00  0.00000000000E+00  0.12525980253E-10  0.17130000000E+03  0.17130000000E+03 0. -1.
       11    1    1    2    0    0 -0.28427782405E-02  0.86939206377E-02  0.39102742023E-01  0.40161564972E-01  0.51109989000E-03 0. -1.
     -623    1    1    2    0    0 -0.44884153791E-02  0.52869569651E-02  0.23533035998E-02  0.17130000016E+03  0.17130000000E+03 0. -1.
      622    1    1    2    0    0  0.73311936198E-02 -0.13980877603E-01  0.39585439219E+01  0.39598382787E+01  0.10000000000E+00 0. -1.
</event>
<event>
 5   0  0.6262544E+06  0.9118800E+02  0.7818608E-02  0.1180000E+00
       11   -1    0    0    0    0  0.00000000000E+00  0.00000000000E+00  0.39999999673E+01  0.40000000000E+01  0.51109989000E-03 0. -1.
     -623   -1    0    0    0    0  0.00000000000E+00  0.00000000000E+00  0.12525980253E-10  0.17130000000E+03  0.17130000000E+03 0. -1.
       11    1    1    2    0    0 -0.13438565980E-02 -0.36683036263E-02  0.88755312383E-02  0.97107505895E-02  0.51109989000E-03 0. -1.
     -623    1    1    2    0    0  0.11160937861E-01 -0.19843412912E-02  0.21048987066E-02  0.17130000039E+03  0.17130000000E+03 0. -1.
      622    1    1    2    0    0 -0.98170812626E-02  0.56526449175E-02  0.39890195374E+01  0.39902888614E+01  0.10000000000E+00 0. -1.
</event>
<event>
 5   0  0.6262544E+06  0.9118800E+02  0.7818608E-02  0.1180000E+00
       11   -1    0    0    0    0  0.00000000000E+00  0.00000000000E+00  0.39999999673E+01  0.40000000000E+01  0.51109989000E-03 0.  1.
     -623   -1    0    0    0    0  0.00000000000E+00  0.00000000000E+00  0.12525980253E-10  0.17130000000E+03  0.17130000000E+03 0. -1.
       11    1    1    2    0    0 -0.16285244719E-01  0.31581839645E-01  0.18511254411E-01  0.40069309376E-01  0.51109989000E-03 0.  1.
     -623    1    1    2    0    0  0.26879738073E-01 -0.24161161104E-01  0.22847342413E-01  0.17130000534E+03  0.17130000000E+03 0. -1.
      622    1    1    2    0    0 -0.10594493355E-01 -0.74206785415E-02  0.39586413705E+01  0.39599253541E+01  0.10000000000E+00 0.  1.
</event>
<event>
 5   0  0.6262544E+06  0.9118800E+02  0.7818608E-02  0.1180000E+00
       11   -1    0    0    0    0  0.00000000000E+00  0.00000000000E+00  0.39999999673E+01  0.40000000000E+01  0.51109989000E-03 0. -1.
     -623   -1    0    0    0    0  0.00000000000E+00  0.00000000000E+00  0.12525980253E-10  0.17130000000E+03  0.17130000000E+03 0.  1.
       11    1    1    2    0    0 -0.70340345823E-02 -0.10567554073E-02  0.21111304991E-01  0.22283240216E-01  0.51109989000E-03 0. -1.
     -623    1    1    2    0    0 -0.76620871350E-03 -0.25094187081E-02  0.24383908642E-02  0.17130000004E+03  0.17130000000E+03 0.  1.
      622    1    1    2    0    0  0.78002432958E-02  0.35661741154E-02  0.39764502715E+01  0.39777167223E+01  0.10000000000E+00 0. -1.
</event>
<event>
 5   0  0.6262544E+06  0.9118800E+02  0.7818608E-02  0.1180000E+00
       11   -1    0    0    0    0  0.00000000000E+00  0.00000000000E+00  0.39999999673E+01  0.40000000000E+01  0.51109989000E-03 0.  1.
     -623   -1    0    0    0    0  0.00000000000E+00  0.00000000000E+00  0.12525980253E-10  0.17130000000E+03  0.17130000000E+03 0. -1.
       11    1    1    2    0    0  0.53026178562E-01  0.10505683922E-01  0.52171976724E-01  0.75128698817E-01  0.51109989000E-03 0.  1.
     -623    1    1    2    0    0  0.90610134404E-02  0.24450387184E-01  0.24881620739E-01  0.17130000379E+03  0.17130000000E+03 0. -1.
      622    1    1    2    0    0 -0.62087192003E-01 -0.34956071106E-01  0.39229463699E+01  0.39248675095E+01  0.10000000000E+00 0.  1.
</event>
<event>
 5   0  0.6262544E+06  0.9118800E+02  0.7818608E-02  0.1180000E+00
       11   -1    0    0    0    0  0.00000000000E+00  0.00000000000E+00  0.39999999673E+01  0.40000000000E+01  0.51109989000E-03 0.  1.
     -623   -1    0    0    0    0  0.00000000000E+00  0.00000000000E+00  0.12525980253E-10  0.17130000000E+03  0.17130000000E+03 0.  1.
       11    1    1    2    0    0 -0.19717029806E-02 -0.16551854538E-02  0.65600635235E-02  0.70656144856E-02  0.51109989000E-03 0.  1.
     -623    1    1    2    0    0  0.10863898159E-01  0.24192590703E-02  0.17682750988E-02  0.17130000037E+03  0.17130000000E+03 0.  1.
      622    1    1    2    0    0 -0.88921951781E-02 -0.76407361646E-03  0.39916716286E+01  0.39929340147E+01  0.10000000000E+00 0.  1.
</event>
<event>
 5   0  0.6262544E+06  0.9118800E+02  0.7818608E-02  0.1180000E+00
       11   -1    0    0    0    0  0.00000000000E+00  0.00000000000E+00  0.39999999673E+01  0.40000000000E+01  0.51109989000E-03 0.  1.
     -623   -1    0    0    0    0  0.00000000000E+00  0.00000000000E+00  0.12525980253E-10  0.17130000000E+03  0.17130000000E+03 0.  1.
       11    1    1    2    0    0  0.47769318676E-02 -0.56610569349E-03  0.23350289520E-02  0.53715113942E-02  0.51109989000E-03 0.  1.
     -623    1    1    2    0    0 -0.38213070344E-02 -0.10584456419E-01  0.43044326884E-02  0.17130000042E+03  0.17130000000E+03 0.  1.
      622    1    1    2    0    0 -0.95562483328E-03  0.11150562113E-01  0.39933605057E+01  0.39946280649E+01  0.10000000000E+00 0.  1.
</event>
<event>
 5   0  0.6262544E+06  0.9118800E+02  0.7818608E-02  0.1180000E+00
       11   -1    0    0    0    0  0.00000000000E+00  0.00000000000E+00  0.39999999673E+01  0.40000000000E+01  0.51109989000E-03 0. -1.
     -623   -1    0    0    0    0  0.00000000000E+00  0.00000000000E+00  0.12525980253E-10  0.17130000000E+03  0.17130000000E+03 0.  1.
       11    1    1    2    0    0  0.13305172719E-04 -0.92624943230E-03  0.99259261206E-03  0.14507164539E-02  0.51109989000E-03 0. -1.
     -623    1    1    2    0    0 -0.20557040238E-02  0.34196692881E-02  0.17100947675E-02  0.17130000006E+03  0.17130000000E+03 0.  1.
      622    1    1    2    0    0  0.20423988512E-02 -0.24934198560E-02  0.39972972802E+01  0.39985492288E+01  0.10000000000E+00 0. -1.
</event>
<event>
 5   0  0.6262544E+06  0.9118800E+02  0.7818608E-02  0.1180000E+00
       11   -1    0    0    0    0  0.00000000000E+00  0.00000000000E+00  0.39999999673E+01  0.40000000000E+01  0.51109989000E-03 0. -1.
     -623   -1    0    0    0    0  0.00000000000E+00  0.00000000000E+00  0.12525980253E-10  0.17130000000E+03  0.17130000000E+03 0. -1.
       11    1    1    2    0    0 -0.15654992461E-02 -0.15592012041E-01  0.76868421323E+00  0.76884409507E+00  0.51109989000E-03 0. -1.
     -623    1    1    2    0    0 -0.13245324593E-01  0.45528057693E-01  0.18869377708E-02  0.17130000657E+03  0.17130000000E+03 0. -1.
      622    1    1    2    0    0  0.14810823839E-01 -0.29936045651E-01  0.32294288164E+01  0.32311493322E+01  0.10000000000E+00 0.  0.
</event>
<event>
 5   0  0.6262544E+06  0.9118800E+02  0.7818608E-02  0.1180000E+00
       11   -1    0    0    0    0  0.00000000000E+00  0.00000000000E+00  0.39999999673E+01  0.40000000000E+01  0.51109989000E-03 0.  1.
     -623   -1    0    0    0    0  0.00000000000E+00  0.00000000000E+00  0.12525980253E-10  0.17130000000E+03  0.17130000000E+03 0. -1.
       11    1    1    2    0    0  0.14824626365E-02  0.12542967085E-02  0.13879378181E-01  0.14023883823E-01  0.51109989000E-03 0.  1.
     -623    1    1    2    0    0 -0.29113893355E-02 -0.14794418615E-02  0.13993677530E-02  0.17130000004E+03  0.17130000000E+03 0. -1.
      622    1    1    2    0    0  0.14289266991E-02  0.22514515311E-03  0.39847212216E+01  0.39859760795E+01  0.10000000000E+00 0.  1.
</event>
<event>
 5   0  0.6262544E+06  0.9118800E+02  0.7818608E-02  0.1180000E+00
       11   -1    0    0    0    0  0.00000000000E+00  0.00000000000E+00  0.39999999673E+01  0.40000000000E+01  0.51109989000E-03 0. -1.
     -623   -1    0    0    0    0  0.00000000000E+00  0.00000000000E+00  0.12525980253E-10  0.17130000000E+03  0.17130000000E+03 0.  1.
       11    1    1    2    0    0  0.36095746882E-02  0.21489198370E-02  0.32216879429E+00  0.32219658614E+00  0.51109989000E-03 0. -1.
     -623    1    1    2    0    0 -0.74719944491E-02 -0.97469277126E-02  0.13978440611E-02  0.17130000045E+03  0.17130000000E+03 0.  1.
      622    1    1    2    0    0  0.38624197609E-02  0.75980078756E-02  0.36764333290E+01  0.36778029679E+01  0.10000000000E+00 0. -1.
</event>
<event>
 5   0  0.6262544E+06  0.9118800E+02  0.7818608E-02  0.1180000E+00
       11   -1    0    0    0    0  0.00000000000E+00  0.00000000000E+00  0.39999999673E+01  0.40000000000E+01  0.51109989000E-03 0.  1.
     -623   -1    0    0    0    0  0.00000000000E+00  0.00000000000E+00  0.12525980253E-10  0.17130000000E+03  0.17130000000E+03 0. -1.
       11    1    1    2    0    0 -0.21530436736E-02 -0.73667431048E-02  0.21517798877E+00  0.21531542577E+00  0.51109989000E-03 0.  1.
     -623    1    1    2    0    0 -0.21512889988E-02 -0.78416437855E-02  0.14919646869E-02  0.17130000020E+03  0.17130000000E+03 0. -1.
      622    1    1    2    0    0  0.43043326724E-02  0.15208386890E-01  0.37833300139E+01  0.37846843747E+01  0.10000000000E+00 0.  1.
</event>
<event>
 5   0  0.6262544E+06  0.9118800E+02  0.7818608E-02  0.1180000E+00
       11   -1    0    0    0    0  0.00000000000E+00  0.00000000000E+00  0.39999999673E+01  0.40000000000E+01  0.51109989000E-03 0.  1.
     -623   -1    0    0    0    0  0.00000000000E+00  0.00000000000E+00  0.12525980253E-10  0.17130000000E+03  0.17130000000E+03 0.  1.
       11    1    1    2    0    0 -0.71620827861E-01  0.50062684750E-01  0.62032526766E+00  0.62644992961E+00  0.51109989000E-03 0.  1.
     -623    1    1    2    0    0 -0.20749687046E-01 -0.36556284144E-01  0.89049087318E-02  0.17130000539E+03  0.17130000000E+03 0.  1.
      622    1    1    2    0    0  0.92370514908E-01 -0.13506400606E-01  0.33707697910E+01  0.33735446816E+01  0.10000000000E+00 0.  1.
</event>
<event>
 5   0  0.6262544E+06  0.9118800E+02  0.7818608E-02  0.1180000E+00
       11   -1    0    0    0    0  0.00000000000E+00  0.00000000000E+00  0.39999999673E+01  0.40000000000E+01  0.51109989000E-03 0.  1.
     -623   -1    0    0    0    0  0.00000000000E+00  0.00000000000E+00  0.12525980253E-10  0.17130000000E+03  0.17130000000E+03 0.  1.
       11    1    1    2    0    0 -0.12612376716E-01 -0.43532246085E-01  0.16540135980E+00  0.17149926980E+00  0.51109989000E-03 0.  1.
     -623    1    1    2    0    0 -0.37938880920E-02  0.72937550010E-02  0.76111968135E-02  0.17130000037E+03  0.17130000000E+03 0.  1.
      622    1    1    2    0    0  0.16406264807E-01  0.36238491084E-01  0.38269874107E+01  0.38285003638E+01  0.10000000000E+00 0.  1.
</event>
<event>
 5   0  0.6262544E+06  0.9118800E+02  0.7818608E-02  0.1180000E+00
       11   -1    0    0    0    0  0.00000000000E+00  0.00000000000E+00  0.39999999673E+01  0.40000000000E+01  0.51109989000E-03 0. -1.
     -623   -1    0    0    0    0  0.00000000000E+00  0.00000000000E+00  0.12525980253E-10  0.17130000000E+03  0.17130000000E+03 0. -1.
       11    1    1    2    0    0  0.36533171296E-02  0.20586539934E-01  0.37471622397E+00  0.37529942990E+00  0.51109989000E-03 0. -1.
     -623    1    1    2    0    0 -0.95544446113E-02  0.49734035410E-02  0.20581715770E-02  0.17130000035E+03  0.17130000000E+03 0. -1.
      622    1    1    2    0    0  0.59011274817E-02 -0.25559943475E-01  0.36232255718E+01  0.36247002191E+01  0.10000000000E+00 0. -1.
</event>
<event>
 5   0  0.6262544E+06  0.9118800E+02  0.7818608E-02  0.1180000E+00
       11   -1    0    0    0    0  0.00000000000E+00  0.00000000000E+00  0.39999999673E+01  0.40000000000E+01  0.51109989000E-03 0.  1.
     -623   -1    0    0    0    0  0.00000000000E+00  0.00000000000E+00  0.12525980253E-10  0.17130000000E+03  0.17130000000E+03 0. -1.
       11    1    1    2    0    0 -0.58204501838E-01  0.11439702234E-01  0.55777367194E-01  0.81424853304E-01  0.51109989000E-03 0.  1.
     -623    1    1    2    0    0 -0.43057743428E-01  0.78703424139E-01  0.29296340924E-01  0.17130002600E+03  0.17130000000E+03 0. -1.
      622    1    1    2    0    0  0.10126224527E+00 -0.90143126374E-01  0.39149262593E+01  0.39185491500E+01  0.10000000000E+00 0.  1.
</event>
<event>
 5   0  0.6262544E+06  0.9118800E+02  0.7818608E-02  0.1180000E+00
       11   -1    0    0    0    0  0.00000000000E+00  0.00000000000E+00  0.39999999673E+01  0.40000000000E+01  0.51109989000E-03 0. -1.
     -623   -1    0    0    0    0  0.00000000000E+00  0.00000000000E+00  0.12525980253E-10  0.17130000000E+03  0.17130000000E+03 0. -1.
       11    1    1    2    0    0 -0.69204348376E-02 -0.36033086751E-02  0.10394798147E-02  0.78878381789E-02  0.51109989000E-03 0. -1.
     -623    1    1    2    0    0 -0.18116307757E-02  0.93115420966E-02  0.81150823950E-02  0.17130000045E+03  0.17130000000E+03 0. -1.
      622    1    1    2    0    0  0.87320656133E-02 -0.57082334215E-02  0.39908454052E+01  0.39921117069E+01  0.10000000000E+00 0. -1.
</event>
<event>
 5   0  0.6262544E+06  0.9118800E+02  0.7818608E-02  0.1180000E+00
       11   -1    0    0    0    0  0.00000000000E+00  0.00000000000E+00  0.39999999673E+01  0.40000000000E+01  0.51109989000E-03 0.  1.
     -623   -1    0    0    0    0  0.00000000000E+00  0.00000000000E+00  0.12525980253E-10  0.17130000000E+03  0.17130000000E+03 0. -1.
       11    1    1    2    0    0  0.33027399943E-02 -0.38085687311E-02 -0.25344680678E-03  0.50733367354E-02  0.51109989000E-03 0.  1.
     -623    1    1    2    0    0  0.10152900633E-01 -0.42805811273E-01  0.68790452563E-02  0.17130000579E+03  0.17130000000E+03 0. -1.
      622    1    1    2    0    0 -0.13455640628E-01  0.46614380004E-01  0.39933743689E+01  0.39949208759E+01  0.10000000000E+00 0.  1.
</event>
<event>
 5   0  0.6262544E+06  0.9118800E+02  0.7818608E-02  0.1180000E+00
       11   -1    0    0    0    0  0.00000000000E+00  0.00000000000E+00  0.39999999673E+01  0.40000000000E+01  0.51109989000E-03 0. -1.
     -623   -1    0    0    0    0  0.00000000000E+00  0.00000000000E+00  0.12525980253E-10  0.17130000000E+03  0.17130000000E+03 0.  1.
       11    1    1    2    0    0  0.16818072457E-01 -0.17996426900E-01  0.41821031529E+00  0.41893537447E+00  0.51109989000E-03 0. -1.
     -623    1    1    2    0    0 -0.41662388559E-02 -0.83611013031E-04  0.21896140273E-02  0.17130000006E+03  0.17130000000E+03 0.  1.
      622    1    1    2    0    0 -0.12651833601E-01  0.18080037913E-01  0.35796000380E+01  0.35810645609E+01  0.10000000000E+00 0. -1.
</event>
<event>
 5   0  0.6262544E+06  0.9118800E+02  0.7818608E-02  0.1180000E+00
       11   -1    0    0    0    0  0.00000000000E+00  0.00000000000E+00  0.39999999673E+01  0.40000000000E+01  0.51109989000E-03 0. -1.
     -623   -1    0    0    0    0  0.00000000000E+00  0.00000000000E+00  0.12525980253E-10  0.17130000000E+03  0.17130000000E+03 0.  1.
       11    1    1    2    0    0  0.68866493946E-02 -0.85512048711E-04  0.16566844231E+00  0.16581232539E+00  0.51109989000E-03 0. -1.
     -623    1    1    2    0    0  0.10382070805E-02 -0.27511686038E-02  0.14574033353E-02  0.17130000003E+03  0.17130000000E+03 0.  1.
      622    1    1    2    0    0 -0.79248564752E-02  0.28366806527E-02  0.38328741220E+01  0.38341876435E+01  0.10000000000E+00 0. -1.
</event>
<event>
 5   0  0.6262544E+06  0.9118800E+02  0.7818608E-02  0.1180000E+00
       11   -1    0    0    0    0  0.00000000000E+00  0.00000000000E+00  0.39999999673E+01  0.40000000000E+01  0.51109989000E-03 0. -1.
     -623   -1    0    0    0    0  0.00000000000E+00  0.00000000000E+00  0.12525980253E-10  0.17130000000E+03  0.17130000000E+03 0.  1.
       11    1    1    2    0    0  0.35474126267E-01 -0.16831713974E-01  0.49193884273E+00  0.49350360326E+00  0.51109989000E-03 0. -1.
     -623    1    1    2    0    0  0.88353252015E-03  0.82911420377E-03  0.32160815555E-02  0.17130000003E+03  0.17130000000E+03 0.  1.
      622    1    1    2    0    0 -0.36357658787E-01  0.16002599770E-01  0.35048450432E+01  0.35064963624E+01  0.10000000000E+00 0. -1.
</event>
<event>
 5   0  0.6262544E+06  0.9118800E+02  0.7818608E-02  0.1180000E+00
       11   -1    0    0    0    0  0.00000000000E+00  0.00000000000E+00  0.39999999673E+01  0.40000000000E+01  0.51109989000E-03 0. -1.
     -623   -1    0    0    0    0  0.00000000000E+00  0.00000000000E+00  0.12525980253E-10  0.17130000000E+03  0.17130000000E+03 0.  1.
       11    1    1    2    0    0  0.31539164909E-02  0.27091063089E-01  0.74025846848E-01  0.78892078900E-01  0.51109989000E-03 0. -1.
     -623    1    1    2    0    0  0.70349824266E-02  0.22289652087E-02  0.62647299791E-02  0.17130000027E+03  0.17130000000E+03 0.  1.
      622    1    1    2    0    0 -0.10188898918E-01 -0.29320028298E-01  0.39197093906E+01  0.39211076476E+01  0.10000000000E+00 0. -1.
</event>
<event>
 5   0  0.6262544E+06  0.9118800E+02  0.7818608E-02  0.1180000E+00
       11   -1    0    0    0    0  0.00000000000E+00  0.00000000000E+00  0.39999999673E+01  0.40000000000E+01  0.51109989000E-03 0. -1.
     -623   -1    0    0    0    0  0.00000000000E+00  0.00000000000E+00  0.12525980253E-10  0.17130000000E+03  0.17130000000E+03 0. -1.
       11    1    1    2    0    0  0.17834797166E-01 -0.21074131139E-02  0.17650963262E+01  0.17651877586E+01  0.51109989000E-03 0. -1.
     -623    1    1    2    0    0 -0.12629718803E-01  0.86422791452E-03  0.23367431884E-02  0.17130000048E+03  0.17130000000E+03 0. -1.
      622    1    1    2    0    0 -0.52050783628E-02  0.12431851994E-02  0.22325668980E+01  0.22348117577E+01  0.10000000000E+00 0. -1.
</event>
<event>
 5   0  0.6262544E+06  0.9118800E+02  0.7818608E-02  0.1180000E+00
       11   -1    0    0    0    0  0.00000000000E+00  0.00000000000E+00  0.39999999673E+01  0.40000000000E+01  0.51109989000E-03 0. -1.
     -623   -1    0    0    0    0  0.00000000000E+00  0.00000000000E+00  0.12525980253E-10  0.17130000000E+03  0.17130000000E+03 0.  1.
       11    1    1    2    0    0 -0.17567350856E-01  0.48210098754E-02  0.35874120961E-01  0.40237640713E-01  0.51109989000E-03 0. -1.
     -623    1    1    2    0    0 -0.29713008671E-01  0.27734538970E-01  0.60475738833E-02  0.17130000493E+03  0.17130000000E+03 0.  1.
      622    1    1    2    0    0  0.47280359527E-01 -0.32555548845E-01  0.39580782726E+01  0.39597574304E+01  0.10000000000E+00 0. -1.
</event>
<event>
 5   0  0.6262544E+06  0.9118800E+02  0.7818608E-02  0.1180000E+00
       11   -1    0    0    0    0  0.00000000000E+00  0.00000000000E+00  0.39999999673E+01  0.40000000000E+01  0.51109989000E-03 0.  1.
     -623   -1    0    0    0    0  0.00000000000E+00  0.00000000000E+00  0.12525980253E-10  0.17130000000E+03  0.17130000000E+03 0. -1.
       11    1    1    2    0    0  0.15664217698E-02  0.22393518911E-02 -0.55913901615E-02  0.62444568290E-02  0.51109989000E-03 0.  1.
     -623    1    1    2    0    0 -0.42303672210E-02  0.15936407911E-02  0.13091253817E-01  0.17130000056E+03  0.17130000000E+03 0. -1.
      622    1    1    2    0    0  0.26639454512E-02 -0.38329926823E-02  0.39925001037E+01  0.39937549833E+01  0.10000000000E+00 0.  1.
</event>
<event>
 5   0  0.6262544E+06  0.9118800E+02  0.7818608E-02  0.1180000E+00
       11   -1    0    0    0    0  0.00000000000E+00  0.00000000000E+00  0.39999999673E+01  0.40000000000E+01  0.51109989000E-03 0.  1.
     -623   -1    0    0    0    0  0.00000000000E+00  0.00000000000E+00  0.12525980253E-10  0.17130000000E+03  0.17130000000E+03 0.  1.
       11    1    1    2    0    0 -0.61571370918E-02 -0.27606671464E-02  0.52373767739E-01  0.52809131677E-01  0.51109989000E-03 0.  1.
     -623    1    1    2    0    0  0.13910178883E-01  0.52792218651E-02  0.17113335931E-02  0.17130000065E+03  0.17130000000E+03 0.  1.
      622    1    1    2    0    0 -0.77530417916E-02 -0.25185547188E-02  0.39459148660E+01  0.39471902136E+01  0.10000000000E+00 0.  1.
</event>
<event>
 5   0  0.6262544E+06  0.9118800E+02  0.7818608E-02  0.1180000E+00
       11   -1    0    0    0    0  0.00000000000E+00  0.00000000000E+00  0.39999999673E+01  0.40000000000E+01  0.51109989000E-03 0. -1.
     -623   -1    0    0    0    0  0.00000000000E+00  0.00000000000E+00  0.12525980253E-10  0.17130000000E+03  0.17130000000E+03 0. -1.
       11    1    1    2    0    0 -0.17435214375E-01 -0.99371163473E-02  0.21478941650E+00  0.21572549140E+00  0.51109989000E-03 0. -1.
     -623    1    1    2    0    0  0.68328047862E-02 -0.14755919223E-01  0.23537685617E-02  0.17130000079E+03  0.17130000000E+03 0. -1.
      622    1    1    2    0    0  0.10602409589E-01  0.24693035570E-01  0.37828567823E+01  0.37842737206E+01  0.10000000000E+00 0. -1.
</event>
<event>
 5   0  0.6262544E+06  0.9118800E+02  0.7818608E-02  0.1180000E+00
       11   -1    0    0    0    0  0.00000000000E+00  0.00000000000E+00  0.39999999673E+01  0.40000000000E+01  0.51109989000E-03 0. -1.
     -623   -1    0    0    0    0  0.00000000000E+00  0.00000000000E+00  0.12525980253E-10  0.17130000000E+03  0.17130000000E+03 0. -1.
       11    1    1    2    0    0  0.56194415931E-02  0.84648312823E-02  0.92366190820E-01  0.92924732564E-01  0.51109989000E-03 0. -1.
     -623    1    1    2    0    0  0.19432335395E-02 -0.51923251042E-02  0.18472407470E-02  0.17130000010E+03  0.17130000000E+03 0. -1.
      622    1    1    2    0    0 -0.75626751327E-02 -0.32725061778E-02  0.39057865361E+01  0.39070751681E+01  0.10000000000E+00 0. -1.
</event>
<event>
 5   0  0.6262544E+06  0.9118800E+02  0.7818608E-02  0.1180000E+00
       11   -1    0    0    0    0  0.00000000000E+00  0.00000000000E+00  0.39999999673E+01  0.40000000000E+01  0.51109989000E-03 0. -1.
     -623   -1    0    0    0    0  0.00000000000E+00  0.00000000000E+00  0.12525980253E-10  0.17130000000E+03  0.17130000000E+03 0.  1.
       11    1    1    2    0    0  0.31865705742E-01 -0.65941767322E-02  0.96459964320E+00  0.96514850632E+00  0.51109989000E-03 0. -1.
     -623    1    1    2    0    0  0.45081536686E-02 -0.10134580514E-01  0.24614206115E-02  0.17130000038E+03  0.17130000000E+03 0.  1.
      622    1    1    2    0    0 -0.36373859410E-01  0.16728757246E-01  0.30329389036E+01  0.30348511169E+01  0.10000000000E+00 0. -1.
</event>
<event>
 5   0  0.6262544E+06  0.9118800E+02  0.7818608E-02  0.1180000E+00
       11   -1    0    0    0    0  0.00000000000E+00  0.00000000000E+00  0.39999999673E+01  0.40000000000E+01  0.51109989000E-03 0. -1.
     -623   -1    0    0    0    0  0.00000000000E+00  0.00000000000E+00  0.12525980253E-10  0.17130000000E+03  0.17130000000E+03 0.  1.
       11    1    1    2    0    0  0.98803777303E-02  0.42494718966E-02  0.16843886886E-01  0.19991438768E-01  0.51109989000E-03 0. -1.
     -623    1    1    2    0    0 -0.40075282064E-02  0.58282624725E-02  0.44212966724E-02  0.17130000020E+03  0.17130000000E+03 0.  1.
      622    1    1    2    0    0 -0.58728495238E-02 -0.10077734369E-01  0.39787347839E+01  0.39800083582E+01  0.10000000000E+00 0. -1.
</event>
<event>
 5   0  0.6262544E+06  0.9118800E+02  0.7818608E-02  0.1180000E+00
       11   -1    0    0    0    0  0.00000000000E+00  0.00000000000E+00  0.39999999673E+01  0.40000000000E+01  0.51109989000E-03 0. -1.
     -623   -1    0    0    0    0  0.00000000000E+00  0.00000000000E+00  0.12525980253E-10  0.17130000000E+03  0.17130000000E+03 0. -1.
       11    1    1    2    0    0  0.87814856360E-02  0.43737105834E-01  0.15019717830E+01  0.15026342027E+01  0.51109989000E-03 0. -1.
     -623    1    1    2    0    0 -0.45708390448E-01  0.23749415014E-01  0.38591845359E-02  0.17130000779E+03  0.17130000000E+03 0. -1.
      622    1    1    2    0    0  0.36926904812E-01 -0.67486520848E-01  0.24941689998E+01  0.24973580093E+01  0.10000000000E+00 0. -1.
</event>
<event>
 5   0  0.6262544E+06  0.9118800E+02  0.7818608E-02  0.1180000E+00
       11   -1    0    0    0    0  0.00000000000E+00  0.00000000000E+00  0.39999999673E+01  0.40000000000E+01  0.51109989000E-03 0. -1.
     -623   -1    0    0    0    0  0.00000000000E+00  0.00000000000E+00  0.12525980253E-10  0.17130000000E+03  0.17130000000E+03 0.  1.
       11    1    1    2    0    0 -0.30569027555E-01 -0.28347174060E-01  0.38697049470E+00  0.38921003675E+00  0.51109989000E-03 0. -1.
     -623    1    1    2    0    0  0.22585120656E-01 -0.44370074170E-02  0.37838250829E-02  0.17130000159E+03  0.17130000000E+03 0.  1.
      622    1    1    2    0    0  0.79839068991E-02  0.32784181477E-01  0.36092456476E+01  0.36107883751E+01  0.10000000000E+00 0. -1.
</event>
<event>
 5   0  0.6262544E+06  0.9118800E+02  0.7818608E-02  0.1180000E+00
       11   -1    0    0    0    0  0.00000000000E+00  0.00000000000E+00  0.39999999673E+01  0.40000000000E+01  0.51109989000E-03 0.  1.
     -623   -1    0    0    0    0  0.00000000000E+00  0.00000000000E+00  0.12525980253E-10  0.17130000000E+03  0.17130000000E+03 0. -1.
       11    1    1    2    0    0  0.13116293030E-01  0.16279419142E-02  0.53520836561E-01  0.55131012186E-01  0.51109989000E-03 0.  1.
     -623    1    1    2    0    0 -0.25963166308E-01 -0.10724083293E-01  0.29115604572E-02  0.17130000233E+03  0.17130000000E+03 0. -1.
      622    1    1    2    0    0  0.12846873278E-01  0.90961413792E-02  0.39435675703E+01  0.39448666598E+01  0.10000000000E+00 0.  1.
</event>
<event>
 5   0  0.6262544E+06  0.9118800E+02  0.7818608E-02  0.1180000E+00
       11   -1    0    0    0    0  0.00000000000E+00  0.00000000000E+00  0.39999999673E+01  0.40000000000E+01  0.51109989000E-03 0. -1.
     -623   -1    0    0    0    0  0.00000000000E+00  0.00000000000E+00  0.12525980253E-10  0.17130000000E+03  0.17130000000E+03 0.  1.
       11    1    1    2    0    0  0.23133318040E-01  0.87237050939E-02  0.12863662427E+00  0.13099196830E+00  0.51109989000E-03 0. -1.
     -623    1    1    2    0    0 -0.72140152609E-03 -0.33038799177E-01  0.37924464231E-02  0.17130000323E+03  0.17130000000E+03 0.  1.
      622    1    1    2    0    0 -0.22411916514E-01  0.24315094083E-01  0.38675708967E+01  0.38690048021E+01  0.10000000000E+00 0. -1.
</event>
<event>
 5   0  0.6262544E+06  0.9118800E+02  0.7818608E-02  0.1180000E+00
       11   -1    0    0    0    0  0.00000000000E+00  0.00000000000E+00  0.39999999673E+01  0.40000000000E+01  0.51109989000E-03 0.  1.
     -623   -1    0    0    0    0  0.00000000000E+00  0.00000000000E+00  0.12525980253E-10  0.17130000000E+03  0.17130000000E+03 0. -1.
       11    1    1    2    0    0 -0.19510884968E-02 -0.88936443024E-02  0.15871192385E-01  0.18304633970E-01  0.51109989000E-03 0.  1.
     -623    1    1    2    0    0  0.38645274409E-02 -0.28179646704E-02  0.37071498620E-02  0.17130000011E+03  0.17130000000E+03 0. -1.
      622    1    1    2    0    0 -0.19134389441E-02  0.11711608973E-01  0.39804216251E+01  0.39816952591E+01  0.10000000000E+00 0.  1.
</event>
<event>
 5   0  0.6262544E+06  0.9118800E+02  0.7818608E-02  0.1180000E+00
       11   -1    0    0    0    0  0.00000000000E+00  0.00000000000E+00  0.39999999673E+01  0.40000000000E+01  0.51109989000E-03 0.  1.
     -623   -1    0    0    0    0  0.00000000000E+00  0.00000000000E+00  0.12525980253E-10  0.17130000000E+03  0.17130000000E+03 0.  1.
       11    1    1    2    0    0  0.36497423600E-02 -0.16384283993E-01  0.38444259695E+00  0.38480922150E+00  0.51109989000E-03 0.  1.
     -623    1    1    2    0    0 -0.79505115739E-02  0.18443851240E-01  0.17542423594E-02  0.17130000119E+03  0.17130000000E+03 0.  1.
      622    1    1    2    0    0  0.43007692140E-02 -0.20595672472E-02  0.36138031280E+01  0.36151895921E+01  0.10000000000E+00 0.  1.
</event>
<event>
 5   0  0.6262544E+06  0.9118800E+02  0.7818608E-02  0.1180000E+00
       11   -1    0    0    0    0  0.00000000000E+00  0.00000000000E+00  0.39999999673E+01  0.40000000000E+01  0.51109989000E-03 0.  1.
     -623   -1    0    0    0    0  0.00000000000E+00  0.00000000000E+00  0.12525980253E-10  0.17130000000E+03  0.17130000000E+03 0. -1.
       11    1    1    2    0    0 -0.65988197682E-02  0.47384205347E-02  0.25208404058E-01  0.26490034117E-01  0.51109989000E-03 0.  1.
     -623    1    1    2    0    0  0.10415016085E-01 -0.15808962824E-01  0.25584554075E-02  0.17130000107E+03  0.17130000000E+03 0. -1.
      622    1    1    2    0    0 -0.38161963172E-02  0.11070542289E-01  0.39722331079E+01  0.39735089007E+01  0.10000000000E+00 0.  1.
</event>
<event>
 5   0  0.6262544E+06  0.9118800E+02  0.7818608E-02  0.1180000E+00
       11   -1    0    0    0    0  0.00000000000E+00  0.00000000000E+00  0.39999999673E+01  0.40000000000E+01  0.51109989000E-03 0. -1.
     -623   -1    0    0    0    0  0.00000000000E+00  0.00000000000E+00  0.12525980253E-10  0.17130000000E+03  0.17130000000E+03 0. -1.
       11    1    1    2    0    0  0.13092022512E-01 -0.13221335766E-01  0.38199286792E+00  0.38244609703E+00  0.51109989000E-03 0. -1.
     -623    1    1    2    0    0 -0.19747883586E-03  0.42574273188E-01  0.19830377679E-02  0.17130000530E+03  0.17130000000E+03 0. -1.
      622    1    1    2    0    0 -0.12894543677E-01 -0.29352937422E-01  0.36160240617E+01  0.36175486008E+01  0.10000000000E+00 0. -1.
</event>
<event>
 5   0  0.6262544E+06  0.9118800E+02  0.7818608E-02  0.1180000E+00
       11   -1    0    0    0    0  0.00000000000E+00  0.00000000000E+00  0.39999999673E+01  0.40000000000E+01  0.51109989000E-03 0. -1.
     -623   -1    0    0    0    0  0.00000000000E+00  0.00000000000E+00  0.12525980253E-10  0.17130000000E+03  0.17130000000E+03 0. -1.
       11    1    1    2    0    0 -0.41658339003E-02  0.93901546756E-02  0.37732377064E+00  0.37746392978E+00  0.51109989000E-03 0. -1.
     -623    1    1    2    0    0 -0.33248449264E-01  0.16092250401E-01  0.18075888354E-02  0.17130000399E+03  0.17130000000E+03 0. -1.
      622    1    1    2    0    0  0.37414283164E-01 -0.25482405077E-01  0.36208686079E+01  0.36225320781E+01  0.10000000000E+00 0. -1.
</event>
<event>
 5   0  0.6262544E+06  0.9118800E+02  0.7818608E-02  0.1180000E+00
       11   -1    0    0    0    0  0.00000000000E+00  0.00000000000E+00  0.39999999673E+01  0.40000000000E+01  0.51109989000E-03 0.  1.
     -623   -1    0    0    0    0  0.00000000000E+00  0.00000000000E+00  0.12525980253E-10  0.17130000000E+03  0.17130000000E+03 0. -1.
       11    1    1    2    0    0  0.10412119841E-02 -0.18528955365E-01  0.20779357268E+00  0.20862127499E+00  0.51109989000E-03 0.  1.
     -623    1    1    2    0    0 -0.11764707356E-01  0.68563796317E-02  0.21803809192E-02  0.17130000056E+03  0.17130000000E+03 0. -1.
      622    1    1    2    0    0  0.10723495373E-01  0.11672575733E-01  0.37900260139E+01  0.37913781701E+01  0.10000000000E+00 0.  1.
</event>
<event>
 5   0  0.6262544E+06  0.9118800E+02  0.7818608E-02  0.1180000E+00
       11   -1    0    0    0    0  0.00000000000E+00  0.00000000000E+00  0.39999999673E+01  0.40000000000E+01  0.51109989000E-03 0. -1.
     -623   -1    0    0    0    0  0.00000000000E+00  0.00000000000E+00  0.12525980253E-10  0.17130000000E+03  0.17130000000E+03 0. -1.
       11    1    1    2    0    0 -0.12198131827E-01  0.39327817332E-01  0.22193006178E+01  0.22196826271E+01  0.51109989000E-03 0. -1.
     -623    1    1    2    0    0  0.62203594057E-02  0.10550566442E-01  0.39031755486E-02  0.17130000048E+03  0.17130000000E+03 0. -1.
      622    1    1    2    0    0  0.59777724211E-02 -0.49878383774E-01  0.17767961742E+01  0.17803168907E+01  0.10000000000E+00 0.  0.
</event>
<event>
 5   0  0.6262544E+06  0.9118800E+02  0.7818608E-02  0.1180000E+00
       11   -1    0    0    0    0  0.00000000000E+00  0.00000000000E+00  0.39999999673E+01  0.40000000000E+01  0.51109989000E-03 0.  1.
     -623   -1    0    0    0    0  0.00000000000E+00  0.00000000000E+00  0.12525980253E-10  0.17130000000E+03  0.17130000000E+03 0. -1.
       11    1    1    2    0    0 -0.64305276049E-02  0.19111099995E-01  0.25311305662E+00  0.25391547114E+00  0.51109989000E-03 0.  1.
     -623    1    1    2    0    0 -0.13303857299E-02 -0.36390198292E-02  0.21774095419E-02  0.17130000006E+03  0.17130000000E+03 0. -1.
      622    1    1    2    0    0  0.77609133347E-02 -0.15472080166E-01  0.37447095012E+01  0.37460844712E+01  0.10000000000E+00 0.  1.
</event>
<event>
 5   0  0.6262544E+06  0.9118800E+02  0.7818608E-02  0.1180000E+00
       11   -1    0    0    0    0  0.00000000000E+00  0.00000000000E+00  0.39999999673E+01  0.40000000000E+01  0.51109989000E-03 0. -1.
     -623   -1    0    0    0    0  0.00000000000E+00  0.00000000000E+00  0.12525980253E-10  0.17130000000E+03  0.17130000000E+03 0.  1.
       11    1    1    2    0    0 -0.42904707567E-01  0.60649793239E-01  0.11297415345E+01  0.11321817024E+01  0.51109989000E-03 0. -1.
     -623    1    1    2    0    0  0.36052166344E-01 -0.36346247092E-01  0.43030979083E-02  0.17130000770E+03  0.17130000000E+03 0.  1.
      622    1    1    2    0    0  0.68525412228E-02 -0.24303546147E-01  0.28659553350E+01  0.28678105937E+01  0.10000000000E+00 0.  0.
</event>
<event>
 5   0  0.6262544E+06  0.9118800E+02  0.7818608E-02  0.1180000E+00
       11   -1    0    0    0    0  0.00000000000E+00  0.00000000000E+00  0.39999999673E+01  0.40000000000E+01  0.51109989000E-03 0.  1.
     -623   -1    0    0    0    0  0.00000000000E+00  0.00000000000E+00  0.12525980253E-10  0.17130000000E+03  0.17130000000E+03 0.  1.
       11    1    1    2    0    0 -0.12042951189E-01 -0.33857091859E-01  0.13826541197E+01  0.13831211123E+01  0.51109989000E-03 0.  1.
     -623    1    1    2    0    0 -0.71842966696E-02 -0.17369122338E-01  0.29518891158E-02  0.17130000106E+03  0.17130000000E+03 0.  1.
      622    1    1    2    0    0  0.19227247858E-01  0.51226214198E-01  0.26143939585E+01  0.26168778310E+01  0.10000000000E+00 0.  0.
</event>
<event>
 5   0  0.6262544E+06  0.9118800E+02  0.7818608E-02  0.1180000E+00
       11   -1    0    0    0    0  0.00000000000E+00  0.00000000000E+00  0.39999999673E+01  0.40000000000E+01  0.51109989000E-03 0. -1.
     -623   -1    0    0    0    0  0.00000000000E+00  0.00000000000E+00  0.12525980253E-10  0.17130000000E+03  0.17130000000E+03 0. -1.
       11    1    1    2    0    0 -0.32991972472E-01 -0.15319930487E-01  0.93235444816E+00  0.93306390389E+00  0.51109989000E-03 0. -1.
     -623    1    1    2    0    0 -0.32801595619E-02  0.20010800823E-01  0.25595715361E-02  0.17130000122E+03  0.17130000000E+03 0. -1.
      622    1    1    2    0    0  0.36272132034E-01 -0.46908703355E-02  0.30650859477E+01  0.30669348768E+01  0.10000000000E+00 0.  1.
</event>
<event>
 5   0  0.6262544E+06  0.9118800E+02  0.7818608E-02  0.1180000E+00
       11   -1    0    0    0    0  0.00000000000E+00  0.00000000000E+00  0.39999999673E+01  0.40000000000E+01  0.51109989000E-03 0. -1.
     -623   -1    0    0    0    0  0.00000000000E+00  0.00000000000E+00  0.12525980253E-10  0.17130000000E+03  0.17130000000E+03 0.  1.
       11    1    1    2    0    0 -0.17069400057E-01  0.11574500758E-01  0.52147646623E+00  0.52188437373E+00  0.51109989000E-03 0. -1.
     -623    1    1    2    0    0  0.13763877048E-01 -0.12781643476E-01  0.18485532765E-02  0.17130000104E+03  0.17130000000E+03 0.  1.
      622    1    1    2    0    0  0.33055230080E-02  0.12071427189E-02  0.34766749480E+01  0.34781145867E+01  0.10000000000E+00 0. -1.
</event>
<event>
 5   0  0.6262544E+06  0.9118800E+02  0.7818608E-02  0.1180000E+00
       11   -1    0    0    0    0  0.00000000000E+00  0.00000000000E+00  0.39999999673E+01  0.40000000000E+01  0.51109989000E-03 0.  1.
     -623   -1    0    0    0    0  0.00000000000E+00  0.00000000000E+00  0.12525980253E-10  0.17130000000E+03  0.17130000000E+03 0.  1.
       11    1    1    2    0    0 -0.22209627094E-02 -0.77867426448E-03  0.31687897799E-02  0.39801332557E-02  0.51109989000E-03 0.  1.
     -623    1    1    2    0    0  0.51796476627E-03 -0.12720736758E-02  0.20636591510E-02  0.17130000002E+03  0.17130000000E+03 0.  1.
      622    1    1    2    0    0  0.17029979431E-02  0.20507479403E-02  0.39947675186E+01  0.39960198490E+01  0.10000000000E+00 0.  1.
</event>
<event>
 5   0  0.6262544E+06  0.9118800E+02  0.7818608E-02  0.1180000E+00
       11   -1    0    0    0    0  0.00000000000E+00  0.00000000000E+00  0.39999999673E+01  0.40000000000E+01  0.51109989000E-03 0.  1.
     -623   -1    0    0    0    0  0.00000000000E+00  0.00000000000E+00  0.12525980253E-10  0.17130000000E+03  0.17130000000E+03 0.  1.
       11    1    1    2    0    0  0.77503244650E-02  0.11120915259E-02  0.12682389007E+00  0.12706637869E+00  0.51109989000E-03 0.  1.
     -623    1    1    2    0    0 -0.12999558590E-01  0.72757775306E-04  0.15379223860E-02  0.17130000050E+03  0.17130000000E+03 0.  1.
      622    1    1    2    0    0  0.52492341250E-02 -0.11848493012E-02  0.38716381550E+01  0.38729331212E+01  0.10000000000E+00 0.  1.
</event>
<event>
 5   0  0.6262544E+06  0.9118800E+02  0.7818608E-02  0.1180000E+00
       11   -1    0    0    0    0  0.00000000000E+00  0.00000000000E+00  0.39999999673E+01  0.40000000000E+01  0.51109989000E-03 0.  1.
     -623   -1    0    0    0    0  0.00000000000E+00  0.00000000000E+00  0.12525980253E-10  0.17130000000E+03  0.17130000000E+03 0.  1.
       11    1    1    2    0    0  0.82608229582E-02 -0.76897296917E-02  0.60262957523E-01  0.61312791579E-01  0.51109989000E-03 0.  1.
     -623    1    1    2    0    0 -0.82947063786E-02 -0.27612623407E-02  0.23335736984E-02  0.17130000024E+03  0.17130000000E+03 0.  1.
      622    1    1    2    0    0  0.33883420524E-04  0.10450992032E-01  0.39374034362E+01  0.39386869695E+01  0.10000000000E+00 0.  1.
</event>
<event>
 5   0  0.6262544E+06  0.9118800E+02  0.7818608E-02  0.1180000E+00
       11   -1    0    0    0    0  0.00000000000E+00  0.00000000000E+00  0.39999999673E+01  0.40000000000E+01  0.51109989000E-03 0. -1.
     -623   -1    0    0    0    0  0.00000000000E+00  0.00000000000E+00  0.12525980253E-10  0.17130000000E+03  0.17130000000E+03 0. -1.
       11    1    1    2    0    0  0.17525357975E-01 -0.11699854651E-02  0.10845526973E+00  0.10986953077E+00  0.51109989000E-03 0. -1.
     -623    1    1    2    0    0  0.31199130408E-02 -0.56245457006E-02  0.27606251784E-02  0.17130000014E+03  0.17130000000E+03 0. -1.
      622    1    1    2    0    0 -0.20645271016E-01  0.67945311658E-02  0.38887840725E+01  0.38901303263E+01  0.10000000000E+00 0. -1.
</event>
<event>
 5   0  0.6262544E+06  0.9118800E+02  0.7818608E-02  0.1180000E+00
       11   -1    0    0    0    0  0.00000000000E+00  0.00000000000E+00  0.39999999673E+01  0.40000000000E+01  0.51109989000E-03 0.  1.
     -623   -1    0    0    0    0  0.00000000000E+00  0.00000000000E+00  0.12525980253E-10  0.17130000000E+03  0.17130000000E+03 0.  1.
       11    1    1    2    0    0 -0.15344932750E-01  0.38123738927E-01  0.20191549667E+00  0.20605585517E+00  0.51109989000E-03 0.  1.
     -623    1    1    2    0    0  0.11766671411E-01  0.16435727443E-02  0.56691330804E-02  0.17130000051E+03  0.17130000000E+03 0.  1.
      622    1    1    2    0    0  0.35782613395E-02 -0.39767311672E-01  0.37924153376E+01  0.37939436390E+01  0.10000000000E+00 0.  1.
</event>
<event>
 5   0  0.6262544E+06  0.9118800E+02  0.7818608E-02  0.1180000E+00
       11   -1    0    0    0    0  0.00000000000E+00  0.00000000000E+00  0.39999999673E+01  0.40000000000E+01  0.51109989000E-03 0.  1.
     -623   -1    0    0    0    0  0.00000000000E+00  0.00000000000E+00  0.12525980253E-10  0.17130000000E+03  0.17130000000E+03 0.  1.
       11    1    1    2    0    0 -0.25811775761E-02 -0.63467421700E-02  0.21882810612E-01  0.22936046655E-01  0.51109989000E-03 0.  1.
     -623    1    1    2    0    0 -0.21650395710E-02 -0.65287400558E-03  0.23196362313E-02  0.17130000003E+03  0.17130000000E+03 0.  1.
      622    1    1    2    0    0  0.47462171470E-02  0.69996161756E-02  0.39757975205E+01  0.39770639227E+01  0.10000000000E+00 0.  1.
</event>
<event>
 5   0  0.6262544E+06  0.9118800E+02  0.7818608E-02  0.1180000E+00
       11   -1    0    0    0    0  0.00000000000E+00  0.00000000000E+00  0.39999999673E+01  0.40000000000E+01  0.51109989000E-03 0. -1.
     -623   -1    0    0    0    0  0.00000000000E+00  0.00000000000E+00  0.12525980253E-10  0.17130000000E+03  0.17130000000E+03 0. -1.
       11    1    1    2    0    0  0.12140635533E-02 -0.22741615917E-03  0.19118995787E-01  0.19165669523E-01  0.51109989000E-03 0. -1.
     -623    1    1    2    0    0  0.19546342946E-02 -0.12750992942E-02  0.13044234469E-02  0.17130000002E+03  0.17130000000E+03 0. -1.
      622    1    1    2    0    0 -0.31686978479E-02  0.15025154533E-02  0.39795765481E+01  0.39808343096E+01  0.10000000000E+00 0. -1.
</event>
<event>
 5   0  0.6262544E+06  0.9118800E+02  0.7818608E-02  0.1180000E+00
       11   -1    0    0    0    0  0.00000000000E+00  0.00000000000E+00  0.39999999673E+01  0.40000000000E+01  0.51109989000E-03 0.  1.
     -623   -1    0    0    0    0  0.00000000000E+00  0.00000000000E+00  0.12525980253E-10  0.17130000000E+03  0.17130000000E+03 0. -1.
       11    1    1    2    0    0 -0.21590109951E-01 -0.45526066180E-01  0.12688870782E+01  0.12698871737E+01  0.51109989000E-03 0.  1.
     -623    1    1    2    0    0  0.16411227088E-02 -0.17855755633E-01  0.36423593396E-02  0.17130000098E+03  0.17130000000E+03 0. -1.
      622    1    1    2    0    0  0.19948987242E-01  0.63381821813E-01  0.27274705298E+01  0.27301118491E+01  0.10000000000E+00 0.  0.
</event>
<event>
 5   0  0.6262544E+06  0.9118800E+02  0.7818608E-02  0.1180000E+00
       11   -1    0    0    0    0  0.00000000000E+00  0.00000000000E+00  0.39999999673E+01  0.40000000000E+01  0.51109989000E-03 0. -1.
     -623   -1    0    0    0    0  0.00000000000E+00  0.00000000000E+00  0.12525980253E-10  0.17130000000E+03  0.17130000000E+03 0.  1.
       11    1    1    2    0    0  0.74984004350E-02  0.17080591718E-02  0.37321743493E+00  0.37329701101E+00  0.51109989000E-03 0. -1.
     -623    1    1    2    0    0  0.92320025937E-02  0.54703125906E-02  0.15045225412E-02  0.17130000034E+03  0.17130000000E+03 0.  1.
      622    1    1    2    0    0 -0.16730403029E-01 -0.71783717625E-02  0.36252780099E+01  0.36267026463E+01  0.10000000000E+00 0. -1.
</event>
<event>
 5   0  0.6262544E+06  0.9118800E+02  0.7818608E-02  0.1180000E+00
       11   -1    0    0    0    0  0.00000000000E+00  0.00000000000E+00  0.39999999673E+01  0.40000000000E+01  0.51109989000E-03 0. -1.
     -623   -1    0    0    0    0  0.00000000000E+00  0.00000000000E+00  0.12525980253E-10  0.17130000000E+03  0.17130000000E+03 0. -1.
       11    1    1    2    0    0  0.71909448169E-02 -0.17486272785E-03  0.36676297779E-01  0.37378500588E-01  0.51109989000E-03 0. -1.
     -623    1    1    2    0    0 -0.33291431269E-02  0.22024544133E-01  0.20277638425E-02  0.17130000146E+03  0.17130000000E+03 0. -1.
      622    1    1    2    0    0 -0.38618016899E-02 -0.21849681405E-01  0.39612959057E+01  0.39626200392E+01  0.10000000000E+00 0. -1.
</event>
<event>
 5   0  0.6262544E+06  0.9118800E+02  0.7818608E-02  0.1180000E+00
       11   -1    0    0    0    0  0.00000000000E+00  0.00000000000E+00  0.39999999673E+01  0.40000000000E+01  0.51109989000E-03 0. -1.
     -623   -1    0    0    0    0  0.00000000000E+00  0.00000000000E+00  0.12525980253E-10  0.17130000000E+03  0.17130000000E+03 0.  1.
       11    1    1    2    0    0  0.52040952108E-02  0.63060687137E-02  0.19701820971E+00  0.19718845121E+00  0.51109989000E-03 0. -1.
     -623    1    1    2    0    0 -0.14815056239E-02 -0.15446823857E-01  0.14987747860E-02  0.17130000071E+03  0.17130000000E+03 0.  1.
      622    1    1    2    0    0 -0.37225895868E-02  0.91407551441E-02  0.38014829831E+01  0.38028108397E+01  0.10000000000E+00 0. -1.
</event>
<event>
 5   0  0.6262544E+06  0.9118800E+02  0.7818608E-02  0.1180000E+00
       11   -1    0    0    0    0  0.00000000000E+00  0.00000000000E+00  0.39999999673E+01  0.40000000000E+01  0.51109989000E-03 0. -1.
     -623   -1    0    0    0    0  0.00000000000E+00  0.00000000000E+00  0.12525980253E-10  0.17130000000E+03  0.17130000000E+03 0.  1.
       11    1    1    2    0    0  0.70118089858E-04 -0.58658789781E-04  0.42354484049E-04  0.52093608055E-03  0.51109989000E-03 0. -1.
     -623    1    1    2    0    0  0.76196162697E-03  0.10469298389E-03  0.17290045237E-02  0.17130000001E+03  0.17130000000E+03 0.  1.
      622    1    1    2    0    0 -0.83207971681E-03 -0.46034194107E-04  0.39982286083E+01  0.39994790534E+01  0.10000000000E+00 0. -1.
</event>
<event>
 5   0  0.6262544E+06  0.9118800E+02  0.7818608E-02  0.1180000E+00
       11   -1    0    0    0    0  0.00000000000E+00  0.00000000000E+00  0.39999999673E+01  0.40000000000E+01  0.51109989000E-03 0. -1.
     -623   -1    0    0    0    0  0.00000000000E+00  0.00000000000E+00  0.12525980253E-10  0.17130000000E+03  0.17130000000E+03 0. -1.
       11    1    1    2    0    0 -0.80980160602E-03 -0.55701715857E-01  0.63254506567E+00  0.63499358914E+00  0.51109989000E-03 0. -1.
     -623    1    1    2    0    0 -0.11386599412E-01  0.35449366563E-01  0.40218809656E-02  0.17130000409E+03  0.17130000000E+03 0. -1.
      622    1    1    2    0    0  0.12196401018E-01  0.20252349294E-01  0.33634330207E+01  0.33650023172E+01  0.10000000000E+00 0. -1.
</event>
<event>
 5   0  0.6262544E+06  0.9118800E+02  0.7818608E-02  0.1180000E+00
       11   -1    0    0    0    0  0.00000000000E+00  0.00000000000E+00  0.39999999673E+01  0.40000000000E+01  0.51109989000E-03 0. -1.
     -623   -1    0    0    0    0  0.00000000000E+00  0.00000000000E+00  0.12525980253E-10  0.17130000000E+03  0.17130000000E+03 0. -1.
       11    1    1    2    0    0 -0.34865580979E-02 -0.17274673794E-02  0.70912590801E-02  0.81047769467E-02  0.51109989000E-03 0. -1.
     -623    1    1    2    0    0  0.33078671000E-02  0.36020931531E-02  0.22667488207E-02  0.17130000008E+03  0.17130000000E+03 0. -1.
      622    1    1    2    0    0  0.17869099774E-03 -0.18746257738E-02  0.39906419596E+01  0.39918951384E+01  0.10000000000E+00 0. -1.
</event>
<event>
 5   0  0.6262544E+06  0.9118800E+02  0.7818608E-02  0.1180000E+00
       11   -1    0    0    0    0  0.00000000000E+00  0.00000000000E+00  0.39999999673E+01  0.40000000000E+01  0.51109989000E-03 0. -1.
     -623   -1    0    0    0    0  0.00000000000E+00  0.00000000000E+00  0.12525980253E-10  0.17130000000E+03  0.17130000000E+03 0.  1.
       11    1    1    2    0    0 -0.86040579613E-02  0.50092602879E-01  0.64189237847E+00  0.64390168926E+00  0.51109989000E-03 0. -1.
     -623    1    1    2    0    0 -0.99093248582E-03 -0.77411722365E-02  0.37807278850E-02  0.17130000022E+03  0.17130000000E+03 0.  1.
      622    1    1    2    0    0  0.95949904472E-02 -0.42351430642E-01  0.33543268611E+01  0.33560980913E+01  0.10000000000E+00 0. -1.
</event>
<event>
 5   0  0.6262544E+06  0.9118800E+02  0.7818608E-02  0.1180000E+00
       11   -1    0    0    0    0  0.00000000000E+00  0.00000000000E+00  0.39999999673E+01  0.40000000000E+01  0.51109989000E-03 0.  1.
     -623   -1    0    0    0    0  0.00000000000E+00  0.00000000000E+00  0.12525980253E-10  0.17130000000E+03  0.17130000000E+03 0. -1.
       11    1    1    2    0    0  0.18985782370E+00  0.12564728645E-01  0.15838369476E+01  0.15952252516E+01  0.51109989000E-03 0.  1.
     -623    1    1    2    0    0 -0.12294154352E-01  0.24301176631E-01  0.20325498770E-01  0.17130000337E+03  0.17130000000E+03 0. -1.
      622    1    1    2    0    0 -0.17756366935E+00 -0.36865905276E-01  0.23958375210E+01  0.24047713776E+01  0.10000000000E+00 0.  1.
</event>
<event>
 5   0  0.6262544E+06  0.9118800E+02  0.7818608E-02  0.1180000E+00
       11   -1    0    0    0    0  0.00000000000E+00  0.00000000000E+00  0.39999999673E+01  0.40000000000E+01  0.51109989000E-03 0.  1.
     -623   -1    0    0    0    0  0.00000000000E+00  0.00000000000E+00  0.12525980253E-10  0.17130000000E+03  0.17130000000E+03 0.  1.
       11    1    1    2    0    0  0.21678277880E-01  0.42373864347E-02  0.79501303617E+00  0.79531999352E+00  0.51109989000E-03 0.  1.
     -623    1    1    2    0    0 -0.35599036858E-03 -0.26064056217E-02  0.19389383944E-02  0.17130000003E+03  0.17130000000E+03 0.  1.
      622    1    1    2    0    0 -0.21322287512E-01 -0.16309808130E-02  0.32030479928E+01  0.32046799753E+01  0.10000000000E+00 0. -1.
</event>
<event>
 5   0  0.6262544E+06  0.9118800E+02  0.7818608E-02  0.1180000E+00
       11   -1    0    0    0    0  0.00000000000E+00  0.00000000000E+00  0.39999999673E+01  0.40000000000E+01  0.51109989000E-03 0. -1.
     -623   -1    0    0    0    0  0.00000000000E+00  0.00000000000E+00  0.12525980253E-10  0.17130000000E+03  0.17130000000E+03 0. -1.
       11    1    1    2    0    0 -0.38908926322E-01  0.21016825477E-01  0.78793286051E+00  0.78917302628E+00  0.51109989000E-03 0. -1.
     -623    1    1    2    0    0  0.15572632477E-01  0.15585172068E-01  0.30927709080E-02  0.17130000144E+03  0.17130000000E+03 0. -1.
      622    1    1    2    0    0  0.23336293845E-01 -0.36601997546E-01  0.32089743359E+01  0.32108255290E+01  0.10000000000E+00 0. -1.
</event>
<event>
 5   0  0.6262544E+06  0.9118800E+02  0.7818608E-02  0.1180000E+00
       11   -1    0    0    0    0  0.00000000000E+00  0.00000000000E+00  0.39999999673E+01  0.40000000000E+01  0.51109989000E-03 0. -1.
     -623   -1    0    0    0    0  0.00000000000E+00  0.00000000000E+00  0.12525980253E-10  0.17130000000E+03  0.17130000000E+03 0. -1.
       11    1    1    2    0    0  0.27634044886E-01 -0.10297758552E-01  0.94429771977E+00  0.94475823841E+00  0.51109989000E-03 0. -1.
     -623    1    1    2    0    0 -0.99597893574E-03  0.22797528596E-02  0.22242063828E-02  0.17130000003E+03  0.17130000000E+03 0. -1.
      622    1    1    2    0    0 -0.26638065950E-01  0.80180056928E-02  0.30534780412E+01  0.30552417291E+01  0.10000000000E+00 0.  1.
</event>
<event>
 5   0  0.6262544E+06  0.9118800E+02  0.7818608E-02  0.1180000E+00
       11   -1    0    0    0    0  0.00000000000E+00  0.00000000000E+00  0.39999999673E+01  0.40000000000E+01  0.51109989000E-03 0.  1.
     -623   -1    0    0    0    0  0.00000000000E+00  0.00000000000E+00  0.12525980253E-10  0.17130000000E+03  0.17130000000E+03 0.  1.
       11    1    1    2    0    0 -0.60881462904E-02  0.22964882446E-02  0.80457662790E-02  0.10360258762E-01  0.51109989000E-03 0.  1.
     -623    1    1    2    0    0  0.53377574157E-02 -0.36391437106E-02  0.35683583531E-02  0.17130000016E+03  0.17130000000E+03 0.  1.
      622    1    1    2    0    0  0.75038887456E-03  0.13426554660E-02  0.39883858428E+01  0.39896395823E+01  0.10000000000E+00 0.  1.
</event>
<event>
 5   0  0.6262544E+06  0.9118800E+02  0.7818608E-02  0.1180000E+00
       11   -1    0    0    0    0  0.00000000000E+00  0.00000000000E+00  0.39999999673E+01  0.40000000000E+01  0.51109989000E-03 0.  1.
     -623   -1    0    0    0    0  0.00000000000E+00  0.00000000000E+00  0.12525980253E-10  0.17130000000E+03  0.17130000000E+03 0. -1.
       11    1    1    2    0    0  0.91892011711E-02 -0.43720718535E-01  0.75293496323E+00  0.75425941342E+00  0.51109989000E-03 0.  1.
     -623    1    1    2    0    0  0.33119194764E-02  0.86686725045E-03  0.31724639786E-02  0.17130000006E+03  0.17130000000E+03 0. -1.
      622    1    1    2    0    0 -0.12501120648E-01  0.42853851284E-01  0.32438925402E+01  0.32457405231E+01  0.10000000000E+00 0.  1.
</event>
<event>
 5   0  0.6262544E+06  0.9118800E+02  0.7818608E-02  0.1180000E+00
       11   -1    0    0    0    0  0.00000000000E+00  0.00000000000E+00  0.39999999673E+01  0.40000000000E+01  0.51109989000E-03 0. -1.
     -623   -1    0    0    0    0  0.00000000000E+00  0.00000000000E+00  0.12525980253E-10  0.17130000000E+03  0.17130000000E+03 0. -1.
       11    1    1    2    0    0  0.56235836772E-02  0.78461659816E-02  0.59244014778E-02  0.11337846795E-01  0.51109989000E-03 0. -1.
     -623    1    1    2    0    0 -0.28219103844E-03 -0.22134378855E-01  0.66979019794E-02  0.17130000156E+03  0.17130000000E+03 0. -1.
      622    1    1    2    0    0 -0.53413926387E-02  0.14288212873E-01  0.39873776639E+01  0.39886605920E+01  0.10000000000E+00 0. -1.
</event>
<event>
 5   0  0.6262544E+06  0.9118800E+02  0.7818608E-02  0.1180000E+00
       11   -1    0    0    0    0  0.00000000000E+00  0.00000000000E+00  0.39999999673E+01  0.40000000000E+01  0.51109989000E-03 0. -1.
     -623   -1    0    0    0    0  0.00000000000E+00  0.00000000000E+00  0.12525980253E-10  0.17130000000E+03  0.17130000000E+03 0.  1.
       11    1    1    2    0    0  0.65713718508E-03  0.93008702015E-03 -0.38184658899E-06  0.12482445227E-02  0.51109989000E-03 0. -1.
     -623    1    1    2    0    0 -0.39924104599E-02 -0.20050739598E-02  0.25007919370E-02  0.17130000008E+03  0.17130000000E+03 0.  1.
      622    1    1    2    0    0  0.33352732749E-02  0.10749869397E-02  0.39974995573E+01  0.39987516790E+01  0.10000000000E+00 0. -1.
</event>
<event>
 5   0  0.6262544E+06  0.9118800E+02  0.7818608E-02  0.1180000E+00
       11   -1    0    0    0    0  0.00000000000E+00  0.00000000000E+00  0.39999999673E+01  0.40000000000E+01  0.51109989000E-03 0.  1.
     -623   -1    0    0    0    0  0.00000000000E+00  0.00000000000E+00  0.12525980253E-10  0.17130000000E+03  0.17130000000E+03 0.  1.
       11    1    1    2    0    0  0.35341345190E-02 -0.11316774437E-02  0.16208699887E-01  0.16635924165E-01  0.51109989000E-03 0.  1.
     -623    1    1    2    0    0 -0.28402439026E-02 -0.53200598562E-02  0.16880113705E-02  0.17130000011E+03  0.17130000000E+03 0.  1.
      622    1    1    2    0    0 -0.69389061640E-03  0.64517372998E-02  0.39821032561E+01  0.39833639614E+01  0.10000000000E+00 0.  1.
</event>
<event>
 5   0  0.6262544E+06  0.9118800E+02  0.7818608E-02  0.1180000E+00
       11   -1    0    0    0    0  0.00000000000E+00  0.00000000000E+00  0.39999999673E+01  0.40000000000E+01  0.51109989000E-03 0. -1.
     -623   -1    0    0    0    0  0.00000000000E+00  0.00000000000E+00  0.12525980253E-10  0.17130000000E+03  0.17130000000E+03 0.  1.
       11    1    1    2    0    0 -0.24827198373E-01  0.13667035875E-01  0.52118751246E+00  0.52195772052E+00  0.51109989000E-03 0. -1.
     -623    1    1    2    0    0  0.12805606588E-01  0.18286513795E-01  0.23771662656E-02  0.17130000147E+03  0.17130000000E+03 0.  1.
      622    1    1    2    0    0  0.12021591784E-01 -0.31953549670E-01  0.34764352889E+01  0.34780408085E+01  0.10000000000E+00 0. -1.
</event>
<event>
 5   0  0.6262544E+06  0.9118800E+02  0.7818608E-02  0.1180000E+00
       11   -1    0    0    0    0  0.00000000000E+00  0.00000000000E+00  0.39999999673E+01  0.40000000000E+01  0.51109989000E-03 0. -1.
     -623   -1    0    0    0    0  0.00000000000E+00  0.00000000000E+00  0.12525980253E-10  0.17130000000E+03  0.17130000000E+03 0.  1.
       11    1    1    2    0    0 -0.16698107721E-01 -0.56372415267E-02  0.14458752571E-01  0.22801799106E-01  0.51109989000E-03 0. -1.
     -623    1    1    2    0    0 -0.70314601632E-02 -0.34266579151E-02  0.96819761412E-02  0.17130000045E+03  0.17130000000E+03 0.  1.
      622    1    1    2    0    0  0.23729567884E-01  0.90638994418E-02  0.39758592387E+01  0.39771977487E+01  0.10000000000E+00 0. -1.
</event>
<event>
 5   0  0.6262544E+06  0.9118800E+02  0.7818608E-02  0.1180000E+00
       11   -1    0    0    0    0  0.00000000000E+00  0.00000000000E+00  0.39999999673E+01  0.40000000000E+01  0.51109989000E-03 0. -1.
     -623   -1    0    0    0    0  0.00000000000E+00  0.00000000000E+00  0.12525980253E-10  0.17130000000E+03  0.17130000000E+03 0. -1.
       11    1    1    2    0    0  0.41359680710E-02 -0.10438569518E-02  0.19739520735E-01  0.20201627933E-01  0.51109989000E-03 0. -1.
     -623    1    1    2    0    0 -0.22759279860E-02  0.36197039418E-02  0.17199486418E-02  0.17130000006E+03  0.17130000000E+03 0. -1.
      622    1    1    2    0    0 -0.18600400849E-02 -0.25758469900E-02  0.39785404981E+01  0.39797983102E+01  0.10000000000E+00 0. -1.
</event>
<event>
 5   0  0.6262544E+06  0.9118800E+02  0.7818608E-02  0.1180000E+00
       11   -1    0    0    0    0  0.00000000000E+00  0.00000000000E+00  0.39999999673E+01  0.40000000000E+01  0.51109989000E-03 0. -1.
     -623   -1    0    0    0    0  0.00000000000E+00  0.00000000000E+00  0.12525980253E-10  0.17130000000E+03  0.17130000000E+03 0. -1.
       11    1    1    2    0    0 -0.90475527278E-02 -0.28616928861E-02  0.12352835264E+00  0.12389335182E+00  0.51109989000E-03 0. -1.
     -623    1    1    2    0    0  0.42713777537E-01 -0.53596396425E-03  0.18082195923E-02  0.17130000534E+03  0.17130000000E+03 0. -1.
      622    1    1    2    0    0 -0.33666224811E-01  0.33976568504E-02  0.38746633953E+01  0.38761013126E+01  0.10000000000E+00 0. -1.
</event>
<event>
 5   0  0.6262544E+06  0.9118800E+02  0.7818608E-02  0.1180000E+00
       11   -1    0    0    0    0  0.00000000000E+00  0.00000000000E+00  0.39999999673E+01  0.40000000000E+01  0.51109989000E-03 0.  1.
     -623   -1    0    0    0    0  0.00000000000E+00  0.00000000000E+00  0.12525980253E-10  0.17130000000E+03  0.17130000000E+03 0. -1.
       11    1    1    2    0    0 -0.26572655404E-02  0.79245790751E-04 -0.12211883151E-02  0.29698255918E-02  0.51109989000E-03 0.  1.
     -623    1    1    2    0    0  0.34968247945E-02  0.29963601185E-02  0.54435261403E-02  0.17130000015E+03  0.17130000000E+03 0. -1.
      622    1    1    2    0    0 -0.83955925407E-03 -0.30756059092E-02  0.39957776295E+01  0.39970300260E+01  0.10000000000E+00 0.  1.
</event>
<event>
 5   0  0.6262544E+06  0.9118800E+02  0.7818608E-02  0.1180000E+00
       11   -1    0    0    0    0  0.00000000000E+00  0.00000000000E+00  0.39999999673E+01  0.40000000000E+01  0.51109989000E-03 0. -1.
     -623   -1    0    0    0    0  0.00000000000E+00  0.00000000000E+00  0.12525980253E-10  0.17130000000E+03  0.17130000000E+03 0. -1.
       11    1    1    2    0    0 -0.15200203774E-02 -0.66639901303E-02  0.16430707224E+00  0.16444997549E+00  0.51109989000E-03 0. -1.
     -623    1    1    2    0    0  0.48703610475E-02  0.15151448313E-01  0.14582896352E-02  0.17130000075E+03  0.17130000000E+03 0. -1.
      622    1    1    2    0    0 -0.33503406702E-02 -0.84874581833E-02  0.38342346056E+01  0.38355492791E+01  0.10000000000E+00 0. -1.
</event>
<event>
 5   0  0.6262544E+06  0.9118800E+02  0.7818608E-02  0.1180000E+00
       11   -1    0    0    0    0  0.00000000000E+00  0.00000000000E+00  0.39999999673E+01  0.40000000000E+01  0.51109989000E-03 0. -1.
     -623   -1    0    0    0    0  0.00000000000E+00  0.00000000000E+00  0.12525980253E-10  0.17130000000E+03  0.17130000000E+03 0.  1.
       11    1    1    2    0    0 -0.12800776166E-01 -0.10300179331E-01  0.30554798207E+00  0.30598984319E+00  0.51109989000E-03 0. -1.
     -623    1    1    2    0    0 -0.26413346722E-02  0.18783354540E-02  0.18375519860E-02  0.17130000004E+03  0.17130000000E+03 0.  1.
      622    1    1    2    0    0  0.15442110838E-01  0.84218438773E-02  0.36926144333E+01  0.36940101163E+01  0.10000000000E+00 0. -1.
</event>
<event>
 5   0  0.6262544E+06  0.9118800E+02  0.7818608E-02  0.1180000E+00
       11   -1    0    0    0    0  0.00000000000E+00  0.00000000000E+00  0.39999999673E+01  0.40000000000E+01  0.51109989000E-03 0. -1.
     -623   -1    0    0    0    0  0.00000000000E+00  0.00000000000E+00  0.12525980253E-10  0.17130000000E+03  0.17130000000E+03 0.  1.
       11    1    1    2    0    0  0.40425495349E-02  0.41331043446E-01  0.37821741628E+00  0.38049083111E+00  0.51109989000E-03 0. -1.
     -623    1    1    2    0    0 -0.15905072912E-01 -0.31745546142E-02  0.38765115438E-02  0.17130000081E+03  0.17130000000E+03 0.  1.
      622    1    1    2    0    0  0.11862523378E-01 -0.38156488832E-01  0.36179060396E+01  0.36195083573E+01  0.10000000000E+00 0. -1.
</event>
<event>
 5   0  0.6262544E+06  0.9118800E+02  0.7818608E-02  0.1180000E+00
       11   -1    0    0    0    0  0.00000000000E+00  0.00000000000E+00  0.39999999673E+01  0.40000000000E+01  0.51109989000E-03 0. -1.
     -623   -1    0    0    0    0  0.00000000000E+00  0.00000000000E+00  0.12525980253E-10  0.17130000000E+03  0.17130000000E+03 0. -1.
       11    1    1    2    0    0 -0.41645054230E-02  0.84452931987E-02  0.57697516537E+00  0.57705222360E+00  0.51109989000E-03 0. -1.
     -623    1    1    2    0    0  0.80782247151E-04 -0.37453285794E-02  0.15437797616E-02  0.17130000005E+03  0.17130000000E+03 0. -1.
      622    1    1    2    0    0  0.40837231758E-02 -0.46999646193E-02  0.34214810222E+01  0.34229477285E+01  0.10000000000E+00 0. -1.
</event>
<event>
 5   0  0.6262544E+06  0.9118800E+02  0.7818608E-02  0.1180000E+00
       11   -1    0    0    0    0  0.00000000000E+00  0.00000000000E+00  0.39999999673E+01  0.40000000000E+01  0.51109989000E-03 0. -1.
     -623   -1    0    0    0    0  0.00000000000E+00  0.00000000000E+00  0.12525980253E-10  0.17130000000E+03  0.17130000000E+03 0. -1.
       11    1    1    2    0    0 -0.24844677226E-02  0.38536985396E-02  0.37517960599E-01  0.37800557707E-01  0.51109989000E-03 0. -1.
     -623    1    1    2    0    0 -0.29340643447E-02  0.68106821356E-03  0.15510264963E-02  0.17130000003E+03  0.17130000000E+03 0. -1.
      622    1    1    2    0    0  0.54185320673E-02 -0.45347667532E-02  0.39609309804E+01  0.39621994089E+01  0.10000000000E+00 0. -1.
</event>
<event>
 5   0  0.6262544E+06  0.9118800E+02  0.7818608E-02  0.1180000E+00
       11   -1    0    0    0    0  0.00000000000E+00  0.00000000000E+00  0.39999999673E+01  0.40000000000E+01  0.51109989000E-03 0.  1.
     -623   -1    0    0    0    0  0.00000000000E+00  0.00000000000E+00  0.12525980253E-10  0.17130000000E+03  0.17130000000E+03 0. -1.
       11    1    1    2    0    0  0.38799764692E-03 -0.13787081660E-02  0.14310766085E+00  0.14311574056E+00  0.51109989000E-03 0.  1.
     -623    1    1    2    0    0 -0.67760250974E-03  0.82350119830E-04  0.13048833681E-02  0.17130000001E+03  0.17130000000E+03 0. -1.
      622    1    1    2    0    0  0.28960486282E-03  0.12963580462E-02  0.38555874232E+01  0.38568842531E+01  0.10000000000E+00 0.  1.
</event>
<event>
 5   0  0.6262544E+06  0.9118800E+02  0.7818608E-02  0.1180000E+00
       11   -1    0    0    0    0  0.00000000000E+00  0.00000000000E+00  0.39999999673E+01  0.40000000000E+01  0.51109989000E-03 0. -1.
     -623   -1    0    0    0    0  0.00000000000E+00  0.00000000000E+00  0.12525980253E-10  0.17130000000E+03  0.17130000000E+03 0. -1.
       11    1    1    2    0    0 -0.13268215750E-01  0.29682691221E-02  0.24948214991E-01  0.28417086825E-01  0.51109989000E-03 0. -1.
     -623    1    1    2    0    0 -0.17455775519E-01 -0.14010779148E-01  0.48637503601E-02  0.17130000153E+03  0.17130000000E+03 0. -1.
      622    1    1    2    0    0  0.30723991270E-01  0.11042510026E-01  0.39701880020E+01  0.39715813818E+01  0.10000000000E+00 0. -1.
</event>
<event>
 5   0  0.6262544E+06  0.9118800E+02  0.7818608E-02  0.1180000E+00
       11   -1    0    0    0    0  0.00000000000E+00  0.00000000000E+00  0.39999999673E+01  0.40000000000E+01  0.51109989000E-03 0.  1.
     -623   -1    0    0    0    0  0.00000000000E+00  0.00000000000E+00  0.12525980253E-10  0.17130000000E+03  0.17130000000E+03 0.  1.
       11    1    1    2    0    0  0.11546179177E-02 -0.52566939348E-03  0.66755671868E-02  0.68142417928E-02  0.51109989000E-03 0.  1.
     -623    1    1    2    0    0  0.28047829283E-03 -0.62745882061E-02  0.13971423887E-02  0.17130000012E+03  0.17130000000E+03 0.  1.
      622    1    1    2    0    0 -0.14350962105E-02  0.68002576001E-02  0.39919272581E+01  0.39931856377E+01  0.10000000000E+00 0.  1.
</event>
<event>
 5   0  0.6262544E+06  0.9118800E+02  0.7818608E-02  0.1180000E+00
       11   -1    0    0    0    0  0.00000000000E+00  0.00000000000E+00  0.39999999673E+01  0.40000000000E+01  0.51109989000E-03 0.  1.
     -623   -1    0    0    0    0  0.00000000000E+00  0.00000000000E+00  0.12525980253E-10  0.17130000000E+03  0.17130000000E+03 0.  1.
       11    1    1    2    0    0  0.34573742362E-02 -0.51139745274E-02  0.15202643363E-01  0.16416082365E-01  0.51109989000E-03 0.  1.
     -623    1    1    2    0    0 -0.88571535062E-02  0.47840288899E-02  0.24727436046E-02  0.17130000031E+03  0.17130000000E+03 0.  1.
      622    1    1    2    0    0  0.53997792700E-02  0.32994563745E-03  0.39823245804E+01  0.39835836040E+01  0.10000000000E+00 0.  1.
</event>
<event>
 5   0  0.6262544E+06  0.9118800E+02  0.7818608E-02  0.1180000E+00
       11   -1    0    0    0    0  0.00000000000E+00  0.00000000000E+00  0.39999999673E+01  0.40000000000E+01  0.51109989000E-03 0.  1.
     -623   -1    0    0    0    0  0.00000000000E+00  0.00000000000E+00  0.12525980253E-10  0.17130000000E+03  0.17130000000E+03 0.  1.
       11    1    1    2    0    0 -0.29523161185E-01 -0.76027224911E-01  0.33429764799E+01  0.33439712562E+01  0.51109989000E-03 0.  1.
     -623    1    1    2    0    0  0.25317447041E-02  0.44989101890E-01  0.99735247985E-02  0.17130000622E+03  0.17130000000E+03 0.  1.
      622    1    1    2    0    0  0.26991416481E-01  0.31038123021E-01  0.64704996271E+00  0.65602252696E+00  0.10000000000E+00 0.  0.
</event>
<event>
 5   0  0.6262544E+06  0.9118800E+02  0.7818608E-02  0.1180000E+00
       11   -1    0    0    0    0  0.00000000000E+00  0.00000000000E+00  0.39999999673E+01  0.40000000000E+01  0.51109989000E-03 0.  1.
     -623   -1    0    0    0    0  0.00000000000E+00  0.00000000000E+00  0.12525980253E-10  0.17130000000E+03  0.17130000000E+03 0. -1.
       11    1    1    2    0    0 -0.85382082844E-01  0.20657916665E-01  0.77330878738E+00  0.77828246251E+00  0.51109989000E-03 0.  1.
     -623    1    1    2    0    0  0.13005198643E-01  0.17821829509E-02  0.74183359698E-02  0.17130000066E+03  0.17130000000E+03 0. -1.
      622    1    1    2    0    0  0.72376884201E-01 -0.22440099616E-01  0.32192728440E+01  0.32217168739E+01  0.10000000000E+00 0.  1.
</event>
<event>
 5   0  0.6262544E+06  0.9118800E+02  0.7818608E-02  0.1180000E+00
       11   -1    0    0    0    0  0.00000000000E+00  0.00000000000E+00  0.39999999673E+01  0.40000000000E+01  0.51109989000E-03 0. -1.
     -623   -1    0    0    0    0  0.00000000000E+00  0.00000000000E+00  0.12525980253E-10  0.17130000000E+03  0.17130000000E+03 0.  1.
       11    1    1    2    0    0  0.29177890844E-01  0.14138253520E-01  0.29977336510E+00  0.30152209069E+00  0.51109989000E-03 0. -1.
     -623    1    1    2    0    0 -0.79398943124E-02  0.12000355843E-01  0.32548864933E-02  0.17130000064E+03  0.17130000000E+03 0.  1.
      622    1    1    2    0    0 -0.21237996532E-01 -0.26138609363E-01  0.36969717158E+01  0.36984772740E+01  0.10000000000E+00 0. -1.
</event>
<event>
 5   0  0.6262544E+06  0.9118800E+02  0.7818608E-02  0.1180000E+00
       11   -1    0    0    0    0  0.00000000000E+00  0.00000000000E+00  0.39999999673E+01  0.40000000000E+01  0.51109989000E-03 0. -1.
     -623   -1    0    0    0    0  0.00000000000E+00  0.00000000000E+00  0.12525980253E-10  0.17130000000E+03  0.17130000000E+03 0.  1.
       11    1    1    2    0    0 -0.16082344687E-01  0.82205489723E-02  0.86566303190E+00  0.86585158385E+00  0.51109989000E-03 0. -1.
     -623    1    1    2    0    0 -0.20546895599E-02 -0.28521532921E-02  0.18414071872E-02  0.17130000005E+03  0.17130000000E+03 0.  1.
      622    1    1    2    0    0  0.18137034247E-01 -0.53683956802E-02  0.31324955283E+01  0.31341483702E+01  0.10000000000E+00 0. -1.
</event>
<event>
 5   0  0.6262544E+06  0.9118800E+02  0.7818608E-02  0.1180000E+00
       11   -1    0    0    0    0  0.00000000000E+00  0.00000000000E+00  0.39999999673E+01  0.40000000000E+01  0.51109989000E-03 0.  1.
     -623   -1    0    0    0    0  0.00000000000E+00  0.00000000000E+00  0.12525980253E-10  0.17130000000E+03  0.17130000000E+03 0. -1.
       11    1    1    2    0    0  0.10072712942E-01 -0.88463211063E-02  0.30571971086E+00  0.30601392088E+00  0.51109989000E-03 0.  1.
     -623    1    1    2    0    0  0.34848846716E-02  0.17619933994E-01  0.16842387904E-02  0.17130000095E+03  0.17130000000E+03 0. -1.
      622    1    1    2    0    0 -0.13557597613E-01 -0.87736128877E-02  0.36925960177E+01  0.36939851292E+01  0.10000000000E+00 0.  1.
</event>
<event>
 5   0  0.6262544E+06  0.9118800E+02  0.7818608E-02  0.1180000E+00
       11   -1    0    0    0    0  0.00000000000E+00  0.00000000000E+00  0.39999999673E+01  0.40000000000E+01  0.51109989000E-03 0.  1.
     -623   -1    0    0    0    0  0.00000000000E+00  0.00000000000E+00  0.12525980253E-10  0.17130000000E+03  0.17130000000E+03 0. -1.
       11    1    1    2    0    0  0.24695484727E-01 -0.27412948669E-01  0.23576339496E+00  0.23863356081E+00  0.51109989000E-03 0.  1.
     -623    1    1    2    0    0  0.24745657707E-02 -0.61093814118E-05  0.43978904478E-02  0.17130000007E+03  0.17130000000E+03 0. -1.
      622    1    1    2    0    0 -0.27170050498E-01  0.27419058050E-01  0.37598386819E+01  0.37613663649E+01  0.10000000000E+00 0.  1.
</event>
<event>
 5   0  0.6262544E+06  0.9118800E+02  0.7818608E-02  0.1180000E+00
       11   -1    0    0    0    0  0.00000000000E+00  0.00000000000E+00  0.39999999673E+01  0.40000000000E+01  0.51109989000E-03 0. -1.
     -623   -1    0    0    0    0  0.00000000000E+00  0.00000000000E+00  0.12525980253E-10  0.17130000000E+03  0.17130000000E+03 0. -1.
       11    1    1    2    0    0 -0.65174693566E-02 -0.28042715314E-01  0.45041224834E-01  0.53458810748E-01  0.51109989000E-03 0. -1.
     -623    1    1    2    0    0  0.17354411347E-01  0.66282182391E-02  0.97589765542E-02  0.17130000129E+03  0.17130000000E+03 0. -1.
      622    1    1    2    0    0 -0.10836941991E-01  0.21414497075E-01  0.39451997660E+01  0.39465399040E+01  0.10000000000E+00 0. -1.
</event>
<event>
 5   0  0.6262544E+06  0.9118800E+02  0.7818608E-02  0.1180000E+00
       11   -1    0    0    0    0  0.00000000000E+00  0.00000000000E+00  0.39999999673E+01  0.40000000000E+01  0.51109989000E-03 0.  1.
     -623   -1    0    0    0    0  0.00000000000E+00  0.00000000000E+00  0.12525980253E-10  0.17130000000E+03  0.17130000000E+03 0. -1.
       11    1    1    2    0    0 -0.76129635118E-02 -0.25129204568E-01  0.17457706874E+01  0.17459682094E+01  0.51109989000E-03 0.  1.
     -623    1    1    2    0    0 -0.30096599242E-02  0.40745614783E-02  0.25404133072E-02  0.17130000009E+03  0.17130000000E+03 0. -1.
      622    1    1    2    0    0  0.10622623436E-01  0.21054643089E-01  0.22516888667E+01  0.22540316969E+01  0.10000000000E+00 0.  1.
</event>
<event>
 5   0  0.6262544E+06  0.9118800E+02  0.7818608E-02  0.1180000E+00
       11   -1    0    0    0    0  0.00000000000E+00  0.00000000000E+00  0.39999999673E+01  0.40000000000E+01  0.51109989000E-03 0.  1.
     -623   -1    0    0    0    0  0.00000000000E+00  0.00000000000E+00  0.12525980253E-10  0.17130000000E+03  0.17130000000E+03 0.  1.
       11    1    1    2    0    0  0.11677968523E-01  0.69757685835E-02  0.10936067303E+01  0.10936914456E+01  0.51109989000E-03 0.  1.
     -623    1    1    2    0    0  0.61973867005E-02  0.44913446704E-01  0.23301477920E-02  0.17130000602E+03  0.17130000000E+03 0.  1.
      622    1    1    2    0    0 -0.17875355224E-01 -0.51889215288E-01  0.29040630894E+01  0.29063025386E+01  0.10000000000E+00 0.  0.
</event>
<event>
 5   0  0.6262544E+06  0.9118800E+02  0.7818608E-02  0.1180000E+00
       11   -1    0    0    0    0  0.00000000000E+00  0.00000000000E+00  0.39999999673E+01  0.40000000000E+01  0.51109989000E-03 0.  1.
     -623   -1    0    0    0    0  0.00000000000E+00  0.00000000000E+00  0.12525980253E-10  0.17130000000E+03  0.17130000000E+03 0.  1.
       11    1    1    2    0    0  0.70515455436E-02  0.25413630141E-02  0.27802933280E+00  0.27813082163E+00  0.51109989000E-03 0.  1.
     -623    1    1    2    0    0  0.96790812084E-02 -0.84310673821E-02  0.14878768523E-02  0.17130000049E+03  0.17130000000E+03 0.  1.
      622    1    1    2    0    0 -0.16730626752E-01  0.58897043680E-02  0.37204827577E+01  0.37218686910E+01  0.10000000000E+00 0.  1.
</event>
<event>
 5   0  0.6262544E+06  0.9118800E+02  0.7818608E-02  0.1180000E+00
       11   -1    0    0    0    0  0.00000000000E+00  0.00000000000E+00  0.39999999673E+01  0.40000000000E+01  0.51109989000E-03 0. -1.
     -623   -1    0    0    0    0  0.00000000000E+00  0.00000000000E+00  0.12525980253E-10  0.17130000000E+03  0.17130000000E+03 0.  1.
       11    1    1    2    0    0  0.33012974221E-02  0.95658537591E-03  0.32569125070E-01  0.32753973039E-01  0.51109989000E-03 0. -1.
     -623    1    1    2    0    0 -0.80046663565E-02 -0.73900895999E-02  0.14536954740E-02  0.17130000035E+03  0.17130000000E+03 0.  1.
      622    1    1    2    0    0  0.47033689344E-02  0.64335042240E-02  0.39659771468E+01  0.39672456744E+01  0.10000000000E+00 0. -1.
</event>
<event>
 5   0  0.6262544E+06  0.9118800E+02  0.7818608E-02  0.1180000E+00
       11   -1    0    0    0    0  0.00000000000E+00  0.00000000000E+00  0.39999999673E+01  0.40000000000E+01  0.51109989000E-03 0.  1.
     -623   -1    0    0    0    0  0.00000000000E+00  0.00000000000E+00  0.12525980253E-10  0.17130000000E+03  0.17130000000E+03 0. -1.
       11    1    1    2    0    0 -0.17215522115E-01 -0.13008248642E-01  0.20965943518E+00  0.21076747547E+00  0.51109989000E-03 0.  1.
     -623    1    1    2    0    0 -0.16026965143E-02  0.16182295235E-02  0.24916683816E-02  0.17130000003E+03  0.17130000000E+03 0. -1.
      622    1    1    2    0    0  0.18818218629E-01  0.11390019119E-01  0.37878488638E+01  0.37892324913E+01  0.10000000000E+00 0.  1.
</event>
<event>
 5   0  0.6262544E+06  0.9118800E+02  0.7818608E-02  0.1180000E+00
       11   -1    0    0    0    0  0.00000000000E+00  0.00000000000E+00  0.39999999673E+01  0.40000000000E+01  0.51109989000E-03 0. -1.
     -623   -1    0    0    0    0  0.00000000000E+00  0.00000000000E+00  0.12525980253E-10  0.17130000000E+03  0.17130000000E+03 0.  1.
       11    1    1    2    0    0  0.73728663981E-03 -0.56016902825E-03  0.11575173423E-01  0.11623392063E-01  0.51109989000E-03 0. -1.
     -623    1    1    2    0    0 -0.16538049043E-02  0.24907408984E-02  0.13026297692E-02  0.17130000003E+03  0.17130000000E+03 0.  1.
      622    1    1    2    0    0  0.91651826449E-03 -0.19305718702E-02  0.39871221642E+01  0.39883765769E+01  0.10000000000E+00 0. -1.
</event>
<event>
 5   0  0.6262544E+06  0.9118800E+02  0.7818608E-02  0.1180000E+00
       11   -1    0    0    0    0  0.00000000000E+00  0.00000000000E+00  0.39999999673E+01  0.40000000000E+01  0.51109989000E-03 0. -1.
     -623   -1    0    0    0    0  0.00000000000E+00  0.00000000000E+00  0.12525980253E-10  0.17130000000E+03  0.17130000000E+03 0.  1.
       11    1    1    2    0    0 -0.75281799009E-01 -0.10128291686E-01  0.14724850011E+01  0.14744430377E+01  0.51109989000E-03 0. -1.
     -623    1    1    2    0    0  0.25620539337E-01 -0.15290708030E-01  0.45579367624E-02  0.17130000266E+03  0.17130000000E+03 0.  1.
      622    1    1    2    0    0  0.49661259672E-01  0.25418999717E-01  0.25229570295E+01  0.25255543033E+01  0.10000000000E+00 0. -1.
</event>
<event>
 5   0  0.6262544E+06  0.9118800E+02  0.7818608E-02  0.1180000E+00
       11   -1    0    0    0    0  0.00000000000E+00  0.00000000000E+00  0.39999999673E+01  0.40000000000E+01  0.51109989000E-03 0.  1.
     -623   -1    0    0    0    0  0.00000000000E+00  0.00000000000E+00  0.12525980253E-10  0.17130000000E+03  0.17130000000E+03 0.  1.
       11    1    1    2    0    0 -0.10810170255E-02  0.90654357506E-02  0.44000737983E+00  0.44010238156E+00  0.51109989000E-03 0.  1.
     -623    1    1    2    0    0 -0.12177097067E-03 -0.20121035436E-02  0.15069930712E-02  0.17130000002E+03  0.17130000000E+03 0.  1.
      622    1    1    2    0    0  0.12027879961E-02 -0.70533322071E-02  0.35584855943E+01  0.35598975998E+01  0.10000000000E+00 0.  1.
</event>
<event>
 5   0  0.6262544E+06  0.9118800E+02  0.7818608E-02  0.1180000E+00
       11   -1    0    0    0    0  0.00000000000E+00  0.00000000000E+00  0.39999999673E+01  0.40000000000E+01  0.51109989000E-03 0.  1.
     -623   -1    0    0    0    0  0.00000000000E+00  0.00000000000E+00  0.12525980253E-10  0.17130000000E+03  0.17130000000E+03 0. -1.
       11    1    1    2    0    0  0.99062327889E-02  0.12395311380E-02  0.18239653986E-01  0.20799425130E-01  0.51109989000E-03 0.  1.
     -623    1    1    2    0    0 -0.23139499569E-01 -0.26793827000E-02  0.38403700765E-02  0.17130000163E+03  0.17130000000E+03 0. -1.
      622    1    1    2    0    0  0.13233266780E-01  0.14398515620E-02  0.39779199433E+01  0.39791989480E+01  0.10000000000E+00 0.  1.
</event>
<event>
 5   0  0.6262544E+06  0.9118800E+02  0.7818608E-02  0.1180000E+00
       11   -1    0    0    0    0  0.00000000000E+00  0.00000000000E+00  0.39999999673E+01  0.40000000000E+01  0.51109989000E-03 0. -1.
     -623   -1    0    0    0    0  0.00000000000E+00  0.00000000000E+00  0.12525980253E-10  0.17130000000E+03  0.17130000000E+03 0.  1.
       11    1    1    2    0    0  0.23171500325E-02 -0.15913458315E-01  0.42136081363E+00  0.42166788332E+00  0.51109989000E-03 0. -1.
     -623    1    1    2    0    0 -0.19826207504E-01  0.43603263230E-02  0.17673330212E-02  0.17130000121E+03  0.17130000000E+03 0.  1.
      622    1    1    2    0    0  0.17509057472E-01  0.11553131992E-01  0.35768718207E+01  0.35783309047E+01  0.10000000000E+00 0. -1.
</event>
<event>
 5   0  0.6262544E+06  0.9118800E+02  0.7818608E-02  0.1180000E+00
       11   -1    0    0    0    0  0.00000000000E+00  0.00000000000E+00  0.39999999673E+01  0.40000000000E+01  0.51109989000E-03 0. -1.
     -623   -1    0    0    0    0  0.00000000000E+00  0.00000000000E+00  0.12525980253E-10  0.17130000000E+03  0.17130000000E+03 0. -1.
       11    1    1    2    0    0  0.43081496658E-03 -0.20517091380E-03  0.77222111380E-03  0.10417510189E-02  0.51109989000E-03 0. -1.
     -623    1    1    2    0    0 -0.11519195107E-02  0.15957570905E-02  0.15203433726E-02  0.17130000002E+03  0.17130000000E+03 0. -1.
      622    1    1    2    0    0  0.72110454418E-03 -0.13905861767E-02  0.39977074029E+01  0.39989582310E+01  0.10000000000E+00 0. -1.
</event>
<event>
 5   0  0.6262544E+06  0.9118800E+02  0.7818608E-02  0.1180000E+00
       11   -1    0    0    0    0  0.00000000000E+00  0.00000000000E+00  0.39999999673E+01  0.40000000000E+01  0.51109989000E-03 0.  1.
     -623   -1    0    0    0    0  0.00000000000E+00  0.00000000000E+00  0.12525980253E-10  0.17130000000E+03  0.17130000000E+03 0. -1.
       11    1    1    2    0    0  0.12985972489E-01 -0.67918207847E-02  0.91530250648E-01  0.92697423464E-01  0.51109989000E-03 0.  1.
     -623    1    1    2    0    0 -0.19762545435E-01 -0.29610145341E-02  0.24662428756E-02  0.17130000118E+03  0.17130000000E+03 0. -1.
      622    1    1    2    0    0  0.67765729461E-02  0.97528353188E-02  0.39060034738E+01  0.39073013932E+01  0.10000000000E+00 0.  1.
</event>
<event>
 5   0  0.6262544E+06  0.9118800E+02  0.7818608E-02  0.1180000E+00
       11   -1    0    0    0    0  0.00000000000E+00  0.00000000000E+00  0.39999999673E+01  0.40000000000E+01  0.51109989000E-03 0.  1.
     -623   -1    0    0    0    0  0.00000000000E+00  0.00000000000E+00  0.12525980253E-10  0.17130000000E+03  0.17130000000E+03 0.  1.
       11    1    1    2    0    0  0.30813216635E-01 -0.45532519463E-01  0.25771244182E+00  0.26351210321E+00  0.51109989000E-03 0.  1.
     -623    1    1    2    0    0 -0.81350364772E-02  0.18102316254E-01  0.73089003862E-02  0.17130000131E+03  0.17130000000E+03 0.  1.
      622    1    1    2    0    0 -0.22678180158E-01  0.27430203208E-01  0.37349786252E+01  0.37364865912E+01  0.10000000000E+00 0.  1.
</event>
<event>
 5   0  0.6262544E+06  0.9118800E+02  0.7818608E-02  0.1180000E+00
       11   -1    0    0    0    0  0.00000000000E+00  0.00000000000E+00  0.39999999673E+01  0.40000000000E+01  0.51109989000E-03 0.  1.
     -623   -1    0    0    0    0  0.00000000000E+00  0.00000000000E+00  0.12525980253E-10  0.17130000000E+03  0.17130000000E+03 0. -1.
       11    1    1    2    0    0  0.78572114542E-03  0.12927785803E-02  0.18348201006E-04  0.15969326630E-02  0.51109989000E-03 0.  1.
     -623    1    1    2    0    0  0.32214526594E-02  0.32029614784E-03  0.28316347756E-02  0.17130000005E+03  0.17130000000E+03 0. -1.
      622    1    1    2    0    0 -0.40071738048E-02 -0.16130747281E-02  0.39971499845E+01  0.39984030134E+01  0.10000000000E+00 0.  1.
</event>
<event>
 5   0  0.6262544E+06  0.9118800E+02  0.7818608E-02  0.1180000E+00
       11   -1    0    0    0    0  0.00000000000E+00  0.00000000000E+00  0.39999999673E+01  0.40000000000E+01  0.51109989000E-03 0. -1.
     -623   -1    0    0    0    0  0.00000000000E+00  0.00000000000E+00  0.12525980253E-10  0.17130000000E+03  0.17130000000E+03 0. -1.
       11    1    1    2    0    0 -0.10473732901E-02  0.21660958338E-02  0.13287819544E-01  0.13513561089E-01  0.51109989000E-03 0. -1.
     -623    1    1    2    0    0  0.94248849168E-03  0.58151110426E-03  0.14811021064E-02  0.17130000001E+03  0.17130000000E+03 0. -1.
      622    1    1    2    0    0  0.10488479833E-03 -0.27476069380E-02  0.39852310459E+01  0.39864864291E+01  0.10000000000E+00 0. -1.
</event>
<event>
 5   0  0.6262544E+06  0.9118800E+02  0.7818608E-02  0.1180000E+00
       11   -1    0    0    0    0  0.00000000000E+00  0.00000000000E+00  0.39999999673E+01  0.40000000000E+01  0.51109989000E-03 0. -1.
     -623   -1    0    0    0    0  0.00000000000E+00  0.00000000000E+00  0.12525980253E-10  0.17130000000E+03  0.17130000000E+03 0. -1.
       11    1    1    2    0    0 -0.41656484075E-01 -0.62891069189E-02  0.13003634723E+00  0.13669136167E+00  0.51109989000E-03 0. -1.
     -623    1    1    2    0    0 -0.19711877323E-01  0.24964194252E-01  0.84853593853E-02  0.17130000316E+03  0.17130000000E+03 0. -1.
      622    1    1    2    0    0  0.61368361397E-01 -0.18675087333E-01  0.38614782607E+01  0.38633054750E+01  0.10000000000E+00 0.  0.
</event>
<event>
 5   0  0.6262544E+06  0.9118800E+02  0.7818608E-02  0.1180000E+00
       11   -1    0    0    0    0  0.00000000000E+00  0.00000000000E+00  0.39999999673E+01  0.40000000000E+01  0.51109989000E-03 0.  1.
     -623   -1    0    0    0    0  0.00000000000E+00  0.00000000000E+00  0.12525980253E-10  0.17130000000E+03  0.17130000000E+03 0. -1.
       11    1    1    2    0    0  0.19839214843E-01 -0.21843375770E-01  0.14340135489E+01  0.14343172059E+01  0.51109989000E-03 0.  1.
     -623    1    1    2    0    0 -0.86144488950E-02  0.13518648630E-01  0.22920185645E-02  0.17130000077E+03  0.17130000000E+03 0. -1.
      622    1    1    2    0    0 -0.11224765948E-01  0.83247271392E-02  0.25636944000E+01  0.25656820289E+01  0.10000000000E+00 0. -1.
</event>
<event>
 5   0  0.6262544E+06  0.9118800E+02  0.7818608E-02  0.1180000E+00
       11   -1    0    0    0    0  0.00000000000E+00  0.00000000000E+00  0.39999999673E+01  0.40000000000E+01  0.51109989000E-03 0. -1.
     -623   -1    0    0    0    0  0.00000000000E+00  0.00000000000E+00  0.12525980253E-10  0.17130000000E+03  0.17130000000E+03 0.  1.
       11    1    1    2    0    0 -0.69323732355E-02  0.81233902445E-02  0.34064980365E+00  0.34081754242E+00  0.51109989000E-03 0. -1.
     -623    1    1    2    0    0  0.10397221247E-01 -0.17415617858E-02  0.15419264950E-02  0.17130000033E+03  0.17130000000E+03 0.  1.
      622    1    1    2    0    0 -0.34648480116E-02 -0.63818284587E-02  0.36578082372E+01  0.36591821263E+01  0.10000000000E+00 0. -1.
</event>
<event>
 5   0  0.6262544E+06  0.9118800E+02  0.7818608E-02  0.1180000E+00
       11   -1    0    0    0    0  0.00000000000E+00  0.00000000000E+00  0.39999999673E+01  0.40000000000E+01  0.51109989000E-03 0.  1.
     -623   -1    0    0    0    0  0.00000000000E+00  0.00000000000E+00  0.12525980253E-10  0.17130000000E+03  0.17130000000E+03 0. -1.
       11    1    1    2    0    0 -0.52613308185E-01 -0.40340912915E-01  0.26133965158E+01  0.26142373954E+01  0.51109989000E-03 0.  1.
     -623    1    1    2    0    0 -0.55741853796E-02  0.19760883022E-01  0.58337427892E-02  0.17130000133E+03  0.17130000000E+03 0. -1.
      622    1    1    2    0    0  0.58187493564E-01  0.20580029893E-01  0.13807697087E+01  0.13857612747E+01  0.10000000000E+00 0.  1.
</event>
<event>
 5   0  0.6262544E+06  0.9118800E+02  0.7818608E-02  0.1180000E+00
       11   -1    0    0    0    0  0.00000000000E+00  0.00000000000E+00  0.39999999673E+01  0.40000000000E+01  0.51109989000E-03 0.  1.
     -623   -1    0    0    0    0  0.00000000000E+00  0.00000000000E+00  0.12525980253E-10  0.17130000000E+03  0.17130000000E+03 0. -1.
       11    1    1    2    0    0 -0.30169381803E-02  0.58040364871E-03  0.45604754742E-02  0.55224943665E-02  0.51109989000E-03 0.  1.
     -623    1    1    2    0    0  0.32547892231E-02  0.79258148758E-03  0.22142008020E-02  0.17130000005E+03  0.17130000000E+03 0. -1.
      622    1    1    2    0    0 -0.23785104284E-03 -0.13729851363E-02  0.39932252911E+01  0.39944774586E+01  0.10000000000E+00 0.  1.
</event>
<event>
 5   0  0.6262544E+06  0.9118800E+02  0.7818608E-02  0.1180000E+00
       11   -1    0    0    0    0  0.00000000000E+00  0.00000000000E+00  0.39999999673E+01  0.40000000000E+01  0.51109989000E-03 0. -1.
     -623   -1    0    0    0    0  0.00000000000E+00  0.00000000000E+00  0.12525980253E-10  0.17130000000E+03  0.17130000000E+03 0.  1.
       11    1    1    2    0    0 -0.10135568250E+00  0.86746393335E-01  0.88261969290E+00  0.89264533531E+00  0.51109989000E-03 0. -1.
     -623    1    1    2    0    0  0.58197413790E-01 -0.92935852365E-01  0.11976701292E-01  0.17130003552E+03  0.17130000000E+03 0.  1.
      622    1    1    2    0    0  0.43158268714E-01  0.61894590295E-02  0.31054035732E+01  0.31073191497E+01  0.10000000000E+00 0. -1.
</event>
<event>
 5   0  0.6262544E+06  0.9118800E+02  0.7818608E-02  0.1180000E+00
       11   -1    0    0    0    0  0.00000000000E+00  0.00000000000E+00  0.39999999673E+01  0.40000000000E+01  0.51109989000E-03 0. -1.
     -623   -1    0    0    0    0  0.00000000000E+00  0.00000000000E+00  0.12525980253E-10  0.17130000000E+03  0.17130000000E+03 0.  1.
       11    1    1    2    0    0  0.11227270406E+00 -0.36297237302E-01  0.22158720743E+01  0.22190114827E+01  0.51109989000E-03 0. -1.
     -623    1    1    2    0    0 -0.47196492272E-01  0.17363589654E-01  0.72486449526E-02  0.17130000754E+03  0.17130000000E+03 0.  1.
      622    1    1    2    0    0 -0.65076211790E-01  0.18933647647E-01  0.17768792482E+01  0.17809809822E+01  0.10000000000E+00 0.  0.
</event>
<event>
 5   0  0.6262544E+06  0.9118800E+02  0.7818608E-02  0.1180000E+00
       11   -1    0    0    0    0  0.00000000000E+00  0.00000000000E+00  0.39999999673E+01  0.40000000000E+01  0.51109989000E-03 0.  1.
     -623   -1    0    0    0    0  0.00000000000E+00  0.00000000000E+00  0.12525980253E-10  0.17130000000E+03  0.17130000000E+03 0.  1.
       11    1    1    2    0    0 -0.87307903050E-03  0.68055387294E-02  0.99438860110E-01  0.99676605818E-01  0.51109989000E-03 0.  1.
     -623    1    1    2    0    0  0.18431993409E-02 -0.15145302815E-02  0.15236028315E-02  0.17130000002E+03  0.17130000000E+03 0.  1.
      622    1    1    2    0    0 -0.97012031058E-03 -0.52910084478E-02  0.38990375048E+01  0.39003233712E+01  0.10000000000E+00 0.  1.
</event>
<event>
 5   0  0.6262544E+06  0.9118800E+02  0.7818608E-02  0.1180000E+00
       11   -1    0    0    0    0  0.00000000000E+00  0.00000000000E+00  0.39999999673E+01  0.40000000000E+01  0.51109989000E-03 0. -1.
     -623   -1    0    0    0    0  0.00000000000E+00  0.00000000000E+00  0.12525980253E-10  0.17130000000E+03  0.17130000000E+03 0.  1.
       11    1    1    2    0    0 -0.25750624274E-02  0.30354872578E-01  0.13177962475E+00  0.13525597937E+00  0.51109989000E-03 0. -1.
     -623    1    1    2    0    0 -0.78886945598E-02 -0.37065737661E-02  0.48766519203E-02  0.17130000029E+03  0.17130000000E+03 0.  1.
      622    1    1    2    0    0  0.10463756987E-01 -0.26648298812E-01  0.38633436907E+01  0.38647437295E+01  0.10000000000E+00 0.  1.
</event>
<event>
 5   0  0.6262544E+06  0.9118800E+02  0.7818608E-02  0.1180000E+00
       11   -1    0    0    0    0  0.00000000000E+00  0.00000000000E+00  0.39999999673E+01  0.40000000000E+01  0.51109989000E-03 0.  1.
     -623   -1    0    0    0    0  0.00000000000E+00  0.00000000000E+00  0.12525980253E-10  0.17130000000E+03  0.17130000000E+03 0.  1.
       11    1    1    2    0    0 -0.11563994361E-01 -0.22743238335E-02  0.23258720651E+00  0.23288617041E+00  0.51109989000E-03 0.  1.
     -623    1    1    2    0    0 -0.33488073681E-02 -0.11775138722E-02  0.16575961201E-02  0.17130000004E+03  0.17130000000E+03 0.  1.
      622    1    1    2    0    0  0.14912801729E-01  0.34518377057E-02  0.37657551649E+01  0.37671137850E+01  0.10000000000E+00 0.  0.
</event>
<event>
 5   0  0.6262544E+06  0.9118800E+02  0.7818608E-02  0.1180000E+00
       11   -1    0    0    0    0  0.00000000000E+00  0.00000000000E+00  0.39999999673E+01  0.40000000000E+01  0.51109989000E-03 0.  1.
     -623   -1    0    0    0    0  0.00000000000E+00  0.00000000000E+00  0.12525980253E-10  0.17130000000E+03  0.17130000000E+03 0.  1.
       11    1    1    2    0    0  0.84866691927E-02 -0.74190321146E-02  0.52247627325E-01  0.53452234525E-01  0.51109989000E-03 0.  1.
     -623    1    1    2    0    0 -0.11039269522E-01  0.25400439779E-02  0.24759432063E-02  0.17130000039E+03  0.17130000000E+03 0.  1.
      622    1    1    2    0    0  0.25526003301E-02  0.48789881366E-02  0.39452763970E+01  0.39465473732E+01  0.10000000000E+00 0.  1.
</event>
<event>
 5   0  0.6262544E+06  0.9118800E+02  0.7818608E-02  0.1180000E+00
       11   -1    0    0    0    0  0.00000000000E+00  0.00000000000E+00  0.39999999673E+01  0.40000000000E+01  0.51109989000E-03 0. -1.
     -623   -1    0    0    0    0  0.00000000000E+00  0.00000000000E+00  0.12525980253E-10  0.17130000000E+03  0.17130000000E+03 0. -1.
       11    1    1    2    0    0 -0.18246589388E-01  0.79904176158E-02  0.45237944836E+00  0.45281807751E+00  0.51109989000E-03 0. -1.
     -623    1    1    2    0    0  0.23539945812E-02 -0.47442559053E-02  0.18856410586E-02  0.17130000009E+03  0.17130000000E+03 0. -1.
      622    1    1    2    0    0  0.15892594807E-01 -0.32461617107E-02  0.35457348778E+01  0.35471818301E+01  0.10000000000E+00 0. -1.
</event>
<event>
 5   0  0.6262544E+06  0.9118800E+02  0.7818608E-02  0.1180000E+00
       11   -1    0    0    0    0  0.00000000000E+00  0.00000000000E+00  0.39999999673E+01  0.40000000000E+01  0.51109989000E-03 0.  1.
     -623   -1    0    0    0    0  0.00000000000E+00  0.00000000000E+00  0.12525980253E-10  0.17130000000E+03  0.17130000000E+03 0.  1.
       11    1    1    2    0    0  0.24228968471E-01  0.18326060242E-01  0.18489646960E+00  0.18737623406E+00  0.51109989000E-03 0.  1.
     -623    1    1    2    0    0  0.10149292010E-01 -0.38162849290E-01  0.40026655546E-02  0.17130000460E+03  0.17130000000E+03 0.  1.
      622    1    1    2    0    0 -0.34378260482E-01  0.19836789049E-01  0.38111008324E+01  0.38126191676E+01  0.10000000000E+00 0.  1.
</event>
<event>
 5   0  0.6262544E+06  0.9118800E+02  0.7818608E-02  0.1180000E+00
       11   -1    0    0    0    0  0.00000000000E+00  0.00000000000E+00  0.39999999673E+01  0.40000000000E+01  0.51109989000E-03 0. -1.
     -623   -1    0    0    0    0  0.00000000000E+00  0.00000000000E+00  0.12525980253E-10  0.17130000000E+03  0.17130000000E+03 0. -1.
       11    1    1    2    0    0  0.47850831213E-02  0.74046586402E-02  0.49616305007E-01  0.50396080539E-01  0.51109989000E-03 0. -1.
     -623    1    1    2    0    0  0.10687429541E-01 -0.20864331467E-02  0.20801526465E-02  0.17130000036E+03  0.17130000000E+03 0. -1.
      622    1    1    2    0    0 -0.15472512662E-01 -0.53182254934E-02  0.39483035097E+01  0.39496035607E+01  0.10000000000E+00 0. -1.
</event>
<event>
 5   0  0.6262544E+06  0.9118800E+02  0.7818608E-02  0.1180000E+00
       11   -1    0    0    0    0  0.00000000000E+00  0.00000000000E+00  0.39999999673E+01  0.40000000000E+01  0.51109989000E-03 0.  1.
     -623   -1    0    0    0    0  0.00000000000E+00  0.00000000000E+00  0.12525980253E-10  0.17130000000E+03  0.17130000000E+03 0. -1.
       11    1    1    2    0    0 -0.49377051017E-02  0.71136160011E-02  0.73664384953E-02  0.11380250590E-01  0.51109989000E-03 0.  1.
     -623    1    1    2    0    0  0.39032995531E-02 -0.72781045856E-02  0.52679607219E-02  0.17130000028E+03  0.17130000000E+03 0. -1.
      622    1    1    2    0    0  0.10344055485E-02  0.16448858450E-03  0.39873655682E+01  0.39886194693E+01  0.10000000000E+00 0.  1.
</event>
<event>
 5   0  0.6262544E+06  0.9118800E+02  0.7818608E-02  0.1180000E+00
       11   -1    0    0    0    0  0.00000000000E+00  0.00000000000E+00  0.39999999673E+01  0.40000000000E+01  0.51109989000E-03 0.  1.
     -623   -1    0    0    0    0  0.00000000000E+00  0.00000000000E+00  0.12525980253E-10  0.17130000000E+03  0.17130000000E+03 0. -1.
       11    1    1    2    0    0 -0.26281816036E-01  0.33382161243E-02  0.16838553728E+00  0.17045770129E+00  0.51109989000E-03 0.  1.
     -623    1    1    2    0    0  0.30255161993E-01  0.19063617366E-01  0.34493691743E-02  0.17130000377E+03  0.17130000000E+03 0. -1.
      622    1    1    2    0    0 -0.39733459576E-02 -0.22401833490E-01  0.38281650610E+01  0.38295385314E+01  0.10000000000E+00 0.  1.
</event>
<event>
 5   0  0.6262544E+06  0.9118800E+02  0.7818608E-02  0.1180000E+00
       11   -1    0    0    0    0  0.00000000000E+00  0.00000000000E+00  0.39999999673E+01  0.40000000000E+01  0.51109989000E-03 0. -1.
     -623   -1    0    0    0    0  0.00000000000E+00  0.00000000000E+00  0.12525980253E-10  0.17130000000E+03  0.17130000000E+03 0. -1.
       11    1    1    2    0    0  0.21034088916E-01 -0.95910159771E-01  0.51994610789E+00  0.52913647387E+00  0.51109989000E-03 0. -1.
     -623    1    1    2    0    0 -0.22588133507E-01  0.55565969059E-02  0.11810262808E-01  0.17130000199E+03  0.17130000000E+03 0. -1.
      622    1    1    2    0    0  0.15540445909E-02  0.90353562865E-01  0.34682435967E+01  0.34708615396E+01  0.10000000000E+00 0. -1.
</event>
<event>
 5   0  0.6262544E+06  0.9118800E+02  0.7818608E-02  0.1180000E+00
       11   -1    0    0    0    0  0.00000000000E+00  0.00000000000E+00  0.39999999673E+01  0.40000000000E+01  0.51109989000E-03 0. -1.
     -623   -1    0    0    0    0  0.00000000000E+00  0.00000000000E+00  0.12525980253E-10  0.17130000000E+03  0.17130000000E+03 0.  1.
       11    1    1    2    0    0 -0.90269551609E-03 -0.13955970246E-03  0.70896674658E-02  0.71665153249E-02  0.51109989000E-03 0. -1.
     -623    1    1    2    0    0  0.55334540866E-02 -0.59625881618E-02  0.13368041208E-02  0.17130000020E+03  0.17130000000E+03 0.  1.
      622    1    1    2    0    0 -0.46307585705E-02  0.61021478642E-02  0.39915734958E+01  0.39928332863E+01  0.10000000000E+00 0. -1.
</event>
<event>
 5   0  0.6262544E+06  0.9118800E+02  0.7818608E-02  0.1180000E+00
       11   -1    0    0    0    0  0.00000000000E+00  0.00000000000E+00  0.39999999673E+01  0.40000000000E+01  0.51109989000E-03 0. -1.
     -623   -1    0    0    0    0  0.00000000000E+00  0.00000000000E+00  0.12525980253E-10  0.17130000000E+03  0.17130000000E+03 0.  1.
       11    1    1    2    0    0 -0.12247552349E+00 -0.87299150323E-02  0.13962174831E+01  0.14016062167E+01  0.51109989000E-03 0. -1.
     -623    1    1    2    0    0  0.13333984278E+00 -0.17718738956E-01  0.75241421978E-02  0.17130005298E+03  0.17130000000E+03 0.  1.
      622    1    1    2    0    0 -0.10864319286E-01  0.26448653989E-01  0.25962583421E+01  0.25983408059E+01  0.10000000000E+00 0. -1.
</event>
<event>
 5   0  0.6262544E+06  0.9118800E+02  0.7818608E-02  0.1180000E+00
       11   -1    0    0    0    0  0.00000000000E+00  0.00000000000E+00  0.39999999673E+01  0.40000000000E+01  0.51109989000E-03 0.  1.
     -623   -1    0    0    0    0  0.00000000000E+00  0.00000000000E+00  0.12525980253E-10  0.17130000000E+03  0.17130000000E+03 0. -1.
       11    1    1    2    0    0 -0.18780082567E-01  0.66800677732E-02  0.29684687501E+01  0.29685357158E+01  0.51109989000E-03 0.  1.
     -623    1    1    2    0    0 -0.16898783953E-01 -0.24791346139E-01  0.57086434311E-02  0.17130000272E+03  0.17130000000E+03 0. -1.
      622    1    1    2    0    0  0.35678866520E-01  0.18111278366E-01  0.10258225738E+01  0.10314615615E+01  0.10000000000E+00 0. -1.
</event>
<event>
 5   0  0.6262544E+06  0.9118800E+02  0.7818608E-02  0.1180000E+00
       11   -1    0    0    0    0  0.00000000000E+00  0.00000000000E+00  0.39999999673E+01  0.40000000000E+01  0.51109989000E-03 0. -1.
     -623   -1    0    0    0    0  0.00000000000E+00  0.00000000000E+00  0.12525980253E-10  0.17130000000E+03  0.17130000000E+03 0. -1.
       11    1    1    2    0    0 -0.16844964189E-03  0.59275576264E-02  0.26601016940E-02  0.65193311633E-02  0.51109989000E-03 0. -1.
     -623    1    1    2    0    0  0.18438487262E-01  0.26226076438E-02  0.51634861656E-02  0.17130000109E+03  0.17130000000E+03 0. -1.
      622    1    1    2    0    0 -0.18270037620E-01 -0.85501652703E-02  0.39921763796E+01  0.39934795787E+01  0.10000000000E+00 0. -1.
</event>
<event>
 5   0  0.6262544E+06  0.9118800E+02  0.7818608E-02  0.1180000E+00
       11   -1    0    0    0    0  0.00000000000E+00  0.00000000000E+00  0.39999999673E+01  0.40000000000E+01  0.51109989000E-03 0.  1.
     -623   -1    0    0    0    0  0.00000000000E+00  0.00000000000E+00  0.12525980253E-10  0.17130000000E+03  0.17130000000E+03 0. -1.
       11    1    1    2    0    0 -0.15872401885E+00 -0.32466861401E-02  0.16184856708E+01  0.16262533575E+01  0.51109989000E-03 0.  1.
     -623    1    1    2    0    0  0.80786909451E-02  0.17915083266E-02  0.14665534824E-01  0.17130000083E+03  0.17130000000E+03 0. -1.
      622    1    1    2    0    0  0.15064532790E+00  0.14551778135E-02  0.23668487618E+01  0.23737458148E+01  0.10000000000E+00 0.  1.
</event>
<event>
 5   0  0.6262544E+06  0.9118800E+02  0.7818608E-02  0.1180000E+00
       11   -1    0    0    0    0  0.00000000000E+00  0.00000000000E+00  0.39999999673E+01  0.40000000000E+01  0.51109989000E-03 0. -1.
     -623   -1    0    0    0    0  0.00000000000E+00  0.00000000000E+00  0.12525980253E-10  0.17130000000E+03  0.17130000000E+03 0.  1.
       11    1    1    2    0    0  0.76822337296E-02  0.33326469972E-01  0.21238865068E+00  0.21512524369E+00  0.51109989000E-03 0. -1.
     -623    1    1    2    0    0  0.66287118832E-02  0.88674609659E-02  0.43205970448E-02  0.17130000041E+03  0.17130000000E+03 0.  1.
      622    1    1    2    0    0 -0.14310945613E-01 -0.42193930938E-01  0.37832907196E+01  0.37848743441E+01  0.10000000000E+00 0.  0.
</event>
<event>
 5   0  0.6262544E+06  0.9118800E+02  0.7818608E-02  0.1180000E+00
       11   -1    0    0    0    0  0.00000000000E+00  0.00000000000E+00  0.39999999673E+01  0.40000000000E+01  0.51109989000E-03 0. -1.
     -623   -1    0    0    0    0  0.00000000000E+00  0.00000000000E+00  0.12525980253E-10  0.17130000000E+03  0.17130000000E+03 0.  1.
       11    1    1    2    0    0 -0.11797072310E-01 -0.66219055049E-03  0.40644286284E-02  0.12505607326E-01  0.51109989000E-03 0. -1.
     -623    1    1    2    0    0 -0.19109461702E-02  0.38645136729E-01  0.99044569504E-02  0.17130000466E+03  0.17130000000E+03 0.  1.
      622    1    1    2    0    0  0.13708018480E-01 -0.37982946178E-01  0.39860310818E+01  0.39874897365E+01  0.10000000000E+00 0. -1.
</event>
<event>
 5   0  0.6262544E+06  0.9118800E+02  0.7818608E-02  0.1180000E+00
       11   -1    0    0    0    0  0.00000000000E+00  0.00000000000E+00  0.39999999673E+01  0.40000000000E+01  0.51109989000E-03 0.  1.
     -623   -1    0    0    0    0  0.00000000000E+00  0.00000000000E+00  0.12525980253E-10  0.17130000000E+03  0.17130000000E+03 0.  1.
       11    1    1    2    0    0  0.69764163903E-02 -0.11092852825E-01  0.10470695431E+00  0.10552501728E+00  0.51109989000E-03 0.  1.
     -623    1    1    2    0    0  0.42006152245E-02 -0.10065041689E-02  0.21370256149E-02  0.17130000007E+03  0.17130000000E+03 0.  1.
      622    1    1    2    0    0 -0.11177031615E-01  0.12099356994E-01  0.38931559874E+01  0.38944749149E+01  0.10000000000E+00 0.  1.
</event>
<event>
 5   0  0.6262544E+06  0.9118800E+02  0.7818608E-02  0.1180000E+00
       11   -1    0    0    0    0  0.00000000000E+00  0.00000000000E+00  0.39999999673E+01  0.40000000000E+01  0.51109989000E-03 0. -1.
     -623   -1    0    0    0    0  0.00000000000E+00  0.00000000000E+00  0.12525980253E-10  0.17130000000E+03  0.17130000000E+03 0. -1.
       11    1    1    2    0    0  0.47321785260E-02 -0.80914560902E-02  0.52629444276E-01  0.53460123487E-01  0.51109989000E-03 0. -1.
     -623    1    1    2    0    0  0.13445598093E-01  0.13030373447E-01  0.21437881855E-02  0.17130000104E+03  0.17130000000E+03 0. -1.
      622    1    1    2    0    0 -0.18177776619E-01 -0.49389173565E-02  0.39452267349E+01  0.39465388398E+01  0.10000000000E+00 0. -1.
</event>
<event>
 5   0  0.6262544E+06  0.9118800E+02  0.7818608E-02  0.1180000E+00
       11   -1    0    0    0    0  0.00000000000E+00  0.00000000000E+00  0.39999999673E+01  0.40000000000E+01  0.51109989000E-03 0. -1.
     -623   -1    0    0    0    0  0.00000000000E+00  0.00000000000E+00  0.12525980253E-10  0.17130000000E+03  0.17130000000E+03 0.  1.
       11    1    1    2    0    0 -0.35652462216E-02 -0.22855447796E-01  0.12149872382E+00  0.12368218783E+00  0.51109989000E-03 0. -1.
     -623    1    1    2    0    0  0.38804623954E-02  0.31180071210E-01  0.34854026832E-02  0.17130000292E+03  0.17130000000E+03 0.  1.
      622    1    1    2    0    0 -0.31521617390E-03 -0.83246234144E-02  0.38750158410E+01  0.38763148952E+01  0.10000000000E+00 0. -1.
</event>
<event>
 5   0  0.6262544E+06  0.9118800E+02  0.7818608E-02  0.1180000E+00
       11   -1    0    0    0    0  0.00000000000E+00  0.00000000000E+00  0.39999999673E+01  0.40000000000E+01  0.51109989000E-03 0. -1.
     -623   -1    0    0    0    0  0.00000000000E+00  0.00000000000E+00  0.12525980253E-10  0.17130000000E+03  0.17130000000E+03 0.  1.
       11    1    1    2    0    0  0.18112318425E-01 -0.30740520661E-01  0.17354994530E+00  0.17718036129E+00  0.51109989000E-03 0. -1.
     -623    1    1    2    0    0  0.90675259406E-02  0.11916761507E-01  0.50822915434E-02  0.17130000073E+03  0.17130000000E+03 0.  1.
      622    1    1    2    0    0 -0.27179844366E-01  0.18823759154E-01  0.38213677304E+01  0.38228189088E+01  0.10000000000E+00 0. -1.
</event>
<event>
 5   0  0.6262544E+06  0.9118800E+02  0.7818608E-02  0.1180000E+00
       11   -1    0    0    0    0  0.00000000000E+00  0.00000000000E+00  0.39999999673E+01  0.40000000000E+01  0.51109989000E-03 0. -1.
     -623   -1    0    0    0    0  0.00000000000E+00  0.00000000000E+00  0.12525980253E-10  0.17130000000E+03  0.17130000000E+03 0.  1.
       11    1    1    2    0    0  0.36889193698E-02 -0.89474829239E-02  0.16840861771E-01  0.19430425207E-01  0.51109989000E-03 0. -1.
     -623    1    1    2    0    0  0.82074614066E-03  0.36129381253E-01  0.39450830409E-02  0.17130000386E+03  0.17130000000E+03 0.  1.
      622    1    1    2    0    0 -0.45096655105E-02 -0.27181898329E-01  0.39792140225E+01  0.39805657173E+01  0.10000000000E+00 0. -1.
</event>
<event>
 5   0  0.6262544E+06  0.9118800E+02  0.7818608E-02  0.1180000E+00
       11   -1    0    0    0    0  0.00000000000E+00  0.00000000000E+00  0.39999999673E+01  0.40000000000E+01  0.51109989000E-03 0.  1.
     -623   -1    0    0    0    0  0.00000000000E+00  0.00000000000E+00  0.12525980253E-10  0.17130000000E+03  0.17130000000E+03 0. -1.
       11    1    1    2    0    0  0.32843176033E-02 -0.98576226874E-02  0.29181729092E+00  0.29200265746E+00  0.51109989000E-03 0.  1.
     -623    1    1    2    0    0 -0.20568499084E-01 -0.10421609339E-02  0.15915865076E-02  0.17130000125E+03  0.17130000000E+03 0. -1.
      622    1    1    2    0    0  0.17284181481E-01  0.10899783621E-01  0.37065910899E+01  0.37079960971E+01  0.10000000000E+00 0.  1.
</event>
<event>
 5   0  0.6262544E+06  0.9118800E+02  0.7818608E-02  0.1180000E+00
       11   -1    0    0    0    0  0.00000000000E+00  0.00000000000E+00  0.39999999673E+01  0.40000000000E+01  0.51109989000E-03 0. -1.
     -623   -1    0    0    0    0  0.00000000000E+00  0.00000000000E+00  0.12525980253E-10  0.17130000000E+03  0.17130000000E+03 0. -1.
       11    1    1    2    0    0  0.23828392556E-04 -0.29445837670E-02  0.55799872374E-02  0.63299780427E-02  0.51109989000E-03 0. -1.
     -623    1    1    2    0    0 -0.62741542604E-03  0.19756452091E-02  0.20023231790E-02  0.17130000002E+03  0.17130000000E+03 0. -1.
      622    1    1    2    0    0  0.60358703350E-03  0.96893855790E-03  0.39924176570E+01  0.39936699978E+01  0.10000000000E+00 0. -1.
</event>
<event>
 5   0  0.6262544E+06  0.9118800E+02  0.7818608E-02  0.1180000E+00
       11   -1    0    0    0    0  0.00000000000E+00  0.00000000000E+00  0.39999999673E+01  0.40000000000E+01  0.51109989000E-03 0.  1.
     -623   -1    0    0    0    0  0.00000000000E+00  0.00000000000E+00  0.12525980253E-10  0.17130000000E+03  0.17130000000E+03 0. -1.
       11    1    1    2    0    0  0.11304548936E-02  0.91883863186E-02  0.60076321181E+00  0.60083475454E+00  0.51109989000E-03 0.  1.
     -623    1    1    2    0    0  0.76693152968E-02  0.37531475861E-04  0.15668780374E-02  0.17130000018E+03  0.17130000000E+03 0. -1.
      622    1    1    2    0    0 -0.87997701910E-02 -0.92259177944E-02  0.33976698778E+01  0.33991650669E+01  0.10000000000E+00 0.  0.
</event>
<event>
 5   0  0.6262544E+06  0.9118800E+02  0.7818608E-02  0.1180000E+00
       11   -1    0    0    0    0  0.00000000000E+00  0.00000000000E+00  0.39999999673E+01  0.40000000000E+01  0.51109989000E-03 0. -1.
     -623   -1    0    0    0    0  0.00000000000E+00  0.00000000000E+00  0.12525980253E-10  0.17130000000E+03  0.17130000000E+03 0. -1.
       11    1    1    2    0    0 -0.50543612389E-01 -0.10612686907E-01  0.34707378138E+00  0.35089564948E+00  0.51109989000E-03 0. -1.
     -623    1    1    2    0    0 -0.96704744704E-02  0.80969965099E-02  0.56907373950E-02  0.17130000056E+03  0.17130000000E+03 0. -1.
      622    1    1    2    0    0  0.60214086859E-01  0.25156903971E-02  0.36472354486E+01  0.36491037917E+01  0.10000000000E+00 0.  1.
</event>
<event>
 5   0  0.6262544E+06  0.9118800E+02  0.7818608E-02  0.1180000E+00
       11   -1    0    0    0    0  0.00000000000E+00  0.00000000000E+00  0.39999999673E+01  0.40000000000E+01  0.51109989000E-03 0. -1.
     -623   -1    0    0    0    0  0.00000000000E+00  0.00000000000E+00  0.12525980253E-10  0.17130000000E+03  0.17130000000E+03 0.  1.
       11    1    1    2    0    0 -0.89662179996E-02 -0.16280933603E-01  0.91954278204E+00  0.91973074924E+00  0.51109989000E-03 0. -1.
     -623    1    1    2    0    0  0.19826900222E-01  0.58101119401E-03  0.18719457298E-02  0.17130000116E+03  0.17130000000E+03 0.  1.
      622    1    1    2    0    0 -0.10860682224E-01  0.15699922409E-01  0.30785852398E+01  0.30802680923E+01  0.10000000000E+00 0. -1.
</event>
<event>
 5   0  0.6262544E+06  0.9118800E+02  0.7818608E-02  0.1180000E+00
       11   -1    0    0    0    0  0.00000000000E+00  0.00000000000E+00  0.39999999673E+01  0.40000000000E+01  0.51109989000E-03 0.  1.
     -623   -1    0    0    0    0  0.00000000000E+00  0.00000000000E+00  0.12525980253E-10  0.17130000000E+03  0.17130000000E+03 0. -1.
       11    1    1    2    0    0 -0.24410923129E-02 -0.67807856681E-02  0.11604279749E+00  0.11626749355E+00  0.51109989000E-03 0.  1.
     -623    1    1    2    0    0  0.18141640217E-02 -0.68624045303E-04  0.15184070270E-02  0.17130000002E+03  0.17130000000E+03 0. -1.
      622    1    1    2    0    0  0.62692829119E-03  0.68494097134E-02  0.38824387628E+01  0.38837324901E+01  0.10000000000E+00 0.  1.
</event>
<event>
 5   0  0.6262544E+06  0.9118800E+02  0.7818608E-02  0.1180000E+00
       11   -1    0    0    0    0  0.00000000000E+00  0.00000000000E+00  0.39999999673E+01  0.40000000000E+01  0.51109989000E-03 0. -1.
     -623   -1    0    0    0    0  0.00000000000E+00  0.00000000000E+00  0.12525980253E-10  0.17130000000E+03  0.17130000000E+03 0.  1.
       11    1    1    2    0    0  0.97443105866E-02  0.87016538393E-02  0.13457659205E+00  0.13521017240E+00  0.51109989000E-03 0. -1.
     -623    1    1    2    0    0 -0.11054531482E-01 -0.11363988498E-01  0.19293799495E-02  0.17130000074E+03  0.17130000000E+03 0.  1.
      622    1    1    2    0    0  0.13102208950E-02  0.26623346589E-02  0.38634939954E+01  0.38647890831E+01  0.10000000000E+00 0. -1.
</event>
<event>
 5   0  0.6262544E+06  0.9118800E+02  0.7818608E-02  0.1180000E+00
       11   -1    0    0    0    0  0.00000000000E+00  0.00000000000E+00  0.39999999673E+01  0.40000000000E+01  0.51109989000E-03 0.  1.
     -623   -1    0    0    0    0  0.00000000000E+00  0.00000000000E+00  0.12525980253E-10  0.17130000000E+03  0.17130000000E+03 0. -1.
       11    1    1    2    0    0 -0.72264170517E-02  0.10184326424E-02  0.28350837313E+00  0.28360274534E+00  0.51109989000E-03 0.  1.
     -623    1    1    2    0    0 -0.74364679052E-03  0.13975871617E-02  0.14493205217E-02  0.17130000001E+03  0.17130000000E+03 0. -1.
      622    1    1    2    0    0  0.79700638422E-02 -0.24160198042E-02  0.37150422737E+01  0.37163972412E+01  0.10000000000E+00 0.  1.
</event>
<event>
 5   0  0.6262544E+06  0.9118800E+02  0.7818608E-02  0.1180000E+00
       11   -1    0    0    0    0  0.00000000000E+00  0.00000000000E+00  0.39999999673E+01  0.40000000000E+01  0.51109989000E-03 0. -1.
     -623   -1    0    0    0    0  0.00000000000E+00  0.00000000000E+00  0.12525980253E-10  0.17130000000E+03  0.17130000000E+03 0.  1.
       11    1    1    2    0    0  0.43013233114E-02 -0.12565175127E-02  0.12122265165E+00  0.12130652379E+00  0.51109989000E-03 0. -1.
     -623    1    1    2    0    0 -0.28886520071E-02 -0.21190157520E-02  0.13749173127E-02  0.17130000004E+03  0.17130000000E+03 0.  1.
      622    1    1    2    0    0 -0.14126713044E-02  0.33755332646E-02  0.38774023983E+01  0.38786934331E+01  0.10000000000E+00 0. -1.
</event>
<event>
 5   0  0.6262544E+06  0.9118800E+02  0.7818608E-02  0.1180000E+00
       11   -1    0    0    0    0  0.00000000000E+00  0.00000000000E+00  0.39999999673E+01  0.40000000000E+01  0.51109989000E-03 0.  1.
     -623   -1    0    0    0    0  0.00000000000E+00  0.00000000000E+00  0.12525980253E-10  0.17130000000E+03  0.17130000000E+03 0. -1.
       11    1    1    2    0    0 -0.37700577547E-02 -0.10240003593E-03  0.14206591254E-01  0.14707558581E-01  0.51109989000E-03 0.  1.
     -623    1    1    2    0    0  0.78715678042E-03  0.19278896491E-02  0.17573018723E-02  0.17130000002E+03  0.17130000000E+03 0. -1.
      622    1    1    2    0    0  0.29829009743E-02 -0.18254896131E-02  0.39840360741E+01  0.39852924196E+01  0.10000000000E+00 0.  1.
</event>
<event>
 5   0  0.6262544E+06  0.9118800E+02  0.7818608E-02  0.1180000E+00
       11   -1    0    0    0    0  0.00000000000E+00  0.00000000000E+00  0.39999999673E+01  0.40000000000E+01  0.51109989000E-03 0.  1.
     -623   -1    0    0    0    0  0.00000000000E+00  0.00000000000E+00  0.12525980253E-10  0.17130000000E+03  0.17130000000E+03 0. -1.
       11    1    1    2    0    0 -0.83938138389E-02  0.47898886979E-02  0.29454227295E-01  0.31003417117E-01  0.51109989000E-03 0.  1.
     -623    1    1    2    0    0  0.97236603901E-02 -0.11664464135E-01  0.28159962769E-02  0.17130000070E+03  0.17130000000E+03 0. -1.
      622    1    1    2    0    0 -0.13298465512E-02  0.68745754370E-02  0.39677297438E+01  0.39689958866E+01  0.10000000000E+00 0.  1.
</event>
<event>
 5   0  0.6262544E+06  0.9118800E+02  0.7818608E-02  0.1180000E+00
       11   -1    0    0    0    0  0.00000000000E+00  0.00000000000E+00  0.39999999673E+01  0.40000000000E+01  0.51109989000E-03 0. -1.
     -623   -1    0    0    0    0  0.00000000000E+00  0.00000000000E+00  0.12525980253E-10  0.17130000000E+03  0.17130000000E+03 0. -1.
       11    1    1    2    0    0  0.78885870207E-04  0.14706871252E-02  0.15246376283E-02  0.21805702456E-02  0.51109989000E-03 0. -1.
     -623    1    1    2    0    0  0.55866835198E-03 -0.82785094510E-03  0.19068935520E-02  0.17130000001E+03  0.17130000000E+03 0. -1.
      622    1    1    2    0    0 -0.63755422219E-03 -0.64283618011E-03  0.39965684362E+01  0.39978194163E+01  0.10000000000E+00 0. -1.
</event>
<event>
 5   0  0.6262544E+06  0.9118800E+02  0.7818608E-02  0.1180000E+00
       11   -1    0    0    0    0  0.00000000000E+00  0.00000000000E+00  0.39999999673E+01  0.40000000000E+01  0.51109989000E-03 0.  1.
     -623   -1    0    0    0    0  0.00000000000E+00  0.00000000000E+00  0.12525980253E-10  0.17130000000E+03  0.17130000000E+03 0.  1.
       11    1    1    2    0    0  0.87828507665E-02  0.35976776042E-02  0.84430866589E-01  0.84964193681E-01  0.51109989000E-03 0.  1.
     -623    1    1    2    0    0 -0.53495170366E-02 -0.81252601931E-02  0.18150410775E-02  0.17130000029E+03  0.17130000000E+03 0.  1.
      622    1    1    2    0    0 -0.34333337301E-02  0.45275825886E-02  0.39137540596E+01  0.39150355203E+01  0.10000000000E+00 0.  1.
</event>
<event>
 5   0  0.6262544E+06  0.9118800E+02  0.7818608E-02  0.1180000E+00
       11   -1    0    0    0    0  0.00000000000E+00  0.00000000000E+00  0.39999999673E+01  0.40000000000E+01  0.51109989000E-03 0.  1.
     -623   -1    0    0    0    0  0.00000000000E+00  0.00000000000E+00  0.12525980253E-10  0.17130000000E+03  0.17130000000E+03 0.  1.
       11    1    1    2    0    0  0.21681832479E-02 -0.23776089058E-01  0.32636436940E+00  0.32723686569E+00  0.51109989000E-03 0.  1.
     -623    1    1    2    0    0  0.34380765118E-01  0.12754414153E-01  0.24365051293E-02  0.17130000394E+03  0.17130000000E+03 0.  1.
      622    1    1    2    0    0 -0.36548948366E-01  0.11021674905E-01  0.36711990928E+01  0.36727591920E+01  0.10000000000E+00 0.  1.
</event>
<event>
 5   0  0.6262544E+06  0.9118800E+02  0.7818608E-02  0.1180000E+00
       11   -1    0    0    0    0  0.00000000000E+00  0.00000000000E+00  0.39999999673E+01  0.40000000000E+01  0.51109989000E-03 0.  1.
     -623   -1    0    0    0    0  0.00000000000E+00  0.00000000000E+00  0.12525980253E-10  0.17130000000E+03  0.17130000000E+03 0. -1.
       11    1    1    2    0    0 -0.39502266653E-03  0.41619888171E-02 -0.91875967033E-03  0.43108625877E-02  0.51109989000E-03 0.  1.
     -623    1    1    2    0    0 -0.39363375006E-02  0.15754145475E-01  0.65340280814E-02  0.17130000089E+03  0.17130000000E+03 0. -1.
      622    1    1    2    0    0  0.43313601673E-02 -0.19916134292E-01  0.39943846990E+01  0.39956882432E+01  0.10000000000E+00 0.  1.
</event>
<event>
 5   0  0.6262544E+06  0.9118800E+02  0.7818608E-02  0.1180000E+00
       11   -1    0    0    0    0  0.00000000000E+00  0.00000000000E+00  0.39999999673E+01  0.40000000000E+01  0.51109989000E-03 0. -1.
     -623   -1    0    0    0    0  0.00000000000E+00  0.00000000000E+00  0.12525980253E-10  0.17130000000E+03  0.17130000000E+03 0.  1.
       11    1    1    2    0    0  0.61091551596E-04 -0.64652261781E-02  0.10313638666E+01  0.10313842589E+01  0.51109989000E-03 0. -1.
     -623    1    1    2    0    0  0.30577967686E-02  0.31522253099E-02  0.17086782824E-02  0.17130000006E+03  0.17130000000E+03 0.  1.
      622    1    1    2    0    0 -0.31188883203E-02  0.33130008680E-02  0.29669274227E+01  0.29686156765E+01  0.10000000000E+00 0. -1.
</event>
<event>
 5   0  0.6262544E+06  0.9118800E+02  0.7818608E-02  0.1180000E+00
       11   -1    0    0    0    0  0.00000000000E+00  0.00000000000E+00  0.39999999673E+01  0.40000000000E+01  0.51109989000E-03 0. -1.
     -623   -1    0    0    0    0  0.00000000000E+00  0.00000000000E+00  0.12525980253E-10  0.17130000000E+03  0.17130000000E+03 0. -1.
       11    1    1    2    0    0 -0.29709202470E-02  0.62057306876E-02  0.97872058648E-02  0.11974476282E-01  0.51109989000E-03 0. -1.
     -623    1    1    2    0    0  0.34372476461E-02 -0.17042488069E-01  0.34568610253E-02  0.17130000092E+03  0.17130000000E+03 0. -1.
      622    1    1    2    0    0 -0.46632739908E-03  0.10836757382E-01  0.39867559004E+01  0.39880246065E+01  0.10000000000E+00 0. -1.
</event>
<event>
 5   0  0.6262544E+06  0.9118800E+02  0.7818608E-02  0.1180000E+00
       11   -1    0    0    0    0  0.00000000000E+00  0.00000000000E+00  0.39999999673E+01  0.40000000000E+01  0.51109989000E-03 0. -1.
     -623   -1    0    0    0    0  0.00000000000E+00  0.00000000000E+00  0.12525980253E-10  0.17130000000E+03  0.17130000000E+03 0. -1.
       11    1    1    2    0    0 -0.16788416105E-02  0.11260216207E-02  0.75866392470E-02  0.78679572956E-02  0.51109989000E-03 0. -1.
     -623    1    1    2    0    0 -0.48372332423E-02 -0.19258063535E-02  0.15394312661E-02  0.17130000009E+03  0.17130000000E+03 0. -1.
      622    1    1    2    0    0  0.65160748531E-02  0.79978473285E-03  0.39908738970E+01  0.39921319569E+01  0.10000000000E+00 0. -1.
</event>
<event>
 5   0  0.6262544E+06  0.9118800E+02  0.7818608E-02  0.1180000E+00
       11   -1    0    0    0    0  0.00000000000E+00  0.00000000000E+00  0.39999999673E+01  0.40000000000E+01  0.51109989000E-03 0.  1.
     -623   -1    0    0    0    0  0.00000000000E+00  0.00000000000E+00  0.12525980253E-10  0.17130000000E+03  0.17130000000E+03 0. -1.
       11    1    1    2    0    0  0.12196480210E-01 -0.54925189376E-02  0.50981606380E+00  0.50999176662E+00  0.51109989000E-03 0.  1.
     -623    1    1    2    0    0 -0.21513279536E-02  0.47895996520E-02  0.16232469989E-02  0.17130000009E+03  0.17130000000E+03 0. -1.
      622    1    1    2    0    0 -0.10045152257E-01  0.70291928563E-03  0.34885606566E+01  0.34900081452E+01  0.10000000000E+00 0.  1.
</event>
<event>
 5   0  0.6262544E+06  0.9118800E+02  0.7818608E-02  0.1180000E+00
       11   -1    0    0    0    0  0.00000000000E+00  0.00000000000E+00  0.39999999673E+01  0.40000000000E+01  0.51109989000E-03 0. -1.
     -623   -1    0    0    0    0  0.00000000000E+00  0.00000000000E+00  0.12525980253E-10  0.17130000000E+03  0.17130000000E+03 0. -1.
       11    1    1    2    0    0  0.38645442102E-02  0.33894714187E-02  0.12912782780E-01  0.13907710116E-01  0.51109989000E-03 0. -1.
     -623    1    1    2    0    0 -0.62794614636E-02 -0.17588591836E-01  0.22765165804E-02  0.17130000103E+03  0.17130000000E+03 0. -1.
      622    1    1    2    0    0  0.24149172533E-02  0.14199120417E-01  0.39848106680E+01  0.39860912566E+01  0.10000000000E+00 0. -1.
</event>
<event>
 5   0  0.6262544E+06  0.9118800E+02  0.7818608E-02  0.1180000E+00
       11   -1    0    0    0    0  0.00000000000E+00  0.00000000000E+00  0.39999999673E+01  0.40000000000E+01  0.51109989000E-03 0.  1.
     -623   -1    0    0    0    0  0.00000000000E+00  0.00000000000E+00  0.12525980253E-10  0.17130000000E+03  0.17130000000E+03 0. -1.
       11    1    1    2    0    0  0.48647269056E-02 -0.17874027789E-02  0.50982458175E-01  0.51247757405E-01  0.51109989000E-03 0.  1.
     -623    1    1    2    0    0  0.64356269085E-02  0.13079424766E-01  0.15646455034E-02  0.17130000063E+03  0.17130000000E+03 0. -1.
      622    1    1    2    0    0 -0.11300353814E-01 -0.11292021987E-01  0.39474528637E+01  0.39487516152E+01  0.10000000000E+00 0.  1.
</event>
<event>
 5   0  0.6262544E+06  0.9118800E+02  0.7818608E-02  0.1180000E+00
       11   -1    0    0    0    0  0.00000000000E+00  0.00000000000E+00  0.39999999673E+01  0.40000000000E+01  0.51109989000E-03 0.  1.
     -623   -1    0    0    0    0  0.00000000000E+00  0.00000000000E+00  0.12525980253E-10  0.17130000000E+03  0.17130000000E+03 0. -1.
       11    1    1    2    0    0  0.16015410883E-01 -0.13116713904E-01  0.40472062364E+00  0.40525002898E+00  0.51109989000E-03 0.  1.
     -623    1    1    2    0    0  0.12394014402E-01  0.30721122559E-02  0.20473925240E-02  0.17130000049E+03  0.17130000000E+03 0. -1.
      622    1    1    2    0    0 -0.28409425285E-01  0.10044601648E-01  0.35932319512E+01  0.35947494829E+01  0.10000000000E+00 0.  1.
</event>
<event>
 5   0  0.6262544E+06  0.9118800E+02  0.7818608E-02  0.1180000E+00
       11   -1    0    0    0    0  0.00000000000E+00  0.00000000000E+00  0.39999999673E+01  0.40000000000E+01  0.51109989000E-03 0. -1.
     -623   -1    0    0    0    0  0.00000000000E+00  0.00000000000E+00  0.12525980253E-10  0.17130000000E+03  0.17130000000E+03 0.  1.
       11    1    1    2    0    0  0.16156471928E-01 -0.13282753057E-01  0.19675462611E+00  0.19786386034E+00  0.51109989000E-03 0. -1.
     -623    1    1    2    0    0 -0.49495194643E-02  0.53274128033E-02  0.24494990103E-02  0.17130000017E+03  0.17130000000E+03 0.  1.
      622    1    1    2    0    0 -0.11206952463E-01  0.79553402540E-02  0.38007958422E+01  0.38021359678E+01  0.10000000000E+00 0. -1.
</event>
<event>
 5   0  0.6262544E+06  0.9118800E+02  0.7818608E-02  0.1180000E+00
       11   -1    0    0    0    0  0.00000000000E+00  0.00000000000E+00  0.39999999673E+01  0.40000000000E+01  0.51109989000E-03 0.  1.
     -623   -1    0    0    0    0  0.00000000000E+00  0.00000000000E+00  0.12525980253E-10  0.17130000000E+03  0.17130000000E+03 0.  1.
       11    1    1    2    0    0  0.81390020643E-02 -0.34546554506E-02  0.87753530851E-01  0.88199327638E-01  0.51109989000E-03 0.  1.
     -623    1    1    2    0    0 -0.30834758897E-02  0.72620159640E-02  0.17294686092E-02  0.17130000019E+03  0.17130000000E+03 0.  1.
      622    1    1    2    0    0 -0.50555261746E-02 -0.38073605134E-02  0.39105169679E+01  0.39118004819E+01  0.10000000000E+00 0.  1.
</event>
<event>
 5   0  0.6262544E+06  0.9118800E+02  0.7818608E-02  0.1180000E+00
       11   -1    0    0    0    0  0.00000000000E+00  0.00000000000E+00  0.39999999673E+01  0.40000000000E+01  0.51109989000E-03 0.  1.
     -623   -1    0    0    0    0  0.00000000000E+00  0.00000000000E+00  0.12525980253E-10  0.17130000000E+03  0.17130000000E+03 0. -1.
       11    1    1    2    0    0 -0.64480450054E-02  0.15317163011E-01  0.28743362871E+00  0.28791412766E+00  0.51109989000E-03 0.  1.
     -623    1    1    2    0    0  0.12866111338E-01 -0.10350735130E-01  0.18373422605E-02  0.17130000081E+03  0.17130000000E+03 0. -1.
      622    1    1    2    0    0 -0.64180663333E-02 -0.49664278803E-02  0.37107289966E+01  0.37120850668E+01  0.10000000000E+00 0.  1.
</event>
<event>
 5   0  0.6262544E+06  0.9118800E+02  0.7818608E-02  0.1180000E+00
       11   -1    0    0    0    0  0.00000000000E+00  0.00000000000E+00  0.39999999673E+01  0.40000000000E+01  0.51109989000E-03 0.  1.
     -623   -1    0    0    0    0  0.00000000000E+00  0.00000000000E+00  0.12525980253E-10  0.17130000000E+03  0.17130000000E+03 0. -1.
       11    1    1    2    0    0 -0.62434792164E-02 -0.54470088318E-02  0.18399394339E+00  0.18418111565E+00  0.51109989000E-03 0.  1.
     -623    1    1    2    0    0  0.31051898324E-01  0.13839727073E-01  0.15909887206E-02  0.17130000338E+03  0.17130000000E+03 0. -1.
      622    1    1    2    0    0 -0.24808419108E-01 -0.83927182408E-02  0.38144150352E+01  0.38158155035E+01  0.10000000000E+00 0.  1.
</event>
<event>
 5   0  0.6262544E+06  0.9118800E+02  0.7818608E-02  0.1180000E+00
       11   -1    0    0    0    0  0.00000000000E+00  0.00000000000E+00  0.39999999673E+01  0.40000000000E+01  0.51109989000E-03 0. -1.
     -623   -1    0    0    0    0  0.00000000000E+00  0.00000000000E+00  0.12525980253E-10  0.17130000000E+03  0.17130000000E+03 0.  1.
       11    1    1    2    0    0  0.87044456691E-02 -0.22078596126E-02  0.14621584620E+00  0.14649224185E+00  0.51109989000E-03 0. -1.
     -623    1    1    2    0    0 -0.37717578591E-01 -0.58332682534E-01  0.21732285283E-02  0.17130001410E+03  0.17130000000E+03 0.  1.
      622    1    1    2    0    0  0.29013132926E-01  0.60540542153E-01  0.38516108931E+01  0.38534936604E+01  0.10000000000E+00 0. -1.
</event>
<event>
 5   0  0.6262544E+06  0.9118800E+02  0.7818608E-02  0.1180000E+00
       11   -1    0    0    0    0  0.00000000000E+00  0.00000000000E+00  0.39999999673E+01  0.40000000000E+01  0.51109989000E-03 0. -1.
     -623   -1    0    0    0    0  0.00000000000E+00  0.00000000000E+00  0.12525980253E-10  0.17130000000E+03  0.17130000000E+03 0. -1.
       11    1    1    2    0    0 -0.31948332514E-03 -0.79457287777E-03 -0.49164361847E-03  0.11119137549E-02  0.51109989000E-03 0. -1.
     -623    1    1    2    0    0  0.32911533470E-04 -0.15727919519E-02  0.28548100986E-02  0.17130000003E+03  0.17130000000E+03 0. -1.
      622    1    1    2    0    0  0.28657179167E-03  0.23673648297E-02  0.39976368011E+01  0.39988880554E+01  0.10000000000E+00 0. -1.
</event>
<event>
 5   0  0.6262544E+06  0.9118800E+02  0.7818608E-02  0.1180000E+00
       11   -1    0    0    0    0  0.00000000000E+00  0.00000000000E+00  0.39999999673E+01  0.40000000000E+01  0.51109989000E-03 0. -1.
     -623   -1    0    0    0    0  0.00000000000E+00  0.00000000000E+00  0.12525980253E-10  0.17130000000E+03  0.17130000000E+03 0.  1.
       11    1    1    2    0    0  0.42249133794E-02 -0.38714506200E-03  0.10885638458E+00  0.10894022885E+00  0.51109989000E-03 0. -1.
     -623    1    1    2    0    0  0.23995180074E-02 -0.17094960467E-02  0.13752576007E-02  0.17130000003E+03  0.17130000000E+03 0.  1.
      622    1    1    2    0    0 -0.66244313869E-02  0.20966411087E-02  0.38897683252E+01  0.38910597403E+01  0.10000000000E+00 0. -1.
</event>
<event>
 5   0  0.6262544E+06  0.9118800E+02  0.7818608E-02  0.1180000E+00
       11   -1    0    0    0    0  0.00000000000E+00  0.00000000000E+00  0.39999999673E+01  0.40000000000E+01  0.51109989000E-03 0.  1.
     -623   -1    0    0    0    0  0.00000000000E+00  0.00000000000E+00  0.12525980253E-10  0.17130000000E+03  0.17130000000E+03 0.  1.
       11    1    1    2    0    0  0.57480590807E-02  0.11816641057E-02  0.11095795783E-01  0.12562420961E-01  0.51109989000E-03 0.  1.
     -623    1    1    2    0    0  0.13472390684E-01 -0.75345963875E-03  0.27676434116E-02  0.17130000055E+03  0.17130000000E+03 0.  1.
      622    1    1    2    0    0 -0.19220449765E-01 -0.42820446693E-03  0.39861365282E+01  0.39874370253E+01  0.10000000000E+00 0.  1.
</event>
<event>
 5   0  0.6262544E+06  0.9118800E+02  0.7818608E-02  0.1180000E+00
       11   -1    0    0    0    0  0.00000000000E+00  0.00000000000E+00  0.39999999673E+01  0.40000000000E+01  0.51109989000E-03 0.  1.
     -623   -1    0    0    0    0  0.00000000000E+00  0.00000000000E+00  0.12525980253E-10  0.17130000000E+03  0.17130000000E+03 0. -1.
       11    1    1    2    0    0 -0.18967943317E-02  0.11412201396E-02  0.72399818664E-01  0.72435455254E-01  0.51109989000E-03 0.  1.
     -623    1    1    2    0    0  0.11671372303E-02  0.79206227366E-03  0.13094184723E-02  0.17130000001E+03  0.17130000000E+03 0. -1.
      622    1    1    2    0    0  0.72965710142E-03 -0.19332824133E-02  0.39262907304E+01  0.39275645341E+01  0.10000000000E+00 0.  1.
</event>
<event>
 5   0  0.6262544E+06  0.9118800E+02  0.7818608E-02  0.1180000E+00
       11   -1    0    0    0    0  0.00000000000E+00  0.00000000000E+00  0.39999999673E+01  0.40000000000E+01  0.51109989000E-03 0.  1.
     -623   -1    0    0    0    0  0.00000000000E+00  0.00000000000E+00  0.12525980253E-10  0.17130000000E+03  0.17130000000E+03 0.  1.
       11    1    1    2    0    0  0.77182948271E-01  0.94266929673E-02  0.24275318742E+01  0.24287769209E+01  0.51109989000E-03 0.  1.
     -623    1    1    2    0    0 -0.25016882811E-01 -0.16229725877E-01  0.53159087990E-02  0.17130000268E+03  0.17130000000E+03 0.  1.
      622    1    1    2    0    0 -0.52166065460E-01  0.68030329092E-02  0.15671521843E+01  0.15712204010E+01  0.10000000000E+00 0.  1.
</event>
<event>
 5   0  0.6262544E+06  0.9118800E+02  0.7818608E-02  0.1180000E+00
       11   -1    0    0    0    0  0.00000000000E+00  0.00000000000E+00  0.39999999673E+01  0.40000000000E+01  0.51109989000E-03 0.  1.
     -623   -1    0    0    0    0  0.00000000000E+00  0.00000000000E+00  0.12525980253E-10  0.17130000000E+03  0.17130000000E+03 0.  1.
       11    1    1    2    0    0  0.54686426733E-02  0.69392782902E-02  0.15024758143E-01  0.17437437204E-01  0.51109989000E-03 0.  1.
     -623    1    1    2    0    0 -0.59070810902E-02 -0.21466464934E-02  0.36713809103E-02  0.17130000015E+03  0.17130000000E+03 0.  1.
      622    1    1    2    0    0  0.43843841698E-03 -0.47926317969E-02  0.39813038284E+01  0.39825624082E+01  0.10000000000E+00 0.  1.
</event>
<event>
 5   0  0.6262544E+06  0.9118800E+02  0.7818608E-02  0.1180000E+00
       11   -1    0    0    0    0  0.00000000000E+00  0.00000000000E+00  0.39999999673E+01  0.40000000000E+01  0.51109989000E-03 0. -1.
     -623   -1    0    0    0    0  0.00000000000E+00  0.00000000000E+00  0.12525980253E-10  0.17130000000E+03  0.17130000000E+03 0.  1.
       11    1    1    2    0    0  0.12537947189E-01 -0.35510816018E-01  0.30011306121E+01  0.30013669269E+01  0.51109989000E-03 0. -1.
     -623    1    1    2    0    0  0.17499745427E-01  0.12063457530E-01  0.59881286089E-02  0.17130000142E+03  0.17130000000E+03 0.  1.
      622    1    1    2    0    0 -0.30037692615E-01  0.23447358488E-01  0.99288122669E+00  0.99863164976E+00  0.10000000000E+00 0. -1.
</event>
<event>
 5   0  0.6262544E+06  0.9118800E+02  0.7818608E-02  0.1180000E+00
       11   -1    0    0    0    0  0.00000000000E+00  0.00000000000E+00  0.39999999673E+01  0.40000000000E+01  0.51109989000E-03 0.  1.
     -623   -1    0    0    0    0  0.00000000000E+00  0.00000000000E+00  0.12525980253E-10  0.17130000000E+03  0.17130000000E+03 0.  1.
       11    1    1    2    0    0  0.80083784465E-03 -0.56201070343E-03  0.51152914521E-01  0.51164822703E-01  0.51109989000E-03 0.  1.
     -623    1    1    2    0    0 -0.15726153223E-03 -0.14099723412E-02  0.12788304453E-02  0.17130000001E+03  0.17130000000E+03 0.  1.
      622    1    1    2    0    0 -0.64357631242E-03  0.19719830446E-02  0.39475682224E+01  0.39488351666E+01  0.10000000000E+00 0.  1.
</event>
<event>
 5   0  0.6262544E+06  0.9118800E+02  0.7818608E-02  0.1180000E+00
       11   -1    0    0    0    0  0.00000000000E+00  0.00000000000E+00  0.39999999673E+01  0.40000000000E+01  0.51109989000E-03 0. -1.
     -623   -1    0    0    0    0  0.00000000000E+00  0.00000000000E+00  0.12525980253E-10  0.17130000000E+03  0.17130000000E+03 0.  1.
       11    1    1    2    0    0 -0.13089839181E-01  0.13548001512E-02  0.84595408513E+00  0.84605659075E+00  0.51109989000E-03 0. -1.
     -623    1    1    2    0    0  0.54090120400E-03  0.10747142968E-02  0.17141151646E-02  0.17130000001E+03  0.17130000000E+03 0.  1.
      622    1    1    2    0    0  0.12548937977E-01 -0.24295144480E-02  0.31523317671E+01  0.31539433965E+01  0.10000000000E+00 0. -1.
</event>
<event>
 5   0  0.6262544E+06  0.9118800E+02  0.7818608E-02  0.1180000E+00
       11   -1    0    0    0    0  0.00000000000E+00  0.00000000000E+00  0.39999999673E+01  0.40000000000E+01  0.51109989000E-03 0.  1.
     -623   -1    0    0    0    0  0.00000000000E+00  0.00000000000E+00  0.12525980253E-10  0.17130000000E+03  0.17130000000E+03 0.  1.
       11    1    1    2    0    0 -0.21379917308E-02  0.60952101885E-02  0.90425927660E-02  0.11124401105E-01  0.51109989000E-03 0.  1.
     -623    1    1    2    0    0  0.65367640967E-02 -0.58785574143E-02  0.33381490217E-02  0.17130000026E+03  0.17130000000E+03 0.  1.
      622    1    1    2    0    0 -0.43987723659E-02 -0.21665277416E-03  0.39876192256E+01  0.39888753408E+01  0.10000000000E+00 0.  1.
</event>
<event>
 5   0  0.6262544E+06  0.9118800E+02  0.7818608E-02  0.1180000E+00
       11   -1    0    0    0    0  0.00000000000E+00  0.00000000000E+00  0.39999999673E+01  0.40000000000E+01  0.51109989000E-03 0.  1.
     -623   -1    0    0    0    0  0.00000000000E+00  0.00000000000E+00  0.12525980253E-10  0.17130000000E+03  0.17130000000E+03 0.  1.
       11    1    1    2    0    0  0.77172206381E-03  0.88707602777E-03  0.65997553861E-02  0.67231281496E-02  0.51109989000E-03 0.  1.
     -623    1    1    2    0    0 -0.88817969251E-04 -0.58482217986E-02  0.13788876161E-02  0.17130000011E+03  0.17130000000E+03 0.  1.
      622    1    1    2    0    0 -0.68290409456E-03  0.49611457708E-02  0.39920213244E+01  0.39932767664E+01  0.10000000000E+00 0.  1.
</event>
<event>
 5   0  0.6262544E+06  0.9118800E+02  0.7818608E-02  0.1180000E+00
       11   -1    0    0    0    0  0.00000000000E+00  0.00000000000E+00  0.39999999673E+01  0.40000000000E+01  0.51109989000E-03 0.  1.
     -623   -1    0    0    0    0  0.00000000000E+00  0.00000000000E+00  0.12525980253E-10  0.17130000000E+03  0.17130000000E+03 0.  1.
       11    1    1    2    0    0 -0.10962722829E-01 -0.46414254489E-01  0.83201949065E-01  0.95902501859E-01  0.51109989000E-03 0.  1.
     -623    1    1    2    0    0 -0.23924167005E-01  0.44263941367E-01  0.14145933318E-01  0.17130000797E+03  0.17130000000E+03 0.  1.
      622    1    1    2    0    0  0.34886889835E-01  0.21503131211E-02  0.39026520850E+01  0.39040895245E+01  0.10000000000E+00 0.  1.
</event>
<event>
 5   0  0.6262544E+06  0.9118800E+02  0.7818608E-02  0.1180000E+00
       11   -1    0    0    0    0  0.00000000000E+00  0.00000000000E+00  0.39999999673E+01  0.40000000000E+01  0.51109989000E-03 0.  1.
     -623   -1    0    0    0    0  0.00000000000E+00  0.00000000000E+00  0.12525980253E-10  0.17130000000E+03  0.17130000000E+03 0.  1.
       11    1    1    2    0    0 -0.35532213185E-01 -0.11616949469E-01  0.48147908762E+00  0.48292842610E+00  0.51109989000E-03 0.  1.
     -623    1    1    2    0    0 -0.54738739109E-02  0.46669209785E-02  0.31174331907E-02  0.17130000018E+03  0.17130000000E+03 0.  1.
      622    1    1    2    0    0  0.41006087096E-01  0.69500284907E-02  0.35154034465E+01  0.35170713945E+01  0.10000000000E+00 0.  1.
</event>
<event>
 5   0  0.6262544E+06  0.9118800E+02  0.7818608E-02  0.1180000E+00
       11   -1    0    0    0    0  0.00000000000E+00  0.00000000000E+00  0.39999999673E+01  0.40000000000E+01  0.51109989000E-03 0. -1.
     -623   -1    0    0    0    0  0.00000000000E+00  0.00000000000E+00  0.12525980253E-10  0.17130000000E+03  0.17130000000E+03 0. -1.
       11    1    1    2    0    0 -0.23714950129E-01  0.74936351606E-02  0.15368111709E+00  0.15568140672E+00  0.51109989000E-03 0. -1.
     -623    1    1    2    0    0  0.87826746499E-02  0.30845895634E-01  0.35243994226E-02  0.17130000304E+03  0.17130000000E+03 0. -1.
      622    1    1    2    0    0  0.14932275479E-01 -0.38339530795E-01  0.38427944508E+01  0.38443155547E+01  0.10000000000E+00 0. -1.
</event>
<event>
 5   0  0.6262544E+06  0.9118800E+02  0.7818608E-02  0.1180000E+00
       11   -1    0    0    0    0  0.00000000000E+00  0.00000000000E+00  0.39999999673E+01  0.40000000000E+01  0.51109989000E-03 0.  1.
     -623   -1    0    0    0    0  0.00000000000E+00  0.00000000000E+00  0.12525980253E-10  0.17130000000E+03  0.17130000000E+03 0. -1.
       11    1    1    2    0    0 -0.24491744580E-01  0.11425315834E+00  0.11343368367E+01  0.11403394013E+01  0.51109989000E-03 0.  1.
     -623    1    1    2    0    0 -0.31845828977E-04  0.12727404814E-01  0.10680002558E-01  0.17130000081E+03  0.17130000000E+03 0. -1.
      622    1    1    2    0    0  0.24523590409E-01 -0.12698056315E+00  0.28549831280E+01  0.28596597929E+01  0.10000000000E+00 0.  1.
</event>
<event>
 5   0  0.6262544E+06  0.9118800E+02  0.7818608E-02  0.1180000E+00
       11   -1    0    0    0    0  0.00000000000E+00  0.00000000000E+00  0.39999999673E+01  0.40000000000E+01  0.51109989000E-03 0.  1.
     -623   -1    0    0    0    0  0.00000000000E+00  0.00000000000E+00  0.12525980253E-10  0.17130000000E+03  0.17130000000E+03 0. -1.
       11    1    1    2    0    0 -0.59638185016E-03  0.13176219379E-02  0.67387311937E-02  0.69111156901E-02  0.51109989000E-03 0.  1.
     -623    1    1    2    0    0  0.14603531132E-02 -0.54332763206E-02  0.14270252272E-02  0.17130000010E+03  0.17130000000E+03 0. -1.
      622    1    1    2    0    0 -0.86397126310E-03  0.41156543827E-02  0.39918342110E+01  0.39930887860E+01  0.10000000000E+00 0.  1.
</event>
<event>
 5   0  0.6262544E+06  0.9118800E+02  0.7818608E-02  0.1180000E+00
       11   -1    0    0    0    0  0.00000000000E+00  0.00000000000E+00  0.39999999673E+01  0.40000000000E+01  0.51109989000E-03 0.  1.
     -623   -1    0    0    0    0  0.00000000000E+00  0.00000000000E+00  0.12525980253E-10  0.17130000000E+03  0.17130000000E+03 0.  1.
       11    1    1    2    0    0 -0.37830633988E-02  0.49496654465E-02  0.15841877770E-01  0.17030474776E-01  0.51109989000E-03 0.  1.
     -623    1    1    2    0    0  0.49128379452E-02  0.63521863814E-03  0.24482732426E-02  0.17130000009E+03  0.17130000000E+03 0.  1.
      622    1    1    2    0    0 -0.11297745464E-02 -0.55848840846E-02  0.39817098163E+01  0.39829694361E+01  0.10000000000E+00 0.  1.
</event>
<event>
 5   0  0.6262544E+06  0.9118800E+02  0.7818608E-02  0.1180000E+00
       11   -1    0    0    0    0  0.00000000000E+00  0.00000000000E+00  0.39999999673E+01  0.40000000000E+01  0.51109989000E-03 0.  1.
     -623   -1    0    0    0    0  0.00000000000E+00  0.00000000000E+00  0.12525980253E-10  0.17130000000E+03  0.17130000000E+03 0. -1.
       11    1    1    2    0    0 -0.42754459046E-02  0.13279412420E-02  0.53151622678E-01  0.53342282302E-01  0.51109989000E-03 0.  1.
     -623    1    1    2    0    0  0.51514788076E-02 -0.17752981000E-01  0.14930162955E-02  0.17130000100E+03  0.17130000000E+03 0. -1.
      622    1    1    2    0    0 -0.87603290291E-03  0.16425039758E-01  0.39453553284E+01  0.39466567138E+01  0.10000000000E+00 0.  1.
</event>
<event>
 5   0  0.6262544E+06  0.9118800E+02  0.7818608E-02  0.1180000E+00
       11   -1    0    0    0    0  0.00000000000E+00  0.00000000000E+00  0.39999999673E+01  0.40000000000E+01  0.51109989000E-03 0. -1.
     -623   -1    0    0    0    0  0.00000000000E+00  0.00000000000E+00  0.12525980253E-10  0.17130000000E+03  0.17130000000E+03 0. -1.
       11    1    1    2    0    0 -0.16214202002E-02  0.53664433369E-03  0.11909459037E-01  0.12042152080E-01  0.51109989000E-03 0. -1.
     -623    1    1    2    0    0  0.84980840695E-02 -0.86186104071E-02  0.14011883677E-02  0.17130000043E+03  0.17130000000E+03 0. -1.
      622    1    1    2    0    0 -0.68766638693E-02  0.80819660734E-02  0.39866893200E+01  0.39879574146E+01  0.10000000000E+00 0. -1.
</event>
<event>
 5   0  0.6262544E+06  0.9118800E+02  0.7818608E-02  0.1180000E+00
       11   -1    0    0    0    0  0.00000000000E+00  0.00000000000E+00  0.39999999673E+01  0.40000000000E+01  0.51109989000E-03 0. -1.
     -623   -1    0    0    0    0  0.00000000000E+00  0.00000000000E+00  0.12525980253E-10  0.17130000000E+03  0.17130000000E+03 0. -1.
       11    1    1    2    0    0 -0.43027571938E-02 -0.17167080242E-02  0.71816577821E-01  0.71967651611E-01  0.51109989000E-03 0. -1.
     -623    1    1    2    0    0 -0.34737227630E-02 -0.34202893072E-03  0.14324308559E-02  0.17130000004E+03  0.17130000000E+03 0. -1.
      622    1    1    2    0    0  0.77764799568E-02  0.20587369549E-02  0.39267509587E+01  0.39280323068E+01  0.10000000000E+00 0. -1.
</event>
<event>
 5   0  0.6262544E+06  0.9118800E+02  0.7818608E-02  0.1180000E+00
       11   -1    0    0    0    0  0.00000000000E+00  0.00000000000E+00  0.39999999673E+01  0.40000000000E+01  0.51109989000E-03 0.  1.
     -623   -1    0    0    0    0  0.00000000000E+00  0.00000000000E+00  0.12525980253E-10  0.17130000000E+03  0.17130000000E+03 0.  1.
       11    1    1    2    0    0  0.21653681205E-02  0.32520264761E-02  0.13559868970E+00  0.13565592640E+00  0.51109989000E-03 0.  1.
     -623    1    1    2    0    0  0.39256221373E-02  0.40324032729E-02  0.13630692369E-02  0.17130000010E+03  0.17130000000E+03 0.  1.
      622    1    1    2    0    0 -0.60909902578E-02 -0.72844297490E-02  0.38630382085E+01  0.38643439758E+01  0.10000000000E+00 0.  1.
</event>
<event>
 5   0  0.6262544E+06  0.9118800E+02  0.7818608E-02  0.1180000E+00
       11   -1    0    0    0    0  0.00000000000E+00  0.00000000000E+00  0.39999999673E+01  0.40000000000E+01  0.51109989000E-03 0.  1.
     -623   -1    0    0    0    0  0.00000000000E+00  0.00000000000E+00  0.12525980253E-10  0.17130000000E+03  0.17130000000E+03 0. -1.
       11    1    1    2    0    0 -0.55381326793E-01 -0.42809304556E-01  0.80990552382E-01  0.10704886133E+00  0.51109989000E-03 0.  1.
     -623    1    1    2    0    0  0.67529342621E-02  0.84273677349E-01  0.27890753409E-01  0.17130002313E+03  0.17130000000E+03 0. -1.
      622    1    1    2    0    0  0.48628392530E-01 -0.41464372793E-01  0.38911186616E+01  0.38929280051E+01  0.10000000000E+00 0.  1.
</event>
<event>
 5   0  0.6262544E+06  0.9118800E+02  0.7818608E-02  0.1180000E+00
       11   -1    0    0    0    0  0.00000000000E+00  0.00000000000E+00  0.39999999673E+01  0.40000000000E+01  0.51109989000E-03 0.  1.
     -623   -1    0    0    0    0  0.00000000000E+00  0.00000000000E+00  0.12525980253E-10  0.17130000000E+03  0.17130000000E+03 0.  1.
       11    1    1    2    0    0 -0.26967721605E-02  0.12398762231E-02  0.29152913511E+00  0.29154469248E+00  0.51109989000E-03 0.  1.
     -623    1    1    2    0    0 -0.82441207096E-02  0.54513479609E-02  0.13865149011E-02  0.17130000029E+03  0.17130000000E+03 0.  1.
      622    1    1    2    0    0  0.10940892870E-01 -0.66912241840E-02  0.37070843173E+01  0.37084550168E+01  0.10000000000E+00 0.  1.
</event>
<event>
 5   0  0.6262544E+06  0.9118800E+02  0.7818608E-02  0.1180000E+00
       11   -1    0    0    0    0  0.00000000000E+00  0.00000000000E+00  0.39999999673E+01  0.40000000000E+01  0.51109989000E-03 0. -1.
     -623   -1    0    0    0    0  0.00000000000E+00  0.00000000000E+00  0.12525980253E-10  0.17130000000E+03  0.17130000000E+03 0.  1.
       11    1    1    2    0    0  0.24697574826E-02  0.20315860140E-01  0.45139806981E+00  0.45186205033E+00  0.51109989000E-03 0. -1.
     -623    1    1    2    0    0  0.65766316596E-02 -0.46360801815E-02  0.19198142732E-02  0.17130000020E+03  0.17130000000E+03 0.  1.
      622    1    1    2    0    0 -0.90463891423E-02 -0.15679779959E-01  0.35466820833E+01  0.35481377500E+01  0.10000000000E+00 0. -1.
</event>
<event>
 5   0  0.6262544E+06  0.9118800E+02  0.7818608E-02  0.1180000E+00
       11   -1    0    0    0    0  0.00000000000E+00  0.00000000000E+00  0.39999999673E+01  0.40000000000E+01  0.51109989000E-03 0. -1.
     -623   -1    0    0    0    0  0.00000000000E+00  0.00000000000E+00  0.12525980253E-10  0.17130000000E+03  0.17130000000E+03 0. -1.
       11    1    1    2    0    0 -0.49701636063E-02  0.83458342793E-02  0.33172469351E+00  0.33186727615E+00  0.51109989000E-03 0. -1.
     -623    1    1    2    0    0  0.14604078730E-02  0.61778239961E-02  0.15364624196E-02  0.17130000012E+03  0.17130000000E+03 0. -1.
      622    1    1    2    0    0  0.35097557333E-02 -0.14523658275E-01  0.36667388114E+01  0.36681325993E+01  0.10000000000E+00 0. -1.
</event>
<event>
 5   0  0.6262544E+06  0.9118800E+02  0.7818608E-02  0.1180000E+00
       11   -1    0    0    0    0  0.00000000000E+00  0.00000000000E+00  0.39999999673E+01  0.40000000000E+01  0.51109989000E-03 0. -1.
     -623   -1    0    0    0    0  0.00000000000E+00  0.00000000000E+00  0.12525980253E-10  0.17130000000E+03  0.17130000000E+03 0.  1.
       11    1    1    2    0    0  0.23048717276E-02 -0.21793851412E-01  0.40322139428E+00  0.40381683771E+00  0.51109989000E-03 0. -1.
     -623    1    1    2    0    0  0.10621098807E-01  0.14139704139E-01  0.20183558993E-02  0.17130000092E+03  0.17130000000E+03 0.  1.
      622    1    1    2    0    0 -0.12925970535E-01  0.76541472728E-02  0.35947602172E+01  0.35961822376E+01  0.10000000000E+00 0. -1.
</event>
<event>
 5   0  0.6262544E+06  0.9118800E+02  0.7818608E-02  0.1180000E+00
       11   -1    0    0    0    0  0.00000000000E+00  0.00000000000E+00  0.39999999673E+01  0.40000000000E+01  0.51109989000E-03 0. -1.
     -623   -1    0    0    0    0  0.00000000000E+00  0.00000000000E+00  0.12525980253E-10  0.17130000000E+03  0.17130000000E+03 0. -1.
       11    1    1    2    0    0 -0.39153968018E-02  0.15409678304E-02  0.78065300671E-02  0.88830202497E-02  0.51109989000E-03 0. -1.
     -623    1    1    2    0    0  0.63062392413E-03 -0.10999245546E-01  0.23423697200E-02  0.17130000037E+03  0.17130000000E+03 0. -1.
      622    1    1    2    0    0  0.32847728776E-02  0.94582777164E-02  0.39898510678E+01  0.39911166097E+01  0.10000000000E+00 0. -1.
</event>
<event>
 5   0  0.6262544E+06  0.9118800E+02  0.7818608E-02  0.1180000E+00
       11   -1    0    0    0    0  0.00000000000E+00  0.00000000000E+00  0.39999999673E+01  0.40000000000E+01  0.51109989000E-03 0. -1.
     -623   -1    0    0    0    0  0.00000000000E+00  0.00000000000E+00  0.12525980253E-10  0.17130000000E+03  0.17130000000E+03 0. -1.
       11    1    1    2    0    0 -0.16028508327E-01  0.10716006280E-01  0.96638660338E-01  0.98544597847E-01  0.51109989000E-03 0. -1.
     -623    1    1    2    0    0  0.14650135064E-01  0.24955987945E-02  0.32109838091E-02  0.17130000067E+03  0.17130000000E+03 0. -1.
      622    1    1    2    0    0  0.13783732626E-02 -0.13211605075E-01  0.39001503233E+01  0.39014547275E+01  0.10000000000E+00 0. -1.
</event>
<event>
 5   0  0.6262544E+06  0.9118800E+02  0.7818608E-02  0.1180000E+00
       11   -1    0    0    0    0  0.00000000000E+00  0.00000000000E+00  0.39999999673E+01  0.40000000000E+01  0.51109989000E-03 0.  1.
     -623   -1    0    0    0    0  0.00000000000E+00  0.00000000000E+00  0.12525980253E-10  0.17130000000E+03  0.17130000000E+03 0.  1.
       11    1    1    2    0    0 -0.13121087827E-02 -0.35414861882E-01  0.48362867326E+00  0.48492565295E+00  0.51109989000E-03 0.  1.
     -623    1    1    2    0    0 -0.14741245346E-01  0.18794990520E-01  0.27973491564E-02  0.17130000169E+03  0.17130000000E+03 0.  1.
      622    1    1    2    0    0  0.16053354128E-01  0.16619871362E-01  0.35135739449E+01  0.35150726588E+01  0.10000000000E+00 0.  0.
</event>
<event>
 5   0  0.6262544E+06  0.9118800E+02  0.7818608E-02  0.1180000E+00
       11   -1    0    0    0    0  0.00000000000E+00  0.00000000000E+00  0.39999999673E+01  0.40000000000E+01  0.51109989000E-03 0. -1.
     -623   -1    0    0    0    0  0.00000000000E+00  0.00000000000E+00  0.12525980253E-10  0.17130000000E+03  0.17130000000E+03 0.  1.
       11    1    1    2    0    0  0.22332953997E-02  0.68819515988E-02  0.25645169988E-01  0.26651169448E-01  0.51109989000E-03 0. -1.
     -623    1    1    2    0    0  0.89602428351E-04 -0.20058077887E-02  0.22682495021E-02  0.17130000003E+03  0.17130000000E+03 0.  1.
      622    1    1    2    0    0 -0.23228978281E-02 -0.48761438101E-02  0.39720865478E+01  0.39733488037E+01  0.10000000000E+00 0. -1.
</event>
<event>
 5   0  0.6262544E+06  0.9118800E+02  0.7818608E-02  0.1180000E+00
       11   -1    0    0    0    0  0.00000000000E+00  0.00000000000E+00  0.39999999673E+01  0.40000000000E+01  0.51109989000E-03 0. -1.
     -623   -1    0    0    0    0  0.00000000000E+00  0.00000000000E+00  0.12525980253E-10  0.17130000000E+03  0.17130000000E+03 0.  1.
       11    1    1    2    0    0 -0.51527606067E-01 -0.92491527498E-02  0.38926337604E+00  0.39276822448E+00  0.51109989000E-03 0. -1.
     -623    1    1    2    0    0  0.51501897837E-02  0.28364046538E-02  0.51953285030E-02  0.17130000018E+03  0.17130000000E+03 0.  1.
      622    1    1    2    0    0  0.46377416284E-01  0.64127480961E-02  0.36055412628E+01  0.36072315959E+01  0.10000000000E+00 0. -1.
</event>
<event>
 5   0  0.6262544E+06  0.9118800E+02  0.7818608E-02  0.1180000E+00
       11   -1    0    0    0    0  0.00000000000E+00  0.00000000000E+00  0.39999999673E+01  0.40000000000E+01  0.51109989000E-03 0. -1.
     -623   -1    0    0    0    0  0.00000000000E+00  0.00000000000E+00  0.12525980253E-10  0.17130000000E+03  0.17130000000E+03 0. -1.
       11    1    1    2    0    0 -0.63437824168E-02 -0.61895403963E-02  0.10181382681E+01  0.10181769729E+01  0.51109989000E-03 0. -1.
     -623    1    1    2    0    0  0.41796641577E-01  0.58754061515E-02  0.19320883913E-02  0.17130000521E+03  0.17130000000E+03 0. -1.
      622    1    1    2    0    0 -0.35452859160E-01  0.31413424479E-03  0.29799296109E+01  0.29818178163E+01  0.10000000000E+00 0. -1.
</event>
<event>
 5   0  0.6262544E+06  0.9118800E+02  0.7818608E-02  0.1180000E+00
       11   -1    0    0    0    0  0.00000000000E+00  0.00000000000E+00  0.39999999673E+01  0.40000000000E+01  0.51109989000E-03 0.  1.
     -623   -1    0    0    0    0  0.00000000000E+00  0.00000000000E+00  0.12525980253E-10  0.17130000000E+03  0.17130000000E+03 0. -1.
       11    1    1    2    0    0 -0.47607037211E-01 -0.63275120886E-01  0.13940198482E+01  0.13962670838E+01  0.51109989000E-03 0.  1.
     -623    1    1    2    0    0 -0.36889066089E-01 -0.48285950695E-01  0.79457559783E-02  0.17130001096E+03  0.17130000000E+03 0. -1.
      622    1    1    2    0    0  0.84496103300E-01  0.11156107158E+00  0.25980343632E+01  0.26037219546E+01  0.10000000000E+00 0.  0.
</event>
<event>
 5   0  0.6262544E+06  0.9118800E+02  0.7818608E-02  0.1180000E+00
       11   -1    0    0    0    0  0.00000000000E+00  0.00000000000E+00  0.39999999673E+01  0.40000000000E+01  0.51109989000E-03 0. -1.
     -623   -1    0    0    0    0  0.00000000000E+00  0.00000000000E+00  0.12525980253E-10  0.17130000000E+03  0.17130000000E+03 0. -1.
       11    1    1    2    0    0  0.26550119617E-02 -0.10314300739E-01  0.54193189087E-01  0.55232208491E-01  0.51109989000E-03 0. -1.
     -623    1    1    2    0    0 -0.41515231027E-02 -0.17208453170E-02  0.23254159458E-02  0.17130000007E+03  0.17130000000E+03 0. -1.
      622    1    1    2    0    0  0.14965111408E-02  0.12035146056E-01  0.39434813622E+01  0.39447677166E+01  0.10000000000E+00 0. -1.
</event>
<event>
 5   0  0.6262544E+06  0.9118800E+02  0.7818608E-02  0.1180000E+00
       11   -1    0    0    0    0  0.00000000000E+00  0.00000000000E+00  0.39999999673E+01  0.40000000000E+01  0.51109989000E-03 0.  1.
     -623   -1    0    0    0    0  0.00000000000E+00  0.00000000000E+00  0.12525980253E-10  0.17130000000E+03  0.17130000000E+03 0. -1.
       11    1    1    2    0    0 -0.13223127797E-01 -0.84375664095E-02  0.64884595239E+00  0.64903572690E+00  0.51109989000E-03 0.  1.
     -623    1    1    2    0    0 -0.48518147640E-02 -0.21767834594E-02  0.17478618317E-02  0.17130000009E+03  0.17130000000E+03 0. -1.
      622    1    1    2    0    0  0.18074942561E-01  0.10614349869E-01  0.33494061530E+01  0.33509641815E+01  0.10000000000E+00 0.  1.
</event>
<event>
 5   0  0.6262544E+06  0.9118800E+02  0.7818608E-02  0.1180000E+00
       11   -1    0    0    0    0  0.00000000000E+00  0.00000000000E+00  0.39999999673E+01  0.40000000000E+01  0.51109989000E-03 0.  1.
     -623   -1    0    0    0    0  0.00000000000E+00  0.00000000000E+00  0.12525980253E-10  0.17130000000E+03  0.17130000000E+03 0. -1.
       11    1    1    2    0    0  0.47693692205E-02 -0.16909661339E-01  0.30974012704E+00  0.31023844226E+00  0.51109989000E-03 0.  1.
     -623    1    1    2    0    0 -0.69070042804E-02  0.19546579138E-03  0.18922727255E-02  0.17130000015E+03  0.17130000000E+03 0. -1.
      622    1    1    2    0    0  0.21376350599E-02  0.16714195548E-01  0.36883675676E+01  0.36897614079E+01  0.10000000000E+00 0.  1.
</event>
<event>
 5   0  0.6262544E+06  0.9118800E+02  0.7818608E-02  0.1180000E+00
       11   -1    0    0    0    0  0.00000000000E+00  0.00000000000E+00  0.39999999673E+01  0.40000000000E+01  0.51109989000E-03 0.  1.
     -623   -1    0    0    0    0  0.00000000000E+00  0.00000000000E+00  0.12525980253E-10  0.17130000000E+03  0.17130000000E+03 0. -1.
       11    1    1    2    0    0 -0.36014503135E-01 -0.14788179606E-01  0.63667478494E+00  0.63786423139E+00  0.51109989000E-03 0.  1.
     -623    1    1    2    0    0  0.18159116580E-01 -0.48421259713E-01  0.33266748358E-02  0.17130000784E+03  0.17130000000E+03 0. -1.
      622    1    1    2    0    0  0.17855386555E-01  0.63209439319E-01  0.33599985076E+01  0.33621279302E+01  0.10000000000E+00 0.  1.
</event>
<event>
 5   0  0.6262544E+06  0.9118800E+02  0.7818608E-02  0.1180000E+00
       11   -1    0    0    0    0  0.00000000000E+00  0.00000000000E+00  0.39999999673E+01  0.40000000000E+01  0.51109989000E-03 0.  1.
     -623   -1    0    0    0    0  0.00000000000E+00  0.00000000000E+00  0.12525980253E-10  0.17130000000E+03  0.17130000000E+03 0.  1.
       11    1    1    2    0    0  0.10246245838E-02  0.25519499566E-02  0.16827852773E-03  0.28021139534E-02  0.51109989000E-03 0.  1.
     -623    1    1    2    0    0 -0.33623941062E-02  0.86741348828E-02  0.39016249619E-02  0.17130000030E+03  0.17130000000E+03 0.  1.
      622    1    1    2    0    0  0.23377695224E-02 -0.11226084839E-01  0.39959300639E+01  0.39971975890E+01  0.10000000000E+00 0.  1.
</event>
<event>
 5   0  0.6262544E+06  0.9118800E+02  0.7818608E-02  0.1180000E+00
       11   -1    0    0    0    0  0.00000000000E+00  0.00000000000E+00  0.39999999673E+01  0.40000000000E+01  0.51109989000E-03 0. -1.
     -623   -1    0    0    0    0  0.00000000000E+00  0.00000000000E+00  0.12525980253E-10  0.17130000000E+03  0.17130000000E+03 0. -1.
       11    1    1    2    0    0 -0.78421477543E-02  0.35911562293E-01  0.21443140490E+01  0.21446291384E+01  0.51109989000E-03 0. -1.
     -623    1    1    2    0    0 -0.94951620149E-02  0.68889671324E-02  0.35879360057E-02  0.17130000044E+03  0.17130000000E+03 0. -1.
      622    1    1    2    0    0  0.17337309769E-01 -0.42800529425E-01  0.18520979824E+01  0.18553704223E+01  0.10000000000E+00 0. -1.
</event>
<event>
 5   0  0.6262544E+06  0.9118800E+02  0.7818608E-02  0.1180000E+00
       11   -1    0    0    0    0  0.00000000000E+00  0.00000000000E+00  0.39999999673E+01  0.40000000000E+01  0.51109989000E-03 0. -1.
     -623   -1    0    0    0    0  0.00000000000E+00  0.00000000000E+00  0.12525980253E-10  0.17130000000E+03  0.17130000000E+03 0.  1.
       11    1    1    2    0    0  0.19115341543E-02 -0.17711107675E-01  0.13438319499E+00  0.13555973450E+00  0.51109989000E-03 0. -1.
     -623    1    1    2    0    0 -0.16724628122E-01  0.12361071444E-01  0.25039580224E-02  0.17130000128E+03  0.17130000000E+03 0.  1.
      622    1    1    2    0    0  0.14813093967E-01  0.53500362315E-02  0.38631128143E+01  0.38644389848E+01  0.10000000000E+00 0. -1.
</event>
<event>
 5   0  0.6262544E+06  0.9118800E+02  0.7818608E-02  0.1180000E+00
       11   -1    0    0    0    0  0.00000000000E+00  0.00000000000E+00  0.39999999673E+01  0.40000000000E+01  0.51109989000E-03 0. -1.
     -623   -1    0    0    0    0  0.00000000000E+00  0.00000000000E+00  0.12525980253E-10  0.17130000000E+03  0.17130000000E+03 0. -1.
       11    1    1    2    0    0  0.59698189889E-02 -0.99837758822E-01  0.16241557879E+01  0.16272324669E+01  0.51109989000E-03 0. -1.
     -623    1    1    2    0    0  0.75545996483E-02  0.15909896445E-01  0.67105720898E-02  0.17130000104E+03  0.17130000000E+03 0. -1.
      622    1    1    2    0    0 -0.13524418637E-01  0.83927862376E-01  0.23691336074E+01  0.23727664963E+01  0.10000000000E+00 0. -1.
</event>
<event>
 5   0  0.6262544E+06  0.9118800E+02  0.7818608E-02  0.1180000E+00
       11   -1    0    0    0    0  0.00000000000E+00  0.00000000000E+00  0.39999999673E+01  0.40000000000E+01  0.51109989000E-03 0.  1.
     -623   -1    0    0    0    0  0.00000000000E+00  0.00000000000E+00  0.12525980253E-10  0.17130000000E+03  0.17130000000E+03 0. -1.
       11    1    1    2    0    0  0.28235207007E-03 -0.98685007023E-02  0.20826961413E-01  0.23054079289E-01  0.51109989000E-03 0.  1.
     -623    1    1    2    0    0 -0.73465122148E-02  0.32754727758E-02  0.34964974810E-02  0.17130000022E+03  0.17130000000E+03 0. -1.
      622    1    1    2    0    0  0.70641601447E-02  0.65930279265E-02  0.39756765085E+01  0.39769456962E+01  0.10000000000E+00 0.  1.
</event>
<event>
 5   0  0.6262544E+06  0.9118800E+02  0.7818608E-02  0.1180000E+00
       11   -1    0    0    0    0  0.00000000000E+00  0.00000000000E+00  0.39999999673E+01  0.40000000000E+01  0.51109989000E-03 0.  1.
     -623   -1    0    0    0    0  0.00000000000E+00  0.00000000000E+00  0.12525980253E-10  0.17130000000E+03  0.17130000000E+03 0. -1.
       11    1    1    2    0    0  0.11964653422E-02 -0.35205362372E-02  0.84559788480E-01  0.84643043162E-01  0.51109989000E-03 0.  1.
     -623    1    1    2    0    0 -0.56397600515E-02  0.14112088212E-02  0.13636476514E-02  0.17130000010E+03  0.17130000000E+03 0. -1.
      622    1    1    2    0    0  0.44432947097E-02  0.21093274159E-02  0.39140765315E+01  0.39153568530E+01  0.10000000000E+00 0.  1.
</event>
<event>
 5   0  0.6262544E+06  0.9118800E+02  0.7818608E-02  0.1180000E+00
       11   -1    0    0    0    0  0.00000000000E+00  0.00000000000E+00  0.39999999673E+01  0.40000000000E+01  0.51109989000E-03 0.  1.
     -623   -1    0    0    0    0  0.00000000000E+00  0.00000000000E+00  0.12525980253E-10  0.17130000000E+03  0.17130000000E+03 0. -1.
       11    1    1    2    0    0  0.33688625526E-01 -0.43190345008E-01  0.44031525380E+00  0.44370949206E+00  0.51109989000E-03 0.  1.
     -623    1    1    2    0    0  0.78189372529E-02  0.41108489021E-01  0.50485742133E-02  0.17130000519E+03  0.17130000000E+03 0. -1.
      622    1    1    2    0    0 -0.41507562779E-01  0.20818559871E-02  0.35546361393E+01  0.35562853225E+01  0.10000000000E+00 0.  1.
</event>
<event>
 5   0  0.6262544E+06  0.9118800E+02  0.7818608E-02  0.1180000E+00
       11   -1    0    0    0    0  0.00000000000E+00  0.00000000000E+00  0.39999999673E+01  0.40000000000E+01  0.51109989000E-03 0.  1.
     -623   -1    0    0    0    0  0.00000000000E+00  0.00000000000E+00  0.12525980253E-10  0.17130000000E+03  0.17130000000E+03 0. -1.
       11    1    1    2    0    0 -0.67847668862E-02 -0.49341576944E-02  0.22877429629E+00  0.22892863263E+00  0.51109989000E-03 0.  1.
     -623    1    1    2    0    0  0.22167670360E-02 -0.27886812876E-02  0.14911418796E-02  0.17130000004E+03  0.17130000000E+03 0. -1.
      622    1    1    2    0    0  0.45679998502E-02  0.77228389821E-02  0.37697345292E+01  0.37710713239E+01  0.10000000000E+00 0.  1.
</event>
<event>
 5   0  0.6262544E+06  0.9118800E+02  0.7818608E-02  0.1180000E+00
       11   -1    0    0    0    0  0.00000000000E+00  0.00000000000E+00  0.39999999673E+01  0.40000000000E+01  0.51109989000E-03 0.  1.
     -623   -1    0    0    0    0  0.00000000000E+00  0.00000000000E+00  0.12525980253E-10  0.17130000000E+03  0.17130000000E+03 0. -1.
       11    1    1    2    0    0 -0.39748696420E-01  0.33508750776E-01  0.20591410939E+01  0.20597973447E+01  0.51109989000E-03 0.  1.
     -623    1    1    2    0    0 -0.73364469151E-02  0.27880514061E-01  0.47826822127E-02  0.17130000249E+03  0.17130000000E+03 0. -1.
      622    1    1    2    0    0  0.47085143335E-01 -0.61389264836E-01  0.19360761911E+01  0.19402001625E+01  0.10000000000E+00 0.  0.
</event>
<event>
 5   0  0.6262544E+06  0.9118800E+02  0.7818608E-02  0.1180000E+00
       11   -1    0    0    0    0  0.00000000000E+00  0.00000000000E+00  0.39999999673E+01  0.40000000000E+01  0.51109989000E-03 0.  1.
     -623   -1    0    0    0    0  0.00000000000E+00  0.00000000000E+00  0.12525980253E-10  0.17130000000E+03  0.17130000000E+03 0.  1.
       11    1    1    2    0    0 -0.92363446259E-02 -0.48298941664E-02  0.11339744964E+00  0.11387660316E+00  0.51109989000E-03 0.  1.
     -623    1    1    2    0    0  0.55098592672E-02 -0.31787651058E-02  0.17761328446E-02  0.17130000013E+03  0.17130000000E+03 0.  1.
      622    1    1    2    0    0  0.37264853586E-02  0.80086592722E-02  0.38848263850E+01  0.38861232697E+01  0.10000000000E+00 0.  1.
</event>
<event>
 5   0  0.6262544E+06  0.9118800E+02  0.7818608E-02  0.1180000E+00
       11   -1    0    0    0    0  0.00000000000E+00  0.00000000000E+00  0.39999999673E+01  0.40000000000E+01  0.51109989000E-03 0.  1.
     -623   -1    0    0    0    0  0.00000000000E+00  0.00000000000E+00  0.12525980253E-10  0.17130000000E+03  0.17130000000E+03 0. -1.
       11    1    1    2    0    0 -0.15470746945E-01  0.10965016213E-01  0.11425018558E+01  0.11426593225E+01  0.51109989000E-03 0.  1.
     -623    1    1    2    0    0  0.26100744509E-02 -0.13281058361E-01  0.19382946768E-02  0.17130000055E+03  0.17130000000E+03 0. -1.
      622    1    1    2    0    0  0.12860672494E-01  0.23160421473E-02  0.28555598167E+01  0.28573401317E+01  0.10000000000E+00 0.  1.
</event>
<event>
 5   0  0.6262544E+06  0.9118800E+02  0.7818608E-02  0.1180000E+00
       11   -1    0    0    0    0  0.00000000000E+00  0.00000000000E+00  0.39999999673E+01  0.40000000000E+01  0.51109989000E-03 0.  1.
     -623   -1    0    0    0    0  0.00000000000E+00  0.00000000000E+00  0.12525980253E-10  0.17130000000E+03  0.17130000000E+03 0. -1.
       11    1    1    2    0    0 -0.73457203852E-03  0.27642749026E-02  0.70285944186E-02  0.76054698999E-02  0.51109989000E-03 0.  1.
     -623    1    1    2    0    0 -0.30081037290E-02 -0.22292407863E-02  0.18312619936E-02  0.17130000005E+03  0.17130000000E+03 0. -1.
      622    1    1    2    0    0  0.37426757676E-02 -0.53503411623E-03  0.39911401109E+01  0.39923944794E+01  0.10000000000E+00 0.  1.
</event>
<event>
 5   0  0.6262544E+06  0.9118800E+02  0.7818608E-02  0.1180000E+00
       11   -1    0    0    0    0  0.00000000000E+00  0.00000000000E+00  0.39999999673E+01  0.40000000000E+01  0.51109989000E-03 0. -1.
     -623   -1    0    0    0    0  0.00000000000E+00  0.00000000000E+00  0.12525980253E-10  0.17130000000E+03  0.17130000000E+03 0.  1.
       11    1    1    2    0    0 -0.10646711084E-01  0.30719632067E-01  0.68975802883E+00  0.69052403854E+00  0.51109989000E-03 0. -1.
     -623    1    1    2    0    0 -0.24598788352E-02 -0.20993411522E-02  0.24269618647E-02  0.17130000005E+03  0.17130000000E+03 0.  1.
      622    1    1    2    0    0  0.13106589920E-01 -0.28620290915E-01  0.33078149767E+01  0.33094759137E+01  0.10000000000E+00 0. -1.
</event>
<event>
 5   0  0.6262544E+06  0.9118800E+02  0.7818608E-02  0.1180000E+00
       11   -1    0    0    0    0  0.00000000000E+00  0.00000000000E+00  0.39999999673E+01  0.40000000000E+01  0.51109989000E-03 0. -1.
     -623   -1    0    0    0    0  0.00000000000E+00  0.00000000000E+00  0.12525980253E-10  0.17130000000E+03  0.17130000000E+03 0. -1.
       11    1    1    2    0    0 -0.26012650342E-02  0.39800961632E-02  0.90028938377E-01  0.90155857887E-01  0.51109989000E-03 0. -1.
     -623    1    1    2    0    0 -0.86275739182E-02 -0.50512159188E-03  0.14238177672E-02  0.17130000022E+03  0.17130000000E+03 0. -1.
      622    1    1    2    0    0  0.11228838952E-01 -0.34749745713E-02  0.39085472112E+01  0.39098439182E+01  0.10000000000E+00 0. -1.
</event>
<event>
 5   0  0.6262544E+06  0.9118800E+02  0.7818608E-02  0.1180000E+00
       11   -1    0    0    0    0  0.00000000000E+00  0.00000000000E+00  0.39999999673E+01  0.40000000000E+01  0.51109989000E-03 0.  1.
     -623   -1    0    0    0    0  0.00000000000E+00  0.00000000000E+00  0.12525980253E-10  0.17130000000E+03  0.17130000000E+03 0.  1.
       11    1    1    2    0    0 -0.17681572245E-02  0.47126832427E-01  0.80958987304E+00  0.81096244578E+00  0.51109989000E-03 0.  1.
     -623    1    1    2    0    0 -0.59259099629E-02  0.49164651600E-03  0.33059318703E-02  0.17130000014E+03  0.17130000000E+03 0.  1.
      622    1    1    2    0    0  0.76940671874E-02 -0.47618478943E-01  0.31871041625E+01  0.31890374191E+01  0.10000000000E+00 0.  1.
</event>
<event>
 5   0  0.6262544E+06  0.9118800E+02  0.7818608E-02  0.1180000E+00
       11   -1    0    0    0    0  0.00000000000E+00  0.00000000000E+00  0.39999999673E+01  0.40000000000E+01  0.51109989000E-03 0.  1.
     -623   -1    0    0    0    0  0.00000000000E+00  0.00000000000E+00  0.12525980253E-10  0.17130000000E+03  0.17130000000E+03 0. -1.
       11    1    1    2    0    0 -0.78379946547E-01 -0.82348498344E-01  0.29315254076E+01  0.29337290549E+01  0.51109989000E-03 0.  1.
     -623    1    1    2    0    0  0.93743554193E-01  0.30652242788E-01  0.83027776280E-02  0.17130002859E+03  0.17130000000E+03 0. -1.
      622    1    1    2    0    0 -0.15363607646E-01  0.51696255557E-01  0.10601717821E+01  0.10662423509E+01  0.10000000000E+00 0.  0.
</event>
<event>
 5   0  0.6262544E+06  0.9118800E+02  0.7818608E-02  0.1180000E+00
       11   -1    0    0    0    0  0.00000000000E+00  0.00000000000E+00  0.39999999673E+01  0.40000000000E+01  0.51109989000E-03 0.  1.
     -623   -1    0    0    0    0  0.00000000000E+00  0.00000000000E+00  0.12525980253E-10  0.17130000000E+03  0.17130000000E+03 0.  1.
       11    1    1    2    0    0 -0.12628948418E-01  0.49623217821E-02  0.55678451392E+00  0.55695006163E+00  0.51109989000E-03 0.  1.
     -623    1    1    2    0    0 -0.17286996956E-02 -0.30476620304E-02  0.16485473911E-02  0.17130000004E+03  0.17130000000E+03 0.  1.
      622    1    1    2    0    0  0.14357648114E-01 -0.19146597517E-02  0.34415669062E+01  0.34430498947E+01  0.10000000000E+00 0.  1.
</event>
<event>
 5   0  0.6262544E+06  0.9118800E+02  0.7818608E-02  0.1180000E+00
       11   -1    0    0    0    0  0.00000000000E+00  0.00000000000E+00  0.39999999673E+01  0.40000000000E+01  0.51109989000E-03 0.  1.
     -623   -1    0    0    0    0  0.00000000000E+00  0.00000000000E+00  0.12525980253E-10  0.17130000000E+03  0.17130000000E+03 0.  1.
       11    1    1    2    0    0  0.58318571381E-02 -0.53408312145E-02  0.52996743614E+00  0.53002667822E+00  0.51109989000E-03 0.  1.
     -623    1    1    2    0    0 -0.26071670165E-02  0.18241471452E-02  0.15037599318E-02  0.17130000004E+03  0.17130000000E+03 0.  1.
      622    1    1    2    0    0 -0.32246901215E-02  0.35166840691E-02  0.34685287715E+01  0.34699732858E+01  0.10000000000E+00 0.  1.
</event>
<event>
 5   0  0.6262544E+06  0.9118800E+02  0.7818608E-02  0.1180000E+00
       11   -1    0    0    0    0  0.00000000000E+00  0.00000000000E+00  0.39999999673E+01  0.40000000000E+01  0.51109989000E-03 0.  1.
     -623   -1    0    0    0    0  0.00000000000E+00  0.00000000000E+00  0.12525980253E-10  0.17130000000E+03  0.17130000000E+03 0.  1.
       11    1    1    2    0    0 -0.12050482315E-01  0.32868839639E-01  0.28868665980E+00  0.29080203491E+00  0.51109989000E-03 0.  1.
     -623    1    1    2    0    0 -0.12823150149E-01 -0.86686445775E-02  0.36267344127E-02  0.17130000074E+03  0.17130000000E+03 0.  1.
      622    1    1    2    0    0  0.24873632464E-01 -0.24200195061E-01  0.37076865732E+01  0.37091972274E+01  0.10000000000E+00 0.  1.
</event>
<event>
 5   0  0.6262544E+06  0.9118800E+02  0.7818608E-02  0.1180000E+00
       11   -1    0    0    0    0  0.00000000000E+00  0.00000000000E+00  0.39999999673E+01  0.40000000000E+01  0.51109989000E-03 0. -1.
     -623   -1    0    0    0    0  0.00000000000E+00  0.00000000000E+00  0.12525980253E-10  0.17130000000E+03  0.17130000000E+03 0. -1.
       11    1    1    2    0    0  0.38169437336E-02 -0.85826634704E-02  0.12499333334E+00  0.12534682196E+00  0.51109989000E-03 0. -1.
     -623    1    1    2    0    0  0.62096565879E-02  0.22191997829E-02  0.16624487387E-02  0.17130000013E+03  0.17130000000E+03 0. -1.
      622    1    1    2    0    0 -0.10026600322E-01  0.63634636875E-02  0.38733441854E+01  0.38746530431E+01  0.10000000000E+00 0. -1.
</event>
<event>
 5   0  0.6262544E+06  0.9118800E+02  0.7818608E-02  0.1180000E+00
       11   -1    0    0    0    0  0.00000000000E+00  0.00000000000E+00  0.39999999673E+01  0.40000000000E+01  0.51109989000E-03 0.  1.
     -623   -1    0    0    0    0  0.00000000000E+00  0.00000000000E+00  0.12525980253E-10  0.17130000000E+03  0.17130000000E+03 0. -1.
       11    1    1    2    0    0  0.64809535760E-03  0.25190060654E-02  0.86543887175E-01  0.86584473491E-01  0.51109989000E-03 0.  1.
     -623    1    1    2    0    0  0.10843737768E-03  0.33915393367E-02  0.13229953828E-02  0.17130000004E+03  0.17130000000E+03 0. -1.
      622    1    1    2    0    0 -0.75653273528E-03 -0.59105454023E-02  0.39121330849E+01  0.39134154879E+01  0.10000000000E+00 0.  1.
</event>
<event>
 5   0  0.6262544E+06  0.9118800E+02  0.7818608E-02  0.1180000E+00
       11   -1    0    0    0    0  0.00000000000E+00  0.00000000000E+00  0.39999999673E+01  0.40000000000E+01  0.51109989000E-03 0.  1.
     -623   -1    0    0    0    0  0.00000000000E+00  0.00000000000E+00  0.12525980253E-10  0.17130000000E+03  0.17130000000E+03 0. -1.
       11    1    1    2    0    0 -0.44311535494E-02 -0.23919890993E-01  0.17796567569E+01  0.17798230895E+01  0.51109989000E-03 0.  1.
     -623    1    1    2    0    0  0.82351161346E-02 -0.34641969616E-02  0.25920896301E-02  0.17130000025E+03  0.17130000000E+03 0. -1.
      622    1    1    2    0    0 -0.38039625854E-02  0.27384087955E-01  0.22177511209E+01  0.22201766580E+01  0.10000000000E+00 0.  1.
</event>
<event>
 5   0  0.6262544E+06  0.9118800E+02  0.7818608E-02  0.1180000E+00
       11   -1    0    0    0    0  0.00000000000E+00  0.00000000000E+00  0.39999999673E+01  0.40000000000E+01  0.51109989000E-03 0. -1.
     -623   -1    0    0    0    0  0.00000000000E+00  0.00000000000E+00  0.12525980253E-10  0.17130000000E+03  0.17130000000E+03 0.  1.
       11    1    1    2    0    0  0.15522823776E-02 -0.12796585533E-01  0.32693374534E-01  0.35146552345E-01  0.51109989000E-03 0. -1.
     -623    1    1    2    0    0  0.69909946116E-02 -0.54990321730E-03  0.37462890108E-02  0.17130000018E+03  0.17130000000E+03 0.  1.
      622    1    1    2    0    0 -0.85432769893E-02  0.13346488750E-01  0.39635603038E+01  0.39648532632E+01  0.10000000000E+00 0. -1.
</event>
<event>
 5   0  0.6262544E+06  0.9118800E+02  0.7818608E-02  0.1180000E+00
       11   -1    0    0    0    0  0.00000000000E+00  0.00000000000E+00  0.39999999673E+01  0.40000000000E+01  0.51109989000E-03 0. -1.
     -623   -1    0    0    0    0  0.00000000000E+00  0.00000000000E+00  0.12525980253E-10  0.17130000000E+03  0.17130000000E+03 0. -1.
       11    1    1    2    0    0 -0.11633344276E-01  0.18543385396E-01  0.62292311036E-01  0.66028668602E-01  0.51109989000E-03 0. -1.
     -623    1    1    2    0    0  0.84745555796E-02  0.36062250598E-02  0.50714775731E-02  0.17130000032E+03  0.17130000000E+03 0. -1.
      622    1    1    2    0    0  0.31587886967E-02 -0.22149610456E-01  0.39326361788E+01  0.39339710087E+01  0.10000000000E+00 0. -1.
</event>
<event>
 5   0  0.6262544E+06  0.9118800E+02  0.7818608E-02  0.1180000E+00
       11   -1    0    0    0    0  0.00000000000E+00  0.00000000000E+00  0.39999999673E+01  0.40000000000E+01  0.51109989000E-03 0.  1.
     -623   -1    0    0    0    0  0.00000000000E+00  0.00000000000E+00  0.12525980253E-10  0.17130000000E+03  0.17130000000E+03 0. -1.
       11    1    1    2    0    0 -0.29695603946E-02  0.56323797391E-03  0.39354096722E-01  0.39473303345E-01  0.51109989000E-03 0.  1.
     -623    1    1    2    0    0  0.52361761760E-02 -0.46554386763E-02  0.13847461440E-02  0.17130000015E+03  0.17130000000E+03 0. -1.
      622    1    1    2    0    0 -0.22666157813E-02  0.40922007024E-02  0.39592611245E+01  0.39605265478E+01  0.10000000000E+00 0.  1.
</event>
<event>
 5   0  0.6262544E+06  0.9118800E+02  0.7818608E-02  0.1180000E+00
       11   -1    0    0    0    0  0.00000000000E+00  0.00000000000E+00  0.39999999673E+01  0.40000000000E+01  0.51109989000E-03 0. -1.
     -623   -1    0    0    0    0  0.00000000000E+00  0.00000000000E+00  0.12525980253E-10  0.17130000000E+03  0.17130000000E+03 0. -1.
       11    1    1    2    0    0 -0.19869889103E-02 -0.93589922733E-02  0.47311052862E-01  0.48271480245E-01  0.51109989000E-03 0. -1.
     -623    1    1    2    0    0 -0.55997139101E-02 -0.15068858237E-02  0.22482079281E-02  0.17130000011E+03  0.17130000000E+03 0. -1.
      622    1    1    2    0    0  0.75867028204E-02  0.10865878097E-01  0.39504407066E+01  0.39517284068E+01  0.10000000000E+00 0. -1.
</event>
<event>
 5   0  0.6262544E+06  0.9118800E+02  0.7818608E-02  0.1180000E+00
       11   -1    0    0    0    0  0.00000000000E+00  0.00000000000E+00  0.39999999673E+01  0.40000000000E+01  0.51109989000E-03 0.  1.
     -623   -1    0    0    0    0  0.00000000000E+00  0.00000000000E+00  0.12525980253E-10  0.17130000000E+03  0.17130000000E+03 0.  1.
       11    1    1    2    0    0 -0.16760215247E-02 -0.26164514245E-03 -0.41838967201E-03  0.18203783075E-02  0.51109989000E-03 0.  1.
     -623    1    1    2    0    0 -0.14775709357E-01  0.83976545077E-02  0.35325192420E-02  0.17130000088E+03  0.17130000000E+03 0.  1.
      622    1    1    2    0    0  0.16451730882E-01 -0.81360093653E-02  0.39968858378E+01  0.39981787422E+01  0.10000000000E+00 0.  1.
</event>
<event>
 5   0  0.6262544E+06  0.9118800E+02  0.7818608E-02  0.1180000E+00
       11   -1    0    0    0    0  0.00000000000E+00  0.00000000000E+00  0.39999999673E+01  0.40000000000E+01  0.51109989000E-03 0.  1.
     -623   -1    0    0    0    0  0.00000000000E+00  0.00000000000E+00  0.12525980253E-10  0.17130000000E+03  0.17130000000E+03 0.  1.
       11    1    1    2    0    0 -0.27713313896E-04 -0.61775620792E-03  0.39144185064E-01  0.39152405242E-01  0.51109989000E-03 0.  1.
     -623    1    1    2    0    0  0.11566677553E-03 -0.10047973006E-02  0.12710859578E-02  0.17130000001E+03  0.17130000000E+03 0.  1.
      622    1    1    2    0    0 -0.87953461636E-04  0.16225535085E-02  0.39595846963E+01  0.39608475871E+01  0.10000000000E+00 0.  1.
</event>
<event>
 5   0  0.6262544E+06  0.9118800E+02  0.7818608E-02  0.1180000E+00
       11   -1    0    0    0    0  0.00000000000E+00  0.00000000000E+00  0.39999999673E+01  0.40000000000E+01  0.51109989000E-03 0.  1.
     -623   -1    0    0    0    0  0.00000000000E+00  0.00000000000E+00  0.12525980253E-10  0.17130000000E+03  0.17130000000E+03 0.  1.
       11    1    1    2    0    0 -0.44262513660E-02  0.99095198113E-02  0.16435220307E+01  0.16435579444E+01  0.51109989000E-03 0.  1.
     -623    1    1    2    0    0  0.50083989613E-02  0.27435822102E-02  0.21928633687E-02  0.17130000011E+03  0.17130000000E+03 0.  1.
      622    1    1    2    0    0 -0.58214759517E-03 -0.12653102021E-01  0.23542850733E+01  0.23564419463E+01  0.10000000000E+00 0. -1.
</event>
<event>
 5   0  0.6262544E+06  0.9118800E+02  0.7818608E-02  0.1180000E+00
       11   -1    0    0    0    0  0.00000000000E+00  0.00000000000E+00  0.39999999673E+01  0.40000000000E+01  0.51109989000E-03 0. -1.
     -623   -1    0    0    0    0  0.00000000000E+00  0.00000000000E+00  0.12525980253E-10  0.17130000000E+03  0.17130000000E+03 0.  1.
       11    1    1    2    0    0 -0.30208852582E-02 -0.41525638433E-02  0.41756743091E+00  0.41759931766E+00  0.51109989000E-03 0. -1.
     -623    1    1    2    0    0 -0.61531381681E-02 -0.13191213124E-02  0.14438915381E-02  0.17130000012E+03  0.17130000000E+03 0.  1.
      622    1    1    2    0    0  0.91740234263E-02  0.54716851557E-02  0.35809886449E+01  0.35824005607E+01  0.10000000000E+00 0. -1.
</event>
<event>
 5   0  0.6262544E+06  0.9118800E+02  0.7818608E-02  0.1180000E+00
       11   -1    0    0    0    0  0.00000000000E+00  0.00000000000E+00  0.39999999673E+01  0.40000000000E+01  0.51109989000E-03 0. -1.
     -623   -1    0    0    0    0  0.00000000000E+00  0.00000000000E+00  0.12525980253E-10  0.17130000000E+03  0.17130000000E+03 0. -1.
       11    1    1    2    0    0  0.70569934198E-02  0.34858285543E-02  0.49163954901E-01  0.49792648468E-01  0.51109989000E-03 0. -1.
     -623    1    1    2    0    0  0.26539711345E-03  0.22193906296E-02  0.19055554587E-02  0.17130000003E+03  0.17130000000E+03 0. -1.
      622    1    1    2    0    0 -0.73223905333E-02 -0.57052191840E-02  0.39489304570E+01  0.39502073264E+01  0.10000000000E+00 0. -1.
</event>
<event>
 5   0  0.6262544E+06  0.9118800E+02  0.7818608E-02  0.1180000E+00
       11   -1    0    0    0    0  0.00000000000E+00  0.00000000000E+00  0.39999999673E+01  0.40000000000E+01  0.51109989000E-03 0. -1.
     -623   -1    0    0    0    0  0.00000000000E+00  0.00000000000E+00  0.12525980253E-10  0.17130000000E+03  0.17130000000E+03 0. -1.
       11    1    1    2    0    0  0.33430831030E-02  0.20300543563E-02  0.46532965996E-01  0.46699844455E-01  0.51109989000E-03 0. -1.
     -623    1    1    2    0    0 -0.72099939755E-02 -0.10331302851E-01  0.14428940129E-02  0.17130000047E+03  0.17130000000E+03 0. -1.
      622    1    1    2    0    0  0.38669108725E-02  0.83012484952E-02  0.39520241074E+01  0.39532996862E+01  0.10000000000E+00 0. -1.
</event>
<event>
 5   0  0.6262544E+06  0.9118800E+02  0.7818608E-02  0.1180000E+00
       11   -1    0    0    0    0  0.00000000000E+00  0.00000000000E+00  0.39999999673E+01  0.40000000000E+01  0.51109989000E-03 0. -1.
     -623   -1    0    0    0    0  0.00000000000E+00  0.00000000000E+00  0.12525980253E-10  0.17130000000E+03  0.17130000000E+03 0. -1.
       11    1    1    2    0    0  0.74667272328E-02 -0.38055539280E-01  0.31976301597E+00  0.32210654090E+00  0.51109989000E-03 0. -1.
     -623    1    1    2    0    0 -0.13860793252E-01 -0.36635790424E-02  0.39461331668E-02  0.17130000065E+03  0.17130000000E+03 0. -1.
      622    1    1    2    0    0  0.63940660195E-02  0.41719118323E-01  0.36762908182E+01  0.36778928137E+01  0.10000000000E+00 0. -1.
</event>
<event>
 5   0  0.6262544E+06  0.9118800E+02  0.7818608E-02  0.1180000E+00
       11   -1    0    0    0    0  0.00000000000E+00  0.00000000000E+00  0.39999999673E+01  0.40000000000E+01  0.51109989000E-03 0. -1.
     -623   -1    0    0    0    0  0.00000000000E+00  0.00000000000E+00  0.12525980253E-10  0.17130000000E+03  0.17130000000E+03 0.  1.
       11    1    1    2    0    0  0.25246467999E-01 -0.96965980474E-02  0.19616652523E+00  0.19802266285E+00  0.51109989000E-03 0. -1.
     -623    1    1    2    0    0 -0.14575850287E-01  0.25703692419E-01  0.32227052343E-02  0.17130000258E+03  0.17130000000E+03 0.  1.
      622    1    1    2    0    0 -0.10670617713E-01 -0.16007094371E-01  0.38006107369E+01  0.38019747583E+01  0.10000000000E+00 0. -1.
</event>
<event>
 5   0  0.6262544E+06  0.9118800E+02  0.7818608E-02  0.1180000E+00
       11   -1    0    0    0    0  0.00000000000E+00  0.00000000000E+00  0.39999999673E+01  0.40000000000E+01  0.51109989000E-03 0. -1.
     -623   -1    0    0    0    0  0.00000000000E+00  0.00000000000E+00  0.12525980253E-10  0.17130000000E+03  0.17130000000E+03 0.  1.
       11    1    1    2    0    0  0.70237748573E-03 -0.12238793686E-01  0.24942758378E+00  0.24972917767E+00  0.51109989000E-03 0. -1.
     -623    1    1    2    0    0  0.22208623850E-01 -0.94112875880E-02  0.17692685759E-02  0.17130000171E+03  0.17130000000E+03 0.  1.
      622    1    1    2    0    0 -0.22911001335E-01  0.21650081274E-01  0.37488031149E+01  0.37502691149E+01  0.10000000000E+00 0. -1.
</event>
<event>
 5   0  0.6262544E+06  0.9118800E+02  0.7818608E-02  0.1180000E+00
       11   -1    0    0    0    0  0.00000000000E+00  0.00000000000E+00  0.39999999673E+01  0.40000000000E+01  0.51109989000E-03 0.  1.
     -623   -1    0    0    0    0  0.00000000000E+00  0.00000000000E+00  0.12525980253E-10  0.17130000000E+03  0.17130000000E+03 0. -1.
       11    1    1    2    0    0 -0.42407410603E-02  0.34234401112E-02  0.19662623066E+00  0.19670241389E+00  0.51109989000E-03 0.  1.
     -623    1    1    2    0    0  0.39843187383E-03 -0.16254439453E-02  0.13934070513E-02  0.17130000001E+03  0.17130000000E+03 0. -1.
      622    1    1    2    0    0  0.38423091865E-02 -0.17979961659E-02  0.38019803297E+01  0.38032975723E+01  0.10000000000E+00 0.  1.
</event>
<event>
 5   0  0.6262544E+06  0.9118800E+02  0.7818608E-02  0.1180000E+00
       11   -1    0    0    0    0  0.00000000000E+00  0.00000000000E+00  0.39999999673E+01  0.40000000000E+01  0.51109989000E-03 0. -1.
     -623   -1    0    0    0    0  0.00000000000E+00  0.00000000000E+00  0.12525980253E-10  0.17130000000E+03  0.17130000000E+03 0.  1.
       11    1    1    2    0    0 -0.11705095776E-02  0.94106589979E-03  0.13096558258E-01  0.13192299158E-01  0.51109989000E-03 0. -1.
     -623    1    1    2    0    0 -0.94121614806E-03 -0.25836293039E-02  0.13509671379E-02  0.17130000003E+03  0.17130000000E+03 0.  1.
      622    1    1    2    0    0  0.21117257257E-02  0.16425634041E-02  0.39855524420E+01  0.39868076734E+01  0.10000000000E+00 0. -1.
</event>
<event>
 5   0  0.6262544E+06  0.9118800E+02  0.7818608E-02  0.1180000E+00
       11   -1    0    0    0    0  0.00000000000E+00  0.00000000000E+00  0.39999999673E+01  0.40000000000E+01  0.51109989000E-03 0. -1.
     -623   -1    0    0    0    0  0.00000000000E+00  0.00000000000E+00  0.12525980253E-10  0.17130000000E+03  0.17130000000E+03 0.  1.
       11    1    1    2    0    0 -0.82191928045E-02 -0.36063147336E-02  0.63806353166E-01  0.64436577840E-01  0.51109989000E-03 0. -1.
     -623    1    1    2    0    0  0.27234649633E-02 -0.12976972400E-02  0.19077952980E-02  0.17130000004E+03  0.17130000000E+03 0.  1.
      622    1    1    2    0    0  0.54957278411E-02  0.49040119736E-02  0.39342858190E+01  0.39355633851E+01  0.10000000000E+00 0. -1.
</event>
<event>
 5   0  0.6262544E+06  0.9118800E+02  0.7818608E-02  0.1180000E+00
       11   -1    0    0    0    0  0.00000000000E+00  0.00000000000E+00  0.39999999673E+01  0.40000000000E+01  0.51109989000E-03 0.  1.
     -623   -1    0    0    0    0  0.00000000000E+00  0.00000000000E+00  0.12525980253E-10  0.17130000000E+03  0.17130000000E+03 0. -1.
       11    1    1    2    0    0  0.44810736402E-02  0.14968971298E-02  0.11222521190E-01  0.12187162334E-01  0.51109989000E-03 0.  1.
     -623    1    1    2    0    0 -0.46616020431E-02  0.24258588658E-02  0.22206549058E-02  0.17130000009E+03  0.17130000000E+03 0. -1.
      622    1    1    2    0    0  0.18052840291E-03 -0.39227559957E-02  0.39865567913E+01  0.39878127427E+01  0.10000000000E+00 0.  1.
</event>
<event>
 5   0  0.6262544E+06  0.9118800E+02  0.7818608E-02  0.1180000E+00
       11   -1    0    0    0    0  0.00000000000E+00  0.00000000000E+00  0.39999999673E+01  0.40000000000E+01  0.51109989000E-03 0.  1.
     -623   -1    0    0    0    0  0.00000000000E+00  0.00000000000E+00  0.12525980253E-10  0.17130000000E+03  0.17130000000E+03 0. -1.
       11    1    1    2    0    0  0.26976199395E-02  0.19725854312E-02  0.41625557980E-01  0.41762621408E-01  0.51109989000E-03 0.  1.
     -623    1    1    2    0    0 -0.21366799324E-02  0.87814375028E-03  0.14015088821E-02  0.17130000002E+03  0.17130000000E+03 0. -1.
      622    1    1    2    0    0 -0.56094000709E-03 -0.28507291815E-02  0.39569729005E+01  0.39582373573E+01  0.10000000000E+00 0.  1.
</event>
<event>
 5   0  0.6262544E+06  0.9118800E+02  0.7818608E-02  0.1180000E+00
       11   -1    0    0    0    0  0.00000000000E+00  0.00000000000E+00  0.39999999673E+01  0.40000000000E+01  0.51109989000E-03 0. -1.
     -623   -1    0    0    0    0  0.00000000000E+00  0.00000000000E+00  0.12525980253E-10  0.17130000000E+03  0.17130000000E+03 0.  1.
       11    1    1    2    0    0  0.39548483621E-02  0.30068873493E-01  0.13255560300E+01  0.13259030235E+01  0.51109989000E-03 0. -1.
     -623    1    1    2    0    0  0.51068041390E-02 -0.29268368730E-02  0.23707334309E-02  0.17130000012E+03  0.17130000000E+03 0.  1.
      622    1    1    2    0    0 -0.90616525008E-02 -0.27142036620E-01  0.26720732038E+01  0.26740968587E+01  0.10000000000E+00 0. -1.
</event>
<event>
 5   0  0.6262544E+06  0.9118800E+02  0.7818608E-02  0.1180000E+00
       11   -1    0    0    0    0  0.00000000000E+00  0.00000000000E+00  0.39999999673E+01  0.40000000000E+01  0.51109989000E-03 0. -1.
     -623   -1    0    0    0    0  0.00000000000E+00  0.00000000000E+00  0.12525980253E-10  0.17130000000E+03  0.17130000000E+03 0.  1.
       11    1    1    2    0    0  0.88535875877E-02 -0.41816724299E-01  0.24913125136E+00  0.25277196457E+00  0.51109989000E-03 0. -1.
     -623    1    1    2    0    0 -0.50586367808E-02  0.50512298505E-01  0.49948506797E-02  0.17130000759E+03  0.17130000000E+03 0.  1.
      622    1    1    2    0    0 -0.37949508069E-02 -0.86955742066E-02  0.37458738654E+01  0.37472204405E+01  0.10000000000E+00 0. -1.
</event>
<event>
 5   0  0.6262544E+06  0.9118800E+02  0.7818608E-02  0.1180000E+00
       11   -1    0    0    0    0  0.00000000000E+00  0.00000000000E+00  0.39999999673E+01  0.40000000000E+01  0.51109989000E-03 0.  1.
     -623   -1    0    0    0    0  0.00000000000E+00  0.00000000000E+00  0.12525980253E-10  0.17130000000E+03  0.17130000000E+03 0.  1.
       11    1    1    2    0    0 -0.71904874599E-03 -0.36368928949E-03  0.10891127908E-04  0.95427601491E-03  0.51109989000E-03 0.  1.
     -623    1    1    2    0    0  0.14065837540E-02  0.11234795920E-02  0.21940008801E-02  0.17130000002E+03  0.17130000000E+03 0.  1.
      622    1    1    2    0    0 -0.68753500803E-03 -0.75979030255E-03  0.39977950754E+01  0.39990457005E+01  0.10000000000E+00 0.  1.
</event>
<event>
 5   0  0.6262544E+06  0.9118800E+02  0.7818608E-02  0.1180000E+00
       11   -1    0    0    0    0  0.00000000000E+00  0.00000000000E+00  0.39999999673E+01  0.40000000000E+01  0.51109989000E-03 0. -1.
     -623   -1    0    0    0    0  0.00000000000E+00  0.00000000000E+00  0.12525980253E-10  0.17130000000E+03  0.17130000000E+03 0. -1.
       11    1    1    2    0    0  0.19509036967E-02 -0.38842834048E-01  0.11150296961E+00  0.11809210489E+00  0.51109989000E-03 0. -1.
     -623    1    1    2    0    0 -0.10978039879E-01  0.97974423107E-02  0.79973615677E-02  0.17130000082E+03  0.17130000000E+03 0. -1.
      622    1    1    2    0    0  0.90271361823E-02  0.29045391738E-01  0.38804996362E+01  0.38819070765E+01  0.10000000000E+00 0. -1.
</event>
<event>
 5   0  0.6262544E+06  0.9118800E+02  0.7818608E-02  0.1180000E+00
       11   -1    0    0    0    0  0.00000000000E+00  0.00000000000E+00  0.39999999673E+01  0.40000000000E+01  0.51109989000E-03 0.  1.
     -623   -1    0    0    0    0  0.00000000000E+00  0.00000000000E+00  0.12525980253E-10  0.17130000000E+03  0.17130000000E+03 0. -1.
       11    1    1    2    0    0  0.61828719173E-01 -0.30921411641E-02  0.70028966907E+00  0.70302079179E+00  0.51109989000E-03 0.  1.
     -623    1    1    2    0    0  0.10940505981E-02 -0.16798866552E-01  0.49096891781E-02  0.17130000090E+03  0.17130000000E+03 0. -1.
      622    1    1    2    0    0 -0.62922769771E-01  0.19891007716E-01  0.32948006091E+01  0.32969783107E+01  0.10000000000E+00 0.  1.
</event>
<event>
 5   0  0.6262544E+06  0.9118800E+02  0.7818608E-02  0.1180000E+00
       11   -1    0    0    0    0  0.00000000000E+00  0.00000000000E+00  0.39999999673E+01  0.40000000000E+01  0.51109989000E-03 0. -1.
     -623   -1    0    0    0    0  0.00000000000E+00  0.00000000000E+00  0.12525980253E-10  0.17130000000E+03  0.17130000000E+03 0.  1.
       11    1    1    2    0    0 -0.92755841241E-03  0.22837150732E-02  0.32525200271E-02  0.41128856984E-02  0.51109989000E-03 0. -1.
     -623    1    1    2    0    0  0.34364529489E-02 -0.36638347029E-02  0.21129286048E-02  0.17130000009E+03  0.17130000000E+03 0.  1.
      622    1    1    2    0    0 -0.25088945364E-02  0.13801196296E-02  0.39946345186E+01  0.39958870275E+01  0.10000000000E+00 0. -1.
</event>
<event>
 5   0  0.6262544E+06  0.9118800E+02  0.7818608E-02  0.1180000E+00
       11   -1    0    0    0    0  0.00000000000E+00  0.00000000000E+00  0.39999999673E+01  0.40000000000E+01  0.51109989000E-03 0. -1.
     -623   -1    0    0    0    0  0.00000000000E+00  0.00000000000E+00  0.12525980253E-10  0.17130000000E+03  0.17130000000E+03 0. -1.
       11    1    1    2    0    0 -0.26709496787E-03  0.13840724315E-02  0.81004168827E-02  0.82380198509E-02  0.51109989000E-03 0. -1.
     -623    1    1    2    0    0  0.26126343310E-02 -0.64640219060E-02  0.13944169535E-02  0.17130000015E+03  0.17130000000E+03 0. -1.
      622    1    1    2    0    0 -0.23455393631E-02  0.50799494745E-02  0.39905051335E+01  0.39917618326E+01  0.10000000000E+00 0. -1.
</event>
<event>
 5   0  0.6262544E+06  0.9118800E+02  0.7818608E-02  0.1180000E+00
       11   -1    0    0    0    0  0.00000000000E+00  0.00000000000E+00  0.39999999673E+01  0.40000000000E+01  0.51109989000E-03 0. -1.
     -623   -1    0    0    0    0  0.00000000000E+00  0.00000000000E+00  0.12525980253E-10  0.17130000000E+03  0.17130000000E+03 0.  1.
       11    1    1    2    0    0 -0.99549549486E-02 -0.13469104111E-02  0.64584295532E-01  0.65362892747E-01  0.51109989000E-03 0. -1.
     -623    1    1    2    0    0  0.11253684546E-01  0.13967271432E-01  0.20709479129E-02  0.17130000095E+03  0.17130000000E+03 0.  1.
      622    1    1    2    0    0 -0.12987295977E-02 -0.12620361021E-01  0.39333447239E+01  0.39346361556E+01  0.10000000000E+00 0. -1.
</event>
<event>
 5   0  0.6262544E+06  0.9118800E+02  0.7818608E-02  0.1180000E+00
       11   -1    0    0    0    0  0.00000000000E+00  0.00000000000E+00  0.39999999673E+01  0.40000000000E+01  0.51109989000E-03 0. -1.
     -623   -1    0    0    0    0  0.00000000000E+00  0.00000000000E+00  0.12525980253E-10  0.17130000000E+03  0.17130000000E+03 0.  1.
       11    1    1    2    0    0  0.31752118452E-02 -0.30358169203E-04  0.85392100703E-01  0.85452647574E-01  0.51109989000E-03 0. -1.
     -623    1    1    2    0    0  0.19185624735E-02  0.44488729084E-03  0.13413633049E-02  0.17130000002E+03  0.17130000000E+03 0.  1.
      622    1    1    2    0    0 -0.50937743186E-02 -0.41452912163E-03  0.39132665033E+01  0.39145473358E+01  0.10000000000E+00 0. -1.
</event>
<event>
 5   0  0.6262544E+06  0.9118800E+02  0.7818608E-02  0.1180000E+00
       11   -1    0    0    0    0  0.00000000000E+00  0.00000000000E+00  0.39999999673E+01  0.40000000000E+01  0.51109989000E-03 0.  1.
     -623   -1    0    0    0    0  0.00000000000E+00  0.00000000000E+00  0.12525980253E-10  0.17130000000E+03  0.17130000000E+03 0.  1.
       11    1    1    2    0    0  0.33967009189E-01  0.55726424961E-02  0.60541487877E+00  0.60639281717E+00  0.51109989000E-03 0.  1.
     -623    1    1    2    0    0 -0.16195742242E-01  0.38275150313E-01  0.27866141047E-02  0.17130000506E+03  0.17130000000E+03 0.  1.
      622    1    1    2    0    0 -0.17771266947E-01 -0.43847792808E-01  0.33917984744E+01  0.33936021184E+01  0.10000000000E+00 0.  1.
</event>
<event>
 5   0  0.6262544E+06  0.9118800E+02  0.7818608E-02  0.1180000E+00
       11   -1    0    0    0    0  0.00000000000E+00  0.00000000000E+00  0.39999999673E+01  0.40000000000E+01  0.51109989000E-03 0.  1.
     -623   -1    0    0    0    0  0.00000000000E+00  0.00000000000E+00  0.12525980253E-10  0.17130000000E+03  0.17130000000E+03 0. -1.
       11    1    1    2    0    0 -0.18513968918E-01  0.18442005751E-03  0.53906975560E-01  0.57000213096E-01  0.51109989000E-03 0.  1.
     -623    1    1    2    0    0 -0.68139620643E-02 -0.20539282911E-01  0.44968366437E-02  0.17130000143E+03  0.17130000000E+03 0. -1.
      622    1    1    2    0    0  0.25327930982E-01  0.20354862853E-01  0.39415961552E+01  0.39429983610E+01  0.10000000000E+00 0.  1.
</event>
<event>
 5   0  0.6262544E+06  0.9118800E+02  0.7818608E-02  0.1180000E+00
       11   -1    0    0    0    0  0.00000000000E+00  0.00000000000E+00  0.39999999673E+01  0.40000000000E+01  0.51109989000E-03 0. -1.
     -623   -1    0    0    0    0  0.00000000000E+00  0.00000000000E+00  0.12525980253E-10  0.17130000000E+03  0.17130000000E+03 0.  1.
       11    1    1    2    0    0 -0.28133043949E-01  0.11840251451E+00  0.11797184379E+01  0.11859791219E+01  0.51109989000E-03 0. -1.
     -623    1    1    2    0    0 -0.27168927744E-02 -0.21324812730E-01  0.98850259575E-02  0.17130000163E+03  0.17130000000E+03 0.  1.
      622    1    1    2    0    0  0.30849936723E-01 -0.97077701782E-01  0.28103965035E+01  0.28140192440E+01  0.10000000000E+00 0.  0.
</event>
<event>
 5   0  0.6262544E+06  0.9118800E+02  0.7818608E-02  0.1180000E+00
       11   -1    0    0    0    0  0.00000000000E+00  0.00000000000E+00  0.39999999673E+01  0.40000000000E+01  0.51109989000E-03 0. -1.
     -623   -1    0    0    0    0  0.00000000000E+00  0.00000000000E+00  0.12525980253E-10  0.17130000000E+03  0.17130000000E+03 0. -1.
       11    1    1    2    0    0  0.19930117505E-02 -0.58254821046E-01  0.27168349181E+01  0.27174601800E+01  0.51109989000E-03 0. -1.
     -623    1    1    2    0    0  0.14314784980E-02  0.26330257512E-01  0.49349851750E-02  0.17130000210E+03  0.17130000000E+03 0. -1.
      622    1    1    2    0    0 -0.34244902486E-02  0.31924563534E-01  0.12782300641E+01  0.12825377194E+01  0.10000000000E+00 0.  1.
</event>
<event>
 5   0  0.6262544E+06  0.9118800E+02  0.7818608E-02  0.1180000E+00
       11   -1    0    0    0    0  0.00000000000E+00  0.00000000000E+00  0.39999999673E+01  0.40000000000E+01  0.51109989000E-03 0.  1.
     -623   -1    0    0    0    0  0.00000000000E+00  0.00000000000E+00  0.12525980253E-10  0.17130000000E+03  0.17130000000E+03 0.  1.
       11    1    1    2    0    0  0.55088043005E-01  0.36380082506E-01  0.17550600243E+01  0.17563012706E+01  0.51109989000E-03 0.  1.
     -623    1    1    2    0    0 -0.57089860782E-02  0.10086635303E-01  0.44970143204E-02  0.17130000045E+03  0.17130000000E+03 0.  1.
      622    1    1    2    0    0 -0.49379056926E-01 -0.46466717809E-01  0.22404429288E+01  0.22436982783E+01  0.10000000000E+00 0.  1.
</event>
<event>
 5   0  0.6262544E+06  0.9118800E+02  0.7818608E-02  0.1180000E+00
       11   -1    0    0    0    0  0.00000000000E+00  0.00000000000E+00  0.39999999673E+01  0.40000000000E+01  0.51109989000E-03 0. -1.
     -623   -1    0    0    0    0  0.00000000000E+00  0.00000000000E+00  0.12525980253E-10  0.17130000000E+03  0.17130000000E+03 0.  1.
       11    1    1    2    0    0 -0.59704725715E-02 -0.23417276253E-01  0.37189579646E-01  0.44354722693E-01  0.51109989000E-03 0. -1.
     -623    1    1    2    0    0  0.27933043018E-02  0.31244513471E-01  0.84414328211E-02  0.17130000308E+03  0.17130000000E+03 0.  1.
      622    1    1    2    0    0  0.31771682697E-02 -0.78272372180E-02  0.39543689549E+01  0.39556421971E+01  0.10000000000E+00 0. -1.
</event>
<event>
 5   0  0.6262544E+06  0.9118800E+02  0.7818608E-02  0.1180000E+00
       11   -1    0    0    0    0  0.00000000000E+00  0.00000000000E+00  0.39999999673E+01  0.40000000000E+01  0.51109989000E-03 0. -1.
     -623   -1    0    0    0    0  0.00000000000E+00  0.00000000000E+00  0.12525980253E-10  0.17130000000E+03  0.17130000000E+03 0. -1.
       11    1    1    2    0    0  0.34200215251E-01  0.35596698246E-01  0.28672340681E+00  0.29094218135E+00  0.51109989000E-03 0. -1.
     -623    1    1    2    0    0 -0.31522347574E-01  0.16254620334E-02  0.57578550263E-02  0.17130000300E+03  0.17130000000E+03 0. -1.
      622    1    1    2    0    0 -0.26778676762E-02 -0.37222160279E-01  0.37075187056E+01  0.37090548139E+01  0.10000000000E+00 0. -1.
</event>
<event>
 5   0  0.6262544E+06  0.9118800E+02  0.7818608E-02  0.1180000E+00
       11   -1    0    0    0    0  0.00000000000E+00  0.00000000000E+00  0.39999999673E+01  0.40000000000E+01  0.51109989000E-03 0.  1.
     -623   -1    0    0    0    0  0.00000000000E+00  0.00000000000E+00  0.12525980253E-10  0.17130000000E+03  0.17130000000E+03 0.  1.
       11    1    1    2    0    0  0.66141075953E-02  0.58585656398E-02  0.63160110084E-01  0.63777189785E-01  0.51109989000E-03 0.  1.
     -623    1    1    2    0    0  0.14149035407E-02 -0.13318773188E-01  0.19033029528E-02  0.17130000053E+03  0.17130000000E+03 0.  1.
      622    1    1    2    0    0 -0.80290111360E-02  0.74602075481E-02  0.39349365543E+01  0.39362222760E+01  0.10000000000E+00 0.  1.
</event>
<event>
 5   0  0.6262544E+06  0.9118800E+02  0.7818608E-02  0.1180000E+00
       11   -1    0    0    0    0  0.00000000000E+00  0.00000000000E+00  0.39999999673E+01  0.40000000000E+01  0.51109989000E-03 0. -1.
     -623   -1    0    0    0    0  0.00000000000E+00  0.00000000000E+00  0.12525980253E-10  0.17130000000E+03  0.17130000000E+03 0. -1.
       11    1    1    2    0    0 -0.11729152248E-01  0.19270857783E-01  0.14308200732E+00  0.14485047813E+00  0.51109989000E-03 0. -1.
     -623    1    1    2    0    0 -0.96044034867E-02 -0.90864898139E-02  0.31386671618E-02  0.17130000054E+03  0.17130000000E+03 0. -1.
      622    1    1    2    0    0  0.21333555735E-01 -0.10184367969E-01  0.38537792929E+01  0.38551489829E+01  0.10000000000E+00 0. -1.
</event>
<event>
 5   0  0.6262544E+06  0.9118800E+02  0.7818608E-02  0.1180000E+00
       11   -1    0    0    0    0  0.00000000000E+00  0.00000000000E+00  0.39999999673E+01  0.40000000000E+01  0.51109989000E-03 0. -1.
     -623   -1    0    0    0    0  0.00000000000E+00  0.00000000000E+00  0.12525980253E-10  0.17130000000E+03  0.17130000000E+03 0. -1.
       11    1    1    2    0    0 -0.63397100329E-01 -0.16114436764E-01  0.71689960909E+00  0.71987789113E+00  0.51109989000E-03 0. -1.
     -623    1    1    2    0    0  0.94106146477E-02 -0.25096955465E-02  0.50007022307E-02  0.17130000035E+03  0.17130000000E+03 0. -1.
      622    1    1    2    0    0  0.53986485681E-01  0.18624132311E-01  0.32780996561E+01  0.32801217590E+01  0.10000000000E+00 0.  0.
</event>
<event>
 5   0  0.6262544E+06  0.9118800E+02  0.7818608E-02  0.1180000E+00
       11   -1    0    0    0    0  0.00000000000E+00  0.00000000000E+00  0.39999999673E+01  0.40000000000E+01  0.51109989000E-03 0. -1.
     -623   -1    0    0    0    0  0.00000000000E+00  0.00000000000E+00  0.12525980253E-10  0.17130000000E+03  0.17130000000E+03 0.  1.
       11    1    1    2    0    0 -0.44263167542E-01 -0.63144421547E-01  0.64393392999E+00  0.64853497469E+00  0.51109989000E-03 0. -1.
     -623    1    1    2    0    0 -0.39483561572E-02  0.35951733645E-02  0.69697646947E-02  0.17130000023E+03  0.17130000000E+03 0.  1.
      622    1    1    2    0    0  0.48211523699E-01  0.59549248182E-01  0.33490962727E+01  0.33514648003E+01  0.10000000000E+00 0. -1.
</event>
<event>
 5   0  0.6262544E+06  0.9118800E+02  0.7818608E-02  0.1180000E+00
       11   -1    0    0    0    0  0.00000000000E+00  0.00000000000E+00  0.39999999673E+01  0.40000000000E+01  0.51109989000E-03 0. -1.
     -623   -1    0    0    0    0  0.00000000000E+00  0.00000000000E+00  0.12525980253E-10  0.17130000000E+03  0.17130000000E+03 0.  1.
       11    1    1    2    0    0 -0.26723759768E-01  0.11106004995E-01  0.75345771663E-01  0.80713996390E-01  0.51109989000E-03 0. -1.
     -623    1    1    2    0    0 -0.69481406890E-02  0.82721973060E-02  0.68372363787E-02  0.17130000048E+03  0.17130000000E+03 0.  1.
      622    1    1    2    0    0  0.33671900457E-01 -0.19378202301E-01  0.39178169593E+01  0.39192855265E+01  0.10000000000E+00 0. -1.
</event>
<event>
 5   0  0.6262544E+06  0.9118800E+02  0.7818608E-02  0.1180000E+00
       11   -1    0    0    0    0  0.00000000000E+00  0.00000000000E+00  0.39999999673E+01  0.40000000000E+01  0.51109989000E-03 0.  1.
     -623   -1    0    0    0    0  0.00000000000E+00  0.00000000000E+00  0.12525980253E-10  0.17130000000E+03  0.17130000000E+03 0. -1.
       11    1    1    2    0    0  0.31956888810E-02 -0.29198336719E-02  0.28216736255E+00  0.28220102687E+00  0.51109989000E-03 0.  1.
     -623    1    1    2    0    0 -0.30857005733E-01  0.14885581365E-01  0.15043962360E-02  0.17130000343E+03  0.17130000000E+03 0. -1.
      622    1    1    2    0    0  0.27661316852E-01 -0.11965747693E-01  0.37163282086E+01  0.37177955406E+01  0.10000000000E+00 0.  1.
</event>
<event>
 5   0  0.6262544E+06  0.9118800E+02  0.7818608E-02  0.1180000E+00
       11   -1    0    0    0    0  0.00000000000E+00  0.00000000000E+00  0.39999999673E+01  0.40000000000E+01  0.51109989000E-03 0.  1.
     -623   -1    0    0    0    0  0.00000000000E+00  0.00000000000E+00  0.12525980253E-10  0.17130000000E+03  0.17130000000E+03 0.  1.
       11    1    1    2    0    0  0.73280322204E-02  0.46388515194E-02  0.81503990107E-01  0.81965728363E-01  0.51109989000E-03 0.  1.
     -623    1    1    2    0    0 -0.84286193435E-02 -0.76621318703E-02  0.17397727784E-02  0.17130000039E+03  0.17130000000E+03 0.  1.
      622    1    1    2    0    0  0.11005871231E-02  0.30232803508E-02  0.39167562045E+01  0.39180338841E+01  0.10000000000E+00 0.  1.
</event>
<event>
 5   0  0.6262544E+06  0.9118800E+02  0.7818608E-02  0.1180000E+00
       11   -1    0    0    0    0  0.00000000000E+00  0.00000000000E+00  0.39999999673E+01  0.40000000000E+01  0.51109989000E-03 0.  1.
     -623   -1    0    0    0    0  0.00000000000E+00  0.00000000000E+00  0.12525980253E-10  0.17130000000E+03  0.17130000000E+03 0. -1.
       11    1    1    2    0    0 -0.11374340121E-01  0.21535087055E-02  0.14184425573E+00  0.14231678508E+00  0.51109989000E-03 0.  1.
     -623    1    1    2    0    0 -0.24236216415E-02 -0.23862567691E-02  0.17935637290E-02  0.17130000004E+03  0.17130000000E+03 0. -1.
      622    1    1    2    0    0  0.13797961763E-01  0.23274806364E-03  0.38563621479E+01  0.38576831718E+01  0.10000000000E+00 0.  1.
</event>
<event>
 5   0  0.6262544E+06  0.9118800E+02  0.7818608E-02  0.1180000E+00
       11   -1    0    0    0    0  0.00000000000E+00  0.00000000000E+00  0.39999999673E+01  0.40000000000E+01  0.51109989000E-03 0.  1.
     -623   -1    0    0    0    0  0.00000000000E+00  0.00000000000E+00  0.12525980253E-10  0.17130000000E+03  0.17130000000E+03 0.  1.
       11    1    1    2    0    0 -0.13363586668E-01  0.15952113521E-01  0.15105455229E+00  0.15248211162E+00  0.51109989000E-03 0.  1.
     -623    1    1    2    0    0  0.15547623486E-01 -0.32986893595E-02  0.27494790013E-02  0.17130000076E+03  0.17130000000E+03 0.  1.
      622    1    1    2    0    0 -0.21840368188E-02 -0.12653424162E-01  0.38461959361E+01  0.38475171290E+01  0.10000000000E+00 0.  1.
</event>
<event>
 5   0  0.6262544E+06  0.9118800E+02  0.7818608E-02  0.1180000E+00
       11   -1    0    0    0    0  0.00000000000E+00  0.00000000000E+00  0.39999999673E+01  0.40000000000E+01  0.51109989000E-03 0.  1.
     -623   -1    0    0    0    0  0.00000000000E+00  0.00000000000E+00  0.12525980253E-10  0.17130000000E+03  0.17130000000E+03 0. -1.
       11    1    1    2    0    0  0.13690172797E-01  0.14844229895E-01  0.83807204621E-01  0.86207196680E-01  0.51109989000E-03 0.  1.
     -623    1    1    2    0    0  0.17346796298E-02 -0.20316650640E-01  0.37131884319E-02  0.17130000125E+03  0.17130000000E+03 0. -1.
      622    1    1    2    0    0 -0.15424852427E-01  0.54724207455E-02  0.39124795743E+01  0.39137915495E+01  0.10000000000E+00 0.  1.
</event>
<event>
 5   0  0.6262544E+06  0.9118800E+02  0.7818608E-02  0.1180000E+00
       11   -1    0    0    0    0  0.00000000000E+00  0.00000000000E+00  0.39999999673E+01  0.40000000000E+01  0.51109989000E-03 0.  1.
     -623   -1    0    0    0    0  0.00000000000E+00  0.00000000000E+00  0.12525980253E-10  0.17130000000E+03  0.17130000000E+03 0. -1.
       11    1    1    2    0    0  0.65899577717E-02  0.42775439861E-02  0.10700405312E+00  0.10729330609E+00  0.51109989000E-03 0.  1.
     -623    1    1    2    0    0 -0.12811671671E-01 -0.28770662626E-02  0.15796220717E-02  0.17130000051E+03  0.17130000000E+03 0. -1.
      622    1    1    2    0    0  0.62217138992E-02 -0.14004777235E-02  0.38914162922E+01  0.38927061834E+01  0.10000000000E+00 0.  1.
</event>
<event>
 5   0  0.6262544E+06  0.9118800E+02  0.7818608E-02  0.1180000E+00
       11   -1    0    0    0    0  0.00000000000E+00  0.00000000000E+00  0.39999999673E+01  0.40000000000E+01  0.51109989000E-03 0.  1.
     -623   -1    0    0    0    0  0.00000000000E+00  0.00000000000E+00  0.12525980253E-10  0.17130000000E+03  0.17130000000E+03 0. -1.
       11    1    1    2    0    0  0.13212931834E-01  0.38971870164E-02  0.30834942200E-01  0.33776093875E-01  0.51109989000E-03 0.  1.
     -623    1    1    2    0    0 -0.74194144630E-02  0.15229029439E-02  0.42101209219E-02  0.17130000022E+03  0.17130000000E+03 0. -1.
      622    1    1    2    0    0 -0.57935173711E-02 -0.54200899602E-02  0.39649549042E+01  0.39662236869E+01  0.10000000000E+00 0.  1.
</event>
<event>
 5   0  0.6262544E+06  0.9118800E+02  0.7818608E-02  0.1180000E+00
       11   -1    0    0    0    0  0.00000000000E+00  0.00000000000E+00  0.39999999673E+01  0.40000000000E+01  0.51109989000E-03 0. -1.
     -623   -1    0    0    0    0  0.00000000000E+00  0.00000000000E+00  0.12525980253E-10  0.17130000000E+03  0.17130000000E+03 0. -1.
       11    1    1    2    0    0  0.11502911889E-01  0.21871855423E-02  0.19663528044E-01  0.22891402769E-01  0.51109989000E-03 0. -1.
     -623    1    1    2    0    0 -0.29821985292E-01  0.15879980730E-01  0.45718845517E-02  0.17130000339E+03  0.17130000000E+03 0. -1.
      622    1    1    2    0    0  0.18319073403E-01 -0.18067166273E-01  0.39757645547E+01  0.39771052042E+01  0.10000000000E+00 0. -1.
</event>
<event>
 5   0  0.6262544E+06  0.9118800E+02  0.7818608E-02  0.1180000E+00
       11   -1    0    0    0    0  0.00000000000E+00  0.00000000000E+00  0.39999999673E+01  0.40000000000E+01  0.51109989000E-03 0.  1.
     -623   -1    0    0    0    0  0.00000000000E+00  0.00000000000E+00  0.12525980253E-10  0.17130000000E+03  0.17130000000E+03 0. -1.
       11    1    1    2    0    0 -0.31497045673E-01 -0.23904484292E-01  0.10182290306E+00  0.10923210639E+00  0.51109989000E-03 0.  1.
     -623    1    1    2    0    0  0.24035638502E-01 -0.10773149108E-01  0.88584798997E-02  0.17130000225E+03  0.17130000000E+03 0. -1.
      622    1    1    2    0    0  0.74614071715E-02  0.34677633401E-01  0.38893185844E+01  0.38907656395E+01  0.10000000000E+00 0.  1.
</event>
<event>
 5   0  0.6262544E+06  0.9118800E+02  0.7818608E-02  0.1180000E+00
       11   -1    0    0    0    0  0.00000000000E+00  0.00000000000E+00  0.39999999673E+01  0.40000000000E+01  0.51109989000E-03 0. -1.
     -623   -1    0    0    0    0  0.00000000000E+00  0.00000000000E+00  0.12525980253E-10  0.17130000000E+03  0.17130000000E+03 0. -1.
       11    1    1    2    0    0  0.25715455620E-02  0.67029126409E-02  0.61143364917E-01  0.61565527537E-01  0.51109989000E-03 0. -1.
     -623    1    1    2    0    0  0.37922751903E-02  0.11269848866E-02  0.17048576279E-02  0.17130000005E+03  0.17130000000E+03 0. -1.
      622    1    1    2    0    0 -0.63638207523E-02 -0.78298975276E-02  0.39371517449E+01  0.39384344184E+01  0.10000000000E+00 0. -1.
</event>
<event>
 5   0  0.6262544E+06  0.9118800E+02  0.7818608E-02  0.1180000E+00
       11   -1    0    0    0    0  0.00000000000E+00  0.00000000000E+00  0.39999999673E+01  0.40000000000E+01  0.51109989000E-03 0. -1.
     -623   -1    0    0    0    0  0.00000000000E+00  0.00000000000E+00  0.12525980253E-10  0.17130000000E+03  0.17130000000E+03 0.  1.
       11    1    1    2    0    0 -0.78323596177E-02  0.67387796568E-02  0.29751679613E-01  0.31498899481E-01  0.51109989000E-03 0. -1.
     -623    1    1    2    0    0 -0.23917408260E-02 -0.25850044057E-03  0.30258195214E-02  0.17130000004E+03  0.17130000000E+03 0.  1.
      622    1    1    2    0    0  0.10224100444E-01 -0.64802792162E-02  0.39672224682E+01  0.39685010569E+01  0.10000000000E+00 0. -1.
</event>
<event>
 5   0  0.6262544E+06  0.9118800E+02  0.7818608E-02  0.1180000E+00
       11   -1    0    0    0    0  0.00000000000E+00  0.00000000000E+00  0.39999999673E+01  0.40000000000E+01  0.51109989000E-03 0.  1.
     -623   -1    0    0    0    0  0.00000000000E+00  0.00000000000E+00  0.12525980253E-10  0.17130000000E+03  0.17130000000E+03 0. -1.
       11    1    1    2    0    0  0.36562885134E-01  0.18756730784E-01  0.83442724188E+00  0.83543865289E+00  0.51109989000E-03 0.  1.
     -623    1    1    2    0    0 -0.18711962650E-01 -0.17950773623E-01  0.26442305077E-02  0.17130000198E+03  0.17130000000E+03 0. -1.
      622    1    1    2    0    0 -0.17850922483E-01 -0.80595716101E-03  0.31629284950E+01  0.31645593642E+01  0.10000000000E+00 0.  0.
</event>
<event>
 5   0  0.6262544E+06  0.9118800E+02  0.7818608E-02  0.1180000E+00
       11   -1    0    0    0    0  0.00000000000E+00  0.00000000000E+00  0.39999999673E+01  0.40000000000E+01  0.51109989000E-03 0.  1.
     -623   -1    0    0    0    0  0.00000000000E+00  0.00000000000E+00  0.12525980253E-10  0.17130000000E+03  0.17130000000E+03 0. -1.
       11    1    1    2    0    0 -0.84779868840E-03 -0.12562814553E-02 -0.27528968007E-03  0.16229643300E-02  0.51109989000E-03 0.  1.
     -623    1    1    2    0    0  0.55832908512E-02 -0.14533701401E-02  0.31527741362E-02  0.17130000013E+03  0.17130000000E+03 0. -1.
      622    1    1    2    0    0 -0.47354921627E-02  0.27096515955E-02  0.39971224829E+01  0.39983769094E+01  0.10000000000E+00 0.  1.
</event>
<event>
 5   0  0.6262544E+06  0.9118800E+02  0.7818608E-02  0.1180000E+00
       11   -1    0    0    0    0  0.00000000000E+00  0.00000000000E+00  0.39999999673E+01  0.40000000000E+01  0.51109989000E-03 0. -1.
     -623   -1    0    0    0    0  0.00000000000E+00  0.00000000000E+00  0.12525980253E-10  0.17130000000E+03  0.17130000000E+03 0. -1.
       11    1    1    2    0    0  0.66982692310E-02 -0.26726826376E-01  0.18013967705E+00  0.18223543709E+00  0.51109989000E-03 0. -1.
     -623    1    1    2    0    0  0.10078107863E-01  0.57769221792E-01  0.35788209141E-02  0.17130001007E+03  0.17130000000E+03 0. -1.
      622    1    1    2    0    0 -0.16776377094E-01 -0.31042395417E-01  0.38162814695E+01  0.38177544881E+01  0.10000000000E+00 0. -1.
</event>
<event>
 5   0  0.6262544E+06  0.9118800E+02  0.7818608E-02  0.1180000E+00
       11   -1    0    0    0    0  0.00000000000E+00  0.00000000000E+00  0.39999999673E+01  0.40000000000E+01  0.51109989000E-03 0.  1.
     -623   -1    0    0    0    0  0.00000000000E+00  0.00000000000E+00  0.12525980253E-10  0.17130000000E+03  0.17130000000E+03 0. -1.
       11    1    1    2    0    0  0.35094048527E-01 -0.59328504744E-02  0.27706562503E+00  0.27934282298E+00  0.51109989000E-03 0.  1.
     -623    1    1    2    0    0 -0.19922441581E-02  0.17203336267E-01  0.37865569111E-02  0.17130000092E+03  0.17130000000E+03 0. -1.
      622    1    1    2    0    0 -0.33101804369E-01 -0.11270485793E-01  0.37191477854E+01  0.37206562597E+01  0.10000000000E+00 0.  1.
</event>
<event>
 5   0  0.6262544E+06  0.9118800E+02  0.7818608E-02  0.1180000E+00
       11   -1    0    0    0    0  0.00000000000E+00  0.00000000000E+00  0.39999999673E+01  0.40000000000E+01  0.51109989000E-03 0. -1.
     -623   -1    0    0    0    0  0.00000000000E+00  0.00000000000E+00  0.12525980253E-10  0.17130000000E+03  0.17130000000E+03 0. -1.
       11    1    1    2    0    0  0.49658902403E-02  0.21167583432E-01  0.10141699431E+01  0.10144031060E+01  0.51109989000E-03 0. -1.
     -623    1    1    2    0    0 -0.48683297204E-02 -0.11963443246E-01  0.19230022517E-02  0.17130000050E+03  0.17130000000E+03 0. -1.
      622    1    1    2    0    0 -0.97560519849E-04 -0.92041401854E-02  0.29839070221E+01  0.29855963964E+01  0.10000000000E+00 0. -1.
</event>
<event>
 5   0  0.6262544E+06  0.9118800E+02  0.7818608E-02  0.1180000E+00
       11   -1    0    0    0    0  0.00000000000E+00  0.00000000000E+00  0.39999999673E+01  0.40000000000E+01  0.51109989000E-03 0.  1.
     -623   -1    0    0    0    0  0.00000000000E+00  0.00000000000E+00  0.12525980253E-10  0.17130000000E+03  0.17130000000E+03 0. -1.
       11    1    1    2    0    0  0.33691425758E-02 -0.49061025931E-01  0.19438381801E+00  0.20050851681E+00  0.51109989000E-03 0.  1.
     -623    1    1    2    0    0  0.24428520706E-01  0.32115452288E-01  0.75853070466E-02  0.17130000492E+03  0.17130000000E+03 0. -1.
      622    1    1    2    0    0 -0.27797663282E-01  0.16945573643E-01  0.37980308423E+01  0.37994865629E+01  0.10000000000E+00 0.  1.
</event>
<event>
 5   0  0.6262544E+06  0.9118800E+02  0.7818608E-02  0.1180000E+00
       11   -1    0    0    0    0  0.00000000000E+00  0.00000000000E+00  0.39999999673E+01  0.40000000000E+01  0.51109989000E-03 0.  1.
     -623   -1    0    0    0    0  0.00000000000E+00  0.00000000000E+00  0.12525980253E-10  0.17130000000E+03  0.17130000000E+03 0. -1.
       11    1    1    2    0    0  0.17506461539E-02  0.33504766602E-02  0.13348819853E+00  0.13354269289E+00  0.51109989000E-03 0.  1.
     -623    1    1    2    0    0  0.88120493767E-03 -0.28811891836E-03  0.13499685258E-02  0.17130000001E+03  0.17130000000E+03 0. -1.
      622    1    1    2    0    0 -0.26318510916E-02 -0.30623577418E-02  0.38651618003E+01  0.38664572993E+01  0.10000000000E+00 0.  1.
</event>
<event>
 5   0  0.6262544E+06  0.9118800E+02  0.7818608E-02  0.1180000E+00
       11   -1    0    0    0    0  0.00000000000E+00  0.00000000000E+00  0.39999999673E+01  0.40000000000E+01  0.51109989000E-03 0.  1.
     -623   -1    0    0    0    0  0.00000000000E+00  0.00000000000E+00  0.12525980253E-10  0.17130000000E+03  0.17130000000E+03 0.  1.
       11    1    1    2    0    0 -0.14431924818E-01 -0.89497682148E-02  0.71823558572E-01  0.73805579695E-01  0.51109989000E-03 0.  1.
     -623    1    1    2    0    0 -0.40899238173E-02  0.60934520589E-03  0.33083394462E-02  0.17130000008E+03  0.17130000000E+03 0.  1.
      622    1    1    2    0    0  0.18521848635E-01  0.83404230089E-02  0.39248680694E+01  0.39261943385E+01  0.10000000000E+00 0.  1.
</event>
<event>
 5   0  0.6262544E+06  0.9118800E+02  0.7818608E-02  0.1180000E+00
       11   -1    0    0    0    0  0.00000000000E+00  0.00000000000E+00  0.39999999673E+01  0.40000000000E+01  0.51109989000E-03 0. -1.
     -623   -1    0    0    0    0  0.00000000000E+00  0.00000000000E+00  0.12525980253E-10  0.17130000000E+03  0.17130000000E+03 0. -1.
       11    1    1    2    0    0  0.18924584864E-02 -0.16477330834E-03  0.25644840686E-02  0.32320815277E-02  0.51109989000E-03 0. -1.
     -623    1    1    2    0    0 -0.22312729756E-02  0.13248073628E-02  0.19189846861E-02  0.17130000003E+03  0.17130000000E+03 0. -1.
      622    1    1    2    0    0  0.33881448928E-03 -0.11600340545E-02  0.39955164988E+01  0.39967678883E+01  0.10000000000E+00 0. -1.
</event>
<event>
 5   0  0.6262544E+06  0.9118800E+02  0.7818608E-02  0.1180000E+00
       11   -1    0    0    0    0  0.00000000000E+00  0.00000000000E+00  0.39999999673E+01  0.40000000000E+01  0.51109989000E-03 0. -1.
     -623   -1    0    0    0    0  0.00000000000E+00  0.00000000000E+00  0.12525980253E-10  0.17130000000E+03  0.17130000000E+03 0.  1.
       11    1    1    2    0    0 -0.32576283868E-01 -0.56258385230E-01  0.25006097399E+01  0.25014546873E+01  0.51109989000E-03 0. -1.
     -623    1    1    2    0    0 -0.41351937504E-02  0.10509751431E-01  0.53366745090E-02  0.17130000046E+03  0.17130000000E+03 0.  1.
      622    1    1    2    0    0  0.36711477618E-01  0.45748633799E-01  0.14940535529E+01  0.14985448572E+01  0.10000000000E+00 0.  0.
</event>
<event>
 5   0  0.6262544E+06  0.9118800E+02  0.7818608E-02  0.1180000E+00
       11   -1    0    0    0    0  0.00000000000E+00  0.00000000000E+00  0.39999999673E+01  0.40000000000E+01  0.51109989000E-03 0. -1.
     -623   -1    0    0    0    0  0.00000000000E+00  0.00000000000E+00  0.12525980253E-10  0.17130000000E+03  0.17130000000E+03 0.  1.
       11    1    1    2    0    0 -0.57337815052E-01  0.31155549803E-01  0.57813629990E+00  0.58180764502E+00  0.51109989000E-03 0. -1.
     -623    1    1    2    0    0 -0.19253219650E-01  0.59467475529E-02  0.61957474058E-02  0.17130000130E+03  0.17130000000E+03 0.  1.
      622    1    1    2    0    0  0.76591034702E-01 -0.37102297356E-01  0.34156679201E+01  0.34181910578E+01  0.10000000000E+00 0. -1.
</event>
<event>
 5   0  0.6262544E+06  0.9118800E+02  0.7818608E-02  0.1180000E+00
       11   -1    0    0    0    0  0.00000000000E+00  0.00000000000E+00  0.39999999673E+01  0.40000000000E+01  0.51109989000E-03 0. -1.
     -623   -1    0    0    0    0  0.00000000000E+00  0.00000000000E+00  0.12525980253E-10  0.17130000000E+03  0.17130000000E+03 0.  1.
       11    1    1    2    0    0  0.12525190297E-01  0.71484782589E-02  0.68055243810E-01  0.69568373309E-01  0.51109989000E-03 0. -1.
     -623    1    1    2    0    0 -0.30655015711E-01  0.16401678205E-01  0.29013865284E-02  0.17130000355E+03  0.17130000000E+03 0.  1.
      622    1    1    2    0    0  0.18129825414E-01 -0.23550156464E-01  0.39290433370E+01  0.39304280740E+01  0.10000000000E+00 0. -1.
</event>
<event>
 5   0  0.6262544E+06  0.9118800E+02  0.7818608E-02  0.1180000E+00
       11   -1    0    0    0    0  0.00000000000E+00  0.00000000000E+00  0.39999999673E+01  0.40000000000E+01  0.51109989000E-03 0. -1.
     -623   -1    0    0    0    0  0.00000000000E+00  0.00000000000E+00  0.12525980253E-10  0.17130000000E+03  0.17130000000E+03 0. -1.
       11    1    1    2    0    0 -0.57999093829E-04 -0.80166174171E-02  0.31945577153E-01  0.32940106883E-01  0.51109989000E-03 0. -1.
     -623    1    1    2    0    0 -0.44913883128E-02  0.68660278760E-02  0.22580643978E-02  0.17130000021E+03  0.17130000000E+03 0. -1.
      622    1    1    2    0    0  0.45493874068E-02  0.11505895408E-02  0.39657963259E+01  0.39670596819E+01  0.10000000000E+00 0. -1.
</event>
<event>
 5   0  0.6262544E+06  0.9118800E+02  0.7818608E-02  0.1180000E+00
       11   -1    0    0    0    0  0.00000000000E+00  0.00000000000E+00  0.39999999673E+01  0.40000000000E+01  0.51109989000E-03 0. -1.
     -623   -1    0    0    0    0  0.00000000000E+00  0.00000000000E+00  0.12525980253E-10  0.17130000000E+03  0.17130000000E+03 0.  1.
       11    1    1    2    0    0 -0.17612113633E-02  0.46176383556E-02  0.73791499214E-02  0.88959275013E-02  0.51109989000E-03 0. -1.
     -623    1    1    2    0    0  0.29931452870E-02 -0.13857334468E-03  0.27724807771E-02  0.17130000005E+03  0.17130000000E+03 0.  1.
      622    1    1    2    0    0 -0.12319339237E-02 -0.44790650109E-02  0.39898483367E+01  0.39911040239E+01  0.10000000000E+00 0. -1.
</event>
<event>
 5   0  0.6262544E+06  0.9118800E+02  0.7818608E-02  0.1180000E+00
       11   -1    0    0    0    0  0.00000000000E+00  0.00000000000E+00  0.39999999673E+01  0.40000000000E+01  0.51109989000E-03 0. -1.
     -623   -1    0    0    0    0  0.00000000000E+00  0.00000000000E+00  0.12525980253E-10  0.17130000000E+03  0.17130000000E+03 0. -1.
       11    1    1    2    0    0  0.13480125465E-01  0.17286493703E-01  0.11066038328E+00  0.11281187127E+00  0.51109989000E-03 0. -1.
     -623    1    1    2    0    0 -0.69393962707E-02 -0.39049536768E-01  0.35090213599E-02  0.17130000463E+03  0.17130000000E+03 0. -1.
      622    1    1    2    0    0 -0.65407291938E-02  0.21763043065E-01  0.38858305627E+01  0.38871835014E+01  0.10000000000E+00 0. -1.
</event>
<event>
 5   0  0.6262544E+06  0.9118800E+02  0.7818608E-02  0.1180000E+00
       11   -1    0    0    0    0  0.00000000000E+00  0.00000000000E+00  0.39999999673E+01  0.40000000000E+01  0.51109989000E-03 0. -1.
     -623   -1    0    0    0    0  0.00000000000E+00  0.00000000000E+00  0.12525980253E-10  0.17130000000E+03  0.17130000000E+03 0. -1.
       11    1    1    2    0    0 -0.65445877136E-03  0.25623154781E-02  0.53243269888E+00  0.53243951190E+00  0.51109989000E-03 0. -1.
     -623    1    1    2    0    0  0.26640957971E-01 -0.31477861929E-01  0.16720233002E-02  0.17130000497E+03  0.17130000000E+03 0. -1.
      622    1    1    2    0    0 -0.25986499199E-01  0.28915546451E-01  0.34658952452E+01  0.34675555161E+01  0.10000000000E+00 0. -1.
</event>
<event>
 5   0  0.6262544E+06  0.9118800E+02  0.7818608E-02  0.1180000E+00
       11   -1    0    0    0    0  0.00000000000E+00  0.00000000000E+00  0.39999999673E+01  0.40000000000E+01  0.51109989000E-03 0. -1.
     -623   -1    0    0    0    0  0.00000000000E+00  0.00000000000E+00  0.12525980253E-10  0.17130000000E+03  0.17130000000E+03 0.  1.
       11    1    1    2    0    0  0.86064089361E-02 -0.15521722748E-01  0.30331976390E+00  0.30383899444E+00  0.51109989000E-03 0. -1.
     -623    1    1    2    0    0 -0.14443214713E-01  0.16395933629E-01  0.18783185599E-02  0.17130000140E+03  0.17130000000E+03 0.  1.
      622    1    1    2    0    0  0.58368057771E-02 -0.87421088134E-03  0.36948018851E+01  0.36961596019E+01  0.10000000000E+00 0. -1.
</event>
<event>
 5   0  0.6262544E+06  0.9118800E+02  0.7818608E-02  0.1180000E+00
       11   -1    0    0    0    0  0.00000000000E+00  0.00000000000E+00  0.39999999673E+01  0.40000000000E+01  0.51109989000E-03 0.  1.
     -623   -1    0    0    0    0  0.00000000000E+00  0.00000000000E+00  0.12525980253E-10  0.17130000000E+03  0.17130000000E+03 0.  1.
       11    1    1    2    0    0  0.46611294070E-03  0.28936447943E-01  0.95044018931E+00  0.95088082847E+00  0.51109989000E-03 0.  1.
     -623    1    1    2    0    0  0.58734684857E-02 -0.47706826645E-02  0.21834567467E-02  0.17130000018E+03  0.17130000000E+03 0.  1.
      622    1    1    2    0    0 -0.63395814263E-02 -0.24165765278E-01  0.30473763213E+01  0.30491189905E+01  0.10000000000E+00 0.  0.
</event>
<event>
 5   0  0.6262544E+06  0.9118800E+02  0.7818608E-02  0.1180000E+00
       11   -1    0    0    0    0  0.00000000000E+00  0.00000000000E+00  0.39999999673E+01  0.40000000000E+01  0.51109989000E-03 0. -1.
     -623   -1    0    0    0    0  0.00000000000E+00  0.00000000000E+00  0.12525980253E-10  0.17130000000E+03  0.17130000000E+03 0. -1.
       11    1    1    2    0    0 -0.55810844294E-02  0.17922347753E-01  0.75069040509E-01  0.77382046483E-01  0.51109989000E-03 0. -1.
     -623    1    1    2    0    0  0.22238434837E-01 -0.29957013359E-01  0.36457893586E-02  0.17130000410E+03  0.17130000000E+03 0. -1.
      622    1    1    2    0    0 -0.16657350408E-01  0.12034665606E-01  0.39212851375E+01  0.39226138518E+01  0.10000000000E+00 0. -1.
</event>
<event>
 5   0  0.6262544E+06  0.9118800E+02  0.7818608E-02  0.1180000E+00
       11   -1    0    0    0    0  0.00000000000E+00  0.00000000000E+00  0.39999999673E+01  0.40000000000E+01  0.51109989000E-03 0. -1.
     -623   -1    0    0    0    0  0.00000000000E+00  0.00000000000E+00  0.12525980253E-10  0.17130000000E+03  0.17130000000E+03 0. -1.
       11    1    1    2    0    0  0.21455044830E-01 -0.83519978257E-02  0.10863268646E+01  0.10865709332E+01  0.51109989000E-03 0. -1.
     -623    1    1    2    0    0 -0.14842416619E-02 -0.11916991923E-01  0.21002057267E-02  0.17130000043E+03  0.17130000000E+03 0. -1.
      622    1    1    2    0    0 -0.19970803168E-01  0.20268989748E-01  0.29115728971E+01  0.29134286331E+01  0.10000000000E+00 0. -1.
</event>
<event>
 5   0  0.6262544E+06  0.9118800E+02  0.7818608E-02  0.1180000E+00
       11   -1    0    0    0    0  0.00000000000E+00  0.00000000000E+00  0.39999999673E+01  0.40000000000E+01  0.51109989000E-03 0. -1.
     -623   -1    0    0    0    0  0.00000000000E+00  0.00000000000E+00  0.12525980253E-10  0.17130000000E+03  0.17130000000E+03 0.  1.
       11    1    1    2    0    0  0.14984873891E-01  0.29022234652E-02  0.11849725023E+01  0.11850709100E+01  0.51109989000E-03 0. -1.
     -623    1    1    2    0    0  0.58707600562E-02 -0.42644423961E-02  0.19529831759E-02  0.17130000016E+03  0.17130000000E+03 0.  1.
      622    1    1    2    0    0 -0.20855633947E-01  0.13622189309E-02  0.28130744819E+01  0.28149289252E+01  0.10000000000E+00 0.  0.
</event>
<event>
 5   0  0.6262544E+06  0.9118800E+02  0.7818608E-02  0.1180000E+00
       11   -1    0    0    0    0  0.00000000000E+00  0.00000000000E+00  0.39999999673E+01  0.40000000000E+01  0.51109989000E-03 0. -1.
     -623   -1    0    0    0    0  0.00000000000E+00  0.00000000000E+00  0.12525980253E-10  0.17130000000E+03  0.17130000000E+03 0.  1.
       11    1    1    2    0    0  0.47199381612E-03  0.35931932757E-03  0.19235511660E-03  0.80629531194E-03  0.51109989000E-03 0. -1.
     -623    1    1    2    0    0 -0.19324056959E-02 -0.52353361150E-03  0.18646470301E-02  0.17130000002E+03  0.17130000000E+03 0.  1.
      622    1    1    2    0    0  0.14604118799E-02  0.16421428395E-03  0.39979429653E+01  0.39991936829E+01  0.10000000000E+00 0. -1.
</event>
<event>
 5   0  0.6262544E+06  0.9118800E+02  0.7818608E-02  0.1180000E+00
       11   -1    0    0    0    0  0.00000000000E+00  0.00000000000E+00  0.39999999673E+01  0.40000000000E+01  0.51109989000E-03 0. -1.
     -623   -1    0    0    0    0  0.00000000000E+00  0.00000000000E+00  0.12525980253E-10  0.17130000000E+03  0.17130000000E+03 0. -1.
       11    1    1    2    0    0 -0.84840722561E-01 -0.89529652583E-01  0.46937999999E+00  0.48531572456E+00  0.51109989000E-03 0. -1.
     -623    1    1    2    0    0  0.17838456681E-01  0.35974084091E-01  0.18411542937E-01  0.17130000570E+03  0.17130000000E+03 0. -1.
      622    1    1    2    0    0  0.67002265880E-01  0.53555568493E-01  0.35122084244E+01  0.35146785798E+01  0.10000000000E+00 0. -1.
</event>
<event>
 5   0  0.6262544E+06  0.9118800E+02  0.7818608E-02  0.1180000E+00
       11   -1    0    0    0    0  0.00000000000E+00  0.00000000000E+00  0.39999999673E+01  0.40000000000E+01  0.51109989000E-03 0.  1.
     -623   -1    0    0    0    0  0.00000000000E+00  0.00000000000E+00  0.12525980253E-10  0.17130000000E+03  0.17130000000E+03 0. -1.
       11    1    1    2    0    0 -0.18972172576E-01  0.44050917181E-02  0.17365295835E+01  0.17366388812E+01  0.51109989000E-03 0.  1.
     -623    1    1    2    0    0 -0.34444525889E-02 -0.94438464095E-02  0.24364950650E-02  0.17130000031E+03  0.17130000000E+03 0. -1.
      622    1    1    2    0    0  0.22416625165E-01  0.50387546919E-02  0.22610338890E+01  0.22633608067E+01  0.10000000000E+00 0. -1.
</event>
<event>
 5   0  0.6262544E+06  0.9118800E+02  0.7818608E-02  0.1180000E+00
       11   -1    0    0    0    0  0.00000000000E+00  0.00000000000E+00  0.39999999673E+01  0.40000000000E+01  0.51109989000E-03 0. -1.
     -623   -1    0    0    0    0  0.00000000000E+00  0.00000000000E+00  0.12525980253E-10  0.17130000000E+03  0.17130000000E+03 0. -1.
       11    1    1    2    0    0 -0.12654704951E-01 -0.48420227777E-02  0.49770200864E-01  0.51584114376E-01  0.51109989000E-03 0. -1.
     -623    1    1    2    0    0  0.68374396447E-02 -0.51817646914E-03  0.30885060525E-02  0.17130000017E+03  0.17130000000E+03 0. -1.
      622    1    1    2    0    0  0.58172653066E-02  0.53601992469E-02  0.39471412604E+01  0.39484157205E+01  0.10000000000E+00 0. -1.
</event>
<event>
 5   0  0.6262544E+06  0.9118800E+02  0.7818608E-02  0.1180000E+00
       11   -1    0    0    0    0  0.00000000000E+00  0.00000000000E+00  0.39999999673E+01  0.40000000000E+01  0.51109989000E-03 0.  1.
     -623   -1    0    0    0    0  0.00000000000E+00  0.00000000000E+00  0.12525980253E-10  0.17130000000E+03  0.17130000000E+03 0.  1.
       11    1    1    2    0    0  0.10431243459E-01  0.15517294638E-01  0.62071173008E-01  0.64828149863E-01  0.51109989000E-03 0.  1.
     -623    1    1    2    0    0  0.55431762568E-02 -0.13920105049E-01  0.40612036844E-02  0.17130000070E+03  0.17130000000E+03 0.  1.
      622    1    1    2    0    0 -0.15974419716E-01 -0.15971895883E-02  0.39338675906E+01  0.39351711467E+01  0.10000000000E+00 0.  1.
</event>
<event>
 5   0  0.6262544E+06  0.9118800E+02  0.7818608E-02  0.1180000E+00
       11   -1    0    0    0    0  0.00000000000E+00  0.00000000000E+00  0.39999999673E+01  0.40000000000E+01  0.51109989000E-03 0.  1.
     -623   -1    0    0    0    0  0.00000000000E+00  0.00000000000E+00  0.12525980253E-10  0.17130000000E+03  0.17130000000E+03 0. -1.
       11    1    1    2    0    0  0.19822442074E-01  0.74732155909E-02  0.82667406269E+00  0.82694561206E+00  0.51109989000E-03 0.  1.
     -623    1    1    2    0    0 -0.30613757618E-02 -0.53913781404E-02  0.18927738848E-02  0.17130000012E+03  0.17130000000E+03 0. -1.
      622    1    1    2    0    0 -0.16761066312E-01 -0.20818374503E-02  0.31714331310E+01  0.31730542655E+01  0.10000000000E+00 0.  1.
</event>
<event>
 5   0  0.6262544E+06  0.9118800E+02  0.7818608E-02  0.1180000E+00
       11   -1    0    0    0    0  0.00000000000E+00  0.00000000000E+00  0.39999999673E+01  0.40000000000E+01  0.51109989000E-03 0.  1.
     -623   -1    0    0    0    0  0.00000000000E+00  0.00000000000E+00  0.12525980253E-10  0.17130000000E+03  0.17130000000E+03 0.  1.
       11    1    1    2    0    0  0.70023449480E-02  0.16975193127E-01  0.12085740695E+00  0.12224550729E+00  0.51109989000E-03 0.  1.
     -623    1    1    2    0    0 -0.22731332218E-01  0.83473746510E-02  0.27940439254E-02  0.17130000173E+03  0.17130000000E+03 0.  1.
      622    1    1    2    0    0  0.15728987270E-01 -0.25322567778E-01  0.38763485165E+01  0.38777527583E+01  0.10000000000E+00 0.  1.
</event>
<event>
 5   0  0.6262544E+06  0.9118800E+02  0.7818608E-02  0.1180000E+00
       11   -1    0    0    0    0  0.00000000000E+00  0.00000000000E+00  0.39999999673E+01  0.40000000000E+01  0.51109989000E-03 0. -1.
     -623   -1    0    0    0    0  0.00000000000E+00  0.00000000000E+00  0.12525980253E-10  0.17130000000E+03  0.17130000000E+03 0.  1.
       11    1    1    2    0    0  0.26398307617E-01 -0.47315549039E-01  0.15226912470E+01  0.15236549894E+01  0.51109989000E-03 0. -1.
     -623    1    1    2    0    0 -0.23300099956E-01 -0.30306110502E-01  0.42077298962E-02  0.17130000432E+03  0.17130000000E+03 0.  1.
      622    1    1    2    0    0 -0.30982076611E-02  0.77621659541E-01  0.24731009904E+01  0.24763406934E+01  0.10000000000E+00 0.  0.
</event>
<event>
 5   0  0.6262544E+06  0.9118800E+02  0.7818608E-02  0.1180000E+00
       11   -1    0    0    0    0  0.00000000000E+00  0.00000000000E+00  0.39999999673E+01  0.40000000000E+01  0.51109989000E-03 0.  1.
     -623   -1    0    0    0    0  0.00000000000E+00  0.00000000000E+00  0.12525980253E-10  0.17130000000E+03  0.17130000000E+03 0. -1.
       11    1    1    2    0    0 -0.56641369376E-01  0.46327245290E-01  0.38530832778E+00  0.39219539398E+00  0.51109989000E-03 0.  1.
     -623    1    1    2    0    0  0.70921697818E-01  0.26840103997E-02  0.86494350254E-02  0.17130001492E+03  0.17130000000E+03 0. -1.
      622    1    1    2    0    0 -0.14280328442E-01 -0.49011255690E-01  0.36060422046E+01  0.36077896851E+01  0.10000000000E+00 0.  1.
</event>
<event>
 5   0  0.6262544E+06  0.9118800E+02  0.7818608E-02  0.1180000E+00
       11   -1    0    0    0    0  0.00000000000E+00  0.00000000000E+00  0.39999999673E+01  0.40000000000E+01  0.51109989000E-03 0.  1.
     -623   -1    0    0    0    0  0.00000000000E+00  0.00000000000E+00  0.12525980253E-10  0.17130000000E+03  0.17130000000E+03 0.  1.
       11    1    1    2    0    0 -0.10262478679E-02  0.10803914379E-02  0.27736314827E-01  0.27781015314E-01  0.51109989000E-03 0.  1.
     -623    1    1    2    0    0  0.52096955906E-02 -0.52670966164E-02  0.13081856187E-02  0.17130000017E+03  0.17130000000E+03 0.  1.
      622    1    1    2    0    0 -0.41834477227E-02  0.41867051785E-02  0.39709554669E+01  0.39722188195E+01  0.10000000000E+00 0.  1.
</event>
<event>
 5   0  0.6262544E+06  0.9118800E+02  0.7818608E-02  0.1180000E+00
       11   -1    0    0    0    0  0.00000000000E+00  0.00000000000E+00  0.39999999673E+01  0.40000000000E+01  0.51109989000E-03 0.  1.
     -623   -1    0    0    0    0  0.00000000000E+00  0.00000000000E+00  0.12525980253E-10  0.17130000000E+03  0.17130000000E+03 0.  1.
       11    1    1    2    0    0  0.46407241999E-01  0.29635398327E-04  0.99202794418E+00  0.99311295241E+00  0.51109989000E-03 0.  1.
     -623    1    1    2    0    0 -0.22064588193E-01 -0.33962590028E-01  0.30432800306E-02  0.17130000481E+03  0.17130000000E+03 0.  1.
      622    1    1    2    0    0 -0.24342653806E-01  0.33932954630E-01  0.30049287431E+01  0.30068822327E+01  0.10000000000E+00 0.  1.
</event>
<event>
 5   0  0.6262544E+06  0.9118800E+02  0.7818608E-02  0.1180000E+00
       11   -1    0    0    0    0  0.00000000000E+00  0.00000000000E+00  0.39999999673E+01  0.40000000000E+01  0.51109989000E-03 0. -1.
     -623   -1    0    0    0    0  0.00000000000E+00  0.00000000000E+00  0.12525980253E-10  0.17130000000E+03  0.17130000000E+03 0. -1.
       11    1    1    2    0    0  0.14769770123E-02 -0.64558090762E-02  0.85374115611E-01  0.85632118799E-01  0.51109989000E-03 0. -1.
     -623    1    1    2    0    0  0.89277220857E-02  0.52034510010E-02  0.15498764716E-02  0.17130000032E+03  0.17130000000E+03 0. -1.
      622    1    1    2    0    0 -0.10404699098E-01  0.12523580753E-02  0.39130759753E+01  0.39143675625E+01  0.10000000000E+00 0. -1.
</event>
<event>
 5   0  0.6262544E+06  0.9118800E+02  0.7818608E-02  0.1180000E+00
       11   -1    0    0    0    0  0.00000000000E+00  0.00000000000E+00  0.39999999673E+01  0.40000000000E+01  0.51109989000E-03 0.  1.
     -623   -1    0    0    0    0  0.00000000000E+00  0.00000000000E+00  0.12525980253E-10  0.17130000000E+03  0.17130000000E+03 0.  1.
       11    1    1    2    0    0  0.41365367582E-02  0.49706839468E-01  0.96862028047E+00  0.96990380440E+00  0.51109989000E-03 0.  1.
     -623    1    1    2    0    0  0.58698050449E-02  0.58499490175E-02  0.34604600357E-02  0.17130000024E+03  0.17130000000E+03 0.  1.
      622    1    1    2    0    0 -0.10006341803E-01 -0.55556788486E-01  0.30279192268E+01  0.30300959602E+01  0.10000000000E+00 0.  0.
</event>
<event>
 5   0  0.6262544E+06  0.9118800E+02  0.7818608E-02  0.1180000E+00
       11   -1    0    0    0    0  0.00000000000E+00  0.00000000000E+00  0.39999999673E+01  0.40000000000E+01  0.51109989000E-03 0.  1.
     -623   -1    0    0    0    0  0.00000000000E+00  0.00000000000E+00  0.12525980253E-10  0.17130000000E+03  0.17130000000E+03 0. -1.
       11    1    1    2    0    0 -0.53359183865E-01  0.69950496774E-01  0.67864297247E+00  0.68432216083E+00  0.51109989000E-03 0.  1.
     -623    1    1    2    0    0  0.94750256861E-01 -0.27349153481E-01  0.77483836735E-02  0.17130002856E+03  0.17130000000E+03 0. -1.
      622    1    1    2    0    0 -0.41391072996E-01 -0.42601343293E-01  0.33136086112E+01  0.33156492763E+01  0.10000000000E+00 0.  1.
</event>
<event>
 5   0  0.6262544E+06  0.9118800E+02  0.7818608E-02  0.1180000E+00
       11   -1    0    0    0    0  0.00000000000E+00  0.00000000000E+00  0.39999999673E+01  0.40000000000E+01  0.51109989000E-03 0. -1.
     -623   -1    0    0    0    0  0.00000000000E+00  0.00000000000E+00  0.12525980253E-10  0.17130000000E+03  0.17130000000E+03 0. -1.
       11    1    1    2    0    0  0.27527315404E-02 -0.46058276659E-02  0.17773701023E-01  0.18573013994E-01  0.51109989000E-03 0. -1.
     -623    1    1    2    0    0  0.26633544489E-02  0.67205446342E-02  0.20597213737E-02  0.17130000016E+03  0.17130000000E+03 0. -1.
      622    1    1    2    0    0 -0.54160859893E-02 -0.21147169683E-02  0.39801665450E+01  0.39814268211E+01  0.10000000000E+00 0. -1.
</event>
<event>
 5   0  0.6262544E+06  0.9118800E+02  0.7818608E-02  0.1180000E+00
       11   -1    0    0    0    0  0.00000000000E+00  0.00000000000E+00  0.39999999673E+01  0.40000000000E+01  0.51109989000E-03 0. -1.
     -623   -1    0    0    0    0  0.00000000000E+00  0.00000000000E+00  0.12525980253E-10  0.17130000000E+03  0.17130000000E+03 0.  1.
       11    1    1    2    0    0  0.68150112966E-02  0.61974017703E-01  0.72048198435E+00  0.72317478817E+00  0.51109989000E-03 0. -1.
     -623    1    1    2    0    0  0.15161432605E-01 -0.78233469949E-04  0.48783747273E-02  0.17130000074E+03  0.17130000000E+03 0.  1.
      622    1    1    2    0    0 -0.21976443901E-01 -0.61895784233E-01  0.32746396083E+01  0.32768244714E+01  0.10000000000E+00 0. -1.
</event>
<event>
 5   0  0.6262544E+06  0.9118800E+02  0.7818608E-02  0.1180000E+00
       11   -1    0    0    0    0  0.00000000000E+00  0.00000000000E+00  0.39999999673E+01  0.40000000000E+01  0.51109989000E-03 0.  1.
     -623   -1    0    0    0    0  0.00000000000E+00  0.00000000000E+00  0.12525980253E-10  0.17130000000E+03  0.17130000000E+03 0. -1.
       11    1    1    2    0    0 -0.41102834730E-01 -0.11920570712E-01  0.29141482520E+00  0.29454100665E+00  0.51109989000E-03 0.  1.
     -623    1    1    2    0    0  0.35408764919E-02  0.87413351843E-02  0.46678985180E-02  0.17130000032E+03  0.17130000000E+03 0. -1.
      622    1    1    2    0    0  0.37561958238E-01  0.31792355277E-02  0.37039172436E+01  0.37054586701E+01  0.10000000000E+00 0.  1.
</event>
<event>
 5   0  0.6262544E+06  0.9118800E+02  0.7818608E-02  0.1180000E+00
       11   -1    0    0    0    0  0.00000000000E+00  0.00000000000E+00  0.39999999673E+01  0.40000000000E+01  0.51109989000E-03 0.  1.
     -623   -1    0    0    0    0  0.00000000000E+00  0.00000000000E+00  0.12525980253E-10  0.17130000000E+03  0.17130000000E+03 0.  1.
       11    1    1    2    0    0 -0.34373525349E-02 -0.85766312453E-03  0.20227366477E-01  0.20541629833E-01  0.51109989000E-03 0.  1.
     -623    1    1    2    0    0 -0.11321642267E-02  0.20343396760E-02  0.15737029652E-02  0.17130000002E+03  0.17130000000E+03 0.  1.
      622    1    1    2    0    0  0.45695167617E-02 -0.11766765515E-02  0.39781988980E+01  0.39794583472E+01  0.10000000000E+00 0.  1.
</event>
<event>
 5   0  0.6262544E+06  0.9118800E+02  0.7818608E-02  0.1180000E+00
       11   -1    0    0    0    0  0.00000000000E+00  0.00000000000E+00  0.39999999673E+01  0.40000000000E+01  0.51109989000E-03 0.  1.
     -623   -1    0    0    0    0  0.00000000000E+00  0.00000000000E+00  0.12525980253E-10  0.17130000000E+03  0.17130000000E+03 0.  1.
       11    1    1    2    0    0  0.94969283579E-02  0.92300269141E-02  0.71298972598E-01  0.72520271385E-01  0.51109989000E-03 0.  1.
     -623    1    1    2    0    0 -0.10890896068E-01 -0.32532414977E-02  0.24997456936E-02  0.17130000040E+03  0.17130000000E+03 0.  1.
      622    1    1    2    0    0  0.13939677104E-02 -0.59767854164E-02  0.39262012490E+01  0.39274793332E+01  0.10000000000E+00 0.  1.
</event>
<event>
 5   0  0.6262544E+06  0.9118800E+02  0.7818608E-02  0.1180000E+00
       11   -1    0    0    0    0  0.00000000000E+00  0.00000000000E+00  0.39999999673E+01  0.40000000000E+01  0.51109989000E-03 0.  1.
     -623   -1    0    0    0    0  0.00000000000E+00  0.00000000000E+00  0.12525980253E-10  0.17130000000E+03  0.17130000000E+03 0. -1.
       11    1    1    2    0    0 -0.10003518645E+00  0.80543017649E-01  0.18476297012E+01  0.18520880083E+01  0.51109989000E-03 0.  1.
     -623    1    1    2    0    0  0.11346295042E-01 -0.29107230057E-01  0.92414188234E-02  0.17130000310E+03  0.17130000000E+03 0. -1.
      622    1    1    2    0    0  0.88688891413E-01 -0.51435787592E-01  0.21431288473E+01  0.21479088937E+01  0.10000000000E+00 0.  0.
</event>
<event>
 5   0  0.6262544E+06  0.9118800E+02  0.7818608E-02  0.1180000E+00
       11   -1    0    0    0    0  0.00000000000E+00  0.00000000000E+00  0.39999999673E+01  0.40000000000E+01  0.51109989000E-03 0. -1.
     -623   -1    0    0    0    0  0.00000000000E+00  0.00000000000E+00  0.12525980253E-10  0.17130000000E+03  0.17130000000E+03 0. -1.
       11    1    1    2    0    0 -0.37844654142E-01 -0.21923842648E-01  0.44077874564E+00  0.44294360426E+00  0.51109989000E-03 0. -1.
     -623    1    1    2    0    0  0.14685035267E-02 -0.33661090032E-02  0.38468660244E-02  0.17130000008E+03  0.17130000000E+03 0. -1.
      622    1    1    2    0    0  0.36376150616E-01  0.25289951651E-01  0.35553743558E+01  0.35570563133E+01  0.10000000000E+00 0. -1.
</event>
<event>
 5   0  0.6262544E+06  0.9118800E+02  0.7818608E-02  0.1180000E+00
       11   -1    0    0    0    0  0.00000000000E+00  0.00000000000E+00  0.39999999673E+01  0.40000000000E+01  0.51109989000E-03 0.  1.
     -623   -1    0    0    0    0  0.00000000000E+00  0.00000000000E+00  0.12525980253E-10  0.17130000000E+03  0.17130000000E+03 0. -1.
       11    1    1    2    0    0  0.51819134313E-02 -0.96414416566E-02  0.42718723437E-01  0.44101702661E-01  0.51109989000E-03 0.  1.
     -623    1    1    2    0    0 -0.15724777976E-02  0.23091945733E-01  0.26731902202E-02  0.17130000158E+03  0.17130000000E+03 0. -1.
      622    1    1    2    0    0 -0.36094356337E-02 -0.13450504076E-01  0.39546080537E+01  0.39558967128E+01  0.10000000000E+00 0.  1.
</event>
<event>
 5   0  0.6262544E+06  0.9118800E+02  0.7818608E-02  0.1180000E+00
       11   -1    0    0    0    0  0.00000000000E+00  0.00000000000E+00  0.39999999673E+01  0.40000000000E+01  0.51109989000E-03 0. -1.
     -623   -1    0    0    0    0  0.00000000000E+00  0.00000000000E+00  0.12525980253E-10  0.17130000000E+03  0.17130000000E+03 0.  1.
       11    1    1    2    0    0 -0.67535868949E-03  0.12974115679E-01  0.49487763752E+00  0.49504840281E+00  0.51109989000E-03 0. -1.
     -623    1    1    2    0    0  0.82369983041E-02 -0.66893727125E-02  0.16117097225E-02  0.17130000034E+03  0.17130000000E+03 0.  1.
      622    1    1    2    0    0 -0.75616396143E-02 -0.62847429671E-02  0.35035106200E+01  0.35049512608E+01  0.10000000000E+00 0. -1.
</event>
<event>
 5   0  0.6262544E+06  0.9118800E+02  0.7818608E-02  0.1180000E+00
       11   -1    0    0    0    0  0.00000000000E+00  0.00000000000E+00  0.39999999673E+01  0.40000000000E+01  0.51109989000E-03 0. -1.
     -623   -1    0    0    0    0  0.00000000000E+00  0.00000000000E+00  0.12525980253E-10  0.17130000000E+03  0.17130000000E+03 0. -1.
       11    1    1    2    0    0 -0.74132832152E-03 -0.66221944612E-03 -0.40229983936E-03  0.11879269899E-02  0.51109989000E-03 0. -1.
     -623    1    1    2    0    0  0.36751930243E-03 -0.91876811539E-03  0.28411176098E-02  0.17130000003E+03  0.17130000000E+03 0. -1.
      622    1    1    2    0    0  0.37380901909E-03  0.15809875615E-02  0.39975611496E+01  0.39988120466E+01  0.10000000000E+00 0. -1.
</event>
<event>
 5   0  0.6262544E+06  0.9118800E+02  0.7818608E-02  0.1180000E+00
       11   -1    0    0    0    0  0.00000000000E+00  0.00000000000E+00  0.39999999673E+01  0.40000000000E+01  0.51109989000E-03 0.  1.
     -623   -1    0    0    0    0  0.00000000000E+00  0.00000000000E+00  0.12525980253E-10  0.17130000000E+03  0.17130000000E+03 0. -1.
       11    1    1    2    0    0 -0.53013421121E-02  0.97627164069E-02  0.19404125099E-01  0.22365065477E-01  0.51109989000E-03 0.  1.
     -623    1    1    2    0    0  0.80743337642E-02  0.81501564258E-02  0.42598863561E-02  0.17130000044E+03  0.17130000000E+03 0. -1.
      622    1    1    2    0    0 -0.27729916521E-02 -0.17912872833E-01  0.39763359559E+01  0.39776344974E+01  0.10000000000E+00 0.  1.
</event>
<event>
 5   0  0.6262544E+06  0.9118800E+02  0.7818608E-02  0.1180000E+00
       11   -1    0    0    0    0  0.00000000000E+00  0.00000000000E+00  0.39999999673E+01  0.40000000000E+01  0.51109989000E-03 0.  1.
     -623   -1    0    0    0    0  0.00000000000E+00  0.00000000000E+00  0.12525980253E-10  0.17130000000E+03  0.17130000000E+03 0. -1.
       11    1    1    2    0    0  0.25441327742E-01  0.20504536583E-01  0.68178187735E-01  0.75605711978E-01  0.51109989000E-03 0.  1.
     -623    1    1    2    0    0 -0.91164738451E-02 -0.24115741340E-01  0.87395718539E-02  0.17130000216E+03  0.17130000000E+03 0. -1.
      622    1    1    2    0    0 -0.16324853897E-01  0.36112047572E-02  0.39230822078E+01  0.39243921250E+01  0.10000000000E+00 0.  1.
</event>
<event>
 5   0  0.6262544E+06  0.9118800E+02  0.7818608E-02  0.1180000E+00
       11   -1    0    0    0    0  0.00000000000E+00  0.00000000000E+00  0.39999999673E+01  0.40000000000E+01  0.51109989000E-03 0. -1.
     -623   -1    0    0    0    0  0.00000000000E+00  0.00000000000E+00  0.12525980253E-10  0.17130000000E+03  0.17130000000E+03 0.  1.
       11    1    1    2    0    0 -0.38553399630E-01  0.52368213514E-02  0.10205349206E+01  0.10212764436E+01  0.51109989000E-03 0. -1.
     -623    1    1    2    0    0 -0.30852715549E-01  0.90480452536E-01  0.47960382504E-02  0.17130002674E+03  0.17130000000E+03 0.  1.
      622    1    1    2    0    0  0.69406115179E-01 -0.95717273888E-01  0.29746690085E+01  0.29786968150E+01  0.10000000000E+00 0. -1.
</event>
<event>
 5   0  0.6262544E+06  0.9118800E+02  0.7818608E-02  0.1180000E+00
       11   -1    0    0    0    0  0.00000000000E+00  0.00000000000E+00  0.39999999673E+01  0.40000000000E+01  0.51109989000E-03 0.  1.
     -623   -1    0    0    0    0  0.00000000000E+00  0.00000000000E+00  0.12525980253E-10  0.17130000000E+03  0.17130000000E+03 0. -1.
       11    1    1    2    0    0  0.53121754809E-02 -0.26325032219E-03  0.19692391665E+00  0.19699639256E+00  0.51109989000E-03 0.  1.
     -623    1    1    2    0    0  0.34100316992E-02  0.69322575028E-02  0.14034560588E-02  0.17130000018E+03  0.17130000000E+03 0. -1.
      622    1    1    2    0    0 -0.87222071801E-02 -0.66690071806E-02  0.38016725946E+01  0.38030034275E+01  0.10000000000E+00 0.  1.
</event>
<event>
 5   0  0.6262544E+06  0.9118800E+02  0.7818608E-02  0.1180000E+00
       11   -1    0    0    0    0  0.00000000000E+00  0.00000000000E+00  0.39999999673E+01  0.40000000000E+01  0.51109989000E-03 0. -1.
     -623   -1    0    0    0    0  0.00000000000E+00  0.00000000000E+00  0.12525980253E-10  0.17130000000E+03  0.17130000000E+03 0.  1.
       11    1    1    2    0    0 -0.12476330277E-01 -0.23516769494E-01  0.75698264286E+00  0.75745077733E+00  0.51109989000E-03 0. -1.
     -623    1    1    2    0    0 -0.17039830681E-02  0.17005451042E-02  0.21149442780E-02  0.17130000003E+03  0.17130000000E+03 0.  1.
      622    1    1    2    0    0  0.14180313345E-01  0.21816224390E-01  0.32409023802E+01  0.32425491927E+01  0.10000000000E+00 0. -1.
</event>
<event>
 5   0  0.6262544E+06  0.9118800E+02  0.7818608E-02  0.1180000E+00
       11   -1    0    0    0    0  0.00000000000E+00  0.00000000000E+00  0.39999999673E+01  0.40000000000E+01  0.51109989000E-03 0.  1.
     -623   -1    0    0    0    0  0.00000000000E+00  0.00000000000E+00  0.12525980253E-10  0.17130000000E+03  0.17130000000E+03 0. -1.
       11    1    1    2    0    0  0.16536906691E-02 -0.60408000241E-02  0.59416477145E-01  0.59747844624E-01  0.51109989000E-03 0.  1.
     -623    1    1    2    0    0 -0.10800691901E-01  0.72649494546E-03  0.16150487270E-02  0.17130000035E+03  0.17130000000E+03 0. -1.
      622    1    1    2    0    0  0.91470012322E-02  0.53143050786E-02  0.39389684418E+01  0.39402518060E+01  0.10000000000E+00 0.  1.
</event>
<event>
 5   0  0.6262544E+06  0.9118800E+02  0.7818608E-02  0.1180000E+00
       11   -1    0    0    0    0  0.00000000000E+00  0.00000000000E+00  0.39999999673E+01  0.40000000000E+01  0.51109989000E-03 0. -1.
     -623   -1    0    0    0    0  0.00000000000E+00  0.00000000000E+00  0.12525980253E-10  0.17130000000E+03  0.17130000000E+03 0. -1.
       11    1    1    2    0    0 -0.58090325374E-03 -0.18427595661E-02  0.40042775984E-02  0.44753402870E-02  0.51109989000E-03 0. -1.
     -623    1    1    2    0    0  0.94055945687E-03  0.79906223022E-02  0.17275714104E-02  0.17130000020E+03  0.17130000000E+03 0. -1.
      622    1    1    2    0    0 -0.35965620314E-03 -0.61478627361E-02  0.39942681184E+01  0.39955244621E+01  0.10000000000E+00 0. -1.
</event>
<event>
 5   0  0.6262544E+06  0.9118800E+02  0.7818608E-02  0.1180000E+00
       11   -1    0    0    0    0  0.00000000000E+00  0.00000000000E+00  0.39999999673E+01  0.40000000000E+01  0.51109989000E-03 0.  1.
     -623   -1    0    0    0    0  0.00000000000E+00  0.00000000000E+00  0.12525980253E-10  0.17130000000E+03  0.17130000000E+03 0. -1.
       11    1    1    2    0    0 -0.72436479878E-03 -0.43648487435E-01  0.13230080852E+01  0.13237282084E+01  0.51109989000E-03 0.  1.
     -623    1    1    2    0    0  0.44189337014E-02  0.83353310947E-02  0.28249991688E-02  0.17130000028E+03  0.17130000000E+03 0. -1.
      622    1    1    2    0    0 -0.36945689026E-02  0.35313156340E-01  0.26741668830E+01  0.26762715085E+01  0.10000000000E+00 0.  0.
</event>
<event>
 5   0  0.6262544E+06  0.9118800E+02  0.7818608E-02  0.1180000E+00
       11   -1    0    0    0    0  0.00000000000E+00  0.00000000000E+00  0.39999999673E+01  0.40000000000E+01  0.51109989000E-03 0.  1.
     -623   -1    0    0    0    0  0.00000000000E+00  0.00000000000E+00  0.12525980253E-10  0.17130000000E+03  0.17130000000E+03 0. -1.
       11    1    1    2    0    0  0.41025304457E-01 -0.74781222339E-02  0.25495673791E+00  0.25834511287E+00  0.51109989000E-03 0.  1.
     -623    1    1    2    0    0  0.62631744506E-03 -0.41611915088E-02  0.49750434814E-02  0.17130000012E+03  0.17130000000E+03 0. -1.
      622    1    1    2    0    0 -0.41651621902E-01  0.11639313743E-01  0.37400681860E+01  0.37416547632E+01  0.10000000000E+00 0.  1.
</event>
<event>
 5   0  0.6262544E+06  0.9118800E+02  0.7818608E-02  0.1180000E+00
       11   -1    0    0    0    0  0.00000000000E+00  0.00000000000E+00  0.39999999673E+01  0.40000000000E+01  0.51109989000E-03 0. -1.
     -623   -1    0    0    0    0  0.00000000000E+00  0.00000000000E+00  0.12525980253E-10  0.17130000000E+03  0.17130000000E+03 0. -1.
       11    1    1    2    0    0 -0.56046339427E-02 -0.95139255309E-02  0.78768523526E-01  0.79540355935E-01  0.51109989000E-03 0. -1.
     -623    1    1    2    0    0  0.18891773258E-02 -0.49311956164E-02  0.20758437363E-02  0.17130000009E+03  0.17130000000E+03 0. -1.
      622    1    1    2    0    0  0.37154566168E-02  0.14445121147E-01  0.39191556002E+01  0.39204595502E+01  0.10000000000E+00 0. -1.
</event>
<event>
 5   0  0.6262544E+06  0.9118800E+02  0.7818608E-02  0.1180000E+00
       11   -1    0    0    0    0  0.00000000000E+00  0.00000000000E+00  0.39999999673E+01  0.40000000000E+01  0.51109989000E-03 0.  1.
     -623   -1    0    0    0    0  0.00000000000E+00  0.00000000000E+00  0.12525980253E-10  0.17130000000E+03  0.17130000000E+03 0. -1.
       11    1    1    2    0    0  0.27552405692E-01 -0.68723585146E-03  0.23833438033E+00  0.23992320734E+00  0.51109989000E-03 0.  1.
     -623    1    1    2    0    0 -0.14827425734E-01  0.38143194369E-01  0.31318787630E-02  0.17130000492E+03  0.17130000000E+03 0. -1.
      622    1    1    2    0    0 -0.12724979958E-01 -0.37455958518E-01  0.37585337083E+01  0.37600718757E+01  0.10000000000E+00 0.  1.
</event>
<event>
 5   0  0.6262544E+06  0.9118800E+02  0.7818608E-02  0.1180000E+00
       11   -1    0    0    0    0  0.00000000000E+00  0.00000000000E+00  0.39999999673E+01  0.40000000000E+01  0.51109989000E-03 0.  1.
     -623   -1    0    0    0    0  0.00000000000E+00  0.00000000000E+00  0.12525980253E-10  0.17130000000E+03  0.17130000000E+03 0.  1.
       11    1    1    2    0    0 -0.22965660973E-01  0.25991357071E-01  0.72471826461E+00  0.72554792847E+00  0.51109989000E-03 0.  1.
     -623    1    1    2    0    0  0.19373583615E-02 -0.32664371627E-01  0.24344606989E-02  0.17130000314E+03  0.17130000000E+03 0.  1.
      622    1    1    2    0    0  0.21028302612E-01  0.66730145557E-02  0.32728472420E+01  0.32744489290E+01  0.10000000000E+00 0.  1.
</event>
<event>
 5   0  0.6262544E+06  0.9118800E+02  0.7818608E-02  0.1180000E+00
       11   -1    0    0    0    0  0.00000000000E+00  0.00000000000E+00  0.39999999673E+01  0.40000000000E+01  0.51109989000E-03 0.  1.
     -623   -1    0    0    0    0  0.00000000000E+00  0.00000000000E+00  0.12525980253E-10  0.17130000000E+03  0.17130000000E+03 0. -1.
       11    1    1    2    0    0  0.10238206565E-01  0.51354177656E-04  0.14363933044E-01  0.17646736426E-01  0.51109989000E-03 0.  1.
     -623    1    1    2    0    0 -0.34643112675E-01  0.15455400324E-01  0.46477775042E-02  0.17130000426E+03  0.17130000000E+03 0. -1.
      622    1    1    2    0    0  0.24404906110E-01 -0.15506754502E-01  0.39809882568E+01  0.39823490002E+01  0.10000000000E+00 0.  1.
</event>
<event>
 5   0  0.6262544E+06  0.9118800E+02  0.7818608E-02  0.1180000E+00
       11   -1    0    0    0    0  0.00000000000E+00  0.00000000000E+00  0.39999999673E+01  0.40000000000E+01  0.51109989000E-03 0.  1.
     -623   -1    0    0    0    0  0.00000000000E+00  0.00000000000E+00  0.12525980253E-10  0.17130000000E+03  0.17130000000E+03 0. -1.
       11    1    1    2    0    0  0.68204715477E-03  0.33039587042E-02  0.27981300950E-02  0.44127187273E-02  0.51109989000E-03 0.  1.
     -623    1    1    2    0    0 -0.25658536682E-02 -0.18821164361E-03  0.28678352773E-02  0.17130000004E+03  0.17130000000E+03 0. -1.
      622    1    1    2    0    0  0.18838065133E-02 -0.31157470606E-02  0.39943340019E+01  0.39955872378E+01  0.10000000000E+00 0.  1.
</event>
<event>
 5   0  0.6262544E+06  0.9118800E+02  0.7818608E-02  0.1180000E+00
       11   -1    0    0    0    0  0.00000000000E+00  0.00000000000E+00  0.39999999673E+01  0.40000000000E+01  0.51109989000E-03 0.  1.
     -623   -1    0    0    0    0  0.00000000000E+00  0.00000000000E+00  0.12525980253E-10  0.17130000000E+03  0.17130000000E+03 0. -1.
       11    1    1    2    0    0  0.41290407341E-02 -0.25530725391E-02  0.53780831304E-01  0.54001909185E-01  0.51109989000E-03 0.  1.
     -623    1    1    2    0    0 -0.10433404325E-02  0.11589261654E-02  0.14898221003E-02  0.17130000001E+03  0.17130000000E+03 0. -1.
      622    1    1    2    0    0 -0.30857003017E-02  0.13941463738E-02  0.39447293138E+01  0.39459980771E+01  0.10000000000E+00 0.  1.
</event>
<event>
 5   0  0.6262544E+06  0.9118800E+02  0.7818608E-02  0.1180000E+00
       11   -1    0    0    0    0  0.00000000000E+00  0.00000000000E+00  0.39999999673E+01  0.40000000000E+01  0.51109989000E-03 0. -1.
     -623   -1    0    0    0    0  0.00000000000E+00  0.00000000000E+00  0.12525980253E-10  0.17130000000E+03  0.17130000000E+03 0. -1.
       11    1    1    2    0    0 -0.21507268529E-01  0.24491923066E-03  0.25869974005E+00  0.25959283370E+00  0.51109989000E-03 0. -1.
     -623    1    1    2    0    0 -0.80166921348E-03  0.28900216854E-02  0.22979618097E-02  0.17130000004E+03  0.17130000000E+03 0. -1.
      622    1    1    2    0    0  0.22308937743E-01 -0.31349409162E-02  0.37390022656E+01  0.37404071247E+01  0.10000000000E+00 0. -1.
</event>
<event>
 5   0  0.6262544E+06  0.9118800E+02  0.7818608E-02  0.1180000E+00
       11   -1    0    0    0    0  0.00000000000E+00  0.00000000000E+00  0.39999999673E+01  0.40000000000E+01  0.51109989000E-03 0.  1.
     -623   -1    0    0    0    0  0.00000000000E+00  0.00000000000E+00  0.12525980253E-10  0.17130000000E+03  0.17130000000E+03 0. -1.
       11    1    1    2    0    0 -0.25536002198E-01 -0.16494040678E-02  0.22051854453E-01  0.33783922930E-01  0.51109989000E-03 0.  1.
     -623    1    1    2    0    0  0.28493296718E-01 -0.15260488750E-01  0.13033592141E-01  0.17130000355E+03  0.17130000000E+03 0. -1.
      622    1    1    2    0    0 -0.29572945202E-02  0.16909892818E-01  0.39649145208E+01  0.39662125318E+01  0.10000000000E+00 0.  1.
</event>
<event>
 5   0  0.6262544E+06  0.9118800E+02  0.7818608E-02  0.1180000E+00
       11   -1    0    0    0    0  0.00000000000E+00  0.00000000000E+00  0.39999999673E+01  0.40000000000E+01  0.51109989000E-03 0.  1.
     -623   -1    0    0    0    0  0.00000000000E+00  0.00000000000E+00  0.12525980253E-10  0.17130000000E+03  0.17130000000E+03 0.  1.
       11    1    1    2    0    0 -0.18657886865E-02 -0.27543408790E-02  0.28817472236E-01  0.29013367431E-01  0.51109989000E-03 0.  1.
     -623    1    1    2    0    0  0.54782075088E-03  0.46017720542E-02  0.14559127252E-02  0.17130000007E+03  0.17130000000E+03 0.  1.
      622    1    1    2    0    0  0.13179679356E-02 -0.18474311751E-02  0.39697265824E+01  0.39709865637E+01  0.10000000000E+00 0.  1.
</event>
<event>
 5   0  0.6262544E+06  0.9118800E+02  0.7818608E-02  0.1180000E+00
       11   -1    0    0    0    0  0.00000000000E+00  0.00000000000E+00  0.39999999673E+01  0.40000000000E+01  0.51109989000E-03 0. -1.
     -623   -1    0    0    0    0  0.00000000000E+00  0.00000000000E+00  0.12525980253E-10  0.17130000000E+03  0.17130000000E+03 0. -1.
       11    1    1    2    0    0 -0.14356357330E-01 -0.98441781460E-02  0.47732035272E-01  0.50809657074E-01  0.51109989000E-03 0. -1.
     -623    1    1    2    0    0 -0.10066025854E-02  0.55337268677E-02  0.43762677585E-02  0.17130000015E+03  0.17130000000E+03 0. -1.
      622    1    1    2    0    0  0.15362959915E-01  0.43104512784E-02  0.39478916643E+01  0.39491901947E+01  0.10000000000E+00 0. -1.
</event>
<event>
 5   0  0.6262544E+06  0.9118800E+02  0.7818608E-02  0.1180000E+00
       11   -1    0    0    0    0  0.00000000000E+00  0.00000000000E+00  0.39999999673E+01  0.40000000000E+01  0.51109989000E-03 0. -1.
     -623   -1    0    0    0    0  0.00000000000E+00  0.00000000000E+00  0.12525980253E-10  0.17130000000E+03  0.17130000000E+03 0.  1.
       11    1    1    2    0    0 -0.12155068351E-02  0.73228434245E-03 -0.89909619590E-03  0.17559311751E-02  0.51109989000E-03 0. -1.
     -623    1    1    2    0    0 -0.66367643469E-03  0.29188649018E-02  0.39079194472E-02  0.17130000007E+03  0.17130000000E+03 0.  1.
      622    1    1    2    0    0  0.18791832698E-02 -0.36511492443E-02  0.39969911441E+01  0.39982439981E+01  0.10000000000E+00 0. -1.
</event>
<event>
 5   0  0.6262544E+06  0.9118800E+02  0.7818608E-02  0.1180000E+00
       11   -1    0    0    0    0  0.00000000000E+00  0.00000000000E+00  0.39999999673E+01  0.40000000000E+01  0.51109989000E-03 0.  1.
     -623   -1    0    0    0    0  0.00000000000E+00  0.00000000000E+00  0.12525980253E-10  0.17130000000E+03  0.17130000000E+03 0. -1.
       11    1    1    2    0    0  0.12738471860E-01 -0.86574017404E-02  0.91844390894E+00  0.91857318400E+00  0.51109989000E-03 0.  1.
     -623    1    1    2    0    0 -0.15328467049E-02  0.61471068376E-02  0.17738297293E-02  0.17130000013E+03  0.17130000000E+03 0. -1.
      622    1    1    2    0    0 -0.11205625155E-01  0.25102949026E-02  0.30797822288E+01  0.30814266898E+01  0.10000000000E+00 0.  1.
</event>
<event>
 5   0  0.6262544E+06  0.9118800E+02  0.7818608E-02  0.1180000E+00
       11   -1    0    0    0    0  0.00000000000E+00  0.00000000000E+00  0.39999999673E+01  0.40000000000E+01  0.51109989000E-03 0. -1.
     -623   -1    0    0    0    0  0.00000000000E+00  0.00000000000E+00  0.12525980253E-10  0.17130000000E+03  0.17130000000E+03 0. -1.
       11    1    1    2    0    0 -0.13238705506E-01 -0.25041171813E-01  0.36899590686E+00  0.37008183435E+00  0.51109989000E-03 0. -1.
     -623    1    1    2    0    0 -0.42352585712E-02  0.80111283419E-02  0.25458961891E-02  0.17130000026E+03  0.17130000000E+03 0. -1.
      622    1    1    2    0    0  0.17473964078E-01  0.17030043471E-01  0.36284581643E+01  0.36299179071E+01  0.10000000000E+00 0. -1.
</event>
<event>
 5   0  0.6262544E+06  0.9118800E+02  0.7818608E-02  0.1180000E+00
       11   -1    0    0    0    0  0.00000000000E+00  0.00000000000E+00  0.39999999673E+01  0.40000000000E+01  0.51109989000E-03 0.  1.
     -623   -1    0    0    0    0  0.00000000000E+00  0.00000000000E+00  0.12525980253E-10  0.17130000000E+03  0.17130000000E+03 0. -1.
       11    1    1    2    0    0 -0.16525549139E-01 -0.69319436772E-01  0.26036382533E+00  0.26994047649E+00  0.51109989000E-03 0.  1.
     -623    1    1    2    0    0  0.22296841043E-01  0.10409363124E-01  0.11389324176E-01  0.17130000215E+03  0.17130000000E+03 0. -1.
      622    1    1    2    0    0 -0.57712919037E-02  0.58910073647E-01  0.37282468179E+01  0.37300573775E+01  0.10000000000E+00 0.  1.
</event>
<event>
 5   0  0.6262544E+06  0.9118800E+02  0.7818608E-02  0.1180000E+00
       11   -1    0    0    0    0  0.00000000000E+00  0.00000000000E+00  0.39999999673E+01  0.40000000000E+01  0.51109989000E-03 0.  1.
     -623   -1    0    0    0    0  0.00000000000E+00  0.00000000000E+00  0.12525980253E-10  0.17130000000E+03  0.17130000000E+03 0.  1.
       11    1    1    2    0    0 -0.31479170943E-02 -0.61852255968E-02  0.18757124502E+00  0.18770029190E+00  0.51109989000E-03 0.  1.
     -623    1    1    2    0    0  0.17971823070E-01 -0.39358362340E-02  0.14840496265E-02  0.17130000099E+03  0.17130000000E+03 0.  1.
      622    1    1    2    0    0 -0.14823905976E-01  0.10121061831E-01  0.38109446727E+01  0.38122987137E+01  0.10000000000E+00 0.  1.
</event>
<event>
 5   0  0.6262544E+06  0.9118800E+02  0.7818608E-02  0.1180000E+00
       11   -1    0    0    0    0  0.00000000000E+00  0.00000000000E+00  0.39999999673E+01  0.40000000000E+01  0.51109989000E-03 0. -1.
     -623   -1    0    0    0    0  0.00000000000E+00  0.00000000000E+00  0.12525980253E-10  0.17130000000E+03  0.17130000000E+03 0.  1.
       11    1    1    2    0    0  0.13945702492E-01 -0.14516350117E-02  0.23699400461E+00  0.23740894950E+00  0.51109989000E-03 0. -1.
     -623    1    1    2    0    0 -0.28472418450E-02  0.23976443665E-03  0.17606209227E-02  0.17130000003E+03  0.17130000000E+03 0.  1.
      622    1    1    2    0    0 -0.11098460647E-01  0.12118705750E-02  0.37612453418E+01  0.37625910176E+01  0.10000000000E+00 0. -1.
</event>
<event>
 5   0  0.6262544E+06  0.9118800E+02  0.7818608E-02  0.1180000E+00
       11   -1    0    0    0    0  0.00000000000E+00  0.00000000000E+00  0.39999999673E+01  0.40000000000E+01  0.51109989000E-03 0. -1.
     -623   -1    0    0    0    0  0.00000000000E+00  0.00000000000E+00  0.12525980253E-10  0.17130000000E+03  0.17130000000E+03 0. -1.
       11    1    1    2    0    0 -0.52234859039E-01 -0.63180876237E-02  0.47627001766E+00  0.47916780951E+00  0.51109989000E-03 0. -1.
     -623    1    1    2    0    0  0.16697375664E-01  0.17116525126E-01  0.45158863988E-02  0.17130000173E+03  0.17130000000E+03 0. -1.
      622    1    1    2    0    0  0.35537483375E-01 -0.10798437503E-01  0.35192140633E+01  0.35208304620E+01  0.10000000000E+00 0.  0.
</event>
<event>
 5   0  0.6262544E+06  0.9118800E+02  0.7818608E-02  0.1180000E+00
       11   -1    0    0    0    0  0.00000000000E+00  0.00000000000E+00  0.39999999673E+01  0.40000000000E+01  0.51109989000E-03 0. -1.
     -623   -1    0    0    0    0  0.00000000000E+00  0.00000000000E+00  0.12525980253E-10  0.17130000000E+03  0.17130000000E+03 0. -1.
       11    1    1    2    0    0 -0.25174544778E-02  0.14756588195E-01  0.23558494288E+00  0.23606062994E+00  0.51109989000E-03 0. -1.
     -623    1    1    2    0    0  0.25337916426E-02 -0.29667386045E-02  0.18228099013E-02  0.17130000005E+03  0.17130000000E+03 0. -1.
      622    1    1    2    0    0 -0.16337164795E-04 -0.11789849591E-01  0.37625922146E+01  0.37639393160E+01  0.10000000000E+00 0. -1.
</event>
<event>
 5   0  0.6262544E+06  0.9118800E+02  0.7818608E-02  0.1180000E+00
       11   -1    0    0    0    0  0.00000000000E+00  0.00000000000E+00  0.39999999673E+01  0.40000000000E+01  0.51109989000E-03 0. -1.
     -623   -1    0    0    0    0  0.00000000000E+00  0.00000000000E+00  0.12525980253E-10  0.17130000000E+03  0.17130000000E+03 0. -1.
       11    1    1    2    0    0 -0.18452063676E-01 -0.35048924040E-02  0.50025994621E+00  0.50061266258E+00  0.51109989000E-03 0. -1.
     -623    1    1    2    0    0 -0.10814790008E-02  0.14255082776E-02  0.18369750544E-02  0.17130000002E+03  0.17130000000E+03 0. -1.
      622    1    1    2    0    0  0.19533542676E-01  0.20793841265E-02  0.34979030461E+01  0.34993873182E+01  0.10000000000E+00 0. -1.
</event>
<event>
 5   0  0.6262544E+06  0.9118800E+02  0.7818608E-02  0.1180000E+00
       11   -1    0    0    0    0  0.00000000000E+00  0.00000000000E+00  0.39999999673E+01  0.40000000000E+01  0.51109989000E-03 0.  1.
     -623   -1    0    0    0    0  0.00000000000E+00  0.00000000000E+00  0.12525980253E-10  0.17130000000E+03  0.17130000000E+03 0. -1.
       11    1    1    2    0    0  0.10765242698E-02  0.34580663291E-02  0.26684984842E-02  0.45276080327E-02  0.51109989000E-03 0.  1.
     -623    1    1    2    0    0 -0.43230380009E-03 -0.42663987775E-02  0.31109051222E-02  0.17130000008E+03  0.17130000000E+03 0. -1.
      622    1    1    2    0    0 -0.64422046974E-03  0.80833244851E-03  0.39942205638E+01  0.39954723101E+01  0.10000000000E+00 0.  1.
</event>
<event>
 5   0  0.6262544E+06  0.9118800E+02  0.7818608E-02  0.1180000E+00
       11   -1    0    0    0    0  0.00000000000E+00  0.00000000000E+00  0.39999999673E+01  0.40000000000E+01  0.51109989000E-03 0.  1.
     -623   -1    0    0    0    0  0.00000000000E+00  0.00000000000E+00  0.12525980253E-10  0.17130000000E+03  0.17130000000E+03 0. -1.
       11    1    1    2    0    0 -0.11677619198E-01  0.16461874224E-01  0.11852726029E+00  0.12023449067E+00  0.51109989000E-03 0.  1.
     -623    1    1    2    0    0 -0.23969630651E-01  0.27773458561E-01  0.34162133435E-02  0.17130000396E+03  0.17130000000E+03 0. -1.
      622    1    1    2    0    0  0.35647249849E-01 -0.44235332786E-01  0.38780564937E+01  0.38797615468E+01  0.10000000000E+00 0.  1.
</event>
<event>
 5   0  0.6262544E+06  0.9118800E+02  0.7818608E-02  0.1180000E+00
       11   -1    0    0    0    0  0.00000000000E+00  0.00000000000E+00  0.39999999673E+01  0.40000000000E+01  0.51109989000E-03 0.  1.
     -623   -1    0    0    0    0  0.00000000000E+00  0.00000000000E+00  0.12525980253E-10  0.17130000000E+03  0.17130000000E+03 0.  1.
       11    1    1    2    0    0  0.14172265109E-01 -0.11148414622E-01  0.13520754633E+00  0.13640557926E+00  0.51109989000E-03 0.  1.
     -623    1    1    2    0    0 -0.20466539381E-02 -0.47348740821E-02  0.25441389391E-02  0.17130000010E+03  0.17130000000E+03 0.  1.
      622    1    1    2    0    0 -0.12125611171E-01  0.15883288704E-01  0.38622482820E+01  0.38635943241E+01  0.10000000000E+00 0.  1.
</event>
<event>
 5   0  0.6262544E+06  0.9118800E+02  0.7818608E-02  0.1180000E+00
       11   -1    0    0    0    0  0.00000000000E+00  0.00000000000E+00  0.39999999673E+01  0.40000000000E+01  0.51109989000E-03 0. -1.
     -623   -1    0    0    0    0  0.00000000000E+00  0.00000000000E+00  0.12525980253E-10  0.17130000000E+03  0.17130000000E+03 0. -1.
       11    1    1    2    0    0  0.44478282814E-02  0.23272004658E-01  0.70049392461E+00  0.70089469181E+00  0.51109989000E-03 0. -1.
     -623    1    1    2    0    0 -0.12426657804E-01 -0.20143233673E-02  0.19952914569E-02  0.17130000047E+03  0.17130000000E+03 0. -1.
      622    1    1    2    0    0  0.79788295239E-02 -0.21257681290E-01  0.32975107517E+01  0.32991048344E+01  0.10000000000E+00 0. -1.
</event>
<event>
 5   0  0.6262544E+06  0.9118800E+02  0.7818608E-02  0.1180000E+00
       11   -1    0    0    0    0  0.00000000000E+00  0.00000000000E+00  0.39999999673E+01  0.40000000000E+01  0.51109989000E-03 0. -1.
     -623   -1    0    0    0    0  0.00000000000E+00  0.00000000000E+00  0.12525980253E-10  0.17130000000E+03  0.17130000000E+03 0. -1.
       11    1    1    2    0    0  0.59413146441E-02  0.43288434765E-02  0.17203318415E+00  0.17219092826E+00  0.51109989000E-03 0. -1.
     -623    1    1    2    0    0 -0.37564055353E-02  0.11299469312E-01  0.14971239519E-02  0.17130000042E+03  0.17130000000E+03 0. -1.
      622    1    1    2    0    0 -0.21849091088E-02 -0.15628312788E-01  0.38264696593E+01  0.38278086513E+01  0.10000000000E+00 0. -1.
</event>
<event>
 5   0  0.6262544E+06  0.9118800E+02  0.7818608E-02  0.1180000E+00
       11   -1    0    0    0    0  0.00000000000E+00  0.00000000000E+00  0.39999999673E+01  0.40000000000E+01  0.51109989000E-03 0. -1.
     -623   -1    0    0    0    0  0.00000000000E+00  0.00000000000E+00  0.12525980253E-10  0.17130000000E+03  0.17130000000E+03 0. -1.
       11    1    1    2    0    0  0.32252259240E-03  0.16069737313E-01  0.18701615888E+01  0.18702307264E+01  0.51109989000E-03 0. -1.
     -623    1    1    2    0    0  0.13469559524E-01  0.14887921289E-01  0.26892396223E-02  0.17130000120E+03  0.17130000000E+03 0. -1.
      622    1    1    2    0    0 -0.13792082116E-01 -0.30957658602E-01  0.21271491389E+01  0.21297680760E+01  0.10000000000E+00 0.  0.
</event>
<event>
 5   0  0.6262544E+06  0.9118800E+02  0.7818608E-02  0.1180000E+00
       11   -1    0    0    0    0  0.00000000000E+00  0.00000000000E+00  0.39999999673E+01  0.40000000000E+01  0.51109989000E-03 0. -1.
     -623   -1    0    0    0    0  0.00000000000E+00  0.00000000000E+00  0.12525980253E-10  0.17130000000E+03  0.17130000000E+03 0.  1.
       11    1    1    2    0    0  0.20346875624E-02 -0.13957795919E-02  0.65046016352E-02  0.69756160786E-02  0.51109989000E-03 0. -1.
     -623    1    1    2    0    0  0.13990450467E-02  0.41931963014E-03  0.17249730903E-02  0.17130000001E+03  0.17130000000E+03 0.  1.
      622    1    1    2    0    0 -0.34337326091E-02  0.97645996172E-03  0.39917703925E+01  0.39930243689E+01  0.10000000000E+00 0. -1.
</event>
<event>
 5   0  0.6262544E+06  0.9118800E+02  0.7818608E-02  0.1180000E+00
       11   -1    0    0    0    0  0.00000000000E+00  0.00000000000E+00  0.39999999673E+01  0.40000000000E+01  0.51109989000E-03 0. -1.
     -623   -1    0    0    0    0  0.00000000000E+00  0.00000000000E+00  0.12525980253E-10  0.17130000000E+03  0.17130000000E+03 0.  1.
       11    1    1    2    0    0 -0.36466309885E-01  0.75586484928E-02  0.10751556754E+00  0.11378393300E+00  0.51109989000E-03 0. -1.
     -623    1    1    2    0    0  0.82795258734E-02  0.20363520766E-04  0.76651639977E-02  0.17130000037E+03  0.17130000000E+03 0.  1.
      622    1    1    2    0    0  0.28186784012E-01 -0.75790120136E-02  0.38848192358E+01  0.38862156954E+01  0.10000000000E+00 0. -1.
</event>
<event>
 5   0  0.6262544E+06  0.9118800E+02  0.7818608E-02  0.1180000E+00
       11   -1    0    0    0    0  0.00000000000E+00  0.00000000000E+00  0.39999999673E+01  0.40000000000E+01  0.51109989000E-03 0.  1.
     -623   -1    0    0    0    0  0.00000000000E+00  0.00000000000E+00  0.12525980253E-10  0.17130000000E+03  0.17130000000E+03 0. -1.
       11    1    1    2    0    0  0.67458985034E-01  0.80253616662E-02  0.92789609714E+00  0.93037978772E+00  0.51109989000E-03 0.  1.
     -623    1    1    2    0    0 -0.86573376755E-02  0.50181911753E-02  0.47045990643E-02  0.17130000036E+03  0.17130000000E+03 0. -1.
      622    1    1    2    0    0 -0.58801647358E-01 -0.13043552841E-01  0.30673992712E+01  0.30696198554E+01  0.10000000000E+00 0. -1.
</event>
<event>
 5   0  0.6262544E+06  0.9118800E+02  0.7818608E-02  0.1180000E+00
       11   -1    0    0    0    0  0.00000000000E+00  0.00000000000E+00  0.39999999673E+01  0.40000000000E+01  0.51109989000E-03 0. -1.
     -623   -1    0    0    0    0  0.00000000000E+00  0.00000000000E+00  0.12525980253E-10  0.17130000000E+03  0.17130000000E+03 0. -1.
       11    1    1    2    0    0 -0.74680860750E-01 -0.15960964795E-01  0.29128389899E+01  0.29138399451E+01  0.51109989000E-03 0. -1.
     -623    1    1    2    0    0 -0.18375907864E-01  0.19473579012E-01  0.96329591510E-02  0.17130000236E+03  0.17130000000E+03 0. -1.
      622    1    1    2    0    0  0.93056768614E-01 -0.35126142172E-02  0.10775280183E+01  0.10861576916E+01  0.10000000000E+00 0.  1.
</event>
<event>
 5   0  0.6262544E+06  0.9118800E+02  0.7818608E-02  0.1180000E+00
       11   -1    0    0    0    0  0.00000000000E+00  0.00000000000E+00  0.39999999673E+01  0.40000000000E+01  0.51109989000E-03 0.  1.
     -623   -1    0    0    0    0  0.00000000000E+00  0.00000000000E+00  0.12525980253E-10  0.17130000000E+03  0.17130000000E+03 0.  1.
       11    1    1    2    0    0 -0.75613178332E-01  0.14963950261E-01  0.87624106741E+00  0.87962488709E+00  0.51109989000E-03 0.  1.
     -623    1    1    2    0    0  0.65424312328E-02  0.50426323756E-02  0.58159956027E-02  0.17130000030E+03  0.17130000000E+03 0.  1.
      622    1    1    2    0    0  0.69070747100E-01 -0.20006582636E-01  0.31179429044E+01  0.31203748151E+01  0.10000000000E+00 0. -1.
</event>
<event>
 5   0  0.6262544E+06  0.9118800E+02  0.7818608E-02  0.1180000E+00
       11   -1    0    0    0    0  0.00000000000E+00  0.00000000000E+00  0.39999999673E+01  0.40000000000E+01  0.51109989000E-03 0. -1.
     -623   -1    0    0    0    0  0.00000000000E+00  0.00000000000E+00  0.12525980253E-10  0.17130000000E+03  0.17130000000E+03 0. -1.
       11    1    1    2    0    0 -0.24854067353E-01  0.32169148877E-01  0.68316198386E+00  0.68437061320E+00  0.51109989000E-03 0. -1.
     -623    1    1    2    0    0  0.98132133363E-02  0.42474410601E-02  0.29515259512E-02  0.17130000036E+03  0.17130000000E+03 0. -1.
      622    1    1    2    0    0  0.15040854017E-01 -0.36416589937E-01  0.33138864576E+01  0.33156290277E+01  0.10000000000E+00 0. -1.
</event>
<event>
 5   0  0.6262544E+06  0.9118800E+02  0.7818608E-02  0.1180000E+00
       11   -1    0    0    0    0  0.00000000000E+00  0.00000000000E+00  0.39999999673E+01  0.40000000000E+01  0.51109989000E-03 0. -1.
     -623   -1    0    0    0    0  0.00000000000E+00  0.00000000000E+00  0.12525980253E-10  0.17130000000E+03  0.17130000000E+03 0. -1.
       11    1    1    2    0    0 -0.52963927744E-01  0.95235499919E-03  0.17630926350E+00  0.18409590500E+00  0.51109989000E-03 0. -1.
     -623    1    1    2    0    0  0.36022033644E-01  0.22856873627E-01  0.92146296773E-02  0.17130000556E+03  0.17130000000E+03 0. -1.
      622    1    1    2    0    0  0.16941894100E-01 -0.23809228626E-01  0.38144760742E+01  0.38158985348E+01  0.10000000000E+00 0. -1.
</event>
<event>
 5   0  0.6262544E+06  0.9118800E+02  0.7818608E-02  0.1180000E+00
       11   -1    0    0    0    0  0.00000000000E+00  0.00000000000E+00  0.39999999673E+01  0.40000000000E+01  0.51109989000E-03 0.  1.
     -623   -1    0    0    0    0  0.00000000000E+00  0.00000000000E+00  0.12525980253E-10  0.17130000000E+03  0.17130000000E+03 0. -1.
       11    1    1    2    0    0  0.54496256060E-03 -0.41281098881E-02  0.30864743984E-01  0.31148545988E-01  0.51109989000E-03 0.  1.
     -623    1    1    2    0    0  0.51474576818E-02  0.19156055746E-02  0.15485752078E-02  0.17130000010E+03  0.17130000000E+03 0. -1.
      622    1    1    2    0    0 -0.56924202424E-02  0.22125043135E-02  0.39675866482E+01  0.39688513590E+01  0.10000000000E+00 0.  1.
</event>
<event>
 5   0  0.6262544E+06  0.9118800E+02  0.7818608E-02  0.1180000E+00
       11   -1    0    0    0    0  0.00000000000E+00  0.00000000000E+00  0.39999999673E+01  0.40000000000E+01  0.51109989000E-03 0. -1.
     -623   -1    0    0    0    0  0.00000000000E+00  0.00000000000E+00  0.12525980253E-10  0.17130000000E+03  0.17130000000E+03 0.  1.
       11    1    1    2    0    0  0.38727587166E-02 -0.33055999106E-02  0.11493791265E-01  0.12581482885E-01  0.51109989000E-03 0. -1.
     -623    1    1    2    0    0  0.12610350194E-02  0.58852558127E-02  0.23460628040E-02  0.17130000012E+03  0.17130000000E+03 0.  1.
      622    1    1    2    0    0 -0.51337937360E-02 -0.25796559020E-02  0.39861601132E+01  0.39874183952E+01  0.10000000000E+00 0. -1.
</event>
<event>
 5   0  0.6262544E+06  0.9118800E+02  0.7818608E-02  0.1180000E+00
       11   -1    0    0    0    0  0.00000000000E+00  0.00000000000E+00  0.39999999673E+01  0.40000000000E+01  0.51109989000E-03 0. -1.
     -623   -1    0    0    0    0  0.00000000000E+00  0.00000000000E+00  0.12525980253E-10  0.17130000000E+03  0.17130000000E+03 0. -1.
       11    1    1    2    0    0 -0.11479381301E-01  0.37818723653E-02  0.84117258928E-01  0.84982664269E-01  0.51109989000E-03 0. -1.
     -623    1    1    2    0    0  0.23003234967E-02 -0.28887741827E-02  0.21536339195E-02  0.17130000005E+03  0.17130000000E+03 0. -1.
      622    1    1    2    0    0  0.91790578043E-02 -0.89309818268E-03  0.39137290745E+01  0.39150172824E+01  0.10000000000E+00 0. -1.
</event>
<event>
 5   0  0.6262544E+06  0.9118800E+02  0.7818608E-02  0.1180000E+00
       11   -1    0    0    0    0  0.00000000000E+00  0.00000000000E+00  0.39999999673E+01  0.40000000000E+01  0.51109989000E-03 0. -1.
     -623   -1    0    0    0    0  0.00000000000E+00  0.00000000000E+00  0.12525980253E-10  0.17130000000E+03  0.17130000000E+03 0. -1.
       11    1    1    2    0    0 -0.52925030702E-01  0.40653455524E-01  0.15943709462E+00  0.17284157683E+00  0.51109989000E-03 0. -1.
     -623    1    1    2    0    0  0.37072502202E-02 -0.22787895454E-01  0.15071656713E-01  0.17130000222E+03  0.17130000000E+03 0. -1.
      622    1    1    2    0    0  0.49217780481E-01 -0.17865560070E-01  0.38254912160E+01  0.38271562043E+01  0.10000000000E+00 0. -1.
</event>
<event>
 5   0  0.6262544E+06  0.9118800E+02  0.7818608E-02  0.1180000E+00
       11   -1    0    0    0    0  0.00000000000E+00  0.00000000000E+00  0.39999999673E+01  0.40000000000E+01  0.51109989000E-03 0. -1.
     -623   -1    0    0    0    0  0.00000000000E+00  0.00000000000E+00  0.12525980253E-10  0.17130000000E+03  0.17130000000E+03 0. -1.
       11    1    1    2    0    0 -0.76249730279E-02 -0.72356826909E-02 -0.31024364468E-02  0.10971857222E-01  0.51109989000E-03 0. -1.
     -623    1    1    2    0    0  0.82571629925E-02  0.20061212319E-01  0.15350633307E-01  0.17130000206E+03  0.17130000000E+03 0. -1.
      622    1    1    2    0    0 -0.63218996459E-03 -0.12825529628E-01  0.39877517705E+01  0.39890260813E+01  0.10000000000E+00 0. -1.
</event>
<event>
 5   0  0.6262544E+06  0.9118800E+02  0.7818608E-02  0.1180000E+00
       11   -1    0    0    0    0  0.00000000000E+00  0.00000000000E+00  0.39999999673E+01  0.40000000000E+01  0.51109989000E-03 0. -1.
     -623   -1    0    0    0    0  0.00000000000E+00  0.00000000000E+00  0.12525980253E-10  0.17130000000E+03  0.17130000000E+03 0.  1.
       11    1    1    2    0    0 -0.25684783036E-01 -0.87770778572E-02  0.19715961446E+00  0.19901989844E+00  0.51109989000E-03 0. -1.
     -623    1    1    2    0    0  0.23312660854E-02  0.15798768713E-01  0.32549613705E-02  0.17130000078E+03  0.17130000000E+03 0.  1.
      622    1    1    2    0    0  0.23353516951E-01 -0.70216908557E-02  0.37995853915E+01  0.38009793262E+01  0.10000000000E+00 0. -1.
</event>
<event>
 5   0  0.6262544E+06  0.9118800E+02  0.7818608E-02  0.1180000E+00
       11   -1    0    0    0    0  0.00000000000E+00  0.00000000000E+00  0.39999999673E+01  0.40000000000E+01  0.51109989000E-03 0. -1.
     -623   -1    0    0    0    0  0.00000000000E+00  0.00000000000E+00  0.12525980253E-10  0.17130000000E+03  0.17130000000E+03 0.  1.
       11    1    1    2    0    0 -0.48304326398E-02  0.18257191532E-02  0.25271347801E+00  0.25276674923E+00  0.51109989000E-03 0. -1.
     -623    1    1    2    0    0  0.64548678030E-02  0.93937634127E-02  0.14053333231E-02  0.17130000038E+03  0.17130000000E+03 0.  1.
      622    1    1    2    0    0 -0.16244351632E-02 -0.11219482566E-01  0.37458811560E+01  0.37472328658E+01  0.10000000000E+00 0. -1.
</event>
<event>
 5   0  0.6262544E+06  0.9118800E+02  0.7818608E-02  0.1180000E+00
       11   -1    0    0    0    0  0.00000000000E+00  0.00000000000E+00  0.39999999673E+01  0.40000000000E+01  0.51109989000E-03 0. -1.
     -623   -1    0    0    0    0  0.00000000000E+00  0.00000000000E+00  0.12525980253E-10  0.17130000000E+03  0.17130000000E+03 0.  1.
       11    1    1    2    0    0  0.79051330474E-02  0.11389756366E-02  0.61395639691E-01  0.61915056234E-01  0.51109989000E-03 0. -1.
     -623    1    1    2    0    0 -0.93490957084E-03 -0.51685176704E-02  0.17975639857E-02  0.17130000009E+03  0.17130000000E+03 0.  1.
      622    1    1    2    0    0 -0.69702234765E-02  0.40295420338E-02  0.39368067637E+01  0.39380848538E+01  0.10000000000E+00 0. -1.
</event>
<event>
 5   0  0.6262544E+06  0.9118800E+02  0.7818608E-02  0.1180000E+00
       11   -1    0    0    0    0  0.00000000000E+00  0.00000000000E+00  0.39999999673E+01  0.40000000000E+01  0.51109989000E-03 0. -1.
     -623   -1    0    0    0    0  0.00000000000E+00  0.00000000000E+00  0.12525980253E-10  0.17130000000E+03  0.17130000000E+03 0.  1.
       11    1    1    2    0    0 -0.15795050798E-02 -0.24287993815E-02 -0.15753823018E-03  0.29461744898E-02  0.51109989000E-03 0. -1.
     -623    1    1    2    0    0  0.37231983346E-02  0.15356176039E-02  0.43555748520E-02  0.17130000010E+03  0.17130000000E+03 0.  1.
      622    1    1    2    0    0 -0.21436932549E-02  0.89318177749E-03  0.39958019308E+01  0.39970537229E+01  0.10000000000E+00 0. -1.
</event>
<event>
 5   0  0.6262544E+06  0.9118800E+02  0.7818608E-02  0.1180000E+00
       11   -1    0    0    0    0  0.00000000000E+00  0.00000000000E+00  0.39999999673E+01  0.40000000000E+01  0.51109989000E-03 0. -1.
     -623   -1    0    0    0    0  0.00000000000E+00  0.00000000000E+00  0.12525980253E-10  0.17130000000E+03  0.17130000000E+03 0. -1.
       11    1    1    2    0    0  0.55143299224E-01 -0.32303857883E-01  0.98315891856E+00  0.98523400421E+00  0.51109989000E-03 0. -1.
     -623    1    1    2    0    0  0.71778691698E-02  0.57226744052E-02  0.44961676248E-02  0.17130000030E+03  0.17130000000E+03 0. -1.
      622    1    1    2    0    0 -0.62321168394E-01  0.26581183477E-01  0.30123448813E+01  0.30147656909E+01  0.10000000000E+00 0.  0.
</event>
<event>
 5   0  0.6262544E+06  0.9118800E+02  0.7818608E-02  0.1180000E+00
       11   -1    0    0    0    0  0.00000000000E+00  0.00000000000E+00  0.39999999673E+01  0.40000000000E+01  0.51109989000E-03 0.  1.
     -623   -1    0    0    0    0  0.00000000000E+00  0.00000000000E+00  0.12525980253E-10  0.17130000000E+03  0.17130000000E+03 0. -1.
       11    1    1    2    0    0 -0.16951368156E-01  0.43259472198E-02  0.13327095534E+00  0.13441529475E+00  0.51109989000E-03 0.  1.
     -623    1    1    2    0    0  0.26712788621E-01 -0.74131418824E-02  0.24538123497E-02  0.17130000226E+03  0.17130000000E+03 0. -1.
      622    1    1    2    0    0 -0.97614204658E-02  0.30871946626E-02  0.38642751997E+01  0.38655824445E+01  0.10000000000E+00 0.  1.
</event>
<event>
 5   0  0.6262544E+06  0.9118800E+02  0.7818608E-02  0.1180000E+00
       11   -1    0    0    0    0  0.00000000000E+00  0.00000000000E+00  0.39999999673E+01  0.40000000000E+01  0.51109989000E-03 0. -1.
     -623   -1    0    0    0    0  0.00000000000E+00  0.00000000000E+00  0.12525980253E-10  0.17130000000E+03  0.17130000000E+03 0.  1.
       11    1    1    2    0    0 -0.37602827211E-02  0.40184517906E-02  0.10017645159E+00  0.10032881120E+00  0.51109989000E-03 0. -1.
     -623    1    1    2    0    0  0.53397066184E-02 -0.20634232050E-02  0.14356090720E-02  0.17130000010E+03  0.17130000000E+03 0.  1.
      622    1    1    2    0    0 -0.15794238974E-02 -0.19550285856E-02  0.38983879067E+01  0.38996710872E+01  0.10000000000E+00 0. -1.
</event>
<event>
 5   0  0.6262544E+06  0.9118800E+02  0.7818608E-02  0.1180000E+00
       11   -1    0    0    0    0  0.00000000000E+00  0.00000000000E+00  0.39999999673E+01  0.40000000000E+01  0.51109989000E-03 0.  1.
     -623   -1    0    0    0    0  0.00000000000E+00  0.00000000000E+00  0.12525980253E-10  0.17130000000E+03  0.17130000000E+03 0. -1.
       11    1    1    2    0    0 -0.31592407907E-01 -0.25692255169E-01  0.36803795277E+01  0.36806048282E+01  0.51109989000E-03 0.  1.
     -623    1    1    2    0    0 -0.14010923280E-01  0.40545492321E-01  0.20106152198E-01  0.17130000655E+03  0.17130000000E+03 0. -1.
      622    1    1    2    0    0  0.45603331187E-01 -0.14853237152E-01  0.29951428753E+00  0.31938862049E+00  0.10000000000E+00 0.  1.
</event>
<event>
 5   0  0.6262544E+06  0.9118800E+02  0.7818608E-02  0.1180000E+00
       11   -1    0    0    0    0  0.00000000000E+00  0.00000000000E+00  0.39999999673E+01  0.40000000000E+01  0.51109989000E-03 0. -1.
     -623   -1    0    0    0    0  0.00000000000E+00  0.00000000000E+00  0.12525980253E-10  0.17130000000E+03  0.17130000000E+03 0. -1.
       11    1    1    2    0    0  0.84653976901E-02  0.60177070790E-02  0.16808871365E-01  0.19765503692E-01  0.51109989000E-03 0. -1.
     -623    1    1    2    0    0 -0.13836635030E-02  0.15050608565E-01  0.42758056030E-02  0.17130000072E+03  0.17130000000E+03 0. -1.
      622    1    1    2    0    0 -0.70817341871E-02 -0.21068315644E-01  0.39789152905E+01  0.39802337762E+01  0.10000000000E+00 0. -1.
</event>
<event>
 5   0  0.6262544E+06  0.9118800E+02  0.7818608E-02  0.1180000E+00
       11   -1    0    0    0    0  0.00000000000E+00  0.00000000000E+00  0.39999999673E+01  0.40000000000E+01  0.51109989000E-03 0. -1.
     -623   -1    0    0    0    0  0.00000000000E+00  0.00000000000E+00  0.12525980253E-10  0.17130000000E+03  0.17130000000E+03 0. -1.
       11    1    1    2    0    0  0.14864929999E-01  0.20025059363E-02  0.61537913650E-01  0.63341552009E-01  0.51109989000E-03 0. -1.
     -623    1    1    2    0    0 -0.15657538938E-02  0.65706840400E-02  0.31058947009E-02  0.17130000016E+03  0.17130000000E+03 0. -1.
      622    1    1    2    0    0 -0.13299176105E-01 -0.85731899762E-02  0.39353561590E+01  0.39366582867E+01  0.10000000000E+00 0. -1.
</event>
<event>
 5   0  0.6262544E+06  0.9118800E+02  0.7818608E-02  0.1180000E+00
       11   -1    0    0    0    0  0.00000000000E+00  0.00000000000E+00  0.39999999673E+01  0.40000000000E+01  0.51109989000E-03 0.  1.
     -623   -1    0    0    0    0  0.00000000000E+00  0.00000000000E+00  0.12525980253E-10  0.17130000000E+03  0.17130000000E+03 0. -1.
       11    1    1    2    0    0  0.20344501174E-01 -0.57527998000E-01  0.16977027850E+01  0.16987990984E+01  0.51109989000E-03 0.  1.
     -623    1    1    2    0    0 -0.47285893978E-01 -0.13067968696E-01  0.45192656078E-02  0.17130000708E+03  0.17130000000E+03 0. -1.
      622    1    1    2    0    0  0.26941392804E-01  0.70595966695E-01  0.22977779168E+01  0.23011938171E+01  0.10000000000E+00 0.  1.
</event>
<event>
 5   0  0.6262544E+06  0.9118800E+02  0.7818608E-02  0.1180000E+00
       11   -1    0    0    0    0  0.00000000000E+00  0.00000000000E+00  0.39999999673E+01  0.40000000000E+01  0.51109989000E-03 0. -1.
     -623   -1    0    0    0    0  0.00000000000E+00  0.00000000000E+00  0.12525980253E-10  0.17130000000E+03  0.17130000000E+03 0.  1.
       11    1    1    2    0    0 -0.17224082296E-03  0.30171096204E-02  0.13899028107E-01  0.14232948492E-01  0.51109989000E-03 0. -1.
     -623    1    1    2    0    0 -0.89312785928E-04 -0.11602650391E-01  0.15982077933E-02  0.17130000040E+03  0.17130000000E+03 0.  1.
      622    1    1    2    0    0  0.26155360890E-03  0.85855407718E-02  0.39845027318E+01  0.39857666514E+01  0.10000000000E+00 0. -1.
</event>
<event>
 5   0  0.6262544E+06  0.9118800E+02  0.7818608E-02  0.1180000E+00
       11   -1    0    0    0    0  0.00000000000E+00  0.00000000000E+00  0.39999999673E+01  0.40000000000E+01  0.51109989000E-03 0.  1.
     -623   -1    0    0    0    0  0.00000000000E+00  0.00000000000E+00  0.12525980253E-10  0.17130000000E+03  0.17130000000E+03 0. -1.
       11    1    1    2    0    0 -0.97072571824E-02  0.22808122298E-01  0.14347733301E-01  0.28645417759E-01  0.51109989000E-03 0.  1.
     -623    1    1    2    0    0  0.22779925737E-02 -0.29296386278E-01  0.15572349967E-01  0.17130000323E+03  0.17130000000E+03 0. -1.
      622    1    1    2    0    0  0.74292646087E-02  0.64882639807E-02  0.39700798841E+01  0.39713513541E+01  0.10000000000E+00 0.  1.
</event>
<event>
 5   0  0.6262544E+06  0.9118800E+02  0.7818608E-02  0.1180000E+00
       11   -1    0    0    0    0  0.00000000000E+00  0.00000000000E+00  0.39999999673E+01  0.40000000000E+01  0.51109989000E-03 0. -1.
     -623   -1    0    0    0    0  0.00000000000E+00  0.00000000000E+00  0.12525980253E-10  0.17130000000E+03  0.17130000000E+03 0. -1.
       11    1    1    2    0    0  0.90605063930E-02 -0.52089351221E-02  0.18608313385E-01  0.21348450289E-01  0.51109989000E-03 0. -1.
     -623    1    1    2    0    0 -0.10622423618E-01  0.38527340210E-02  0.39979673509E-02  0.17130000042E+03  0.17130000000E+03 0. -1.
      622    1    1    2    0    0  0.15619172252E-02  0.13562011011E-02  0.39773936866E+01  0.39786511304E+01  0.10000000000E+00 0. -1.
</event>
<event>
 5   0  0.6262544E+06  0.9118800E+02  0.7818608E-02  0.1180000E+00
       11   -1    0    0    0    0  0.00000000000E+00  0.00000000000E+00  0.39999999673E+01  0.40000000000E+01  0.51109989000E-03 0. -1.
     -623   -1    0    0    0    0  0.00000000000E+00  0.00000000000E+00  0.12525980253E-10  0.17130000000E+03  0.17130000000E+03 0.  1.
       11    1    1    2    0    0  0.61793292995E-02  0.14243004212E-01 -0.56430852373E-02  0.16527338279E-01  0.51109989000E-03 0. -1.
     -623    1    1    2    0    0 -0.13217375054E-01 -0.19663856633E-01  0.23438927093E-01  0.17130000324E+03  0.17130000000E+03 0.  1.
      622    1    1    2    0    0  0.70380457548E-02  0.54208524219E-02  0.39822041255E+01  0.39834694196E+01  0.10000000000E+00 0. -1.
</event>
<event>
 5   0  0.6262544E+06  0.9118800E+02  0.7818608E-02  0.1180000E+00
       11   -1    0    0    0    0  0.00000000000E+00  0.00000000000E+00  0.39999999673E+01  0.40000000000E+01  0.51109989000E-03 0.  1.
     -623   -1    0    0    0    0  0.00000000000E+00  0.00000000000E+00  0.12525980253E-10  0.17130000000E+03  0.17130000000E+03 0. -1.
       11    1    1    2    0    0  0.12408621327E-01  0.86101868253E-01  0.27861248036E+00  0.29187785294E+00  0.51109989000E-03 0.  1.
     -623    1    1    2    0    0 -0.11250431069E-01  0.72878351677E-01  0.18041831038E-01  0.17130001682E+03  0.17130000000E+03 0. -1.
      622    1    1    2    0    0 -0.11581902577E-02 -0.15898021993E+00  0.37033456560E+01  0.37081053247E+01  0.10000000000E+00 0.  1.
</event>
<event>
 5   0  0.6262544E+06  0.9118800E+02  0.7818608E-02  0.1180000E+00
       11   -1    0    0    0    0  0.00000000000E+00  0.00000000000E+00  0.39999999673E+01  0.40000000000E+01  0.51109989000E-03 0.  1.
     -623   -1    0    0    0    0  0.00000000000E+00  0.00000000000E+00  0.12525980253E-10  0.17130000000E+03  0.17130000000E+03 0. -1.
       11    1    1    2    0    0  0.30680004716E-03 -0.71996433542E-02  0.32699350596E+00  0.32707329936E+00  0.51109989000E-03 0.  1.
     -623    1    1    2    0    0  0.96303565852E-02  0.16379586571E-01  0.14673096844E-02  0.17130000106E+03  0.17130000000E+03 0. -1.
      622    1    1    2    0    0 -0.99371566324E-02 -0.91799432165E-02  0.36715391517E+01  0.36729256406E+01  0.10000000000E+00 0.  1.
</event>
<event>
 5   0  0.6262544E+06  0.9118800E+02  0.7818608E-02  0.1180000E+00
       11   -1    0    0    0    0  0.00000000000E+00  0.00000000000E+00  0.39999999673E+01  0.40000000000E+01  0.51109989000E-03 0. -1.
     -623   -1    0    0    0    0  0.00000000000E+00  0.00000000000E+00  0.12525980253E-10  0.17130000000E+03  0.17130000000E+03 0.  1.
       11    1    1    2    0    0 -0.81502925816E-03 -0.72911036557E-03  0.70567886092E-02  0.71592851032E-02  0.51109989000E-03 0. -1.
     -623    1    1    2    0    0  0.15680894022E-02  0.41674508592E-02  0.13565167548E-02  0.17130000006E+03  0.17130000000E+03 0.  1.
      622    1    1    2    0    0 -0.75306014405E-03 -0.34383404938E-02  0.39915866621E+01  0.39928406518E+01  0.10000000000E+00 0. -1.
</event>
<event>
 5   0  0.6262544E+06  0.9118800E+02  0.7818608E-02  0.1180000E+00
       11   -1    0    0    0    0  0.00000000000E+00  0.00000000000E+00  0.39999999673E+01  0.40000000000E+01  0.51109989000E-03 0. -1.
     -623   -1    0    0    0    0  0.00000000000E+00  0.00000000000E+00  0.12525980253E-10  0.17130000000E+03  0.17130000000E+03 0. -1.
       11    1    1    2    0    0  0.45024174371E-02 -0.17155866427E-01  0.89866672874E-01  0.91601722867E-01  0.51109989000E-03 0. -1.
     -623    1    1    2    0    0 -0.20829936067E-01 -0.20073850915E-02  0.30969414092E-02  0.17130000131E+03  0.17130000000E+03 0. -1.
      622    1    1    2    0    0  0.16327518630E-01  0.19163251519E-01  0.39070363531E+01  0.39083969710E+01  0.10000000000E+00 0. -1.
</event>
<event>
 5   0  0.6262544E+06  0.9118800E+02  0.7818608E-02  0.1180000E+00
       11   -1    0    0    0    0  0.00000000000E+00  0.00000000000E+00  0.39999999673E+01  0.40000000000E+01  0.51109989000E-03 0.  1.
     -623   -1    0    0    0    0  0.00000000000E+00  0.00000000000E+00  0.12525980253E-10  0.17130000000E+03  0.17130000000E+03 0. -1.
       11    1    1    2    0    0 -0.13155077333E-01  0.14014197993E-01  0.14787102029E+01  0.14788352102E+01  0.51109989000E-03 0.  1.
     -623    1    1    2    0    0 -0.10869216313E-01 -0.10679516956E-01  0.22264227034E-02  0.17130000069E+03  0.17130000000E+03 0. -1.
      622    1    1    2    0    0  0.24024293646E-01 -0.33346810371E-02  0.25190633418E+01  0.25211640975E+01  0.10000000000E+00 0. -1.
</event>
<event>
 5   0  0.6262544E+06  0.9118800E+02  0.7818608E-02  0.1180000E+00
       11   -1    0    0    0    0  0.00000000000E+00  0.00000000000E+00  0.39999999673E+01  0.40000000000E+01  0.51109989000E-03 0.  1.
     -623   -1    0    0    0    0  0.00000000000E+00  0.00000000000E+00  0.12525980253E-10  0.17130000000E+03  0.17130000000E+03 0.  1.
       11    1    1    2    0    0  0.23053737328E-01  0.85658100038E-02  0.33431926082E+00  0.33522302618E+00  0.51109989000E-03 0.  1.
     -623    1    1    2    0    0 -0.48851125849E-01 -0.29155135035E-01  0.24264871388E-02  0.17130000946E+03  0.17130000000E+03 0.  1.
      622    1    1    2    0    0  0.25797388520E-01  0.20589325031E-01  0.36632542193E+01  0.36647675098E+01  0.10000000000E+00 0.  1.
</event>
<event>
 5   0  0.6262544E+06  0.9118800E+02  0.7818608E-02  0.1180000E+00
       11   -1    0    0    0    0  0.00000000000E+00  0.00000000000E+00  0.39999999673E+01  0.40000000000E+01  0.51109989000E-03 0.  1.
     -623   -1    0    0    0    0  0.00000000000E+00  0.00000000000E+00  0.12525980253E-10  0.17130000000E+03  0.17130000000E+03 0. -1.
       11    1    1    2    0    0  0.34285952246E-01  0.28224277399E-02  0.14333403881E+01  0.14337532639E+01  0.51109989000E-03 0.  1.
     -623    1    1    2    0    0 -0.39653232525E-02  0.51883157107E-02  0.25538753170E-02  0.17130000014E+03  0.17130000000E+03 0. -1.
      622    1    1    2    0    0 -0.30320628993E-01 -0.80107434505E-02  0.25641057039E+01  0.25662465925E+01  0.10000000000E+00 0.  1.
</event>
<event>
 5   0  0.6262544E+06  0.9118800E+02  0.7818608E-02  0.1180000E+00
       11   -1    0    0    0    0  0.00000000000E+00  0.00000000000E+00  0.39999999673E+01  0.40000000000E+01  0.51109989000E-03 0.  1.
     -623   -1    0    0    0    0  0.00000000000E+00  0.00000000000E+00  0.12525980253E-10  0.17130000000E+03  0.17130000000E+03 0. -1.
       11    1    1    2    0    0 -0.45222347880E-02  0.86494238850E-03  0.31432997195E-01  0.31772523799E-01  0.51109989000E-03 0.  1.
     -623    1    1    2    0    0 -0.40594607439E-02 -0.75857946862E-02  0.16149018475E-02  0.17130000022E+03  0.17130000000E+03 0. -1.
      622    1    1    2    0    0  0.85816955320E-02  0.67208522981E-02  0.39669520685E+01  0.39682272527E+01  0.10000000000E+00 0.  1.
</event>
<event>
 5   0  0.6262544E+06  0.9118800E+02  0.7818608E-02  0.1180000E+00
       11   -1    0    0    0    0  0.00000000000E+00  0.00000000000E+00  0.39999999673E+01  0.40000000000E+01  0.51109989000E-03 0. -1.
     -623   -1    0    0    0    0  0.00000000000E+00  0.00000000000E+00  0.12525980253E-10  0.17130000000E+03  0.17130000000E+03 0.  1.
       11    1    1    2    0    0  0.19910162538E-01  0.13742800308E-01  0.42303715176E+00  0.42372865389E+00  0.51109989000E-03 0. -1.
     -623    1    1    2    0    0 -0.60516476935E-03 -0.77394537071E-02  0.21472030822E-02  0.17130000019E+03  0.17130000000E+03 0.  1.
      622    1    1    2    0    0 -0.19304997769E-01 -0.60033466005E-02  0.35748156125E+01  0.35762711567E+01  0.10000000000E+00 0. -1.
</event>
<event>
 5   0  0.6262544E+06  0.9118800E+02  0.7818608E-02  0.1180000E+00
       11   -1    0    0    0    0  0.00000000000E+00  0.00000000000E+00  0.39999999673E+01  0.40000000000E+01  0.51109989000E-03 0.  1.
     -623   -1    0    0    0    0  0.00000000000E+00  0.00000000000E+00  0.12525980253E-10  0.17130000000E+03  0.17130000000E+03 0. -1.
       11    1    1    2    0    0 -0.90346368659E-02  0.83270722474E-02  0.37374230579E+00  0.37394456428E+00  0.51109989000E-03 0.  1.
     -623    1    1    2    0    0 -0.96485180693E-02 -0.73010251091E-02  0.16301283361E-02  0.17130000044E+03  0.17130000000E+03 0. -1.
      622    1    1    2    0    0  0.18683154935E-01 -0.10260471383E-02  0.36246275332E+01  0.36260550006E+01  0.10000000000E+00 0.  1.
</event>
<event>
 5   0  0.6262544E+06  0.9118800E+02  0.7818608E-02  0.1180000E+00
       11   -1    0    0    0    0  0.00000000000E+00  0.00000000000E+00  0.39999999673E+01  0.40000000000E+01  0.51109989000E-03 0.  1.
     -623   -1    0    0    0    0  0.00000000000E+00  0.00000000000E+00  0.12525980253E-10  0.17130000000E+03  0.17130000000E+03 0. -1.
       11    1    1    2    0    0  0.26770915187E-02  0.20268087223E-01  0.54616535882E+00  0.54654809722E+00  0.51109989000E-03 0.  1.
     -623    1    1    2    0    0 -0.45652314232E-02 -0.36957195714E-02  0.18712439800E-02  0.17130000011E+03  0.17130000000E+03 0. -1.
      622    1    1    2    0    0  0.18881399045E-02 -0.16572367651E-01  0.34519633646E+01  0.34534517919E+01  0.10000000000E+00 0.  1.
</event>
<event>
 5   0  0.6262544E+06  0.9118800E+02  0.7818608E-02  0.1180000E+00
       11   -1    0    0    0    0  0.00000000000E+00  0.00000000000E+00  0.39999999673E+01  0.40000000000E+01  0.51109989000E-03 0. -1.
     -623   -1    0    0    0    0  0.00000000000E+00  0.00000000000E+00  0.12525980253E-10  0.17130000000E+03  0.17130000000E+03 0.  1.
       11    1    1    2    0    0 -0.55129287434E-04 -0.59507024568E-03  0.15532618784E+00  0.15532817838E+00  0.51109989000E-03 0. -1.
     -623    1    1    2    0    0  0.28042741707E-02 -0.70054535058E-03  0.13039100045E-02  0.17130000003E+03  0.17130000000E+03 0.  1.
      622    1    1    2    0    0 -0.27491448833E-02  0.12956155963E-02  0.38433698695E+01  0.38446717923E+01  0.10000000000E+00 0. -1.
</event>
<event>
 5   0  0.6262544E+06  0.9118800E+02  0.7818608E-02  0.1180000E+00
       11   -1    0    0    0    0  0.00000000000E+00  0.00000000000E+00  0.39999999673E+01  0.40000000000E+01  0.51109989000E-03 0.  1.
     -623   -1    0    0    0    0  0.00000000000E+00  0.00000000000E+00  0.12525980253E-10  0.17130000000E+03  0.17130000000E+03 0. -1.
       11    1    1    2    0    0  0.27696292561E-01  0.17754215636E-01  0.11160819471E+01  0.11165668232E+01  0.51109989000E-03 0.  1.
     -623    1    1    2    0    0 -0.91966878075E-02 -0.18717011802E-01  0.22802368771E-02  0.17130000128E+03  0.17130000000E+03 0. -1.
      622    1    1    2    0    0 -0.18499604753E-01  0.96279616569E-03  0.28816377834E+01  0.28834318922E+01  0.10000000000E+00 0.  0.
</event>
<event>
 5   0  0.6262544E+06  0.9118800E+02  0.7818608E-02  0.1180000E+00
       11   -1    0    0    0    0  0.00000000000E+00  0.00000000000E+00  0.39999999673E+01  0.40000000000E+01  0.51109989000E-03 0.  1.
     -623   -1    0    0    0    0  0.00000000000E+00  0.00000000000E+00  0.12525980253E-10  0.17130000000E+03  0.17130000000E+03 0.  1.
       11    1    1    2    0    0  0.41740503875E-02  0.47390771373E-02  0.57985613126E-02  0.85887184810E-02  0.51109989000E-03 0.  1.
     -623    1    1    2    0    0 -0.64341228428E-03 -0.48431869399E-02  0.40446917556E-02  0.17130000012E+03  0.17130000000E+03 0.  1.
      622    1    1    2    0    0 -0.35306381033E-02  0.10410980264E-03  0.39901567143E+01  0.39914111641E+01  0.10000000000E+00 0.  1.
</event>
<event>
 5   0  0.6262544E+06  0.9118800E+02  0.7818608E-02  0.1180000E+00
       11   -1    0    0    0    0  0.00000000000E+00  0.00000000000E+00  0.39999999673E+01  0.40000000000E+01  0.51109989000E-03 0.  1.
     -623   -1    0    0    0    0  0.00000000000E+00  0.00000000000E+00  0.12525980253E-10  0.17130000000E+03  0.17130000000E+03 0. -1.
       11    1    1    2    0    0 -0.37699108473E-02  0.42594115194E-02  0.30658416334E+00  0.30663735136E+00  0.51109989000E-03 0.  1.
     -623    1    1    2    0    0 -0.15488496029E-01 -0.19089056635E-01  0.14889665676E-02  0.17130000177E+03  0.17130000000E+03 0. -1.
      622    1    1    2    0    0  0.19258406877E-01  0.14829645116E-01  0.36919268377E+01  0.36933608786E+01  0.10000000000E+00 0.  0.
</event>
<event>
 5   0  0.6262544E+06  0.9118800E+02  0.7818608E-02  0.1180000E+00
       11   -1    0    0    0    0  0.00000000000E+00  0.00000000000E+00  0.39999999673E+01  0.40000000000E+01  0.51109989000E-03 0.  1.
     -623   -1    0    0    0    0  0.00000000000E+00  0.00000000000E+00  0.12525980253E-10  0.17130000000E+03  0.17130000000E+03 0. -1.
       11    1    1    2    0    0 -0.26931717433E-01 -0.24841296773E-01  0.56721355504E-01  0.67527630051E-01  0.51109989000E-03 0.  1.
     -623    1    1    2    0    0  0.28460255748E-01  0.69053683733E-02  0.12122058894E-01  0.17130000293E+03  0.17130000000E+03 0. -1.
      622    1    1    2    0    0 -0.15285383149E-02  0.17935928399E-01  0.39311565530E+01  0.39324694376E+01  0.10000000000E+00 0.  1.
</event>
<event>
 5   0  0.6262544E+06  0.9118800E+02  0.7818608E-02  0.1180000E+00
       11   -1    0    0    0    0  0.00000000000E+00  0.00000000000E+00  0.39999999673E+01  0.40000000000E+01  0.51109989000E-03 0. -1.
     -623   -1    0    0    0    0  0.00000000000E+00  0.00000000000E+00  0.12525980253E-10  0.17130000000E+03  0.17130000000E+03 0.  1.
       11    1    1    2    0    0  0.97870869287E-02 -0.10990116272E-01  0.57551066702E+00  0.57569901755E+00  0.51109989000E-03 0. -1.
     -623    1    1    2    0    0 -0.50650428292E-02 -0.39422674260E-02  0.16847391044E-02  0.17130000013E+03  0.17130000000E+03 0.  1.
      622    1    1    2    0    0 -0.47220440995E-02  0.14932383698E-01  0.34228045612E+01  0.34243008539E+01  0.10000000000E+00 0. -1.
</event>
<event>
 5   0  0.6262544E+06  0.9118800E+02  0.7818608E-02  0.1180000E+00
       11   -1    0    0    0    0  0.00000000000E+00  0.00000000000E+00  0.39999999673E+01  0.40000000000E+01  0.51109989000E-03 0.  1.
     -623   -1    0    0    0    0  0.00000000000E+00  0.00000000000E+00  0.12525980253E-10  0.17130000000E+03  0.17130000000E+03 0. -1.
       11    1    1    2    0    0  0.42174137336E-02  0.28520012445E-01  0.14983382503E+00  0.15258313811E+00  0.51109989000E-03 0.  1.
     -623    1    1    2    0    0 -0.12023305877E-01  0.15818341015E-02  0.41752737130E-02  0.17130000048E+03  0.17130000000E+03 0. -1.
      622    1    1    2    0    0  0.78058921437E-02 -0.30101846546E-01  0.38459908687E+01  0.38474163818E+01  0.10000000000E+00 0.  1.
</event>
<event>
 5   0  0.6262544E+06  0.9118800E+02  0.7818608E-02  0.1180000E+00
       11   -1    0    0    0    0  0.00000000000E+00  0.00000000000E+00  0.39999999673E+01  0.40000000000E+01  0.51109989000E-03 0.  1.
     -623   -1    0    0    0    0  0.00000000000E+00  0.00000000000E+00  0.12525980253E-10  0.17130000000E+03  0.17130000000E+03 0.  1.
       11    1    1    2    0    0  0.45471088088E-02 -0.64874655456E-03  0.26437060989E-02  0.53242347475E-02  0.51109989000E-03 0.  1.
     -623    1    1    2    0    0 -0.12912583971E-01  0.21225796668E-01  0.39959837013E-02  0.17130000185E+03  0.17130000000E+03 0.  1.
      622    1    1    2    0    0  0.83654751619E-02 -0.20577050113E-01  0.39933602775E+01  0.39946739169E+01  0.10000000000E+00 0.  1.
</event>
<event>
 5   0  0.6262544E+06  0.9118800E+02  0.7818608E-02  0.1180000E+00
       11   -1    0    0    0    0  0.00000000000E+00  0.00000000000E+00  0.39999999673E+01  0.40000000000E+01  0.51109989000E-03 0. -1.
     -623   -1    0    0    0    0  0.00000000000E+00  0.00000000000E+00  0.12525980253E-10  0.17130000000E+03  0.17130000000E+03 0.  1.
       11    1    1    2    0    0  0.36895360555E-02 -0.12226283870E-01  0.86335519051E-01  0.87276444511E-01  0.51109989000E-03 0. -1.
     -623    1    1    2    0    0  0.39668468467E-01  0.99257824914E-01  0.34611332633E-02  0.17130003338E+03  0.17130000000E+03 0.  1.
      622    1    1    2    0    0 -0.43358004522E-01 -0.87031541042E-01  0.39102033150E+01  0.39126901705E+01  0.10000000000E+00 0. -1.
</event>
<event>
 5   0  0.6262544E+06  0.9118800E+02  0.7818608E-02  0.1180000E+00
       11   -1    0    0    0    0  0.00000000000E+00  0.00000000000E+00  0.39999999673E+01  0.40000000000E+01  0.51109989000E-03 0. -1.
     -623   -1    0    0    0    0  0.00000000000E+00  0.00000000000E+00  0.12525980253E-10  0.17130000000E+03  0.17130000000E+03 0. -1.
       11    1    1    2    0    0  0.21017566764E-03  0.27831710265E-02  0.17833878242E-02  0.33514041838E-02  0.51109989000E-03 0. -1.
     -623    1    1    2    0    0  0.18167410834E-02  0.52963658171E-03  0.28211490292E-02  0.17130000003E+03  0.17130000000E+03 0. -1.
      622    1    1    2    0    0 -0.20269167510E-02 -0.33128076082E-02  0.39953954305E+01  0.39966485621E+01  0.10000000000E+00 0. -1.
</event>
<event>
 5   0  0.6262544E+06  0.9118800E+02  0.7818608E-02  0.1180000E+00
       11   -1    0    0    0    0  0.00000000000E+00  0.00000000000E+00  0.39999999673E+01  0.40000000000E+01  0.51109989000E-03 0.  1.
     -623   -1    0    0    0    0  0.00000000000E+00  0.00000000000E+00  0.12525980253E-10  0.17130000000E+03  0.17130000000E+03 0. -1.
       11    1    1    2    0    0 -0.35141830474E-02 -0.33450122330E-04  0.85398465962E-03  0.36525487161E-02  0.51109989000E-03 0.  1.
     -623    1    1    2    0    0  0.97257827088E-02 -0.88383246916E-03  0.40551304932E-02  0.17130000033E+03  0.17130000000E+03 0. -1.
      622    1    1    2    0    0 -0.62115996614E-02  0.91728259149E-03  0.39950908522E+01  0.39963471249E+01  0.10000000000E+00 0.  1.
</event>
<event>
 5   0  0.6262544E+06  0.9118800E+02  0.7818608E-02  0.1180000E+00
       11   -1    0    0    0    0  0.00000000000E+00  0.00000000000E+00  0.39999999673E+01  0.40000000000E+01  0.51109989000E-03 0.  1.
     -623   -1    0    0    0    0  0.00000000000E+00  0.00000000000E+00  0.12525980253E-10  0.17130000000E+03  0.17130000000E+03 0. -1.
       11    1    1    2    0    0 -0.25277841051E-02  0.13861422726E-02  0.51323777024E-01  0.51407221218E-01  0.51109989000E-03 0.  1.
     -623    1    1    2    0    0 -0.23670768529E-02 -0.36861177852E-02  0.13536549328E-02  0.17130000006E+03  0.17130000000E+03 0. -1.
      622    1    1    2    0    0  0.48948609580E-02  0.22999755126E-02  0.39473225354E+01  0.39485927174E+01  0.10000000000E+00 0.  1.
</event>
<event>
 5   0  0.6262544E+06  0.9118800E+02  0.7818608E-02  0.1180000E+00
       11   -1    0    0    0    0  0.00000000000E+00  0.00000000000E+00  0.39999999673E+01  0.40000000000E+01  0.51109989000E-03 0. -1.
     -623   -1    0    0    0    0  0.00000000000E+00  0.00000000000E+00  0.12525980253E-10  0.17130000000E+03  0.17130000000E+03 0. -1.
       11    1    1    2    0    0 -0.60950412627E-02  0.12319240223E-02  0.11163698675E+00  0.11181120337E+00  0.51109989000E-03 0. -1.
     -623    1    1    2    0    0  0.42946255400E-02 -0.10343846422E-02  0.14608276897E-02  0.17130000006E+03  0.17130000000E+03 0. -1.
      622    1    1    2    0    0  0.18004157226E-02 -0.19753938013E-03  0.38869021530E+01  0.38881887335E+01  0.10000000000E+00 0.  0.
</event>
<event>
 5   0  0.6262544E+06  0.9118800E+02  0.7818608E-02  0.1180000E+00
       11   -1    0    0    0    0  0.00000000000E+00  0.00000000000E+00  0.39999999673E+01  0.40000000000E+01  0.51109989000E-03 0. -1.
     -623   -1    0    0    0    0  0.00000000000E+00  0.00000000000E+00  0.12525980253E-10  0.17130000000E+03  0.17130000000E+03 0.  1.
       11    1    1    2    0    0 -0.41753972973E-03  0.55151519028E-02  0.49289953212E-02  0.74261334429E-02  0.51109989000E-03 0. -1.
     -623    1    1    2    0    0 -0.32006604998E-02 -0.57803485256E-02  0.37514442796E-02  0.17130000017E+03  0.17130000000E+03 0.  1.
      622    1    1    2    0    0  0.36182002295E-02  0.26519662273E-03  0.39913195277E+01  0.39925736980E+01  0.10000000000E+00 0. -1.
</event>
<event>
 5   0  0.6262544E+06  0.9118800E+02  0.7818608E-02  0.1180000E+00
       11   -1    0    0    0    0  0.00000000000E+00  0.00000000000E+00  0.39999999673E+01  0.40000000000E+01  0.51109989000E-03 0. -1.
     -623   -1    0    0    0    0  0.00000000000E+00  0.00000000000E+00  0.12525980253E-10  0.17130000000E+03  0.17130000000E+03 0.  1.
       11    1    1    2    0    0  0.11548909820E-01 -0.18371812649E-01  0.42325277688E+00  0.42380900790E+00  0.51109989000E-03 0. -1.
     -623    1    1    2    0    0 -0.58285947967E-02  0.21816267845E-01  0.19623438380E-02  0.17130000150E+03  0.17130000000E+03 0.  1.
      622    1    1    2    0    0 -0.57203150233E-02 -0.34444551965E-02  0.35747848467E+01  0.35761894925E+01  0.10000000000E+00 0. -1.
</event>
<event>
 5   0  0.6262544E+06  0.9118800E+02  0.7818608E-02  0.1180000E+00
       11   -1    0    0    0    0  0.00000000000E+00  0.00000000000E+00  0.39999999673E+01  0.40000000000E+01  0.51109989000E-03 0.  1.
     -623   -1    0    0    0    0  0.00000000000E+00  0.00000000000E+00  0.12525980253E-10  0.17130000000E+03  0.17130000000E+03 0.  1.
       11    1    1    2    0    0 -0.43525519123E-01  0.34459167610E-03  0.55474157685E+00  0.55644682393E+00  0.51109989000E-03 0.  1.
     -623    1    1    2    0    0  0.94387089951E-02 -0.16108523274E-01  0.33634430107E-02  0.17130000105E+03  0.17130000000E+03 0.  1.
      622    1    1    2    0    0  0.34086810128E-01  0.15763931597E-01  0.34418949475E+01  0.34435521256E+01  0.10000000000E+00 0.  1.
</event>
<event>
 5   0  0.6262544E+06  0.9118800E+02  0.7818608E-02  0.1180000E+00
       11   -1    0    0    0    0  0.00000000000E+00  0.00000000000E+00  0.39999999673E+01  0.40000000000E+01  0.51109989000E-03 0.  1.
     -623   -1    0    0    0    0  0.00000000000E+00  0.00000000000E+00  0.12525980253E-10  0.17130000000E+03  0.17130000000E+03 0. -1.
       11    1    1    2    0    0  0.26393260385E-02  0.31566730198E-02  0.21151309900E-01  0.21553880395E-01  0.51109989000E-03 0.  1.
     -623    1    1    2    0    0 -0.57314664500E-03  0.11877364015E-02  0.16624311144E-02  0.17130000001E+03  0.17130000000E+03 0. -1.
      622    1    1    2    0    0 -0.20661793935E-02 -0.43444094214E-02  0.39771862265E+01  0.39784461066E+01  0.10000000000E+00 0.  1.
</event>
<event>
 5   0  0.6262544E+06  0.9118800E+02  0.7818608E-02  0.1180000E+00
       11   -1    0    0    0    0  0.00000000000E+00  0.00000000000E+00  0.39999999673E+01  0.40000000000E+01  0.51109989000E-03 0.  1.
     -623   -1    0    0    0    0  0.00000000000E+00  0.00000000000E+00  0.12525980253E-10  0.17130000000E+03  0.17130000000E+03 0.  1.
       11    1    1    2    0    0 -0.98406354143E-02  0.16049110039E-01  0.57386289150E+00  0.57417183099E+00  0.51109989000E-03 0.  1.
     -623    1    1    2    0    0 -0.39524844384E-02 -0.19995288361E-02  0.18253868216E-02  0.17130000007E+03  0.17130000000E+03 0.  1.
      622    1    1    2    0    0  0.13793119853E-01 -0.14049581203E-01  0.34243116890E+01  0.34258281020E+01  0.10000000000E+00 0.  1.
</event>
<event>
 5   0  0.6262544E+06  0.9118800E+02  0.7818608E-02  0.1180000E+00
       11   -1    0    0    0    0  0.00000000000E+00  0.00000000000E+00  0.39999999673E+01  0.40000000000E+01  0.51109989000E-03 0.  1.
     -623   -1    0    0    0    0  0.00000000000E+00  0.00000000000E+00  0.12525980253E-10  0.17130000000E+03  0.17130000000E+03 0. -1.
       11    1    1    2    0    0 -0.20743973553E-02  0.22824654174E-01  0.75972976305E-01  0.79356299777E-01  0.51109989000E-03 0.  1.
     -623    1    1    2    0    0 -0.10538298229E-01 -0.27035230075E-01  0.46838774038E-02  0.17130000252E+03  0.17130000000E+03 0. -1.
      622    1    1    2    0    0  0.12612695585E-01  0.42105759015E-02  0.39193431138E+01  0.39206411788E+01  0.10000000000E+00 0.  1.
</event>
<event>
 5   0  0.6262544E+06  0.9118800E+02  0.7818608E-02  0.1180000E+00
       11   -1    0    0    0    0  0.00000000000E+00  0.00000000000E+00  0.39999999673E+01  0.40000000000E+01  0.51109989000E-03 0. -1.
     -623   -1    0    0    0    0  0.00000000000E+00  0.00000000000E+00  0.12525980253E-10  0.17130000000E+03  0.17130000000E+03 0. -1.
       11    1    1    2    0    0 -0.44978295787E-01  0.28483115597E-01  0.44285263646E+00  0.44604153821E+00  0.51109989000E-03 0. -1.
     -623    1    1    2    0    0  0.68062338281E-02  0.32502823229E-01  0.53279535617E-02  0.17130000330E+03  0.17130000000E+03 0. -1.
      622    1    1    2    0    0  0.38172061959E-01 -0.60985938826E-01  0.35518193773E+01  0.35539551601E+01  0.10000000000E+00 0. -1.
</event>
<event>
 5   0  0.6262544E+06  0.9118800E+02  0.7818608E-02  0.1180000E+00
       11   -1    0    0    0    0  0.00000000000E+00  0.00000000000E+00  0.39999999673E+01  0.40000000000E+01  0.51109989000E-03 0. -1.
     -623   -1    0    0    0    0  0.00000000000E+00  0.00000000000E+00  0.12525980253E-10  0.17130000000E+03  0.17130000000E+03 0.  1.
       11    1    1    2    0    0 -0.99007130756E-03  0.77045721867E-03  0.58455516351E-01  0.58471210506E-01  0.51109989000E-03 0. -1.
     -623    1    1    2    0    0  0.50860525577E-02 -0.78665458696E-03  0.12866201624E-02  0.17130000008E+03  0.17130000000E+03 0.  1.
      622    1    1    2    0    0 -0.40959812501E-02  0.16197368293E-04  0.39402578308E+01  0.39415287074E+01  0.10000000000E+00 0. -1.
</event>
<event>
 5   0  0.6262544E+06  0.9118800E+02  0.7818608E-02  0.1180000E+00
       11   -1    0    0    0    0  0.00000000000E+00  0.00000000000E+00  0.39999999673E+01  0.40000000000E+01  0.51109989000E-03 0. -1.
     -623   -1    0    0    0    0  0.00000000000E+00  0.00000000000E+00  0.12525980253E-10  0.17130000000E+03  0.17130000000E+03 0. -1.
       11    1    1    2    0    0 -0.25774517780E-01 -0.33587244955E-01  0.49292266087E+00  0.49473774832E+00  0.51109989000E-03 0. -1.
     -623    1    1    2    0    0 -0.92241589786E-02  0.27230173699E-02  0.35528247646E-02  0.17130000031E+03  0.17130000000E+03 0. -1.
      622    1    1    2    0    0  0.34998676758E-01  0.30864227585E-01  0.35035244817E+01  0.35052619448E+01  0.10000000000E+00 0.  0.
</event>
<event>
 5   0  0.6262544E+06  0.9118800E+02  0.7818608E-02  0.1180000E+00
       11   -1    0    0    0    0  0.00000000000E+00  0.00000000000E+00  0.39999999673E+01  0.40000000000E+01  0.51109989000E-03 0. -1.
     -623   -1    0    0    0    0  0.00000000000E+00  0.00000000000E+00  0.12525980253E-10  0.17130000000E+03  0.17130000000E+03 0. -1.
       11    1    1    2    0    0  0.79865549696E-02  0.91940566033E-02  0.14286662432E-02  0.12272654368E-01  0.51109989000E-03 0. -1.
     -623    1    1    2    0    0 -0.10800355587E-01 -0.23138442583E-02  0.12105714073E-01  0.17130000078E+03  0.17130000000E+03 0. -1.
      622    1    1    2    0    0  0.28138006175E-02 -0.68802123450E-02  0.39864655870E+01  0.39877265618E+01  0.10000000000E+00 0. -1.
</event>
<event>
 5   0  0.6262544E+06  0.9118800E+02  0.7818608E-02  0.1180000E+00
       11   -1    0    0    0    0  0.00000000000E+00  0.00000000000E+00  0.39999999673E+01  0.40000000000E+01  0.51109989000E-03 0. -1.
     -623   -1    0    0    0    0  0.00000000000E+00  0.00000000000E+00  0.12525980253E-10  0.17130000000E+03  0.17130000000E+03 0. -1.
       11    1    1    2    0    0  0.14752143415E+00  0.27284509745E-01  0.13476498776E+01  0.13559747313E+01  0.51109989000E-03 0. -1.
     -623    1    1    2    0    0 -0.33762372430E-01  0.42973860710E-02  0.12859485572E-01  0.17130000386E+03  0.17130000000E+03 0. -1.
      622    1    1    2    0    0 -0.11375906172E+00 -0.31581895816E-01  0.26394906042E+01  0.26440214050E+01  0.10000000000E+00 0.  0.
</event>
<event>
 5   0  0.6262544E+06  0.9118800E+02  0.7818608E-02  0.1180000E+00
       11   -1    0    0    0    0  0.00000000000E+00  0.00000000000E+00  0.39999999673E+01  0.40000000000E+01  0.51109989000E-03 0.  1.
     -623   -1    0    0    0    0  0.00000000000E+00  0.00000000000E+00  0.12525980253E-10  0.17130000000E+03  0.17130000000E+03 0. -1.
       11    1    1    2    0    0 -0.55991949594E-02 -0.43123851589E-02  0.38475788236E-01  0.39122821389E-01  0.51109989000E-03 0.  1.
     -623    1    1    2    0    0  0.20031501141E-02 -0.48942279753E-02  0.19219770435E-02  0.17130000009E+03  0.17130000000E+03 0. -1.
      622    1    1    2    0    0  0.35960448453E-02  0.92066131342E-02  0.39596022021E+01  0.39608770863E+01  0.10000000000E+00 0.  1.
</event>
<event>
 5   0  0.6262544E+06  0.9118800E+02  0.7818608E-02  0.1180000E+00
       11   -1    0    0    0    0  0.00000000000E+00  0.00000000000E+00  0.39999999673E+01  0.40000000000E+01  0.51109989000E-03 0. -1.
     -623   -1    0    0    0    0  0.00000000000E+00  0.00000000000E+00  0.12525980253E-10  0.17130000000E+03  0.17130000000E+03 0. -1.
       11    1    1    2    0    0 -0.60846702394E-02  0.21186188949E-01  0.11084412728E+01  0.11086605406E+01  0.51109989000E-03 0. -1.
     -623    1    1    2    0    0  0.62270290490E-02 -0.97823688978E-02  0.19719651525E-02  0.17130000040E+03  0.17130000000E+03 0. -1.
      622    1    1    2    0    0 -0.14235880998E-03 -0.11403820050E-01  0.28895867296E+01  0.28913390557E+01  0.10000000000E+00 0. -1.
</event>
<event>
 5   0  0.6262544E+06  0.9118800E+02  0.7818608E-02  0.1180000E+00
       11   -1    0    0    0    0  0.00000000000E+00  0.00000000000E+00  0.39999999673E+01  0.40000000000E+01  0.51109989000E-03 0.  1.
     -623   -1    0    0    0    0  0.00000000000E+00  0.00000000000E+00  0.12525980253E-10  0.17130000000E+03  0.17130000000E+03 0. -1.
       11    1    1    2    0    0 -0.53645174565E-02  0.36515658399E-02  0.51798109088E-01  0.52205529460E-01  0.51109989000E-03 0.  1.
     -623    1    1    2    0    0 -0.22750063371E-02  0.17965559569E-02  0.16853084335E-02  0.17130000003E+03  0.17130000000E+03 0. -1.
      622    1    1    2    0    0  0.76395237936E-02 -0.54481217968E-02  0.39465165498E+01  0.39477944377E+01  0.10000000000E+00 0.  1.
</event>
<event>
 5   0  0.6262544E+06  0.9118800E+02  0.7818608E-02  0.1180000E+00
       11   -1    0    0    0    0  0.00000000000E+00  0.00000000000E+00  0.39999999673E+01  0.40000000000E+01  0.51109989000E-03 0. -1.
     -623   -1    0    0    0    0  0.00000000000E+00  0.00000000000E+00  0.12525980253E-10  0.17130000000E+03  0.17130000000E+03 0. -1.
       11    1    1    2    0    0 -0.13241238636E-01  0.27662526566E-01  0.28865252080E+00  0.29027759948E+00  0.51109989000E-03 0. -1.
     -623    1    1    2    0    0  0.27637940114E-01  0.12678825011E-01  0.32232104199E-02  0.17130000273E+03  0.17130000000E+03 0. -1.
      622    1    1    2    0    0 -0.14396701478E-01 -0.40341351577E-01  0.37081242361E+01  0.37097196714E+01  0.10000000000E+00 0. -1.
</event>
<event>
 5   0  0.6262544E+06  0.9118800E+02  0.7818608E-02  0.1180000E+00
       11   -1    0    0    0    0  0.00000000000E+00  0.00000000000E+00  0.39999999673E+01  0.40000000000E+01  0.51109989000E-03 0. -1.
     -623   -1    0    0    0    0  0.00000000000E+00  0.00000000000E+00  0.12525980253E-10  0.17130000000E+03  0.17130000000E+03 0.  1.
       11    1    1    2    0    0  0.23739577967E-01 -0.44749630292E-04  0.58903540161E-01  0.63509509762E-01  0.51109989000E-03 0. -1.
     -623    1    1    2    0    0 -0.49631813719E-02  0.13549579328E-01  0.59449880492E-02  0.17130000071E+03  0.17130000000E+03 0.  1.
      622    1    1    2    0    0 -0.18776396595E-01 -0.13504829698E-01  0.39351514392E+01  0.39364897793E+01  0.10000000000E+00 0. -1.
</event>
<event>
 5   0  0.6262544E+06  0.9118800E+02  0.7818608E-02  0.1180000E+00
       11   -1    0    0    0    0  0.00000000000E+00  0.00000000000E+00  0.39999999673E+01  0.40000000000E+01  0.51109989000E-03 0. -1.
     -623   -1    0    0    0    0  0.00000000000E+00  0.00000000000E+00  0.12525980253E-10  0.17130000000E+03  0.17130000000E+03 0. -1.
       11    1    1    2    0    0  0.10740718524E-01 -0.19977281957E-01  0.18234743903E+01  0.18236155210E+01  0.51109989000E-03 0. -1.
     -623    1    1    2    0    0 -0.16327355290E-01 -0.98090751904E-02  0.26520148585E-02  0.17130000108E+03  0.17130000000E+03 0. -1.
      622    1    1    2    0    0  0.55866367654E-02  0.29786357147E-01  0.21738735622E+01  0.21763833995E+01  0.10000000000E+00 0. -1.
</event>
<event>
 5   0  0.6262544E+06  0.9118800E+02  0.7818608E-02  0.1180000E+00
       11   -1    0    0    0    0  0.00000000000E+00  0.00000000000E+00  0.39999999673E+01  0.40000000000E+01  0.51109989000E-03 0. -1.
     -623   -1    0    0    0    0  0.00000000000E+00  0.00000000000E+00  0.12525980253E-10  0.17130000000E+03  0.17130000000E+03 0.  1.
       11    1    1    2    0    0 -0.46820541962E-03 -0.48717281791E-02  0.15052250804E-01  0.15836174625E-01  0.51109989000E-03 0. -1.
     -623    1    1    2    0    0 -0.12410676354E-02  0.25807151634E-02  0.20401191412E-02  0.17130000004E+03  0.17130000000E+03 0.  1.
      622    1    1    2    0    0  0.17092730550E-02  0.22910130157E-02  0.39829075974E+01  0.39841637893E+01  0.10000000000E+00 0. -1.
</event>
<event>
 5   0  0.6262544E+06  0.9118800E+02  0.7818608E-02  0.1180000E+00
       11   -1    0    0    0    0  0.00000000000E+00  0.00000000000E+00  0.39999999673E+01  0.40000000000E+01  0.51109989000E-03 0.  1.
     -623   -1    0    0    0    0  0.00000000000E+00  0.00000000000E+00  0.12525980253E-10  0.17130000000E+03  0.17130000000E+03 0. -1.
       11    1    1    2    0    0 -0.25358991475E-01 -0.76142228141E-02  0.19533781420E+01  0.19535576474E+01  0.51109989000E-03 0.  1.
     -623    1    1    2    0    0  0.87526582370E-02  0.46824418939E-02  0.26940690450E-02  0.17130000031E+03  0.17130000000E+03 0. -1.
      622    1    1    2    0    0  0.16606333238E-01  0.29317809202E-02  0.20439277563E+01  0.20464420438E+01  0.10000000000E+00 0. -1.
</event>
<event>
 5   0  0.6262544E+06  0.9118800E+02  0.7818608E-02  0.1180000E+00
       11   -1    0    0    0    0  0.00000000000E+00  0.00000000000E+00  0.39999999673E+01  0.40000000000E+01  0.51109989000E-03 0.  1.
     -623   -1    0    0    0    0  0.00000000000E+00  0.00000000000E+00  0.12525980253E-10  0.17130000000E+03  0.17130000000E+03 0. -1.
       11    1    1    2    0    0 -0.29581125488E-01  0.33023658988E-02  0.66405347463E+00  0.66472041266E+00  0.51109989000E-03 0.  1.
     -623    1    1    2    0    0 -0.28396186099E-01 -0.12308520409E-01  0.26855284034E-02  0.17130000282E+03  0.17130000000E+03 0. -1.
      622    1    1    2    0    0  0.57977311587E-01  0.90061545100E-02  0.33332609643E+01  0.33352767705E+01  0.10000000000E+00 0.  0.
</event>
<event>
 5   0  0.6262544E+06  0.9118800E+02  0.7818608E-02  0.1180000E+00
       11   -1    0    0    0    0  0.00000000000E+00  0.00000000000E+00  0.39999999673E+01  0.40000000000E+01  0.51109989000E-03 0.  1.
     -623   -1    0    0    0    0  0.00000000000E+00  0.00000000000E+00  0.12525980253E-10  0.17130000000E+03  0.17130000000E+03 0.  1.
       11    1    1    2    0    0 -0.11707963017E-01  0.10846804226E-01  0.43160411974E-01  0.46019690838E-01  0.51109989000E-03 0.  1.
     -623    1    1    2    0    0  0.10233214257E-01 -0.55842858566E-02  0.41282218895E-02  0.17130000045E+03  0.17130000000E+03 0.  1.
      622    1    1    2    0    0  0.14747487601E-02 -0.52625183696E-02  0.39527113336E+01  0.39539798629E+01  0.10000000000E+00 0.  1.
</event>
<event>
 5   0  0.6262544E+06  0.9118800E+02  0.7818608E-02  0.1180000E+00
       11   -1    0    0    0    0  0.00000000000E+00  0.00000000000E+00  0.39999999673E+01  0.40000000000E+01  0.51109989000E-03 0.  1.
     -623   -1    0    0    0    0  0.00000000000E+00  0.00000000000E+00  0.12525980253E-10  0.17130000000E+03  0.17130000000E+03 0.  1.
       11    1    1    2    0    0  0.10749475213E-01  0.18870158759E-01  0.57674916240E-01  0.61630279032E-01  0.51109989000E-03 0.  1.
     -623    1    1    2    0    0 -0.12651816057E-01  0.17996372354E-02  0.52803721730E-02  0.17130000056E+03  0.17130000000E+03 0.  1.
      622    1    1    2    0    0  0.19023408441E-02 -0.20669795994E-01  0.39370446789E+01  0.39383691629E+01  0.10000000000E+00 0.  1.
</event>
<event>
 5   0  0.6262544E+06  0.9118800E+02  0.7818608E-02  0.1180000E+00
       11   -1    0    0    0    0  0.00000000000E+00  0.00000000000E+00  0.39999999673E+01  0.40000000000E+01  0.51109989000E-03 0. -1.
     -623   -1    0    0    0    0  0.00000000000E+00  0.00000000000E+00  0.12525980253E-10  0.17130000000E+03  0.17130000000E+03 0.  1.
       11    1    1    2    0    0 -0.93028269968E-01  0.16125903305E-02  0.32801460558E+01  0.32814654147E+01  0.51109989000E-03 0. -1.
     -623    1    1    2    0    0  0.43554270326E-01 -0.31738893198E-01  0.10682551192E-01  0.17130000881E+03  0.17130000000E+03 0.  1.
      622    1    1    2    0    0  0.49473999641E-01  0.30126302868E-01  0.70917136042E+00  0.71852577491E+00  0.10000000000E+00 0. -1.
</event>
<event>
 5   0  0.6262544E+06  0.9118800E+02  0.7818608E-02  0.1180000E+00
       11   -1    0    0    0    0  0.00000000000E+00  0.00000000000E+00  0.39999999673E+01  0.40000000000E+01  0.51109989000E-03 0. -1.
     -623   -1    0    0    0    0  0.00000000000E+00  0.00000000000E+00  0.12525980253E-10  0.17130000000E+03  0.17130000000E+03 0. -1.
       11    1    1    2    0    0  0.73393446811E-03  0.17941040798E-01  0.25569582210E+00  0.25632603119E+00  0.51109989000E-03 0. -1.
     -623    1    1    2    0    0  0.29906782082E-02 -0.20671999332E-02  0.20015710744E-02  0.17130000005E+03  0.17130000000E+03 0. -1.
      622    1    1    2    0    0 -0.37246126763E-02 -0.15873840865E-01  0.37423025742E+01  0.37436739185E+01  0.10000000000E+00 0. -1.
</event>
<event>
 5   0  0.6262544E+06  0.9118800E+02  0.7818608E-02  0.1180000E+00
       11   -1    0    0    0    0  0.00000000000E+00  0.00000000000E+00  0.39999999673E+01  0.40000000000E+01  0.51109989000E-03 0. -1.
     -623   -1    0    0    0    0  0.00000000000E+00  0.00000000000E+00  0.12525980253E-10  0.17130000000E+03  0.17130000000E+03 0.  1.
       11    1    1    2    0    0 -0.42433272074E-03  0.12262537276E-01  0.86539232947E-01  0.87406235128E-01  0.51109989000E-03 0. -1.
     -623    1    1    2    0    0 -0.40967096509E-02 -0.24807860358E-02  0.21600280017E-02  0.17130000008E+03  0.17130000000E+03 0.  1.
      622    1    1    2    0    0  0.45210423716E-02 -0.97817512398E-02  0.39113007064E+01  0.39125936843E+01  0.10000000000E+00 0.  0.
</event>
<event>
 5   0  0.6262544E+06  0.9118800E+02  0.7818608E-02  0.1180000E+00
       11   -1    0    0    0    0  0.00000000000E+00  0.00000000000E+00  0.39999999673E+01  0.40000000000E+01  0.51109989000E-03 0.  1.
     -623   -1    0    0    0    0  0.00000000000E+00  0.00000000000E+00  0.12525980253E-10  0.17130000000E+03  0.17130000000E+03 0. -1.
       11    1    1    2    0    0 -0.10866167784E-01  0.23229020684E-01  0.52214959217E+00  0.52277922571E+00  0.51109989000E-03 0.  1.
     -623    1    1    2    0    0 -0.13081081092E-02  0.70839214873E-03  0.21715983461E-02  0.17130000002E+03  0.17130000000E+03 0. -1.
      622    1    1    2    0    0  0.12174275893E-01 -0.23937412833E-01  0.34756787770E+01  0.34772207542E+01  0.10000000000E+00 0.  0.
</event>
<event>
 5   0  0.6262544E+06  0.9118800E+02  0.7818608E-02  0.1180000E+00
       11   -1    0    0    0    0  0.00000000000E+00  0.00000000000E+00  0.39999999673E+01  0.40000000000E+01  0.51109989000E-03 0.  1.
     -623   -1    0    0    0    0  0.00000000000E+00  0.00000000000E+00  0.12525980253E-10  0.17130000000E+03  0.17130000000E+03 0. -1.
       11    1    1    2    0    0 -0.89041205502E-01 -0.45102441196E-01  0.10478256442E+01  0.10525689566E+01  0.51109989000E-03 0.  1.
     -623    1    1    2    0    0  0.46531511035E-01  0.27676717631E-01  0.68071484418E-02  0.17130000869E+03  0.17130000000E+03 0. -1.
      622    1    1    2    0    0  0.42509694466E-01  0.17425723565E-01  0.29453671748E+01  0.29474223525E+01  0.10000000000E+00 0.  0.
</event>
<event>
 5   0  0.6262544E+06  0.9118800E+02  0.7818608E-02  0.1180000E+00
       11   -1    0    0    0    0  0.00000000000E+00  0.00000000000E+00  0.39999999673E+01  0.40000000000E+01  0.51109989000E-03 0. -1.
     -623   -1    0    0    0    0  0.00000000000E+00  0.00000000000E+00  0.12525980253E-10  0.17130000000E+03  0.17130000000E+03 0.  1.
       11    1    1    2    0    0 -0.17276248490E-01  0.30122862971E-01  0.19117775118E+01  0.19120929296E+01  0.51109989000E-03 0. -1.
     -623    1    1    2    0    0 -0.63792079452E-01  0.43098575859E-02  0.45842514863E-02  0.17130001199E+03  0.17130000000E+03 0.  1.
      622    1    1    2    0    0  0.81068327940E-01 -0.34432720557E-01  0.20836382040E+01  0.20878950767E+01  0.10000000000E+00 0. -1.
</event>
<event>
 5   0  0.6262544E+06  0.9118800E+02  0.7818608E-02  0.1180000E+00
       11   -1    0    0    0    0  0.00000000000E+00  0.00000000000E+00  0.39999999673E+01  0.40000000000E+01  0.51109989000E-03 0. -1.
     -623   -1    0    0    0    0  0.00000000000E+00  0.00000000000E+00  0.12525980253E-10  0.17130000000E+03  0.17130000000E+03 0. -1.
       11    1    1    2    0    0 -0.34633529205E-01  0.20670280681E-01  0.15672051583E+00  0.16182806664E+00  0.51109989000E-03 0. -1.
     -623    1    1    2    0    0  0.12970444919E-01  0.23595820228E-01  0.67292102126E-02  0.17130000225E+03  0.17130000000E+03 0. -1.
      622    1    1    2    0    0  0.21663084285E-01 -0.44266100909E-01  0.38365502414E+01  0.38381696851E+01  0.10000000000E+00 0. -1.
</event>
<event>
 5   0  0.6262544E+06  0.9118800E+02  0.7818608E-02  0.1180000E+00
       11   -1    0    0    0    0  0.00000000000E+00  0.00000000000E+00  0.39999999673E+01  0.40000000000E+01  0.51109989000E-03 0. -1.
     -623   -1    0    0    0    0  0.00000000000E+00  0.00000000000E+00  0.12525980253E-10  0.17130000000E+03  0.17130000000E+03 0. -1.
       11    1    1    2    0    0  0.19608672910E-01 -0.70811868519E-02  0.57986681136E+00  0.58024169395E+00  0.51109989000E-03 0. -1.
     -623    1    1    2    0    0  0.83234562704E-02  0.76741208698E-02  0.19518147676E-02  0.17130000039E+03  0.17130000000E+03 0. -1.
      622    1    1    2    0    0 -0.27932129181E-01 -0.59293401790E-03  0.34181813412E+01  0.34197579208E+01  0.10000000000E+00 0.  0.
</event>
<event>
 5   0  0.6262544E+06  0.9118800E+02  0.7818608E-02  0.1180000E+00
       11   -1    0    0    0    0  0.00000000000E+00  0.00000000000E+00  0.39999999673E+01  0.40000000000E+01  0.51109989000E-03 0. -1.
     -623   -1    0    0    0    0  0.00000000000E+00  0.00000000000E+00  0.12525980253E-10  0.17130000000E+03  0.17130000000E+03 0.  1.
       11    1    1    2    0    0  0.90036950021E-03  0.42764580270E-02  0.25535753310E+00  0.25539543788E+00  0.51109989000E-03 0. -1.
     -623    1    1    2    0    0 -0.17098515159E-01 -0.14901601266E-01  0.14249995495E-02  0.17130000151E+03  0.17130000000E+03 0.  1.
      622    1    1    2    0    0  0.16198145659E-01  0.10625143239E-01  0.37432174347E+01  0.37446030547E+01  0.10000000000E+00 0.  0.
</event>
<event>
 5   0  0.6262544E+06  0.9118800E+02  0.7818608E-02  0.1180000E+00
       11   -1    0    0    0    0  0.00000000000E+00  0.00000000000E+00  0.39999999673E+01  0.40000000000E+01  0.51109989000E-03 0.  1.
     -623   -1    0    0    0    0  0.00000000000E+00  0.00000000000E+00  0.12525980253E-10  0.17130000000E+03  0.17130000000E+03 0. -1.
       11    1    1    2    0    0  0.14315257697E-02 -0.19291322428E-02  0.28742023596E-02  0.37806189363E-02  0.51109989000E-03 0.  1.
     -623    1    1    2    0    0 -0.50010996896E-03  0.26133422017E-02  0.21579638642E-02  0.17130000003E+03  0.17130000000E+03 0. -1.
      622    1    1    2    0    0 -0.93141580073E-03 -0.68420995891E-03  0.39949678012E+01  0.39962193469E+01  0.10000000000E+00 0.  1.
</event>
<event>
 5   0  0.6262544E+06  0.9118800E+02  0.7818608E-02  0.1180000E+00
       11   -1    0    0    0    0  0.00000000000E+00  0.00000000000E+00  0.39999999673E+01  0.40000000000E+01  0.51109989000E-03 0. -1.
     -623   -1    0    0    0    0  0.00000000000E+00  0.00000000000E+00  0.12525980253E-10  0.17130000000E+03  0.17130000000E+03 0. -1.
       11    1    1    2    0    0  0.11936484483E-02  0.19989058012E-02  0.60274823982E-03  0.24586479126E-02  0.51109989000E-03 0. -1.
     -623    1    1    2    0    0 -0.36424267989E-02 -0.83268976499E-02  0.31128613917E-02  0.17130000027E+03  0.17130000000E+03 0. -1.
      622    1    1    2    0    0  0.24487783505E-02  0.63279918487E-02  0.39962843577E+01  0.39975410827E+01  0.10000000000E+00 0. -1.
</event>
<event>
 5   0  0.6262544E+06  0.9118800E+02  0.7818608E-02  0.1180000E+00
       11   -1    0    0    0    0  0.00000000000E+00  0.00000000000E+00  0.39999999673E+01  0.40000000000E+01  0.51109989000E-03 0. -1.
     -623   -1    0    0    0    0  0.00000000000E+00  0.00000000000E+00  0.12525980253E-10  0.17130000000E+03  0.17130000000E+03 0.  1.
       11    1    1    2    0    0 -0.54541076912E-01  0.51103503377E-01  0.18303725820E+01  0.18318980177E+01  0.51109989000E-03 0. -1.
     -623    1    1    2    0    0  0.37126210208E-02  0.18562043670E-02  0.50772245384E-02  0.17130000013E+03  0.17130000000E+03 0.  1.
      622    1    1    2    0    0  0.50828455891E-01 -0.52959707744E-01  0.21645501608E+01  0.21681018568E+01  0.10000000000E+00 0. -1.
</event>
<event>
 5   0  0.6262544E+06  0.9118800E+02  0.7818608E-02  0.1180000E+00
       11   -1    0    0    0    0  0.00000000000E+00  0.00000000000E+00  0.39999999673E+01  0.40000000000E+01  0.51109989000E-03 0. -1.
     -623   -1    0    0    0    0  0.00000000000E+00  0.00000000000E+00  0.12525980253E-10  0.17130000000E+03  0.17130000000E+03 0.  1.
       11    1    1    2    0    0  0.14273271102E-02 -0.39829470141E-02  0.14335209459E-01  0.14955286120E-01  0.51109989000E-03 0. -1.
     -623    1    1    2    0    0 -0.41327919148E-03  0.21279632156E-02  0.18755175897E-02  0.17130000002E+03  0.17130000000E+03 0.  1.
      622    1    1    2    0    0 -0.10140479187E-02  0.18549837984E-02  0.39837892404E+01  0.39850446899E+01  0.10000000000E+00 0. -1.
</event>
<event>
 5   0  0.6262544E+06  0.9118800E+02  0.7818608E-02  0.1180000E+00
       11   -1    0    0    0    0  0.00000000000E+00  0.00000000000E+00  0.39999999673E+01  0.40000000000E+01  0.51109989000E-03 0. -1.
     -623   -1    0    0    0    0  0.00000000000E+00  0.00000000000E+00  0.12525980253E-10  0.17130000000E+03  0.17130000000E+03 0.  1.
       11    1    1    2    0    0  0.15357996583E-02 -0.98702864545E-03 -0.77262734665E-03  0.20472132893E-02  0.51109989000E-03 0. -1.
     -623    1    1    2    0    0 -0.25352477773E-02 -0.42945051859E-02  0.40743795057E-02  0.17130000012E+03  0.17130000000E+03 0.  1.
      622    1    1    2    0    0  0.99944811906E-03  0.52815338314E-02  0.39966982153E+01  0.39979526657E+01  0.10000000000E+00 0. -1.
</event>
<event>
 5   0  0.6262544E+06  0.9118800E+02  0.7818608E-02  0.1180000E+00
       11   -1    0    0    0    0  0.00000000000E+00  0.00000000000E+00  0.39999999673E+01  0.40000000000E+01  0.51109989000E-03 0. -1.
     -623   -1    0    0    0    0  0.00000000000E+00  0.00000000000E+00  0.12525980253E-10  0.17130000000E+03  0.17130000000E+03 0.  1.
       11    1    1    2    0    0  0.10525037991E-01  0.82170701054E-02  0.39392766370E-01  0.41597451018E-01  0.51109989000E-03 0. -1.
     -623    1    1    2    0    0  0.18979345279E-02 -0.37792564356E-02  0.34900659286E-02  0.17130000009E+03  0.17130000000E+03 0.  1.
      622    1    1    2    0    0 -0.12422972519E-01 -0.44378136698E-02  0.39571171351E+01  0.39584024612E+01  0.10000000000E+00 0. -1.
</event>
<event>
 5   0  0.6262544E+06  0.9118800E+02  0.7818608E-02  0.1180000E+00
       11   -1    0    0    0    0  0.00000000000E+00  0.00000000000E+00  0.39999999673E+01  0.40000000000E+01  0.51109989000E-03 0.  1.
     -623   -1    0    0    0    0  0.00000000000E+00  0.00000000000E+00  0.12525980253E-10  0.17130000000E+03  0.17130000000E+03 0. -1.
       11    1    1    2    0    0 -0.13991992945E-02  0.53676435470E-03  0.33661487927E-01  0.33698707181E-01  0.51109989000E-03 0.  1.
     -623    1    1    2    0    0  0.32876548053E-02 -0.36604599744E-02  0.12997630956E-02  0.17130000008E+03  0.17130000000E+03 0. -1.
      622    1    1    2    0    0 -0.18884555108E-02  0.31236956197E-02  0.39650387163E+01  0.39663012172E+01  0.10000000000E+00 0.  1.
</event>
<event>
 5   0  0.6262544E+06  0.9118800E+02  0.7818608E-02  0.1180000E+00
       11   -1    0    0    0    0  0.00000000000E+00  0.00000000000E+00  0.39999999673E+01  0.40000000000E+01  0.51109989000E-03 0. -1.
     -623   -1    0    0    0    0  0.00000000000E+00  0.00000000000E+00  0.12525980253E-10  0.17130000000E+03  0.17130000000E+03 0.  1.
       11    1    1    2    0    0 -0.14127733682E-02  0.21131272817E-02  0.43138276361E-01  0.43216123681E-01  0.51109989000E-03 0. -1.
     -623    1    1    2    0    0  0.15094784244E-02 -0.11290275267E-02  0.13418082990E-02  0.17130000002E+03  0.17130000000E+03 0.  1.
      622    1    1    2    0    0 -0.96705056260E-04 -0.98409975493E-03  0.39555198829E+01  0.39567838609E+01  0.10000000000E+00 0. -1.
</event>
<event>
 5   0  0.6262544E+06  0.9118800E+02  0.7818608E-02  0.1180000E+00
       11   -1    0    0    0    0  0.00000000000E+00  0.00000000000E+00  0.39999999673E+01  0.40000000000E+01  0.51109989000E-03 0. -1.
     -623   -1    0    0    0    0  0.00000000000E+00  0.00000000000E+00  0.12525980253E-10  0.17130000000E+03  0.17130000000E+03 0. -1.
       11    1    1    2    0    0  0.25249157938E-01  0.34019685416E-01  0.14603867366E+01  0.14610012117E+01  0.51109989000E-03 0. -1.
     -623    1    1    2    0    0 -0.52776301089E-02 -0.23143765455E-03  0.28882157003E-02  0.17130000011E+03  0.17130000000E+03 0. -1.
      622    1    1    2    0    0 -0.19971527830E-01 -0.33788247761E-01  0.25367250151E+01  0.25389986825E+01  0.10000000000E+00 0. -1.
</event>
<event>
 5   0  0.6262544E+06  0.9118800E+02  0.7818608E-02  0.1180000E+00
       11   -1    0    0    0    0  0.00000000000E+00  0.00000000000E+00  0.39999999673E+01  0.40000000000E+01  0.51109989000E-03 0.  1.
     -623   -1    0    0    0    0  0.00000000000E+00  0.00000000000E+00  0.12525980253E-10  0.17130000000E+03  0.17130000000E+03 0.  1.
       11    1    1    2    0    0  0.52632943272E-02  0.28738192818E-02  0.40761228092E-01  0.41203155720E-01  0.51109989000E-03 0.  1.
     -623    1    1    2    0    0 -0.43784847574E-02 -0.86722926484E-02  0.17097374282E-02  0.17130000028E+03  0.17130000000E+03 0.  1.
      622    1    1    2    0    0 -0.88480956978E-03  0.57984733666E-02  0.39575290018E+01  0.39587965603E+01  0.10000000000E+00 0.  1.
</event>
<event>
 5   0  0.6262544E+06  0.9118800E+02  0.7818608E-02  0.1180000E+00
       11   -1    0    0    0    0  0.00000000000E+00  0.00000000000E+00  0.39999999673E+01  0.40000000000E+01  0.51109989000E-03 0. -1.
     -623   -1    0    0    0    0  0.00000000000E+00  0.00000000000E+00  0.12525980253E-10  0.17130000000E+03  0.17130000000E+03 0.  1.
       11    1    1    2    0    0 -0.44405786772E-02  0.32281199688E-03  0.10671607146E-01  0.11574427238E-01  0.51109989000E-03 0. -1.
     -623    1    1    2    0    0  0.43160359884E-02 -0.61853534205E-02  0.21611037135E-02  0.17130000018E+03  0.17130000000E+03 0.  1.
      622    1    1    2    0    0  0.12454268884E-03  0.58625414237E-02  0.39871672565E+01  0.39884253931E+01  0.10000000000E+00 0. -1.
</event>
<event>
 5   0  0.6262544E+06  0.9118800E+02  0.7818608E-02  0.1180000E+00
       11   -1    0    0    0    0  0.00000000000E+00  0.00000000000E+00  0.39999999673E+01  0.40000000000E+01  0.51109989000E-03 0. -1.
     -623   -1    0    0    0    0  0.00000000000E+00  0.00000000000E+00  0.12525980253E-10  0.17130000000E+03  0.17130000000E+03 0.  1.
       11    1    1    2    0    0  0.29852232791E-01  0.28796308828E-01  0.22476744133E+01  0.22480571418E+01  0.51109989000E-03 0. -1.
     -623    1    1    2    0    0 -0.10668774771E-01 -0.10575317180E-01  0.34398116470E-02  0.17130000069E+03  0.17130000000E+03 0.  1.
      622    1    1    2    0    0 -0.19183458020E-01 -0.18220991648E-01  0.17488857424E+01  0.17519421650E+01  0.10000000000E+00 0. -1.
</event>
<event>
 5   0  0.6262544E+06  0.9118800E+02  0.7818608E-02  0.1180000E+00
       11   -1    0    0    0    0  0.00000000000E+00  0.00000000000E+00  0.39999999673E+01  0.40000000000E+01  0.51109989000E-03 0. -1.
     -623   -1    0    0    0    0  0.00000000000E+00  0.00000000000E+00  0.12525980253E-10  0.17130000000E+03  0.17130000000E+03 0.  1.
       11    1    1    2    0    0  0.35898270382E-02 -0.87483515684E-02  0.33446519610E+00  0.33459923660E+00  0.51109989000E-03 0. -1.
     -623    1    1    2    0    0 -0.85353859023E-03 -0.37569809060E-02  0.15207813046E-02  0.17130000005E+03  0.17130000000E+03 0.  1.
      622    1    1    2    0    0 -0.27362884479E-02  0.12505332474E-01  0.36640139900E+01  0.36654007133E+01  0.10000000000E+00 0.  0.
</event>
<event>
 5   0  0.6262544E+06  0.9118800E+02  0.7818608E-02  0.1180000E+00
       11   -1    0    0    0    0  0.00000000000E+00  0.00000000000E+00  0.39999999673E+01  0.40000000000E+01  0.51109989000E-03 0. -1.
     -623   -1    0    0    0    0  0.00000000000E+00  0.00000000000E+00  0.12525980253E-10  0.17130000000E+03  0.17130000000E+03 0.  1.
       11    1    1    2    0    0 -0.53330337612E-02  0.23304726782E-01  0.49548499164E+00  0.49606167933E+00  0.51109989000E-03 0. -1.
     -623    1    1    2    0    0  0.18587155437E-01 -0.89924673233E-01  0.26872752215E-02  0.17130002463E+03  0.17130000000E+03 0.  1.
      622    1    1    2    0    0 -0.13254121675E-01  0.66619946448E-01  0.35018277004E+01  0.35039136879E+01  0.10000000000E+00 0.  0.
</event>
<event>
 5   0  0.6262544E+06  0.9118800E+02  0.7818608E-02  0.1180000E+00
       11   -1    0    0    0    0  0.00000000000E+00  0.00000000000E+00  0.39999999673E+01  0.40000000000E+01  0.51109989000E-03 0.  1.
     -623   -1    0    0    0    0  0.00000000000E+00  0.00000000000E+00  0.12525980253E-10  0.17130000000E+03  0.17130000000E+03 0.  1.
       11    1    1    2    0    0  0.38203743725E-02 -0.45791200614E-03  0.55864624897E+00  0.55865973334E+00  0.51109989000E-03 0.  1.
     -623    1    1    2    0    0  0.30236256001E-02  0.32554122680E-02  0.14746908154E-02  0.17130000006E+03  0.17130000000E+03 0.  1.
      622    1    1    2    0    0 -0.68439999726E-02 -0.27975002619E-02  0.34398790276E+01  0.34413402027E+01  0.10000000000E+00 0.  1.
</event>
<event>
 5   0  0.6262544E+06  0.9118800E+02  0.7818608E-02  0.1180000E+00
       11   -1    0    0    0    0  0.00000000000E+00  0.00000000000E+00  0.39999999673E+01  0.40000000000E+01  0.51109989000E-03 0. -1.
     -623   -1    0    0    0    0  0.00000000000E+00  0.00000000000E+00  0.12525980253E-10  0.17130000000E+03  0.17130000000E+03 0.  1.
       11    1    1    2    0    0 -0.97569554617E-02 -0.16062812645E-01  0.52815901451E-01  0.56062400940E-01  0.51109989000E-03 0. -1.
     -623    1    1    2    0    0  0.67163489870E-02 -0.11210666765E-02  0.45532552135E-02  0.17130000020E+03  0.17130000000E+03 0.  1.
      622    1    1    2    0    0  0.30406064747E-02  0.17183879321E-01  0.39426308107E+01  0.39439374033E+01  0.10000000000E+00 0. -1.
</event>
<event>
 5   0  0.6262544E+06  0.9118800E+02  0.7818608E-02  0.1180000E+00
       11   -1    0    0    0    0  0.00000000000E+00  0.00000000000E+00  0.39999999673E+01  0.40000000000E+01  0.51109989000E-03 0.  1.
     -623   -1    0    0    0    0  0.00000000000E+00  0.00000000000E+00  0.12525980253E-10  0.17130000000E+03  0.17130000000E+03 0.  1.
       11    1    1    2    0    0 -0.11917199235E-02 -0.15078698376E-03 -0.63287114332E-03  0.14507522435E-02  0.51109989000E-03 0.  1.
     -623    1    1    2    0    0  0.61091069074E-03 -0.11437236746E-02  0.33345290390E-02  0.17130000004E+03  0.17130000000E+03 0.  1.
      622    1    1    2    0    0  0.58080923274E-03  0.12945106584E-02  0.39972983095E+01  0.39985492105E+01  0.10000000000E+00 0.  1.
</event>
<event>
 5   0  0.6262544E+06  0.9118800E+02  0.7818608E-02  0.1180000E+00
       11   -1    0    0    0    0  0.00000000000E+00  0.00000000000E+00  0.39999999673E+01  0.40000000000E+01  0.51109989000E-03 0. -1.
     -623   -1    0    0    0    0  0.00000000000E+00  0.00000000000E+00  0.12525980253E-10  0.17130000000E+03  0.17130000000E+03 0.  1.
       11    1    1    2    0    0  0.56763971342E-03  0.10832143793E-02  0.14861120489E-02  0.19913112151E-02  0.51109989000E-03 0. -1.
     -623    1    1    2    0    0 -0.20187325473E-02 -0.46844695479E-03  0.17563170354E-02  0.17130000002E+03  0.17130000000E+03 0.  1.
      622    1    1    2    0    0  0.14510928339E-02 -0.61476742449E-03  0.39967575384E+01  0.39980086674E+01  0.10000000000E+00 0. -1.
</event>
<event>
 5   0  0.6262544E+06  0.9118800E+02  0.7818608E-02  0.1180000E+00
       11   -1    0    0    0    0  0.00000000000E+00  0.00000000000E+00  0.39999999673E+01  0.40000000000E+01  0.51109989000E-03 0.  1.
     -623   -1    0    0    0    0  0.00000000000E+00  0.00000000000E+00  0.12525980253E-10  0.17130000000E+03  0.17130000000E+03 0.  1.
       11    1    1    2    0    0 -0.21367221391E-01 -0.40825081351E-03  0.57391439823E-01  0.61243476423E-01  0.51109989000E-03 0.  1.
     -623    1    1    2    0    0  0.60117464388E-02 -0.62947431731E-02  0.51575910097E-02  0.17130000030E+03  0.17130000000E+03 0.  1.
      622    1    1    2    0    0  0.15355474952E-01  0.67029939867E-02  0.39374509365E+01  0.39387562248E+01  0.10000000000E+00 0.  1.
</event>
<event>
 5   0  0.6262544E+06  0.9118800E+02  0.7818608E-02  0.1180000E+00
       11   -1    0    0    0    0  0.00000000000E+00  0.00000000000E+00  0.39999999673E+01  0.40000000000E+01  0.51109989000E-03 0. -1.
     -623   -1    0    0    0    0  0.00000000000E+00  0.00000000000E+00  0.12525980253E-10  0.17130000000E+03  0.17130000000E+03 0. -1.
       11    1    1    2    0    0  0.30991792961E-01  0.93250481101E-01  0.99543378872E+00  0.10002723791E+01  0.51109989000E-03 0. -1.
     -623    1    1    2    0    0 -0.15943061416E-01  0.97306151152E-02  0.83140348074E-02  0.17130000122E+03  0.17130000000E+03 0. -1.
      622    1    1    2    0    0 -0.15048731545E-01 -0.10298109622E+00  0.29962521438E+01  0.29997264008E+01  0.10000000000E+00 0. -1.
</event>
<event>
 5   0  0.6262544E+06  0.9118800E+02  0.7818608E-02  0.1180000E+00
       11   -1    0    0    0    0  0.00000000000E+00  0.00000000000E+00  0.39999999673E+01  0.40000000000E+01  0.51109989000E-03 0.  1.
     -623   -1    0    0    0    0  0.00000000000E+00  0.00000000000E+00  0.12525980253E-10  0.17130000000E+03  0.17130000000E+03 0.  1.
       11    1    1    2    0    0  0.11730350862E-01  0.16859848859E-01  0.40830693027E-01  0.45708449450E-01  0.51109989000E-03 0.  1.
     -623    1    1    2    0    0 -0.16283684889E-01  0.19155917290E-02  0.61904827780E-02  0.17130000090E+03  0.17130000000E+03 0.  1.
      622    1    1    2    0    0  0.45533340265E-02 -0.18775440588E-01  0.39529787916E+01  0.39542906540E+01  0.10000000000E+00 0.  1.
</event>
<event>
 5   0  0.6262544E+06  0.9118800E+02  0.7818608E-02  0.1180000E+00
       11   -1    0    0    0    0  0.00000000000E+00  0.00000000000E+00  0.39999999673E+01  0.40000000000E+01  0.51109989000E-03 0. -1.
     -623   -1    0    0    0    0  0.00000000000E+00  0.00000000000E+00  0.12525980253E-10  0.17130000000E+03  0.17130000000E+03 0.  1.
       11    1    1    2    0    0 -0.34528926002E-02  0.51383004751E-02  0.12811938804E+01  0.12812089389E+01  0.51109989000E-03 0. -1.
     -623    1    1    2    0    0 -0.36168999814E-03 -0.39829608678E-02  0.18576811759E-02  0.17130000006E+03  0.17130000000E+03 0.  1.
      622    1    1    2    0    0  0.38145825983E-02 -0.11553396073E-02  0.27169484057E+01  0.27187910043E+01  0.10000000000E+00 0. -1.
</event>
<event>
 5   0  0.6262544E+06  0.9118800E+02  0.7818608E-02  0.1180000E+00
       11   -1    0    0    0    0  0.00000000000E+00  0.00000000000E+00  0.39999999673E+01  0.40000000000E+01  0.51109989000E-03 0.  1.
     -623   -1    0    0    0    0  0.00000000000E+00  0.00000000000E+00  0.12525980253E-10  0.17130000000E+03  0.17130000000E+03 0. -1.
       11    1    1    2    0    0 -0.28760602001E-03  0.51861647488E-02  0.41136913208E-01  0.41466683897E-01  0.51109989000E-03 0.  1.
     -623    1    1    2    0    0  0.92573647069E-02  0.86025357295E-02  0.16276962139E-02  0.17130000047E+03  0.17130000000E+03 0. -1.
      622    1    1    2    0    0 -0.89697586867E-02 -0.13788700478E-01  0.39572353579E+01  0.39585328422E+01  0.10000000000E+00 0.  1.
</event>
<event>
 5   0  0.6262544E+06  0.9118800E+02  0.7818608E-02  0.1180000E+00
       11   -1    0    0    0    0  0.00000000000E+00  0.00000000000E+00  0.39999999673E+01  0.40000000000E+01  0.51109989000E-03 0.  1.
     -623   -1    0    0    0    0  0.00000000000E+00  0.00000000000E+00  0.12525980253E-10  0.17130000000E+03  0.17130000000E+03 0. -1.
       11    1    1    2    0    0 -0.92891731553E-02 -0.12769248598E-01  0.40717325932E+00  0.40747965197E+00  0.51109989000E-03 0.  1.
     -623    1    1    2    0    0  0.34373198893E-02  0.52496124040E-02  0.17111745765E-02  0.17130000012E+03  0.17130000000E+03 0. -1.
      622    1    1    2    0    0  0.58518532661E-02  0.75196361942E-02  0.35911155335E+01  0.35925202246E+01  0.10000000000E+00 0.  1.
</event>
<event>
 5   0  0.6262544E+06  0.9118800E+02  0.7818608E-02  0.1180000E+00
       11   -1    0    0    0    0  0.00000000000E+00  0.00000000000E+00  0.39999999673E+01  0.40000000000E+01  0.51109989000E-03 0. -1.
     -623   -1    0    0    0    0  0.00000000000E+00  0.00000000000E+00  0.12525980253E-10  0.17130000000E+03  0.17130000000E+03 0.  1.
       11    1    1    2    0    0  0.14272485636E-01  0.11793792668E+00  0.58579533591E+00  0.59772024827E+00  0.51109989000E-03 0. -1.
     -623    1    1    2    0    0 -0.11841355758E-01 -0.65637087319E-01  0.13811407215E-01  0.17130001354E+03  0.17130000000E+03 0.  1.
      622    1    1    2    0    0 -0.24311298782E-02 -0.52300839364E-01  0.34003932242E+01  0.34022662106E+01  0.10000000000E+00 0.  0.
</event>
<event>
 5   0  0.6262544E+06  0.9118800E+02  0.7818608E-02  0.1180000E+00
       11   -1    0    0    0    0  0.00000000000E+00  0.00000000000E+00  0.39999999673E+01  0.40000000000E+01  0.51109989000E-03 0. -1.
     -623   -1    0    0    0    0  0.00000000000E+00  0.00000000000E+00  0.12525980253E-10  0.17130000000E+03  0.17130000000E+03 0.  1.
       11    1    1    2    0    0 -0.93691365961E-02  0.12884120408E-01  0.16543728213E+00  0.16620329967E+00  0.51109989000E-03 0. -1.
     -623    1    1    2    0    0  0.12222574382E-01  0.26122004691E-02  0.21032573673E-02  0.17130000047E+03  0.17130000000E+03 0.  1.
      622    1    1    2    0    0 -0.28534377860E-02 -0.15496320877E-01  0.38324594280E+01  0.38337962316E+01  0.10000000000E+00 0. -1.
</event>
<event>
 5   0  0.6262544E+06  0.9118800E+02  0.7818608E-02  0.1180000E+00
       11   -1    0    0    0    0  0.00000000000E+00  0.00000000000E+00  0.39999999673E+01  0.40000000000E+01  0.51109989000E-03 0.  1.
     -623   -1    0    0    0    0  0.00000000000E+00  0.00000000000E+00  0.12525980253E-10  0.17130000000E+03  0.17130000000E+03 0. -1.
       11    1    1    2    0    0  0.38538507026E-01 -0.58075088749E-01  0.20803663671E+01  0.20815336689E+01  0.51109989000E-03 0.  1.
     -623    1    1    2    0    0  0.36775446559E-02  0.46513275244E-02  0.49858264217E-02  0.17130000018E+03  0.17130000000E+03 0. -1.
      622    1    1    2    0    0 -0.42216051682E-01  0.53423761225E-01  0.19146477739E+01  0.19184661559E+01  0.10000000000E+00 0.  1.
</event>
<event>
 5   0  0.6262544E+06  0.9118800E+02  0.7818608E-02  0.1180000E+00
       11   -1    0    0    0    0  0.00000000000E+00  0.00000000000E+00  0.39999999673E+01  0.40000000000E+01  0.51109989000E-03 0. -1.
     -623   -1    0    0    0    0  0.00000000000E+00  0.00000000000E+00  0.12525980253E-10  0.17130000000E+03  0.17130000000E+03 0.  1.
       11    1    1    2    0    0 -0.11592390716E-01 -0.13297769152E-01  0.12773047820E+00  0.12894398191E+00  0.51109989000E-03 0. -1.
     -623    1    1    2    0    0 -0.16700087458E-02  0.21852619767E-02  0.25440468415E-02  0.17130000004E+03  0.17130000000E+03 0.  1.
      622    1    1    2    0    0  0.13262399462E-01  0.11112507175E-01  0.38697254424E+01  0.38710559772E+01  0.10000000000E+00 0. -1.
</event>
<event>
 5   0  0.6262544E+06  0.9118800E+02  0.7818608E-02  0.1180000E+00
       11   -1    0    0    0    0  0.00000000000E+00  0.00000000000E+00  0.39999999673E+01  0.40000000000E+01  0.51109989000E-03 0. -1.
     -623   -1    0    0    0    0  0.00000000000E+00  0.00000000000E+00  0.12525980253E-10  0.17130000000E+03  0.17130000000E+03 0.  1.
       11    1    1    2    0    0  0.24327730095E-01 -0.50627342631E-02  0.75798987544E+00  0.75839724566E+00  0.51109989000E-03 0. -1.
     -623    1    1    2    0    0 -0.26352901522E-03  0.49887996940E-02  0.20396021301E-02  0.17130000008E+03  0.17130000000E+03 0.  1.
      622    1    1    2    0    0 -0.24064201080E-01  0.73934568806E-04  0.32399704900E+01  0.32416026695E+01  0.10000000000E+00 0. -1.
</event>
<event>
 5   0  0.6262544E+06  0.9118800E+02  0.7818608E-02  0.1180000E+00
       11   -1    0    0    0    0  0.00000000000E+00  0.00000000000E+00  0.39999999673E+01  0.40000000000E+01  0.51109989000E-03 0.  1.
     -623   -1    0    0    0    0  0.00000000000E+00  0.00000000000E+00  0.12525980253E-10  0.17130000000E+03  0.17130000000E+03 0. -1.
       11    1    1    2    0    0  0.44808098254E-02  0.49908867343E-02  0.87764478760E-01  0.88021881155E-01  0.51109989000E-03 0.  1.
     -623    1    1    2    0    0 -0.83854447473E-03  0.16687326133E-02  0.15430880575E-02  0.17130000002E+03  0.17130000000E+03 0. -1.
      622    1    1    2    0    0 -0.36422653507E-02 -0.66596193476E-02  0.39106924005E+01  0.39119781017E+01  0.10000000000E+00 0.  1.
</event>
<event>
 5   0  0.6262544E+06  0.9118800E+02  0.7818608E-02  0.1180000E+00
       11   -1    0    0    0    0  0.00000000000E+00  0.00000000000E+00  0.39999999673E+01  0.40000000000E+01  0.51109989000E-03 0. -1.
     -623   -1    0    0    0    0  0.00000000000E+00  0.00000000000E+00  0.12525980253E-10  0.17130000000E+03  0.17130000000E+03 0.  1.
       11    1    1    2    0    0 -0.32629544664E-01  0.26654864193E-02  0.11285188683E+00  0.11750575129E+00  0.51109989000E-03 0. -1.
     -623    1    1    2    0    0  0.24765160410E-02  0.17848290527E-01  0.61142795196E-02  0.17130000106E+03  0.17130000000E+03 0.  1.
      622    1    1    2    0    0  0.30153028623E-01 -0.20513776947E-01  0.38810338011E+01  0.38824931919E+01  0.10000000000E+00 0. -1.
</event>
<event>
 5   0  0.6262544E+06  0.9118800E+02  0.7818608E-02  0.1180000E+00
       11   -1    0    0    0    0  0.00000000000E+00  0.00000000000E+00  0.39999999673E+01  0.40000000000E+01  0.51109989000E-03 0. -1.
     -623   -1    0    0    0    0  0.00000000000E+00  0.00000000000E+00  0.12525980253E-10  0.17130000000E+03  0.17130000000E+03 0. -1.
       11    1    1    2    0    0  0.71877701846E-03  0.40500144618E-02  0.37571496529E-01  0.37799442219E-01  0.51109989000E-03 0. -1.
     -623    1    1    2    0    0 -0.87866099940E-03  0.47491405671E-03  0.14926363428E-02  0.17130000001E+03  0.17130000000E+03 0. -1.
      622    1    1    2    0    0  0.15988398096E-03 -0.45249285185E-02  0.39609358346E+01  0.39622005485E+01  0.10000000000E+00 0. -1.
</event>
<event>
 5   0  0.6262544E+06  0.9118800E+02  0.7818608E-02  0.1180000E+00
       11   -1    0    0    0    0  0.00000000000E+00  0.00000000000E+00  0.39999999673E+01  0.40000000000E+01  0.51109989000E-03 0.  1.
     -623   -1    0    0    0    0  0.00000000000E+00  0.00000000000E+00  0.12525980253E-10  0.17130000000E+03  0.17130000000E+03 0. -1.
       11    1    1    2    0    0  0.88723735549E-03  0.59915835804E-03  0.17980421688E-02  0.21541493916E-02  0.51109989000E-03 0.  1.
     -623    1    1    2    0    0  0.45065815350E-04 -0.26203714153E-02  0.16075912456E-02  0.17130000003E+03  0.17130000000E+03 0. -1.
      622    1    1    2    0    0 -0.93230317084E-03  0.20212130573E-02  0.39965943340E+01  0.39978458231E+01  0.10000000000E+00 0.  1.
</event>
<event>
 5   0  0.6262544E+06  0.9118800E+02  0.7818608E-02  0.1180000E+00
       11   -1    0    0    0    0  0.00000000000E+00  0.00000000000E+00  0.39999999673E+01  0.40000000000E+01  0.51109989000E-03 0.  1.
     -623   -1    0    0    0    0  0.00000000000E+00  0.00000000000E+00  0.12525980253E-10  0.17130000000E+03  0.17130000000E+03 0.  1.
       11    1    1    2    0    0 -0.31156705394E-02 -0.22092104512E-02  0.35720844500E-01  0.35928094419E-01  0.51109989000E-03 0.  1.
     -623    1    1    2    0    0  0.15091747939E-02  0.14410598053E-03  0.14696240370E-02  0.17130000001E+03  0.17130000000E+03 0.  1.
      622    1    1    2    0    0  0.16064957455E-02  0.20651044707E-02  0.39628094989E+01  0.39640718927E+01  0.10000000000E+00 0.  1.
</event>
<event>
 5   0  0.6262544E+06  0.9118800E+02  0.7818608E-02  0.1180000E+00
       11   -1    0    0    0    0  0.00000000000E+00  0.00000000000E+00  0.39999999673E+01  0.40000000000E+01  0.51109989000E-03 0. -1.
     -623   -1    0    0    0    0  0.00000000000E+00  0.00000000000E+00  0.12525980253E-10  0.17130000000E+03  0.17130000000E+03 0. -1.
       11    1    1    2    0    0 -0.18499479756E-02  0.75535089999E-02  0.49200410537E-01  0.49813847732E-01  0.51109989000E-03 0. -1.
     -623    1    1    2    0    0 -0.27509082130E-02 -0.15260515332E-01  0.18902840560E-02  0.17130000071E+03  0.17130000000E+03 0. -1.
      622    1    1    2    0    0  0.46008561886E-02  0.77070063325E-02  0.39489092728E+01  0.39501854401E+01  0.10000000000E+00 0. -1.
</event>
<event>
 5   0  0.6262544E+06  0.9118800E+02  0.7818608E-02  0.1180000E+00
       11   -1    0    0    0    0  0.00000000000E+00  0.00000000000E+00  0.39999999673E+01  0.40000000000E+01  0.51109989000E-03 0. -1.
     -623   -1    0    0    0    0  0.00000000000E+00  0.00000000000E+00  0.12525980253E-10  0.17130000000E+03  0.17130000000E+03 0. -1.
       11    1    1    2    0    0  0.49368780563E-02 -0.22145095832E+00  0.17379492172E+01  0.17520081742E+01  0.51109989000E-03 0. -1.
     -623    1    1    2    0    0 -0.36138264210E-01 -0.25734796881E-01  0.30155779204E-01  0.17130000840E+03  0.17130000000E+03 0. -1.
      622    1    1    2    0    0  0.31201386153E-01  0.24718575521E+00  0.22318949710E+01  0.22479834265E+01  0.10000000000E+00 0.  1.
</event>
<event>
 5   0  0.6262544E+06  0.9118800E+02  0.7818608E-02  0.1180000E+00
       11   -1    0    0    0    0  0.00000000000E+00  0.00000000000E+00  0.39999999673E+01  0.40000000000E+01  0.51109989000E-03 0. -1.
     -623   -1    0    0    0    0  0.00000000000E+00  0.00000000000E+00  0.12525980253E-10  0.17130000000E+03  0.17130000000E+03 0. -1.
       11    1    1    2    0    0  0.85049364957E-03  0.19659255453E-02  0.54862323461E-01  0.54906501982E-01  0.51109989000E-03 0. -1.
     -623    1    1    2    0    0 -0.15021624306E-03  0.26663873327E-02  0.13145551512E-02  0.17130000003E+03  0.17130000000E+03 0. -1.
      622    1    1    2    0    0 -0.70027740652E-03 -0.46323128780E-02  0.39438230887E+01  0.39450934722E+01  0.10000000000E+00 0. -1.
</event>
<event>
 5   0  0.6262544E+06  0.9118800E+02  0.7818608E-02  0.1180000E+00
       11   -1    0    0    0    0  0.00000000000E+00  0.00000000000E+00  0.39999999673E+01  0.40000000000E+01  0.51109989000E-03 0.  1.
     -623   -1    0    0    0    0  0.00000000000E+00  0.00000000000E+00  0.12525980253E-10  0.17130000000E+03  0.17130000000E+03 0.  1.
       11    1    1    2    0    0 -0.17937498735E-01  0.32153230900E-01  0.35012862116E+00  0.35205950732E+00  0.51109989000E-03 0.  1.
     -623    1    1    2    0    0  0.39960634526E-02 -0.68760345850E-02  0.34162261697E-02  0.17130000022E+03  0.17130000000E+03 0.  1.
      622    1    1    2    0    0  0.13941435283E-01 -0.25277196315E-01  0.36464551202E+01  0.36479402742E+01  0.10000000000E+00 0.  0.
</event>
<event>
 5   0  0.6262544E+06  0.9118800E+02  0.7818608E-02  0.1180000E+00
       11   -1    0    0    0    0  0.00000000000E+00  0.00000000000E+00  0.39999999673E+01  0.40000000000E+01  0.51109989000E-03 0. -1.
     -623   -1    0    0    0    0  0.00000000000E+00  0.00000000000E+00  0.12525980253E-10  0.17130000000E+03  0.17130000000E+03 0. -1.
       11    1    1    2    0    0  0.29831662247E-03 -0.19146200100E-02  0.13113244272E-01  0.13265487536E-01  0.51109989000E-03 0. -1.
     -623    1    1    2    0    0  0.59604377402E-02  0.10343777872E-01  0.14208172946E-02  0.17130000042E+03  0.17130000000E+03 0. -1.
      622    1    1    2    0    0 -0.62587543627E-02 -0.84291578620E-02  0.39854659058E+01  0.39867340906E+01  0.10000000000E+00 0. -1.
</event>
<event>
 5   0  0.6262544E+06  0.9118800E+02  0.7818608E-02  0.1180000E+00
       11   -1    0    0    0    0  0.00000000000E+00  0.00000000000E+00  0.39999999673E+01  0.40000000000E+01  0.51109989000E-03 0. -1.
     -623   -1    0    0    0    0  0.00000000000E+00  0.00000000000E+00  0.12525980253E-10  0.17130000000E+03  0.17130000000E+03 0.  1.
       11    1    1    2    0    0 -0.60961443596E-02  0.54581406905E-03  0.14223174503E+00  0.14236429119E+00  0.51109989000E-03 0. -1.
     -623    1    1    2    0    0  0.50747021832E-03  0.16529425658E-02  0.14335531839E-02  0.17130000001E+03  0.17130000000E+03 0.  1.
      622    1    1    2    0    0  0.55886741413E-02 -0.21987566348E-02  0.38563346691E+01  0.38576356941E+01  0.10000000000E+00 0. -1.
</event>
<event>
 5   0  0.6262544E+06  0.9118800E+02  0.7818608E-02  0.1180000E+00
       11   -1    0    0    0    0  0.00000000000E+00  0.00000000000E+00  0.39999999673E+01  0.40000000000E+01  0.51109989000E-03 0. -1.
     -623   -1    0    0    0    0  0.00000000000E+00  0.00000000000E+00  0.12525980253E-10  0.17130000000E+03  0.17130000000E+03 0. -1.
       11    1    1    2    0    0 -0.59753988589E-02  0.43323485805E-04  0.48775156172E-01  0.49142490282E-01  0.51109989000E-03 0. -1.
     -623    1    1    2    0    0  0.94616779988E-03 -0.17351734954E-02  0.16366358582E-02  0.17130000002E+03  0.17130000000E+03 0. -1.
      622    1    1    2    0    0  0.50292310590E-02  0.16918500097E-02  0.39495881755E+01  0.39508574907E+01  0.10000000000E+00 0. -1.
</event>
<event>
 5   0  0.6262544E+06  0.9118800E+02  0.7818608E-02  0.1180000E+00
       11   -1    0    0    0    0  0.00000000000E+00  0.00000000000E+00  0.39999999673E+01  0.40000000000E+01  0.51109989000E-03 0. -1.
     -623   -1    0    0    0    0  0.00000000000E+00  0.00000000000E+00  0.12525980253E-10  0.17130000000E+03  0.17130000000E+03 0.  1.
       11    1    1    2    0    0 -0.14308391924E-03  0.81708313368E-03 -0.17109701974E-03  0.98923967926E-03  0.51109989000E-03 0. -1.
     -623    1    1    2    0    0  0.21120607256E-03 -0.16731523507E-02  0.24109263053E-02  0.17130000003E+03  0.17130000000E+03 0.  1.
      622    1    1    2    0    0 -0.68122153312E-04  0.85606921693E-03  0.39977601380E+01  0.39990107349E+01  0.10000000000E+00 0. -1.
</event>
<event>
 5   0  0.6262544E+06  0.9118800E+02  0.7818608E-02  0.1180000E+00
       11   -1    0    0    0    0  0.00000000000E+00  0.00000000000E+00  0.39999999673E+01  0.40000000000E+01  0.51109989000E-03 0. -1.
     -623   -1    0    0    0    0  0.00000000000E+00  0.00000000000E+00  0.12525980253E-10  0.17130000000E+03  0.17130000000E+03 0.  1.
       11    1    1    2    0    0  0.31929680648E-01 -0.80720392913E-02  0.13684543738E+00  0.14075367590E+00  0.51109989000E-03 0. -1.
     -623    1    1    2    0    0  0.15993157285E-02 -0.79491867503E-02  0.53832585488E-02  0.17130000028E+03  0.17130000000E+03 0.  1.
      622    1    1    2    0    0 -0.33528996376E-01  0.16021226042E-01  0.38577712715E+01  0.38592460476E+01  0.10000000000E+00 0.  0.
</event>
<event>
 5   0  0.6262544E+06  0.9118800E+02  0.7818608E-02  0.1180000E+00
       11   -1    0    0    0    0  0.00000000000E+00  0.00000000000E+00  0.39999999673E+01  0.40000000000E+01  0.51109989000E-03 0.  1.
     -623   -1    0    0    0    0  0.00000000000E+00  0.00000000000E+00  0.12525980253E-10  0.17130000000E+03  0.17130000000E+03 0.  1.
       11    1    1    2    0    0 -0.11245762444E-01  0.10780656295E-01  0.21274752351E+00  0.21331774354E+00  0.51109989000E-03 0.  1.
     -623    1    1    2    0    0  0.10974506904E-01  0.27594589611E-02  0.19154454668E-02  0.17130000038E+03  0.17130000000E+03 0.  1.
      622    1    1    2    0    0  0.27125553917E-03 -0.13540115256E-01  0.37853369986E+01  0.37866818722E+01  0.10000000000E+00 0.  1.
</event>
<event>
 5   0  0.6262544E+06  0.9118800E+02  0.7818608E-02  0.1180000E+00
       11   -1    0    0    0    0  0.00000000000E+00  0.00000000000E+00  0.39999999673E+01  0.40000000000E+01  0.51109989000E-03 0.  1.
     -623   -1    0    0    0    0  0.00000000000E+00  0.00000000000E+00  0.12525980253E-10  0.17130000000E+03  0.17130000000E+03 0.  1.
       11    1    1    2    0    0 -0.36984439068E-01  0.14046614870E-01  0.33141106816E+00  0.33376445803E+00  0.51109989000E-03 0.  1.
     -623    1    1    2    0    0  0.16453186920E-01 -0.32907243132E-03  0.38014237044E-02  0.17130000083E+03  0.17130000000E+03 0.  1.
      622    1    1    2    0    0  0.20531252147E-01 -0.13717542439E-01  0.36647874755E+01  0.36662347093E+01  0.10000000000E+00 0.  1.
</event>
<event>
 5   0  0.6262544E+06  0.9118800E+02  0.7818608E-02  0.1180000E+00
       11   -1    0    0    0    0  0.00000000000E+00  0.00000000000E+00  0.39999999673E+01  0.40000000000E+01  0.51109989000E-03 0.  1.
     -623   -1    0    0    0    0  0.00000000000E+00  0.00000000000E+00  0.12525980253E-10  0.17130000000E+03  0.17130000000E+03 0. -1.
       11    1    1    2    0    0 -0.16021588658E-01 -0.14449278729E-02  0.10034255449E+00  0.10162513756E+00  0.51109989000E-03 0.  1.
     -623    1    1    2    0    0  0.14604052360E-01 -0.88681890335E-03  0.25669468826E-02  0.17130000064E+03  0.17130000000E+03 0. -1.
      622    1    1    2    0    0  0.14175362973E-02  0.23317467762E-02  0.38970904661E+01  0.38983742185E+01  0.10000000000E+00 0.  1.
</event>
<event>
 5   0  0.6262544E+06  0.9118800E+02  0.7818608E-02  0.1180000E+00
       11   -1    0    0    0    0  0.00000000000E+00  0.00000000000E+00  0.39999999673E+01  0.40000000000E+01  0.51109989000E-03 0. -1.
     -623   -1    0    0    0    0  0.00000000000E+00  0.00000000000E+00  0.12525980253E-10  0.17130000000E+03  0.17130000000E+03 0. -1.
       11    1    1    2    0    0 -0.54668589072E-02  0.25449536836E-02  0.52759417481E-01  0.53105373470E-01  0.51109989000E-03 0. -1.
     -623    1    1    2    0    0  0.41265025628E-03 -0.65058269232E-02  0.16183023874E-02  0.17130000013E+03  0.17130000000E+03 0. -1.
      622    1    1    2    0    0  0.50542086510E-02  0.39608732395E-02  0.39456222475E+01  0.39468944948E+01  0.10000000000E+00 0. -1.
</event>
<event>
 5   0  0.6262544E+06  0.9118800E+02  0.7818608E-02  0.1180000E+00
       11   -1    0    0    0    0  0.00000000000E+00  0.00000000000E+00  0.39999999673E+01  0.40000000000E+01  0.51109989000E-03 0.  1.
     -623   -1    0    0    0    0  0.00000000000E+00  0.00000000000E+00  0.12525980253E-10  0.17130000000E+03  0.17130000000E+03 0.  1.
       11    1    1    2    0    0  0.86612571482E-02 -0.10146046500E-02  0.74034870382E-01  0.74548440987E-01  0.51109989000E-03 0.  1.
     -623    1    1    2    0    0 -0.60283175473E-02  0.45217283915E-02  0.17901091447E-02  0.17130000018E+03  0.17130000000E+03 0.  1.
      622    1    1    2    0    0 -0.26329396008E-02 -0.35071237416E-02  0.39241749879E+01  0.39254513840E+01  0.10000000000E+00 0.  1.
</event>
<event>
 5   0  0.6262544E+06  0.9118800E+02  0.7818608E-02  0.1180000E+00
       11   -1    0    0    0    0  0.00000000000E+00  0.00000000000E+00  0.39999999673E+01  0.40000000000E+01  0.51109989000E-03 0.  1.
     -623   -1    0    0    0    0  0.00000000000E+00  0.00000000000E+00  0.12525980253E-10  0.17130000000E+03  0.17130000000E+03 0. -1.
       11    1    1    2    0    0 -0.25469678519E-02  0.84192498632E-02  0.28824075359E+00  0.28837538742E+00  0.51109989000E-03 0.  1.
     -623    1    1    2    0    0  0.11505776400E-02 -0.15986325360E-02  0.14885144871E-02  0.17130000002E+03  0.17130000000E+03 0. -1.
      622    1    1    2    0    0  0.13963902118E-02 -0.68206173272E-02  0.37102706994E+01  0.37116245950E+01  0.10000000000E+00 0.  1.
</event>
<event>
 5   0  0.6262544E+06  0.9118800E+02  0.7818608E-02  0.1180000E+00
       11   -1    0    0    0    0  0.00000000000E+00  0.00000000000E+00  0.39999999673E+01  0.40000000000E+01  0.51109989000E-03 0. -1.
     -623   -1    0    0    0    0  0.00000000000E+00  0.00000000000E+00  0.12525980253E-10  0.17130000000E+03  0.17130000000E+03 0. -1.
       11    1    1    2    0    0 -0.50440493190E-02 -0.33336758185E-02  0.16233188775E-01  0.17330131805E-01  0.51109989000E-03 0. -1.
     -623    1    1    2    0    0  0.32631786063E-02 -0.10312536403E-02  0.23553889345E-02  0.17130000005E+03  0.17130000000E+03 0. -1.
      622    1    1    2    0    0  0.17808707127E-02  0.43649294588E-02  0.39814113897E+01  0.39826698178E+01  0.10000000000E+00 0. -1.
</event>
<event>
 5   0  0.6262544E+06  0.9118800E+02  0.7818608E-02  0.1180000E+00
       11   -1    0    0    0    0  0.00000000000E+00  0.00000000000E+00  0.39999999673E+01  0.40000000000E+01  0.51109989000E-03 0.  1.
     -623   -1    0    0    0    0  0.00000000000E+00  0.00000000000E+00  0.12525980253E-10  0.17130000000E+03  0.17130000000E+03 0. -1.
       11    1    1    2    0    0  0.23920906377E-01  0.22928447545E-01  0.56629225679E+00  0.56726105524E+00  0.51109989000E-03 0.  1.
     -623    1    1    2    0    0 -0.30702512010E-02  0.45419602246E-02  0.25990629053E-02  0.17130000011E+03  0.17130000000E+03 0. -1.
      622    1    1    2    0    0 -0.20850655176E-01 -0.27470407770E-01  0.34311086476E+01  0.34327388372E+01  0.10000000000E+00 0.  1.
</event>
<event>
 5   0  0.6262544E+06  0.9118800E+02  0.7818608E-02  0.1180000E+00
       11   -1    0    0    0    0  0.00000000000E+00  0.00000000000E+00  0.39999999673E+01  0.40000000000E+01  0.51109989000E-03 0. -1.
     -623   -1    0    0    0    0  0.00000000000E+00  0.00000000000E+00  0.12525980253E-10  0.17130000000E+03  0.17130000000E+03 0.  1.
       11    1    1    2    0    0 -0.49840015044E-02  0.67389672244E-02  0.16697993893E-01  0.18690590449E-01  0.51109989000E-03 0. -1.
     -623    1    1    2    0    0  0.58567883041E-02 -0.10457725711E-01  0.32509136198E-02  0.17130000045E+03  0.17130000000E+03 0.  1.
      622    1    1    2    0    0 -0.87278679963E-03  0.37187584866E-02  0.39800510598E+01  0.39813089594E+01  0.10000000000E+00 0. -1.
</event>
<event>
 5   0  0.6262544E+06  0.9118800E+02  0.7818608E-02  0.1180000E+00
       11   -1    0    0    0    0  0.00000000000E+00  0.00000000000E+00  0.39999999673E+01  0.40000000000E+01  0.51109989000E-03 0.  1.
     -623   -1    0    0    0    0  0.00000000000E+00  0.00000000000E+00  0.12525980253E-10  0.17130000000E+03  0.17130000000E+03 0.  1.
       11    1    1    2    0    0  0.53537698457E-02 -0.22080747501E-02  0.40450941790E+00  0.40455119434E+00  0.51109989000E-03 0.  1.
     -623    1    1    2    0    0  0.14803991566E-02  0.14013100474E-02  0.14392661948E-02  0.17130000002E+03  0.17130000000E+03 0.  1.
      622    1    1    2    0    0 -0.68341690023E-02  0.80676470269E-03  0.35940512833E+01  0.35954487875E+01  0.10000000000E+00 0.  1.
</event>
<event>
 5   0  0.6262544E+06  0.9118800E+02  0.7818608E-02  0.1180000E+00
       11   -1    0    0    0    0  0.00000000000E+00  0.00000000000E+00  0.39999999673E+01  0.40000000000E+01  0.51109989000E-03 0.  1.
     -623   -1    0    0    0    0  0.00000000000E+00  0.00000000000E+00  0.12525980253E-10  0.17130000000E+03  0.17130000000E+03 0. -1.
       11    1    1    2    0    0  0.15120293910E-04 -0.43715855097E-01  0.63585285630E+00  0.63735405569E+00  0.51109989000E-03 0.  1.
     -623    1    1    2    0    0 -0.45069877778E-02  0.36713060154E-03  0.32710576223E-02  0.17130000009E+03  0.17130000000E+03 0. -1.
      622    1    1    2    0    0  0.44918674839E-02  0.43348724495E-01  0.33608760535E+01  0.33626458534E+01  0.10000000000E+00 0.  1.
</event>
<event>
 5   0  0.6262544E+06  0.9118800E+02  0.7818608E-02  0.1180000E+00
       11   -1    0    0    0    0  0.00000000000E+00  0.00000000000E+00  0.39999999673E+01  0.40000000000E+01  0.51109989000E-03 0.  1.
     -623   -1    0    0    0    0  0.00000000000E+00  0.00000000000E+00  0.12525980253E-10  0.17130000000E+03  0.17130000000E+03 0.  1.
       11    1    1    2    0    0  0.84559370402E-03 -0.10342066042E-02  0.14350443284E+00  0.14351156079E+00  0.51109989000E-03 0.  1.
     -623    1    1    2    0    0 -0.11608120251E-02  0.20775032986E-02  0.13040051456E-02  0.17130000002E+03  0.17130000000E+03 0.  1.
      622    1    1    2    0    0  0.31521832109E-03 -0.10432966943E-02  0.38551915293E+01  0.38564884177E+01  0.10000000000E+00 0.  1.
</event>
<event>
 5   0  0.6262544E+06  0.9118800E+02  0.7818608E-02  0.1180000E+00
       11   -1    0    0    0    0  0.00000000000E+00  0.00000000000E+00  0.39999999673E+01  0.40000000000E+01  0.51109989000E-03 0.  1.
     -623   -1    0    0    0    0  0.00000000000E+00  0.00000000000E+00  0.12525980253E-10  0.17130000000E+03  0.17130000000E+03 0. -1.
       11    1    1    2    0    0  0.30481199287E-02  0.44487923069E-02  0.19733941398E-01  0.20463930568E-01  0.51109989000E-03 0.  1.
     -623    1    1    2    0    0  0.28486822838E-04 -0.23755201238E-02  0.19883407086E-02  0.17130000003E+03  0.17130000000E+03 0. -1.
      622    1    1    2    0    0 -0.30766067515E-02 -0.20732721831E-02  0.39782776853E+01  0.39795360415E+01  0.10000000000E+00 0.  1.
</event>
<event>
 5   0  0.6262544E+06  0.9118800E+02  0.7818608E-02  0.1180000E+00
       11   -1    0    0    0    0  0.00000000000E+00  0.00000000000E+00  0.39999999673E+01  0.40000000000E+01  0.51109989000E-03 0. -1.
     -623   -1    0    0    0    0  0.00000000000E+00  0.00000000000E+00  0.12525980253E-10  0.17130000000E+03  0.17130000000E+03 0.  1.
       11    1    1    2    0    0  0.25971236419E-02 -0.66539767579E-02  0.66417842825E-02  0.97670353464E-02  0.51109989000E-03 0. -1.
     -623    1    1    2    0    0 -0.52231210647E-02  0.91990623664E-02  0.43805339508E-02  0.17130000038E+03  0.17130000000E+03 0.  1.
      622    1    1    2    0    0  0.26259974228E-02 -0.25450856086E-02  0.39889776492E+01  0.39902325821E+01  0.10000000000E+00 0. -1.
</event>
<event>
 5   0  0.6262544E+06  0.9118800E+02  0.7818608E-02  0.1180000E+00
       11   -1    0    0    0    0  0.00000000000E+00  0.00000000000E+00  0.39999999673E+01  0.40000000000E+01  0.51109989000E-03 0.  1.
     -623   -1    0    0    0    0  0.00000000000E+00  0.00000000000E+00  0.12525980253E-10  0.17130000000E+03  0.17130000000E+03 0. -1.
       11    1    1    2    0    0  0.24138390279E-02  0.79883566713E-03  0.49796918409E-02  0.56145624231E-02  0.51109989000E-03 0.  1.
     -623    1    1    2    0    0 -0.60000819793E-02 -0.47189445633E-02  0.18905063448E-02  0.17130000018E+03  0.17130000000E+03 0. -1.
      622    1    1    2    0    0  0.35862429517E-02  0.39201088964E-02  0.39931297694E+01  0.39943852573E+01  0.10000000000E+00 0.  1.
</event>
<event>
 5   0  0.6262544E+06  0.9118800E+02  0.7818608E-02  0.1180000E+00
       11   -1    0    0    0    0  0.00000000000E+00  0.00000000000E+00  0.39999999673E+01  0.40000000000E+01  0.51109989000E-03 0.  1.
     -623   -1    0    0    0    0  0.00000000000E+00  0.00000000000E+00  0.12525980253E-10  0.17130000000E+03  0.17130000000E+03 0.  1.
       11    1    1    2    0    0  0.21647900828E-01 -0.61768893329E-02  0.29708481686E+00  0.29793696514E+00  0.51109989000E-03 0.  1.
     -623    1    1    2    0    0 -0.28517100623E-01 -0.22607239305E-01  0.23251617610E-02  0.17130000388E+03  0.17130000000E+03 0.  1.
      622    1    1    2    0    0  0.68691997955E-02  0.28784128638E-01  0.37005899887E+01  0.37020591536E+01  0.10000000000E+00 0.  1.
</event>
<event>
 5   0  0.6262544E+06  0.9118800E+02  0.7818608E-02  0.1180000E+00
       11   -1    0    0    0    0  0.00000000000E+00  0.00000000000E+00  0.39999999673E+01  0.40000000000E+01  0.51109989000E-03 0.  1.
     -623   -1    0    0    0    0  0.00000000000E+00  0.00000000000E+00  0.12525980253E-10  0.17130000000E+03  0.17130000000E+03 0. -1.
       11    1    1    2    0    0 -0.10973703394E-01 -0.40853078957E-02  0.23251649403E+00  0.23281171174E+00  0.51109989000E-03 0.  1.
     -623    1    1    2    0    0  0.13001926908E-02  0.14093896147E-01  0.16489861062E-02  0.17130000059E+03  0.17130000000E+03 0. -1.
      622    1    1    2    0    0  0.96735107034E-02 -0.10008588251E-01  0.37658344872E+01  0.37671876956E+01  0.10000000000E+00 0.  1.
</event>
<event>
 5   0  0.6262544E+06  0.9118800E+02  0.7818608E-02  0.1180000E+00
       11   -1    0    0    0    0  0.00000000000E+00  0.00000000000E+00  0.39999999673E+01  0.40000000000E+01  0.51109989000E-03 0. -1.
     -623   -1    0    0    0    0  0.00000000000E+00  0.00000000000E+00  0.12525980253E-10  0.17130000000E+03  0.17130000000E+03 0.  1.
       11    1    1    2    0    0 -0.29223535240E-02  0.32426161997E-02  0.76697860182E-01  0.76823679217E-01  0.51109989000E-03 0. -1.
     -623    1    1    2    0    0 -0.13213277573E-01 -0.29461710355E-02  0.14342163588E-02  0.17130000054E+03  0.17130000000E+03 0.  1.
      622    1    1    2    0    0  0.16135631097E-01 -0.29644516421E-03  0.39218678908E+01  0.39231757798E+01  0.10000000000E+00 0. -1.
</event>
<event>
 5   0  0.6262544E+06  0.9118800E+02  0.7818608E-02  0.1180000E+00
       11   -1    0    0    0    0  0.00000000000E+00  0.00000000000E+00  0.39999999673E+01  0.40000000000E+01  0.51109989000E-03 0.  1.
     -623   -1    0    0    0    0  0.00000000000E+00  0.00000000000E+00  0.12525980253E-10  0.17130000000E+03  0.17130000000E+03 0.  1.
       11    1    1    2    0    0 -0.23584702530E-02 -0.28801386772E-01  0.60721367618E+00  0.60790113672E+00  0.51109989000E-03 0.  1.
     -623    1    1    2    0    0 -0.42433389893E-02  0.26115939073E-01  0.21713105342E-02  0.17130000206E+03  0.17130000000E+03 0.  1.
      622    1    1    2    0    0  0.66018092425E-02  0.26854476975E-02  0.33906149808E+01  0.33920968063E+01  0.10000000000E+00 0.  1.
</event>
<event>
 5   0  0.6262544E+06  0.9118800E+02  0.7818608E-02  0.1180000E+00
       11   -1    0    0    0    0  0.00000000000E+00  0.00000000000E+00  0.39999999673E+01  0.40000000000E+01  0.51109989000E-03 0.  1.
     -623   -1    0    0    0    0  0.00000000000E+00  0.00000000000E+00  0.12525980253E-10  0.17130000000E+03  0.17130000000E+03 0.  1.
       11    1    1    2    0    0  0.54757893334E-02 -0.97713467241E-03  0.97613573203E-01  0.97773257886E-01  0.51109989000E-03 0.  1.
     -623    1    1    2    0    0 -0.46453291206E-02  0.37187820319E-02  0.14423434708E-02  0.17130000011E+03  0.17130000000E+03 0.  1.
      622    1    1    2    0    0 -0.83046021262E-03 -0.27416473597E-02  0.39009440509E+01  0.39022266329E+01  0.10000000000E+00 0.  1.
</event>
<event>
 5   0  0.6262544E+06  0.9118800E+02  0.7818608E-02  0.1180000E+00
       11   -1    0    0    0    0  0.00000000000E+00  0.00000000000E+00  0.39999999673E+01  0.40000000000E+01  0.51109989000E-03 0. -1.
     -623   -1    0    0    0    0  0.00000000000E+00  0.00000000000E+00  0.12525980253E-10  0.17130000000E+03  0.17130000000E+03 0.  1.
       11    1    1    2    0    0  0.36316046335E-01 -0.69903796233E-02  0.39066136161E+00  0.39240830943E+00  0.51109989000E-03 0. -1.
     -623    1    1    2    0    0 -0.14387584779E-02 -0.58378364495E-02  0.33247644796E-02  0.17130000014E+03  0.17130000000E+03 0.  1.
      622    1    1    2    0    0 -0.34877287857E-01  0.12828216073E-01  0.36060138414E+01  0.36075915529E+01  0.10000000000E+00 0. -1.
</event>
<event>
 5   0  0.6262544E+06  0.9118800E+02  0.7818608E-02  0.1180000E+00
       11   -1    0    0    0    0  0.00000000000E+00  0.00000000000E+00  0.39999999673E+01  0.40000000000E+01  0.51109989000E-03 0.  1.
     -623   -1    0    0    0    0  0.00000000000E+00  0.00000000000E+00  0.12525980253E-10  0.17130000000E+03  0.17130000000E+03 0.  1.
       11    1    1    2    0    0  0.21181349405E+00 -0.45942119260E-01  0.21318462499E+01  0.21428355815E+01  0.51109989000E-03 0.  1.
     -623    1    1    2    0    0 -0.45120752353E-01 -0.32095139808E-01  0.22850356796E-01  0.17130001047E+03  0.17130000000E+03 0.  1.
      622    1    1    2    0    0 -0.16669274170E+00  0.78037259068E-01  0.18453033606E+01  0.18571539453E+01  0.10000000000E+00 0. -1.
</event>
<event>
 5   0  0.6262544E+06  0.9118800E+02  0.7818608E-02  0.1180000E+00
       11   -1    0    0    0    0  0.00000000000E+00  0.00000000000E+00  0.39999999673E+01  0.40000000000E+01  0.51109989000E-03 0. -1.
     -623   -1    0    0    0    0  0.00000000000E+00  0.00000000000E+00  0.12525980253E-10  0.17130000000E+03  0.17130000000E+03 0. -1.
       11    1    1    2    0    0 -0.33310009646E-03  0.47505663092E-02  0.10568827155E-01  0.11603454838E-01  0.51109989000E-03 0. -1.
     -623    1    1    2    0    0 -0.66206175941E-02 -0.57828074446E-02  0.22948671433E-02  0.17130000024E+03  0.17130000000E+03 0. -1.
      622    1    1    2    0    0  0.69537176906E-02  0.10322411355E-02  0.39871362731E+01  0.39883963042E+01  0.10000000000E+00 0. -1.
</event>
<event>
 5   0  0.6262544E+06  0.9118800E+02  0.7818608E-02  0.1180000E+00
       11   -1    0    0    0    0  0.00000000000E+00  0.00000000000E+00  0.39999999673E+01  0.40000000000E+01  0.51109989000E-03 0. -1.
     -623   -1    0    0    0    0  0.00000000000E+00  0.00000000000E+00  0.12525980253E-10  0.17130000000E+03  0.17130000000E+03 0.  1.
       11    1    1    2    0    0  0.21009487284E-02  0.20195318930E-02  0.75282428135E-02  0.80887673304E-02  0.51109989000E-03 0. -1.
     -623    1    1    2    0    0  0.22732290257E-02 -0.36348066043E-02  0.18160087761E-02  0.17130000006E+03  0.17130000000E+03 0.  1.
      622    1    1    2    0    0 -0.43741777541E-02  0.16152747112E-02  0.39906557158E+01  0.39919111694E+01  0.10000000000E+00 0. -1.
</event>
<event>
 5   0  0.6262544E+06  0.9118800E+02  0.7818608E-02  0.1180000E+00
       11   -1    0    0    0    0  0.00000000000E+00  0.00000000000E+00  0.39999999673E+01  0.40000000000E+01  0.51109989000E-03 0.  1.
     -623   -1    0    0    0    0  0.00000000000E+00  0.00000000000E+00  0.12525980253E-10  0.17130000000E+03  0.17130000000E+03 0.  1.
       11    1    1    2    0    0  0.32921969800E-01 -0.12215510982E-01  0.40471904507E+00  0.40623988168E+00  0.51109989000E-03 0.  1.
     -623    1    1    2    0    0  0.24987238155E-02  0.19208598293E-02  0.31018103318E-02  0.17130000006E+03  0.17130000000E+03 0.  1.
      622    1    1    2    0    0 -0.35420693615E-01  0.10294651153E-01  0.35921791119E+01  0.35937600611E+01  0.10000000000E+00 0.  1.
</event>
<event>
 5   0  0.6262544E+06  0.9118800E+02  0.7818608E-02  0.1180000E+00
       11   -1    0    0    0    0  0.00000000000E+00  0.00000000000E+00  0.39999999673E+01  0.40000000000E+01  0.51109989000E-03 0. -1.
     -623   -1    0    0    0    0  0.00000000000E+00  0.00000000000E+00  0.12525980253E-10  0.17130000000E+03  0.17130000000E+03 0. -1.
       11    1    1    2    0    0 -0.26822298049E-01  0.31728148943E-02  0.22257227470E+00  0.22420566700E+00  0.51109989000E-03 0. -1.
     -623    1    1    2    0    0 -0.29938757505E-02 -0.51070439189E-02  0.30762094738E-02  0.17130000013E+03  0.17130000000E+03 0. -1.
      622    1    1    2    0    0  0.29816173800E-01  0.19342290246E-02  0.37743514832E+01  0.37757942031E+01  0.10000000000E+00 0. -1.
</event>
<event>
 5   0  0.6262544E+06  0.9118800E+02  0.7818608E-02  0.1180000E+00
       11   -1    0    0    0    0  0.00000000000E+00  0.00000000000E+00  0.39999999673E+01  0.40000000000E+01  0.51109989000E-03 0. -1.
     -623   -1    0    0    0    0  0.00000000000E+00  0.00000000000E+00  0.12525980253E-10  0.17130000000E+03  0.17130000000E+03 0.  1.
       11    1    1    2    0    0 -0.18194610730E-02 -0.13415557091E-02  0.72267671801E-02  0.75893080903E-02  0.51109989000E-03 0. -1.
     -623    1    1    2    0    0  0.19009404222E-01  0.75504876171E-02  0.16581588511E-02  0.17130000123E+03  0.17130000000E+03 0.  1.
      622    1    1    2    0    0 -0.17189943150E-01 -0.62089319084E-02  0.39911150415E+01  0.39924094629E+01  0.10000000000E+00 0. -1.
</event>
<event>
 5   0  0.6262544E+06  0.9118800E+02  0.7818608E-02  0.1180000E+00
       11   -1    0    0    0    0  0.00000000000E+00  0.00000000000E+00  0.39999999673E+01  0.40000000000E+01  0.51109989000E-03 0. -1.
     -623   -1    0    0    0    0  0.00000000000E+00  0.00000000000E+00  0.12525980253E-10  0.17130000000E+03  0.17130000000E+03 0. -1.
       11    1    1    2    0    0  0.23882652540E-01 -0.19695741257E+00  0.25115389180E+01  0.25193631341E+01  0.51109989000E-03 0. -1.
     -623    1    1    2    0    0  0.39117921040E-02  0.13493396736E-01  0.22907327781E-01  0.17130000211E+03  0.17130000000E+03 0. -1.
      622    1    1    2    0    0 -0.27794444644E-01  0.18346401584E+00  0.14655537215E+01  0.14806347581E+01  0.10000000000E+00 0. -1.
</event>
<event>
 5   0  0.6262544E+06  0.9118800E+02  0.7818608E-02  0.1180000E+00
       11   -1    0    0    0    0  0.00000000000E+00  0.00000000000E+00  0.39999999673E+01  0.40000000000E+01  0.51109989000E-03 0. -1.
     -623   -1    0    0    0    0  0.00000000000E+00  0.00000000000E+00  0.12525980253E-10  0.17130000000E+03  0.17130000000E+03 0.  1.
       11    1    1    2    0    0  0.59446821065E-01 -0.99773231333E-02  0.38939077565E+00  0.39402907113E+00  0.51109989000E-03 0. -1.
     -623    1    1    2    0    0 -0.26344720011E-01 -0.99590667602E-02  0.62346807951E-02  0.17130000243E+03  0.17130000000E+03 0.  1.
      622    1    1    2    0    0 -0.33102101054E-01  0.19936389893E-01  0.36043745109E+01  0.36059685001E+01  0.10000000000E+00 0. -1.
</event>
<event>
 5   0  0.6262544E+06  0.9118800E+02  0.7818608E-02  0.1180000E+00
       11   -1    0    0    0    0  0.00000000000E+00  0.00000000000E+00  0.39999999673E+01  0.40000000000E+01  0.51109989000E-03 0. -1.
     -623   -1    0    0    0    0  0.00000000000E+00  0.00000000000E+00  0.12525980253E-10  0.17130000000E+03  0.17130000000E+03 0.  1.
       11    1    1    2    0    0  0.65815644677E-02 -0.12272674670E-01  0.27387963199E-01  0.30729420523E-01  0.51109989000E-03 0. -1.
     -623    1    1    2    0    0 -0.28879775272E-02 -0.24773947174E-02  0.46305407902E-02  0.17130000010E+03  0.17130000000E+03 0.  1.
      622    1    1    2    0    0 -0.36935869405E-02  0.14750069388E-01  0.39679814633E+01  0.39692704746E+01  0.10000000000E+00 0. -1.
</event>
<event>
 5   0  0.6262544E+06  0.9118800E+02  0.7818608E-02  0.1180000E+00
       11   -1    0    0    0    0  0.00000000000E+00  0.00000000000E+00  0.39999999673E+01  0.40000000000E+01  0.51109989000E-03 0.  1.
     -623   -1    0    0    0    0  0.00000000000E+00  0.00000000000E+00  0.12525980253E-10  0.17130000000E+03  0.17130000000E+03 0.  1.
       11    1    1    2    0    0  0.44951545416E-01 -0.28967153495E-01  0.86129004198E+00  0.86294874416E+00  0.51109989000E-03 0.  1.
     -623    1    1    2    0    0  0.96303099318E-02  0.97235310261E-02  0.37876945736E-02  0.17130000059E+03  0.17130000000E+03 0.  1.
      622    1    1    2    0    0 -0.54581855348E-01  0.19243622469E-01  0.31349222308E+01  0.31370506673E+01  0.10000000000E+00 0.  1.
</event>
<event>
 5   0  0.6262544E+06  0.9118800E+02  0.7818608E-02  0.1180000E+00
       11   -1    0    0    0    0  0.00000000000E+00  0.00000000000E+00  0.39999999673E+01  0.40000000000E+01  0.51109989000E-03 0. -1.
     -623   -1    0    0    0    0  0.00000000000E+00  0.00000000000E+00  0.12525980253E-10  0.17130000000E+03  0.17130000000E+03 0.  1.
       11    1    1    2    0    0  0.62308069438E-01 -0.30996416473E-01  0.43932524019E+00  0.44480332872E+00  0.51109989000E-03 0. -1.
     -623    1    1    2    0    0  0.14882719114E-01  0.14452676342E-01  0.77630936722E-02  0.17130000143E+03  0.17130000000E+03 0.  1.
      622    1    1    2    0    0 -0.77190788551E-01  0.16543740131E-01  0.35529116335E+01  0.35551952392E+01  0.10000000000E+00 0. -1.
</event>
<event>
 5   0  0.6262544E+06  0.9118800E+02  0.7818608E-02  0.1180000E+00
       11   -1    0    0    0    0  0.00000000000E+00  0.00000000000E+00  0.39999999673E+01  0.40000000000E+01  0.51109989000E-03 0. -1.
     -623   -1    0    0    0    0  0.00000000000E+00  0.00000000000E+00  0.12525980253E-10  0.17130000000E+03  0.17130000000E+03 0. -1.
       11    1    1    2    0    0  0.25395374322E-01  0.32070728496E-02  0.16088867533E+00  0.16291297500E+00  0.51109989000E-03 0. -1.
     -623    1    1    2    0    0 -0.22324847755E-01  0.16950323581E-01  0.33840816690E-02  0.17130000233E+03  0.17130000000E+03 0. -1.
      622    1    1    2    0    0 -0.30705265676E-02 -0.20157396431E-01  0.38357272104E+01  0.38370846982E+01  0.10000000000E+00 0. -1.
</event>
<event>
 5   0  0.6262544E+06  0.9118800E+02  0.7818608E-02  0.1180000E+00
       11   -1    0    0    0    0  0.00000000000E+00  0.00000000000E+00  0.39999999673E+01  0.40000000000E+01  0.51109989000E-03 0. -1.
     -623   -1    0    0    0    0  0.00000000000E+00  0.00000000000E+00  0.12525980253E-10  0.17130000000E+03  0.17130000000E+03 0.  1.
       11    1    1    2    0    0 -0.13370083431E-01 -0.70671436589E-01  0.31360360440E+00  0.32174631776E+00  0.51109989000E-03 0. -1.
     -623    1    1    2    0    0  0.29574051657E-01  0.16786908078E-01  0.99365048379E-02  0.17130000366E+03  0.17130000000E+03 0.  1.
      622    1    1    2    0    0 -0.16203968226E-01  0.53884528512E-01  0.36764598581E+01  0.36782500186E+01  0.10000000000E+00 0. -1.
</event>
<event>
 5   0  0.6262544E+06  0.9118800E+02  0.7818608E-02  0.1180000E+00
       11   -1    0    0    0    0  0.00000000000E+00  0.00000000000E+00  0.39999999673E+01  0.40000000000E+01  0.51109989000E-03 0. -1.
     -623   -1    0    0    0    0  0.00000000000E+00  0.00000000000E+00  0.12525980253E-10  0.17130000000E+03  0.17130000000E+03 0.  1.
       11    1    1    2    0    0  0.65689325996E-02  0.15594603682E-01  0.88106892628E-01  0.89718606159E-01  0.51109989000E-03 0. -1.
     -623    1    1    2    0    0  0.38612130692E-02 -0.89736321247E-02  0.29103960858E-02  0.17130000030E+03  0.17130000000E+03 0.  1.
      622    1    1    2    0    0 -0.10430145669E-01 -0.66209715576E-02  0.39089826787E+01  0.39102810906E+01  0.10000000000E+00 0. -1.
</event>
<event>
 5   0  0.6262544E+06  0.9118800E+02  0.7818608E-02  0.1180000E+00
       11   -1    0    0    0    0  0.00000000000E+00  0.00000000000E+00  0.39999999673E+01  0.40000000000E+01  0.51109989000E-03 0. -1.
     -623   -1    0    0    0    0  0.00000000000E+00  0.00000000000E+00  0.12525980253E-10  0.17130000000E+03  0.17130000000E+03 0. -1.
       11    1    1    2    0    0  0.14324358888E-01  0.65411207177E-02  0.50276805342E-01  0.52687682586E-01  0.51109989000E-03 0. -1.
     -623    1    1    2    0    0 -0.11820185296E-02 -0.27523719475E-02  0.37015030553E-02  0.17130000007E+03  0.17130000000E+03 0. -1.
      622    1    1    2    0    0 -0.13142340358E-01 -0.37887487701E-02  0.39460216590E+01  0.39473122513E+01  0.10000000000E+00 0.  0.
</event>
<event>
 5   0  0.6262544E+06  0.9118800E+02  0.7818608E-02  0.1180000E+00
       11   -1    0    0    0    0  0.00000000000E+00  0.00000000000E+00  0.39999999673E+01  0.40000000000E+01  0.51109989000E-03 0. -1.
     -623   -1    0    0    0    0  0.00000000000E+00  0.00000000000E+00  0.12525980253E-10  0.17130000000E+03  0.17130000000E+03 0.  1.
       11    1    1    2    0    0  0.60975137272E-02 -0.68597011841E-02  0.11150730425E-01  0.14451130962E-01  0.51109989000E-03 0. -1.
     -623    1    1    2    0    0 -0.13240283181E-01  0.77267515657E-02  0.45623415849E-02  0.17130000075E+03  0.17130000000E+03 0.  1.
      622    1    1    2    0    0  0.71427694534E-02 -0.86705038166E-03  0.39842868954E+01  0.39855481224E+01  0.10000000000E+00 0. -1.
</event>
<event>
 5   0  0.6262544E+06  0.9118800E+02  0.7818608E-02  0.1180000E+00
       11   -1    0    0    0    0  0.00000000000E+00  0.00000000000E+00  0.39999999673E+01  0.40000000000E+01  0.51109989000E-03 0. -1.
     -623   -1    0    0    0    0  0.00000000000E+00  0.00000000000E+00  0.12525980253E-10  0.17130000000E+03  0.17130000000E+03 0. -1.
       11    1    1    2    0    0 -0.45787668280E-02  0.90566704153E-02  0.65049987305E+00  0.65057922996E+00  0.51109989000E-03 0. -1.
     -623    1    1    2    0    0  0.33550063644E-02 -0.22612268533E-04  0.15849051489E-02  0.17130000004E+03  0.17130000000E+03 0. -1.
      622    1    1    2    0    0  0.12237604633E-02 -0.90340581467E-02  0.33479151895E+01  0.33494207302E+01  0.10000000000E+00 0. -1.
</event>
<event>
 5   0  0.6262544E+06  0.9118800E+02  0.7818608E-02  0.1180000E+00
       11   -1    0    0    0    0  0.00000000000E+00  0.00000000000E+00  0.39999999673E+01  0.40000000000E+01  0.51109989000E-03 0. -1.
     -623   -1    0    0    0    0  0.00000000000E+00  0.00000000000E+00  0.12525980253E-10  0.17130000000E+03  0.17130000000E+03 0. -1.
       11    1    1    2    0    0  0.74807299044E-01 -0.31470997681E-01  0.22645204378E+01  0.22659743225E+01  0.51109989000E-03 0. -1.
     -623    1    1    2    0    0  0.85096288426E-02  0.45154358373E-02  0.65563493778E-02  0.17130000040E+03  0.17130000000E+03 0. -1.
      622    1    1    2    0    0 -0.83316927886E-01  0.26955561843E-01  0.17289231802E+01  0.17340252812E+01  0.10000000000E+00 0.  1.
</event>
<event>
 5   0  0.6262544E+06  0.9118800E+02  0.7818608E-02  0.1180000E+00
       11   -1    0    0    0    0  0.00000000000E+00  0.00000000000E+00  0.39999999673E+01  0.40000000000E+01  0.51109989000E-03 0.  1.
     -623   -1    0    0    0    0  0.00000000000E+00  0.00000000000E+00  0.12525980253E-10  0.17130000000E+03  0.17130000000E+03 0. -1.
       11    1    1    2    0    0 -0.43298061391E-02 -0.18183666401E-01  0.39997016917E-01  0.44152186020E-01  0.51109989000E-03 0.  1.
     -623    1    1    2    0    0  0.29176255129E-03  0.17994705221E-01  0.54223877093E-02  0.17130000103E+03  0.17130000000E+03 0. -1.
      622    1    1    2    0    0  0.40380435878E-02  0.18896117977E-03  0.39545805628E+01  0.39558467828E+01  0.10000000000E+00 0.  1.
</event>
<event>
 5   0  0.6262544E+06  0.9118800E+02  0.7818608E-02  0.1180000E+00
       11   -1    0    0    0    0  0.00000000000E+00  0.00000000000E+00  0.39999999673E+01  0.40000000000E+01  0.51109989000E-03 0. -1.
     -623   -1    0    0    0    0  0.00000000000E+00  0.00000000000E+00  0.12525980253E-10  0.17130000000E+03  0.17130000000E+03 0.  1.
       11    1    1    2    0    0  0.96331230365E-02  0.17073981631E-01  0.17752763613E+01  0.17753846733E+01  0.51109989000E-03 0. -1.
     -623    1    1    2    0    0 -0.11776180869E-01  0.27220800998E-02  0.24466430827E-02  0.17130000044E+03  0.17130000000E+03 0.  1.
      622    1    1    2    0    0  0.21430578326E-02 -0.19796061730E-01  0.22222769630E+01  0.22246148829E+01  0.10000000000E+00 0.  1.
</event>
<event>
 5   0  0.6262544E+06  0.9118800E+02  0.7818608E-02  0.1180000E+00
       11   -1    0    0    0    0  0.00000000000E+00  0.00000000000E+00  0.39999999673E+01  0.40000000000E+01  0.51109989000E-03 0. -1.
     -623   -1    0    0    0    0  0.00000000000E+00  0.00000000000E+00  0.12525980253E-10  0.17130000000E+03  0.17130000000E+03 0. -1.
       11    1    1    2    0    0  0.40112863601E-02 -0.44636763190E-02  0.87435789812E-01  0.87642988235E-01  0.51109989000E-03 0. -1.
     -623    1    1    2    0    0  0.12619321540E-02  0.36574227916E-02  0.14890647294E-02  0.17130000005E+03  0.17130000000E+03 0. -1.
      622    1    1    2    0    0 -0.52732185141E-02  0.80625352745E-03  0.39110751128E+01  0.39123569616E+01  0.10000000000E+00 0. -1.
</event>
<event>
 5   0  0.6262544E+06  0.9118800E+02  0.7818608E-02  0.1180000E+00
       11   -1    0    0    0    0  0.00000000000E+00  0.00000000000E+00  0.39999999673E+01  0.40000000000E+01  0.51109989000E-03 0.  1.
     -623   -1    0    0    0    0  0.00000000000E+00  0.00000000000E+00  0.12525980253E-10  0.17130000000E+03  0.17130000000E+03 0. -1.
       11    1    1    2    0    0  0.16359116642E-01  0.60880178920E-01  0.18089877887E+01  0.18100859366E+01  0.51109989000E-03 0.  1.
     -623    1    1    2    0    0  0.88613946224E-02  0.19355157840E-01  0.50012663065E-02  0.17130000140E+03  0.17130000000E+03 0. -1.
      622    1    1    2    0    0 -0.25220511264E-01 -0.80235336760E-01  0.21860109123E+01  0.21899126677E+01  0.10000000000E+00 0.  0.
</event>
<event>
 5   0  0.6262544E+06  0.9118800E+02  0.7818608E-02  0.1180000E+00
       11   -1    0    0    0    0  0.00000000000E+00  0.00000000000E+00  0.39999999673E+01  0.40000000000E+01  0.51109989000E-03 0. -1.
     -623   -1    0    0    0    0  0.00000000000E+00  0.00000000000E+00  0.12525980253E-10  0.17130000000E+03  0.17130000000E+03 0.  1.
       11    1    1    2    0    0  0.18929330606E-02 -0.19523535713E-01  0.35358438481E-01  0.40438002390E-01  0.51109989000E-03 0. -1.
     -623    1    1    2    0    0 -0.26897704272E-01  0.80862182192E-02  0.64404262692E-02  0.17130000242E+03  0.17130000000E+03 0.  1.
      622    1    1    2    0    0  0.25004771211E-01  0.11437317494E-01  0.39582011027E+01  0.39595595740E+01  0.10000000000E+00 0. -1.
</event>
<event>
 5   0  0.6262544E+06  0.9118800E+02  0.7818608E-02  0.1180000E+00
       11   -1    0    0    0    0  0.00000000000E+00  0.00000000000E+00  0.39999999673E+01  0.40000000000E+01  0.51109989000E-03 0. -1.
     -623   -1    0    0    0    0  0.00000000000E+00  0.00000000000E+00  0.12525980253E-10  0.17130000000E+03  0.17130000000E+03 0.  1.
       11    1    1    2    0    0  0.52464418412E-01  0.55405976274E-01  0.91414960220E+00  0.91732878175E+00  0.51109989000E-03 0. -1.
     -623    1    1    2    0    0 -0.82187764876E-02  0.51428924071E-02  0.57146996037E-02  0.17130000037E+03  0.17130000000E+03 0.  1.
      622    1    1    2    0    0 -0.44245641925E-01 -0.60548868681E-01  0.30801356656E+01  0.30826708486E+01  0.10000000000E+00 0. -1.
</event>
<event>
 5   0  0.6262544E+06  0.9118800E+02  0.7818608E-02  0.1180000E+00
       11   -1    0    0    0    0  0.00000000000E+00  0.00000000000E+00  0.39999999673E+01  0.40000000000E+01  0.51109989000E-03 0. -1.
     -623   -1    0    0    0    0  0.00000000000E+00  0.00000000000E+00  0.12525980253E-10  0.17130000000E+03  0.17130000000E+03 0. -1.
       11    1    1    2    0    0  0.21321303293E-01  0.74347981587E-02  0.21624416983E-01  0.31269007511E-01  0.51109989000E-03 0. -1.
     -623    1    1    2    0    0  0.38700432586E-01 -0.32102880043E-01  0.11443113703E-01  0.17130000776E+03  0.17130000000E+03 0. -1.
      622    1    1    2    0    0 -0.60021735880E-01  0.24668081884E-01  0.39669324367E+01  0.39687232305E+01  0.10000000000E+00 0. -1.
</event>
<event>
 5   0  0.6262544E+06  0.9118800E+02  0.7818608E-02  0.1180000E+00
       11   -1    0    0    0    0  0.00000000000E+00  0.00000000000E+00  0.39999999673E+01  0.40000000000E+01  0.51109989000E-03 0. -1.
     -623   -1    0    0    0    0  0.00000000000E+00  0.00000000000E+00  0.12525980253E-10  0.17130000000E+03  0.17130000000E+03 0.  1.
       11    1    1    2    0    0 -0.30234767111E-01  0.19701532709E-01  0.23190821308E+01  0.23193629474E+01  0.51109989000E-03 0. -1.
     -623    1    1    2    0    0  0.19046439123E-01 -0.28774645257E-01  0.33238417705E-02  0.17130000351E+03  0.17130000000E+03 0.  1.
      622    1    1    2    0    0  0.11188327988E-01  0.90731125478E-02  0.16775939948E+01  0.16806335447E+01  0.10000000000E+00 0. -1.
</event>
<event>
 5   0  0.6262544E+06  0.9118800E+02  0.7818608E-02  0.1180000E+00
       11   -1    0    0    0    0  0.00000000000E+00  0.00000000000E+00  0.39999999673E+01  0.40000000000E+01  0.51109989000E-03 0. -1.
     -623   -1    0    0    0    0  0.00000000000E+00  0.00000000000E+00  0.12525980253E-10  0.17130000000E+03  0.17130000000E+03 0.  1.
       11    1    1    2    0    0 -0.79413404034E-02  0.24495020860E-04  0.23129181954E-02  0.82871165724E-02  0.51109989000E-03 0. -1.
     -623    1    1    2    0    0  0.44287639644E-02  0.30757803325E-02  0.72299452417E-02  0.17130000024E+03  0.17130000000E+03 0.  1.
      622    1    1    2    0    0  0.35125764390E-02 -0.31002753534E-02  0.39904571040E+01  0.39917126460E+01  0.10000000000E+00 0. -1.
</event>
<event>
 5   0  0.6262544E+06  0.9118800E+02  0.7818608E-02  0.1180000E+00
       11   -1    0    0    0    0  0.00000000000E+00  0.00000000000E+00  0.39999999673E+01  0.40000000000E+01  0.51109989000E-03 0.  1.
     -623   -1    0    0    0    0  0.00000000000E+00  0.00000000000E+00  0.12525980253E-10  0.17130000000E+03  0.17130000000E+03 0. -1.
       11    1    1    2    0    0 -0.60747871365E-01  0.46953443367E-01  0.72988752621E-01  0.10593653265E+00  0.51109989000E-03 0.  1.
     -623    1    1    2    0    0  0.25701367335E-01  0.17963192888E-02  0.34700457763E-01  0.17130000545E+03  0.17130000000E+03 0. -1.
      622    1    1    2    0    0  0.35046504030E-01 -0.48749762656E-01  0.38923107570E+01  0.38940580152E+01  0.10000000000E+00 0.  1.
</event>
<event>
 5   0  0.6262544E+06  0.9118800E+02  0.7818608E-02  0.1180000E+00
       11   -1    0    0    0    0  0.00000000000E+00  0.00000000000E+00  0.39999999673E+01  0.40000000000E+01  0.51109989000E-03 0. -1.
     -623   -1    0    0    0    0  0.00000000000E+00  0.00000000000E+00  0.12525980253E-10  0.17130000000E+03  0.17130000000E+03 0.  1.
       11    1    1    2    0    0  0.60662994363E-02  0.30568672701E-02  0.37616269008E-01  0.38228122417E-01  0.51109989000E-03 0. -1.
     -623    1    1    2    0    0 -0.60838952819E-02 -0.16611286053E-02  0.18744557809E-02  0.17130000013E+03  0.17130000000E+03 0.  1.
      622    1    1    2    0    0  0.17595845901E-04 -0.13957386647E-02  0.39605092428E+01  0.39617717514E+01  0.10000000000E+00 0. -1.
</event>
<event>
 5   0  0.6262544E+06  0.9118800E+02  0.7818608E-02  0.1180000E+00
       11   -1    0    0    0    0  0.00000000000E+00  0.00000000000E+00  0.39999999673E+01  0.40000000000E+01  0.51109989000E-03 0.  1.
     -623   -1    0    0    0    0  0.00000000000E+00  0.00000000000E+00  0.12525980253E-10  0.17130000000E+03  0.17130000000E+03 0. -1.
       11    1    1    2    0    0  0.12046869893E-01 -0.10141659066E-01  0.42265809523E-01  0.45106986161E-01  0.51109989000E-03 0.  1.
     -623    1    1    2    0    0  0.15180143193E-01  0.88886837860E-02  0.42005081720E-02  0.17130000095E+03  0.17130000000E+03 0. -1.
      622    1    1    2    0    0 -0.27227013087E-01  0.12529752795E-02  0.39535336498E+01  0.39548920593E+01  0.10000000000E+00 0.  1.
</event>
<event>
 5   0  0.6262544E+06  0.9118800E+02  0.7818608E-02  0.1180000E+00
       11   -1    0    0    0    0  0.00000000000E+00  0.00000000000E+00  0.39999999673E+01  0.40000000000E+01  0.51109989000E-03 0.  1.
     -623   -1    0    0    0    0  0.00000000000E+00  0.00000000000E+00  0.12525980253E-10  0.17130000000E+03  0.17130000000E+03 0.  1.
       11    1    1    2    0    0  0.27497998767E-02 -0.27131166217E-02  0.35129958068E-01  0.35345403918E-01  0.51109989000E-03 0.  1.
     -623    1    1    2    0    0 -0.41419584963E-02  0.22557502451E-03  0.14778395112E-02  0.17130000006E+03  0.17130000000E+03 0.  1.
      622    1    1    2    0    0  0.13921586198E-02  0.24875415972E-02  0.39633921700E+01  0.39646545397E+01  0.10000000000E+00 0.  1.
</event>
<event>
 5   0  0.6262544E+06  0.9118800E+02  0.7818608E-02  0.1180000E+00
       11   -1    0    0    0    0  0.00000000000E+00  0.00000000000E+00  0.39999999673E+01  0.40000000000E+01  0.51109989000E-03 0. -1.
     -623   -1    0    0    0    0  0.00000000000E+00  0.00000000000E+00  0.12525980253E-10  0.17130000000E+03  0.17130000000E+03 0. -1.
       11    1    1    2    0    0 -0.20789831352E-03  0.27509033288E-01  0.30361826397E+00  0.30486243057E+00  0.51109989000E-03 0. -1.
     -623    1    1    2    0    0  0.20309530672E-02  0.35005840687E-03  0.27030553088E-02  0.17130000003E+03  0.17130000000E+03 0. -1.
      622    1    1    2    0    0 -0.18230547537E-02 -0.27859091695E-01  0.36936786481E+01  0.36951375357E+01  0.10000000000E+00 0. -1.
</event>
<event>
 5   0  0.6262544E+06  0.9118800E+02  0.7818608E-02  0.1180000E+00
       11   -1    0    0    0    0  0.00000000000E+00  0.00000000000E+00  0.39999999673E+01  0.40000000000E+01  0.51109989000E-03 0.  1.
     -623   -1    0    0    0    0  0.00000000000E+00  0.00000000000E+00  0.12525980253E-10  0.17130000000E+03  0.17130000000E+03 0.  1.
       11    1    1    2    0    0  0.18624381809E-02 -0.32517373631E-02  0.42474164143E-02  0.56871997635E-02  0.51109989000E-03 0.  1.
     -623    1    1    2    0    0 -0.16570444743E-03  0.19035984036E-02  0.26923465924E-02  0.17130000003E+03  0.17130000000E+03 0.  1.
      622    1    1    2    0    0 -0.16967337335E-02  0.13481389595E-02  0.39930602044E+01  0.39943127684E+01  0.10000000000E+00 0.  1.
</event>
<event>
 5   0  0.6262544E+06  0.9118800E+02  0.7818608E-02  0.1180000E+00
       11   -1    0    0    0    0  0.00000000000E+00  0.00000000000E+00  0.39999999673E+01  0.40000000000E+01  0.51109989000E-03 0. -1.
     -623   -1    0    0    0    0  0.00000000000E+00  0.00000000000E+00  0.12525980253E-10  0.17130000000E+03  0.17130000000E+03 0. -1.
       11    1    1    2    0    0  0.12510447297E-02  0.53348294455E-02  0.49740274722E-01  0.50043797524E-01  0.51109989000E-03 0. -1.
     -623    1    1    2    0    0 -0.79544150286E-03 -0.54362999797E-02  0.15696527966E-02  0.17130000010E+03  0.17130000000E+03 0. -1.
      622    1    1    2    0    0 -0.45560322683E-03  0.10147053417E-03  0.39486900398E+01  0.39499561071E+01  0.10000000000E+00 0. -1.
</event>
<event>
 5   0  0.6262544E+06  0.9118800E+02  0.7818608E-02  0.1180000E+00
       11   -1    0    0    0    0  0.00000000000E+00  0.00000000000E+00  0.39999999673E+01  0.40000000000E+01  0.51109989000E-03 0. -1.
     -623   -1    0    0    0    0  0.00000000000E+00  0.00000000000E+00  0.12525980253E-10  0.17130000000E+03  0.17130000000E+03 0.  1.
       11    1    1    2    0    0 -0.98309331115E-01 -0.48124274939E-01  0.15172287357E+01  0.15211719061E+01  0.51109989000E-03 0. -1.
     -623    1    1    2    0    0  0.35160206969E-01  0.13270449149E-01  0.70157978722E-02  0.17130000427E+03  0.17130000000E+03 0.  1.
      622    1    1    2    0    0  0.63149124147E-01  0.34853825790E-01  0.24757554339E+01  0.24788238278E+01  0.10000000000E+00 0.  1.
</event>
<event>
 5   0  0.6262544E+06  0.9118800E+02  0.7818608E-02  0.1180000E+00
       11   -1    0    0    0    0  0.00000000000E+00  0.00000000000E+00  0.39999999673E+01  0.40000000000E+01  0.51109989000E-03 0.  1.
     -623   -1    0    0    0    0  0.00000000000E+00  0.00000000000E+00  0.12525980253E-10  0.17130000000E+03  0.17130000000E+03 0.  1.
       11    1    1    2    0    0 -0.18297299508E-02  0.74285953525E-02  0.19423472972E-01  0.20882156642E-01  0.51109989000E-03 0.  1.
     -623    1    1    2    0    0  0.10360530185E-01 -0.72977604100E-02  0.27250496189E-02  0.17130000049E+03  0.17130000000E+03 0.  1.
      622    1    1    2    0    0 -0.85308002349E-02 -0.13083494229E-03  0.39778514449E+01  0.39791173530E+01  0.10000000000E+00 0.  1.
</event>
<event>
 5   0  0.6262544E+06  0.9118800E+02  0.7818608E-02  0.1180000E+00
       11   -1    0    0    0    0  0.00000000000E+00  0.00000000000E+00  0.39999999673E+01  0.40000000000E+01  0.51109989000E-03 0.  1.
     -623   -1    0    0    0    0  0.00000000000E+00  0.00000000000E+00  0.12525980253E-10  0.17130000000E+03  0.17130000000E+03 0.  1.
       11    1    1    2    0    0 -0.58296613358E-01 -0.17196515199E-01  0.90300926133E+00  0.90505259656E+00  0.51109989000E-03 0.  1.
     -623    1    1    2    0    0  0.26513757964E-01 -0.90009571927E-02  0.39358200042E-02  0.17130000233E+03  0.17130000000E+03 0.  1.
      622    1    1    2    0    0  0.31782855393E-01  0.26197472391E-01  0.30930548860E+01  0.30949450699E+01  0.10000000000E+00 0. -1.
</event>
<event>
 5   0  0.6262544E+06  0.9118800E+02  0.7818608E-02  0.1180000E+00
       11   -1    0    0    0    0  0.00000000000E+00  0.00000000000E+00  0.39999999673E+01  0.40000000000E+01  0.51109989000E-03 0.  1.
     -623   -1    0    0    0    0  0.00000000000E+00  0.00000000000E+00  0.12525980253E-10  0.17130000000E+03  0.17130000000E+03 0.  1.
       11    1    1    2    0    0 -0.23465989093E-01  0.15357967876E-01  0.17009336876E+00  0.17239064691E+00  0.51109989000E-03 0.  1.
     -623    1    1    2    0    0  0.35082957795E-02  0.24160505709E-02  0.36971919213E-02  0.17130000009E+03  0.17130000000E+03 0.  1.
      622    1    1    2    0    0  0.19957693314E-01 -0.17774018447E-01  0.38262094066E+01  0.38276092602E+01  0.10000000000E+00 0.  1.
</event>
<event>
 5   0  0.6262544E+06  0.9118800E+02  0.7818608E-02  0.1180000E+00
       11   -1    0    0    0    0  0.00000000000E+00  0.00000000000E+00  0.39999999673E+01  0.40000000000E+01  0.51109989000E-03 0. -1.
     -623   -1    0    0    0    0  0.00000000000E+00  0.00000000000E+00  0.12525980253E-10  0.17130000000E+03  0.17130000000E+03 0.  1.
       11    1    1    2    0    0  0.46094640127E-01 -0.22762539947E-01  0.37602555745E+00  0.37952382027E+00  0.51109989000E-03 0. -1.
     -623    1    1    2    0    0  0.14384875852E-01  0.10282683937E-01  0.54074251440E-02  0.17130000100E+03  0.17130000000E+03 0.  1.
      622    1    1    2    0    0 -0.60479515979E-01  0.12479856010E-01  0.36185669848E+01  0.36204751818E+01  0.10000000000E+00 0. -1.
</event>
<event>
 5   0  0.6262544E+06  0.9118800E+02  0.7818608E-02  0.1180000E+00
       11   -1    0    0    0    0  0.00000000000E+00  0.00000000000E+00  0.39999999673E+01  0.40000000000E+01  0.51109989000E-03 0.  1.
     -623   -1    0    0    0    0  0.00000000000E+00  0.00000000000E+00  0.12525980253E-10  0.17130000000E+03  0.17130000000E+03 0.  1.
       11    1    1    2    0    0 -0.11311472525E-01 -0.21914048604E-01  0.16996955375E+01  0.16998745119E+01  0.51109989000E-03 0.  1.
     -623    1    1    2    0    0 -0.69459471895E-03  0.22695404905E-02  0.24691331181E-02  0.17130000003E+03  0.17130000000E+03 0.  1.
      622    1    1    2    0    0  0.12006067244E-01  0.19644508114E-01  0.22978352968E+01  0.23001254539E+01  0.10000000000E+00 0.  0.
</event>
<event>
 5   0  0.6262544E+06  0.9118800E+02  0.7818608E-02  0.1180000E+00
       11   -1    0    0    0    0  0.00000000000E+00  0.00000000000E+00  0.39999999673E+01  0.40000000000E+01  0.51109989000E-03 0.  1.
     -623   -1    0    0    0    0  0.00000000000E+00  0.00000000000E+00  0.12525980253E-10  0.17130000000E+03  0.17130000000E+03 0. -1.
       11    1    1    2    0    0  0.18045916943E-01  0.75973628249E-02  0.12316059648E+00  0.12470833488E+00  0.51109989000E-03 0.  1.
     -623    1    1    2    0    0 -0.13011727360E-01 -0.12137539491E-01  0.28450255804E-02  0.17130000095E+03  0.17130000000E+03 0. -1.
      622    1    1    2    0    0 -0.50341895829E-02  0.45401766664E-02  0.38739943453E+01  0.38752907174E+01  0.10000000000E+00 0.  1.
</event>
<event>
 5   0  0.6262544E+06  0.9118800E+02  0.7818608E-02  0.1180000E+00
       11   -1    0    0    0    0  0.00000000000E+00  0.00000000000E+00  0.39999999673E+01  0.40000000000E+01  0.51109989000E-03 0.  1.
     -623   -1    0    0    0    0  0.00000000000E+00  0.00000000000E+00  0.12525980253E-10  0.17130000000E+03  0.17130000000E+03 0. -1.
       11    1    1    2    0    0 -0.23962035320E-02 -0.42816966093E-02  0.36210887157E-02  0.61194953881E-02  0.51109989000E-03 0.  1.
     -623    1    1    2    0    0 -0.28339606100E-02 -0.11837395713E-02  0.37577207621E-02  0.17130000007E+03  0.17130000000E+03 0. -1.
      622    1    1    2    0    0  0.52301641421E-02  0.54654361806E-02  0.39926211580E+01  0.39938804360E+01  0.10000000000E+00 0.  1.
</event>
<event>
 5   0  0.6262544E+06  0.9118800E+02  0.7818608E-02  0.1180000E+00
       11   -1    0    0    0    0  0.00000000000E+00  0.00000000000E+00  0.39999999673E+01  0.40000000000E+01  0.51109989000E-03 0.  1.
     -623   -1    0    0    0    0  0.00000000000E+00  0.00000000000E+00  0.12525980253E-10  0.17130000000E+03  0.17130000000E+03 0. -1.
       11    1    1    2    0    0 -0.56306824137E-01 -0.15256776693E-01  0.33224205274E+00  0.33732517029E+00  0.51109989000E-03 0.  1.
     -623    1    1    2    0    0  0.87398954971E-02  0.11057683393E-01  0.67605862655E-02  0.17130000071E+03  0.17130000000E+03 0. -1.
      622    1    1    2    0    0  0.47566928640E-01  0.41990932996E-02  0.36609973284E+01  0.36626741164E+01  0.10000000000E+00 0.  1.
</event>
<event>
 5   0  0.6262544E+06  0.9118800E+02  0.7818608E-02  0.1180000E+00
       11   -1    0    0    0    0  0.00000000000E+00  0.00000000000E+00  0.39999999673E+01  0.40000000000E+01  0.51109989000E-03 0. -1.
     -623   -1    0    0    0    0  0.00000000000E+00  0.00000000000E+00  0.12525980253E-10  0.17130000000E+03  0.17130000000E+03 0. -1.
       11    1    1    2    0    0 -0.44479269036E-02  0.47293880546E-02  0.10020995579E+00  0.10042135046E+00  0.51109989000E-03 0. -1.
     -623    1    1    2    0    0  0.40614899303E-02 -0.56255280962E-03  0.14960644121E-02  0.17130000006E+03  0.17130000000E+03 0. -1.
      622    1    1    2    0    0  0.38643697303E-03 -0.41668352449E-02  0.38982939473E+01  0.38995785941E+01  0.10000000000E+00 0. -1.
</event>
<event>
 5   0  0.6262544E+06  0.9118800E+02  0.7818608E-02  0.1180000E+00
       11   -1    0    0    0    0  0.00000000000E+00  0.00000000000E+00  0.39999999673E+01  0.40000000000E+01  0.51109989000E-03 0.  1.
     -623   -1    0    0    0    0  0.00000000000E+00  0.00000000000E+00  0.12525980253E-10  0.17130000000E+03  0.17130000000E+03 0.  1.
       11    1    1    2    0    0  0.11641386436E-01  0.46328358770E-01  0.59595462180E+00  0.59786621511E+00  0.51109989000E-03 0.  1.
     -623    1    1    2    0    0  0.11630751676E-01 -0.77801852386E-03  0.37666975776E-02  0.17130000044E+03  0.17130000000E+03 0.  1.
      622    1    1    2    0    0 -0.23272138112E-01 -0.45550340246E-01  0.34002786480E+01  0.34021333469E+01  0.10000000000E+00 0.  1.
</event>
<event>
 5   0  0.6262544E+06  0.9118800E+02  0.7818608E-02  0.1180000E+00
       11   -1    0    0    0    0  0.00000000000E+00  0.00000000000E+00  0.39999999673E+01  0.40000000000E+01  0.51109989000E-03 0.  1.
     -623   -1    0    0    0    0  0.00000000000E+00  0.00000000000E+00  0.12525980253E-10  0.17130000000E+03  0.17130000000E+03 0. -1.
       11    1    1    2    0    0 -0.14858581482E-01 -0.33019502902E-02  0.17494054006E+00  0.17560220414E+00  0.51109989000E-03 0.  1.
     -623    1    1    2    0    0  0.10905767797E-02  0.19152409610E-01  0.20279863888E-02  0.17130000109E+03  0.17130000000E+03 0. -1.
      622    1    1    2    0    0  0.13768004702E-01 -0.15850459320E-01  0.38230314409E+01  0.38243967097E+01  0.10000000000E+00 0.  1.
</event>
<event>
 5   0  0.6262544E+06  0.9118800E+02  0.7818608E-02  0.1180000E+00
       11   -1    0    0    0    0  0.00000000000E+00  0.00000000000E+00  0.39999999673E+01  0.40000000000E+01  0.51109989000E-03 0. -1.
     -623   -1    0    0    0    0  0.00000000000E+00  0.00000000000E+00  0.12525980253E-10  0.17130000000E+03  0.17130000000E+03 0.  1.
       11    1    1    2    0    0  0.19737407558E-01  0.29242279316E-01  0.13773800847E+00  0.14218542948E+00  0.51109989000E-03 0. -1.
     -623    1    1    2    0    0  0.60842778674E-03 -0.12738369982E-02  0.58988736487E-02  0.17130000011E+03  0.17130000000E+03 0.  1.
      622    1    1    2    0    0 -0.20345835344E-01 -0.27968442318E-01  0.38563630852E+01  0.38578144631E+01  0.10000000000E+00 0. -1.
</event>
<event>
 5   0  0.6262544E+06  0.9118800E+02  0.7818608E-02  0.1180000E+00
       11   -1    0    0    0    0  0.00000000000E+00  0.00000000000E+00  0.39999999673E+01  0.40000000000E+01  0.51109989000E-03 0.  1.
     -623   -1    0    0    0    0  0.00000000000E+00  0.00000000000E+00  0.12525980253E-10  0.17130000000E+03  0.17130000000E+03 0.  1.
       11    1    1    2    0    0 -0.14508300496E-01  0.18825152880E-02  0.12092124602E+01  0.12093010666E+01  0.51109989000E-03 0.  1.
     -623    1    1    2    0    0 -0.74147669721E-02 -0.45307182143E-02  0.19684722313E-02  0.17130000023E+03  0.17130000000E+03 0.  1.
      622    1    1    2    0    0  0.21923067469E-01  0.26482029266E-02  0.27888190352E+01  0.27906987019E+01  0.10000000000E+00 0.  0.
</event>
<event>
 5   0  0.6262544E+06  0.9118800E+02  0.7818608E-02  0.1180000E+00
       11   -1    0    0    0    0  0.00000000000E+00  0.00000000000E+00  0.39999999673E+01  0.40000000000E+01  0.51109989000E-03 0. -1.
     -623   -1    0    0    0    0  0.00000000000E+00  0.00000000000E+00  0.12525980253E-10  0.17130000000E+03  0.17130000000E+03 0. -1.
       11    1    1    2    0    0 -0.38362221261E-01  0.21157340039E-01  0.13060173306E+00  0.13775473478E+00  0.51109989000E-03 0. -1.
     -623    1    1    2    0    0 -0.16451019562E-01 -0.64921129492E-02  0.88658741295E-02  0.17130000114E+03  0.17130000000E+03 0. -1.
      622    1    1    2    0    0  0.54813240823E-01 -0.14665227090E-01  0.38605323602E+01  0.38622441228E+01  0.10000000000E+00 0. -1.
</event>
<event>
 5   0  0.6262544E+06  0.9118800E+02  0.7818608E-02  0.1180000E+00
       11   -1    0    0    0    0  0.00000000000E+00  0.00000000000E+00  0.39999999673E+01  0.40000000000E+01  0.51109989000E-03 0.  1.
     -623   -1    0    0    0    0  0.00000000000E+00  0.00000000000E+00  0.12525980253E-10  0.17130000000E+03  0.17130000000E+03 0. -1.
       11    1    1    2    0    0 -0.91875815989E-01  0.42503769323E-03  0.17449695426E+01  0.17473867093E+01  0.51109989000E-03 0.  1.
     -623    1    1    2    0    0  0.54413192913E-01 -0.46644359318E-01  0.54395666104E-02  0.17130001508E+03  0.17130000000E+03 0. -1.
      622    1    1    2    0    0  0.37462623076E-01  0.46219321625E-01  0.22495908582E+01  0.22525982116E+01  0.10000000000E+00 0.  1.
</event>
<event>
 5   0  0.6262544E+06  0.9118800E+02  0.7818608E-02  0.1180000E+00
       11   -1    0    0    0    0  0.00000000000E+00  0.00000000000E+00  0.39999999673E+01  0.40000000000E+01  0.51109989000E-03 0.  1.
     -623   -1    0    0    0    0  0.00000000000E+00  0.00000000000E+00  0.12525980253E-10  0.17130000000E+03  0.17130000000E+03 0. -1.
       11    1    1    2    0    0  0.27844008449E-02  0.25189277884E-01  0.13683571813E+00  0.13916367193E+00  0.51109989000E-03 0.  1.
     -623    1    1    2    0    0  0.37168437401E-02  0.36613911609E-04  0.37111897297E-02  0.17130000008E+03  0.17130000000E+03 0. -1.
      622    1    1    2    0    0 -0.65012445849E-02 -0.25225891796E-01  0.38594530595E+01  0.38608362475E+01  0.10000000000E+00 0.  1.
</event>
<event>
 5   0  0.6262544E+06  0.9118800E+02  0.7818608E-02  0.1180000E+00
       11   -1    0    0    0    0  0.00000000000E+00  0.00000000000E+00  0.39999999673E+01  0.40000000000E+01  0.51109989000E-03 0.  1.
     -623   -1    0    0    0    0  0.00000000000E+00  0.00000000000E+00  0.12525980253E-10  0.17130000000E+03  0.17130000000E+03 0. -1.
       11    1    1    2    0    0  0.83524239632E-02 -0.66725064681E-01  0.11434338673E+01  0.11454096505E+01  0.51109989000E-03 0.  1.
     -623    1    1    2    0    0 -0.62139279501E-02  0.73784953615E-02  0.43463312176E-02  0.17130000033E+03  0.17130000000E+03 0. -1.
      622    1    1    2    0    0 -0.21384960132E-02  0.59346569320E-01  0.28522197688E+01  0.28545900228E+01  0.10000000000E+00 0.  0.
</event>
<event>
 5   0  0.6262544E+06  0.9118800E+02  0.7818608E-02  0.1180000E+00
       11   -1    0    0    0    0  0.00000000000E+00  0.00000000000E+00  0.39999999673E+01  0.40000000000E+01  0.51109989000E-03 0. -1.
     -623   -1    0    0    0    0  0.00000000000E+00  0.00000000000E+00  0.12525980253E-10  0.17130000000E+03  0.17130000000E+03 0. -1.
       11    1    1    2    0    0 -0.69132804428E-04  0.83145114832E-03 -0.77114583777E-02  0.77732814027E-02  0.51109989000E-03 0. -1.
     -623    1    1    2    0    0 -0.67599776397E-02  0.34305057208E-03  0.16744305534E-01  0.17130000095E+03  0.17130000000E+03 0. -1.
      622    1    1    2    0    0  0.68291104441E-02 -0.11745017204E-02  0.39909671202E+01  0.39922257665E+01  0.10000000000E+00 0. -1.
</event>
<event>
 5   0  0.6262544E+06  0.9118800E+02  0.7818608E-02  0.1180000E+00
       11   -1    0    0    0    0  0.00000000000E+00  0.00000000000E+00  0.39999999673E+01  0.40000000000E+01  0.51109989000E-03 0. -1.
     -623   -1    0    0    0    0  0.00000000000E+00  0.00000000000E+00  0.12525980253E-10  0.17130000000E+03  0.17130000000E+03 0.  1.
       11    1    1    2    0    0  0.12159161491E-02  0.58931729912E-03  0.25874928182E-02  0.29634589828E-02  0.51109989000E-03 0. -1.
     -623    1    1    2    0    0  0.76459817535E-04 -0.81739205110E-03  0.16272813086E-02  0.17130000001E+03  0.17130000000E+03 0.  1.
      622    1    1    2    0    0 -0.12923759667E-02  0.22807475204E-03  0.39957851936E+01  0.39970365317E+01  0.10000000000E+00 0. -1.
</event>
<event>
 5   0  0.6262544E+06  0.9118800E+02  0.7818608E-02  0.1180000E+00
       11   -1    0    0    0    0  0.00000000000E+00  0.00000000000E+00  0.39999999673E+01  0.40000000000E+01  0.51109989000E-03 0. -1.
     -623   -1    0    0    0    0  0.00000000000E+00  0.00000000000E+00  0.12525980253E-10  0.17130000000E+03  0.17130000000E+03 0.  1.
       11    1    1    2    0    0  0.36690710870E-02  0.18150368679E-01  0.29578561263E+00  0.29636512587E+00  0.51109989000E-03 0. -1.
     -623    1    1    2    0    0  0.21834078099E-02 -0.15667645316E-01  0.19359516328E-02  0.17130000074E+03  0.17130000000E+03 0.  1.
      622    1    1    2    0    0 -0.58524788969E-02 -0.24827233623E-02  0.37022784032E+01  0.37036341329E+01  0.10000000000E+00 0. -1.
</event>
<event>
 5   0  0.6262544E+06  0.9118800E+02  0.7818608E-02  0.1180000E+00
       11   -1    0    0    0    0  0.00000000000E+00  0.00000000000E+00  0.39999999673E+01  0.40000000000E+01  0.51109989000E-03 0. -1.
     -623   -1    0    0    0    0  0.00000000000E+00  0.00000000000E+00  0.12525980253E-10  0.17130000000E+03  0.17130000000E+03 0.  1.
       11    1    1    2    0    0 -0.96248174568E-02 -0.39688015941E-01  0.14379671392E+01  0.14385470206E+01  0.51109989000E-03 0. -1.
     -623    1    1    2    0    0 -0.17549634391E-01 -0.29785365917E-01  0.36234987661E-02  0.17130000353E+03  0.17130000000E+03 0.  1.
      622    1    1    2    0    0  0.27174451848E-01  0.69473381858E-01  0.25584093294E+01  0.25614494526E+01  0.10000000000E+00 0.  0.
</event>
<event>
 5   0  0.6262544E+06  0.9118800E+02  0.7818608E-02  0.1180000E+00
       11   -1    0    0    0    0  0.00000000000E+00  0.00000000000E+00  0.39999999673E+01  0.40000000000E+01  0.51109989000E-03 0. -1.
     -623   -1    0    0    0    0  0.00000000000E+00  0.00000000000E+00  0.12525980253E-10  0.17130000000E+03  0.17130000000E+03 0.  1.
       11    1    1    2    0    0  0.70311250481E-03 -0.11696597884E-01  0.17614154048E+00  0.17653160702E+00  0.51109989000E-03 0. -1.
     -623    1    1    2    0    0  0.30886399877E-02  0.95933344202E-02  0.17007352894E-02  0.17130000030E+03  0.17130000000E+03 0.  1.
      622    1    1    2    0    0 -0.37917524927E-02  0.21032634634E-02  0.38221576917E+01  0.38234680882E+01  0.10000000000E+00 0. -1.
</event>
<event>
 5   0  0.6262544E+06  0.9118800E+02  0.7818608E-02  0.1180000E+00
       11   -1    0    0    0    0  0.00000000000E+00  0.00000000000E+00  0.39999999673E+01  0.40000000000E+01  0.51109989000E-03 0.  1.
     -623   -1    0    0    0    0  0.00000000000E+00  0.00000000000E+00  0.12525980253E-10  0.17130000000E+03  0.17130000000E+03 0.  1.
       11    1    1    2    0    0  0.10344991542E-01  0.88690094163E-02  0.97826499490E+00  0.97836002558E+00  0.51109989000E-03 0.  1.
     -623    1    1    2    0    0 -0.17382337462E-02  0.13380917765E-01  0.18449532996E-02  0.17130000054E+03  0.17130000000E+03 0.  1.
      622    1    1    2    0    0 -0.86067577956E-02 -0.22249927182E-01  0.30198900193E+01  0.30216394332E+01  0.10000000000E+00 0.  0.
</event>
<event>
 5   0  0.6262544E+06  0.9118800E+02  0.7818608E-02  0.1180000E+00
       11   -1    0    0    0    0  0.00000000000E+00  0.00000000000E+00  0.39999999673E+01  0.40000000000E+01  0.51109989000E-03 0. -1.
     -623   -1    0    0    0    0  0.00000000000E+00  0.00000000000E+00  0.12525980253E-10  0.17130000000E+03  0.17130000000E+03 0. -1.
       11    1    1    2    0    0 -0.11957986215E-01 -0.94444710220E-02  0.98034676962E-01  0.99213157270E-01  0.51109989000E-03 0. -1.
     -623    1    1    2    0    0 -0.78871046194E-03  0.39038261883E-02  0.24852848672E-02  0.17130000006E+03  0.17130000000E+03 0. -1.
      622    1    1    2    0    0  0.12746696676E-01  0.55406448337E-02  0.38994800055E+01  0.39007867784E+01  0.10000000000E+00 0. -1.
</event>
<event>
 5   0  0.6262544E+06  0.9118800E+02  0.7818608E-02  0.1180000E+00
       11   -1    0    0    0    0  0.00000000000E+00  0.00000000000E+00  0.39999999673E+01  0.40000000000E+01  0.51109989000E-03 0.  1.
     -623   -1    0    0    0    0  0.00000000000E+00  0.00000000000E+00  0.12525980253E-10  0.17130000000E+03  0.17130000000E+03 0. -1.
       11    1    1    2    0    0  0.33933481945E-02 -0.50867360928E-02  0.58743030416E-01  0.59062632362E-01  0.51109989000E-03 0.  1.
     -623    1    1    2    0    0 -0.35148420925E-03 -0.18377061263E-02  0.15957845499E-02  0.17130000002E+03  0.17130000000E+03 0. -1.
      622    1    1    2    0    0 -0.30418639853E-02  0.69244422191E-02  0.39396611525E+01  0.39409373501E+01  0.10000000000E+00 0.  1.
</event>
<event>
 5   0  0.6262544E+06  0.9118800E+02  0.7818608E-02  0.1180000E+00
       11   -1    0    0    0    0  0.00000000000E+00  0.00000000000E+00  0.39999999673E+01  0.40000000000E+01  0.51109989000E-03 0.  1.
     -623   -1    0    0    0    0  0.00000000000E+00  0.00000000000E+00  0.12525980253E-10  0.17130000000E+03  0.17130000000E+03 0. -1.
       11    1    1    2    0    0 -0.56886509538E-01  0.38131484230E-01  0.40877225449E+00  0.41446966393E+00  0.51109989000E-03 0.  1.
     -623    1    1    2    0    0 -0.36818371410E-02 -0.46671840177E-02  0.77604803452E-02  0.17130000028E+03  0.17130000000E+03 0. -1.
      622    1    1    2    0    0  0.60568346679E-01 -0.33464300212E-01  0.35834672325E+01  0.35855300571E+01  0.10000000000E+00 0.  1.
</event>
<event>
 5   0  0.6262544E+06  0.9118800E+02  0.7818608E-02  0.1180000E+00
       11   -1    0    0    0    0  0.00000000000E+00  0.00000000000E+00  0.39999999673E+01  0.40000000000E+01  0.51109989000E-03 0. -1.
     -623   -1    0    0    0    0  0.00000000000E+00  0.00000000000E+00  0.12525980253E-10  0.17130000000E+03  0.17130000000E+03 0.  1.
       11    1    1    2    0    0 -0.21630070781E-02  0.15565218526E-01  0.17711356635E+00  0.17781009880E+00  0.51109989000E-03 0. -1.
     -623    1    1    2    0    0  0.28354337645E-02  0.68686864321E-03  0.20395347213E-02  0.17130000004E+03  0.17130000000E+03 0.  1.
      622    1    1    2    0    0 -0.67242668640E-03 -0.16252087170E-01  0.38208468663E+01  0.38221898642E+01  0.10000000000E+00 0. -1.
</event>
<event>
 5   0  0.6262544E+06  0.9118800E+02  0.7818608E-02  0.1180000E+00
       11   -1    0    0    0    0  0.00000000000E+00  0.00000000000E+00  0.39999999673E+01  0.40000000000E+01  0.51109989000E-03 0. -1.
     -623   -1    0    0    0    0  0.00000000000E+00  0.00000000000E+00  0.12525980253E-10  0.17130000000E+03  0.17130000000E+03 0. -1.
       11    1    1    2    0    0  0.53304484076E-04 -0.10638137148E-02 -0.57656825497E-03  0.13146083212E-02  0.51109989000E-03 0. -1.
     -623    1    1    2    0    0  0.25077432817E-02 -0.27183738456E-02  0.31444289221E-02  0.17130000007E+03  0.17130000000E+03 0. -1.
      622    1    1    2    0    0 -0.25610477658E-02  0.37821875605E-02  0.39974321068E+01  0.39986853230E+01  0.10000000000E+00 0. -1.
</event>
<event>
 5   0  0.6262544E+06  0.9118800E+02  0.7818608E-02  0.1180000E+00
       11   -1    0    0    0    0  0.00000000000E+00  0.00000000000E+00  0.39999999673E+01  0.40000000000E+01  0.51109989000E-03 0.  1.
     -623   -1    0    0    0    0  0.00000000000E+00  0.00000000000E+00  0.12525980253E-10  0.17130000000E+03  0.17130000000E+03 0.  1.
       11    1    1    2    0    0  0.43112761074E-02  0.44148496862E-02  0.34270934033E-01  0.34825797043E-01  0.51109989000E-03 0.  1.
     -623    1    1    2    0    0 -0.44695203161E-02 -0.20125163895E-02  0.18168205027E-02  0.17130000008E+03  0.17130000000E+03 0.  1.
      622    1    1    2    0    0  0.15824420866E-03 -0.24023332967E-02  0.39639122128E+01  0.39651741232E+01  0.10000000000E+00 0.  1.
</event>
<event>
 5   0  0.6262544E+06  0.9118800E+02  0.7818608E-02  0.1180000E+00
       11   -1    0    0    0    0  0.00000000000E+00  0.00000000000E+00  0.39999999673E+01  0.40000000000E+01  0.51109989000E-03 0.  1.
     -623   -1    0    0    0    0  0.00000000000E+00  0.00000000000E+00  0.12525980253E-10  0.17130000000E+03  0.17130000000E+03 0. -1.
       11    1    1    2    0    0 -0.20845167303E-01 -0.17661916281E-01  0.77938274661E+00  0.77986164877E+00  0.51109989000E-03 0.  1.
     -623    1    1    2    0    0  0.10532358989E-01  0.10173443622E-01  0.20578443644E-02  0.17130000064E+03  0.17130000000E+03 0. -1.
      622    1    1    2    0    0  0.10312808313E-01  0.74884726591E-02  0.32185593765E+01  0.32201377131E+01  0.10000000000E+00 0.  1.
</event>
<event>
 5   0  0.6262544E+06  0.9118800E+02  0.7818608E-02  0.1180000E+00
       11   -1    0    0    0    0  0.00000000000E+00  0.00000000000E+00  0.39999999673E+01  0.40000000000E+01  0.51109989000E-03 0. -1.
     -623   -1    0    0    0    0  0.00000000000E+00  0.00000000000E+00  0.12525980253E-10  0.17130000000E+03  0.17130000000E+03 0.  1.
       11    1    1    2    0    0 -0.30340915008E-01 -0.32254259814E-02  0.55039075377E-01  0.62932785872E-01  0.51109989000E-03 0. -1.
     -623    1    1    2    0    0  0.47901561951E-02 -0.59022963939E-02  0.92578043409E-02  0.17130000042E+03  0.17130000000E+03 0.  1.
      622    1    1    2    0    0  0.25550758812E-01  0.91277223752E-02  0.39357030876E+01  0.39370667953E+01  0.10000000000E+00 0. -1.
</event>
<event>
 5   0  0.6262544E+06  0.9118800E+02  0.7818608E-02  0.1180000E+00
       11   -1    0    0    0    0  0.00000000000E+00  0.00000000000E+00  0.39999999673E+01  0.40000000000E+01  0.51109989000E-03 0.  1.
     -623   -1    0    0    0    0  0.00000000000E+00  0.00000000000E+00  0.12525980253E-10  0.17130000000E+03  0.17130000000E+03 0. -1.
       11    1    1    2    0    0  0.37361335455E-01  0.23810059994E-01  0.38990510786E+00  0.39241437627E+00  0.51109989000E-03 0.  1.
     -623    1    1    2    0    0  0.12332802443E-01  0.19559970867E-01  0.45003345285E-02  0.17130000162E+03  0.17130000000E+03 0. -1.
      622    1    1    2    0    0 -0.49694137898E-01 -0.43370030861E-01  0.36055945250E+01  0.36075840040E+01  0.10000000000E+00 0.  1.
</event>
<event>
 5   0  0.6262544E+06  0.9118800E+02  0.7818608E-02  0.1180000E+00
       11   -1    0    0    0    0  0.00000000000E+00  0.00000000000E+00  0.39999999673E+01  0.40000000000E+01  0.51109989000E-03 0.  1.
     -623   -1    0    0    0    0  0.00000000000E+00  0.00000000000E+00  0.12525980253E-10  0.17130000000E+03  0.17130000000E+03 0. -1.
       11    1    1    2    0    0  0.92954218464E-02  0.21457284627E-01  0.17664107164E+01  0.17665655663E+01  0.51109989000E-03 0.  1.
     -623    1    1    2    0    0 -0.13212096357E-01 -0.61937802411E-03  0.24959206331E-02  0.17130000053E+03  0.17130000000E+03 0. -1.
      622    1    1    2    0    0  0.39166745101E-02 -0.20837906603E-01  0.22310933304E+01  0.22334339049E+01  0.10000000000E+00 0.  1.
</event>
<event>
 5   0  0.6262544E+06  0.9118800E+02  0.7818608E-02  0.1180000E+00
       11   -1    0    0    0    0  0.00000000000E+00  0.00000000000E+00  0.39999999673E+01  0.40000000000E+01  0.51109989000E-03 0.  1.
     -623   -1    0    0    0    0  0.00000000000E+00  0.00000000000E+00  0.12525980253E-10  0.17130000000E+03  0.17130000000E+03 0.  1.
       11    1    1    2    0    0 -0.65213587472E-03  0.62218348752E-03  0.16768337276E-01  0.16800319985E-01  0.51109989000E-03 0.  1.
     -623    1    1    2    0    0 -0.26018668418E-03 -0.40023143715E-03  0.12875363740E-02  0.17130000001E+03  0.17130000000E+03 0.  1.
      622    1    1    2    0    0  0.91232255888E-03 -0.22195205039E-03  0.39819440934E+01  0.39831996742E+01  0.10000000000E+00 0.  1.
</event>
<event>
 5   0  0.6262544E+06  0.9118800E+02  0.7818608E-02  0.1180000E+00
       11   -1    0    0    0    0  0.00000000000E+00  0.00000000000E+00  0.39999999673E+01  0.40000000000E+01  0.51109989000E-03 0.  1.
     -623   -1    0    0    0    0  0.00000000000E+00  0.00000000000E+00  0.12525980253E-10  0.17130000000E+03  0.17130000000E+03 0. -1.
       11    1    1    2    0    0 -0.12966404472E-02  0.99561177399E-03  0.13114378973E+01  0.13114390158E+01  0.51109989000E-03 0.  1.
     -623    1    1    2    0    0 -0.98976230295E-02  0.96150265154E-02  0.19063007208E-02  0.17130000057E+03  0.17130000000E+03 0. -1.
      622    1    1    2    0    0  0.11194263477E-01 -0.10610638289E-01  0.26866557693E+01  0.26885604178E+01  0.10000000000E+00 0. -1.
</event>
<event>
 5   0  0.6262544E+06  0.9118800E+02  0.7818608E-02  0.1180000E+00
       11   -1    0    0    0    0  0.00000000000E+00  0.00000000000E+00  0.39999999673E+01  0.40000000000E+01  0.51109989000E-03 0.  1.
     -623   -1    0    0    0    0  0.00000000000E+00  0.00000000000E+00  0.12525980253E-10  0.17130000000E+03  0.17130000000E+03 0. -1.
       11    1    1    2    0    0  0.41999099514E-02  0.17747376201E-01  0.22092189590E+00  0.22167398115E+00  0.51109989000E-03 0.  1.
     -623    1    1    2    0    0 -0.33751295848E-02 -0.49069178689E-02  0.20976548113E-02  0.17130000012E+03  0.17130000000E+03 0. -1.
      622    1    1    2    0    0 -0.82478036660E-03 -0.12840458333E-01  0.37769804166E+01  0.37783259025E+01  0.10000000000E+00 0.  1.
</event>
<event>
 5   0  0.6262544E+06  0.9118800E+02  0.7818608E-02  0.1180000E+00
       11   -1    0    0    0    0  0.00000000000E+00  0.00000000000E+00  0.39999999673E+01  0.40000000000E+01  0.51109989000E-03 0.  1.
     -623   -1    0    0    0    0  0.00000000000E+00  0.00000000000E+00  0.12525980253E-10  0.17130000000E+03  0.17130000000E+03 0.  1.
       11    1    1    2    0    0 -0.80837773105E-02  0.19707518238E-01  0.19679437819E+00  0.19794449282E+00  0.51109989000E-03 0.  1.
     -623    1    1    2    0    0 -0.49153787698E-02  0.37922340208E-02  0.25603989082E-02  0.17130000013E+03  0.17130000000E+03 0.  1.
      622    1    1    2    0    0  0.12999156080E-01 -0.23499752259E-01  0.38006451903E+01  0.38020553755E+01  0.10000000000E+00 0.  1.
</event>
<event>
 5   0  0.6262544E+06  0.9118800E+02  0.7818608E-02  0.1180000E+00
       11   -1    0    0    0    0  0.00000000000E+00  0.00000000000E+00  0.39999999673E+01  0.40000000000E+01  0.51109989000E-03 0.  1.
     -623   -1    0    0    0    0  0.00000000000E+00  0.00000000000E+00  0.12525980253E-10  0.17130000000E+03  0.17130000000E+03 0. -1.
       11    1    1    2    0    0  0.34586518757E-02 -0.19781204685E-02  0.15972333552E-01  0.16469726553E-01  0.51109989000E-03 0.  1.
     -623    1    1    2    0    0  0.52223144377E-02  0.52412653825E-02  0.17636939366E-02  0.17130000017E+03  0.17130000000E+03 0. -1.
      622    1    1    2    0    0 -0.86809663134E-02 -0.32631449140E-02  0.39822639399E+01  0.39835301046E+01  0.10000000000E+00 0.  1.
</event>
<event>
 5   0  0.6262544E+06  0.9118800E+02  0.7818608E-02  0.1180000E+00
       11   -1    0    0    0    0  0.00000000000E+00  0.00000000000E+00  0.39999999673E+01  0.40000000000E+01  0.51109989000E-03 0.  1.
     -623   -1    0    0    0    0  0.00000000000E+00  0.00000000000E+00  0.12525980253E-10  0.17130000000E+03  0.17130000000E+03 0.  1.
       11    1    1    2    0    0  0.13444819072E-01  0.45716689116E-02  0.70703620796E-01  0.72117449567E-01  0.51109989000E-03 0.  1.
     -623    1    1    2    0    0 -0.16179115001E-01  0.32722664182E-01  0.28689318820E-02  0.17130000391E+03  0.17130000000E+03 0.  1.
      622    1    1    2    0    0  0.27342959287E-02 -0.37294333093E-01  0.39264274147E+01  0.39278786369E+01  0.10000000000E+00 0.  1.
</event>
<event>
 5   0  0.6262544E+06  0.9118800E+02  0.7818608E-02  0.1180000E+00
       11   -1    0    0    0    0  0.00000000000E+00  0.00000000000E+00  0.39999999673E+01  0.40000000000E+01  0.51109989000E-03 0.  1.
     -623   -1    0    0    0    0  0.00000000000E+00  0.00000000000E+00  0.12525980253E-10  0.17130000000E+03  0.17130000000E+03 0. -1.
       11    1    1    2    0    0  0.91557493995E-03 -0.12777815808E-01  0.21924047766E-01  0.25397557911E-01  0.51109989000E-03 0.  1.
     -623    1    1    2    0    0 -0.14711060753E-02  0.13001256842E-01  0.47322744628E-02  0.17130000057E+03  0.17130000000E+03 0. -1.
      622    1    1    2    0    0  0.55553113529E-03 -0.22344103391E-03  0.39733436451E+01  0.39746018770E+01  0.10000000000E+00 0.  1.
</event>
<event>
 5   0  0.6262544E+06  0.9118800E+02  0.7818608E-02  0.1180000E+00
       11   -1    0    0    0    0  0.00000000000E+00  0.00000000000E+00  0.39999999673E+01  0.40000000000E+01  0.51109989000E-03 0.  1.
     -623   -1    0    0    0    0  0.00000000000E+00  0.00000000000E+00  0.12525980253E-10  0.17130000000E+03  0.17130000000E+03 0. -1.
       11    1    1    2    0    0  0.69068779620E-01 -0.39398048888E-01  0.22668041298E+01  0.22681983878E+01  0.51109989000E-03 0.  1.
     -623    1    1    2    0    0 -0.31391367174E-01  0.48647212495E-01  0.47290094736E-02  0.17130000985E+03  0.17130000000E+03 0. -1.
      622    1    1    2    0    0 -0.37677412446E-01 -0.92491636070E-02  0.17284668281E+01  0.17317917630E+01  0.10000000000E+00 0.  1.
</event>
<event>
 5   0  0.6262544E+06  0.9118800E+02  0.7818608E-02  0.1180000E+00
       11   -1    0    0    0    0  0.00000000000E+00  0.00000000000E+00  0.39999999673E+01  0.40000000000E+01  0.51109989000E-03 0. -1.
     -623   -1    0    0    0    0  0.00000000000E+00  0.00000000000E+00  0.12525980253E-10  0.17130000000E+03  0.17130000000E+03 0.  1.
       11    1    1    2    0    0  0.77330157927E-01 -0.11575181445E+00  0.12055821042E+01  0.12135925622E+01  0.51109989000E-03 0. -1.
     -623    1    1    2    0    0 -0.24333377706E-01 -0.26333819029E-01  0.13942121507E-01  0.17130000432E+03  0.17130000000E+03 0.  1.
      622    1    1    2    0    0 -0.52996780221E-01  0.14208563348E+00  0.27804757417E+01  0.27864031180E+01  0.10000000000E+00 0. -1.
</event>
<event>
 5   0  0.6262544E+06  0.9118800E+02  0.7818608E-02  0.1180000E+00
       11   -1    0    0    0    0  0.00000000000E+00  0.00000000000E+00  0.39999999673E+01  0.40000000000E+01  0.51109989000E-03 0. -1.
     -623   -1    0    0    0    0  0.00000000000E+00  0.00000000000E+00  0.12525980253E-10  0.17130000000E+03  0.17130000000E+03 0.  1.
       11    1    1    2    0    0  0.47610693379E-03  0.70919305156E-04 -0.31974885386E-03  0.77147247997E-03  0.51109989000E-03 0. -1.
     -623    1    1    2    0    0 -0.63427675437E-02  0.82812477693E-02  0.23549878624E-02  0.17130000033E+03  0.17130000000E+03 0.  1.
      622    1    1    2    0    0  0.58666606102E-02 -0.83521670748E-02  0.39979647285E+01  0.39992281939E+01  0.10000000000E+00 0. -1.
</event>
<event>
 5   0  0.6262544E+06  0.9118800E+02  0.7818608E-02  0.1180000E+00
       11   -1    0    0    0    0  0.00000000000E+00  0.00000000000E+00  0.39999999673E+01  0.40000000000E+01  0.51109989000E-03 0.  1.
     -623   -1    0    0    0    0  0.00000000000E+00  0.00000000000E+00  0.12525980253E-10  0.17130000000E+03  0.17130000000E+03 0.  1.
       11    1    1    2    0    0 -0.37240891204E-02  0.90694687464E-01  0.27754665637E+01  0.27769505402E+01  0.51109989000E-03 0.  1.
     -623    1    1    2    0    0  0.91478847604E-02 -0.51740146426E-01  0.62218179187E-02  0.17130000817E+03  0.17130000000E+03 0.  1.
      622    1    1    2    0    0 -0.54237956401E-02 -0.38954541038E-01  0.12183115858E+01  0.12230412887E+01  0.10000000000E+00 0.  0.
</event>
<event>
 5   0  0.6262544E+06  0.9118800E+02  0.7818608E-02  0.1180000E+00
       11   -1    0    0    0    0  0.00000000000E+00  0.00000000000E+00  0.39999999673E+01  0.40000000000E+01  0.51109989000E-03 0.  1.
     -623   -1    0    0    0    0  0.00000000000E+00  0.00000000000E+00  0.12525980253E-10  0.17130000000E+03  0.17130000000E+03 0. -1.
       11    1    1    2    0    0  0.19434807613E-01  0.17787692690E-01  0.10325987503E+00  0.10656911735E+00  0.51109989000E-03 0.  1.
     -623    1    1    2    0    0  0.19109589182E-01 -0.14402575883E-01  0.47877066056E-02  0.17130000174E+03  0.17130000000E+03 0. -1.
      622    1    1    2    0    0 -0.38544396795E-01 -0.33851168066E-02  0.38919523858E+01  0.38934291444E+01  0.10000000000E+00 0.  1.
</event>
<event>
 5   0  0.6262544E+06  0.9118800E+02  0.7818608E-02  0.1180000E+00
       11   -1    0    0    0    0  0.00000000000E+00  0.00000000000E+00  0.39999999673E+01  0.40000000000E+01  0.51109989000E-03 0.  1.
     -623   -1    0    0    0    0  0.00000000000E+00  0.00000000000E+00  0.12525980253E-10  0.17130000000E+03  0.17130000000E+03 0.  1.
       11    1    1    2    0    0  0.76998371941E-03 -0.33201197712E-03 -0.58020169538E-04  0.98371556801E-03  0.51109989000E-03 0.  1.
     -623    1    1    2    0    0 -0.59857658078E-03  0.94817025054E-03  0.22922762726E-02  0.17130000002E+03  0.17130000000E+03 0.  1.
      622    1    1    2    0    0 -0.17140713864E-03 -0.61615827341E-03  0.39977657112E+01  0.39990162654E+01  0.10000000000E+00 0.  1.
</event>
<event>
 5   0  0.6262544E+06  0.9118800E+02  0.7818608E-02  0.1180000E+00
       11   -1    0    0    0    0  0.00000000000E+00  0.00000000000E+00  0.39999999673E+01  0.40000000000E+01  0.51109989000E-03 0. -1.
     -623   -1    0    0    0    0  0.00000000000E+00  0.00000000000E+00  0.12525980253E-10  0.17130000000E+03  0.17130000000E+03 0.  1.
       11    1    1    2    0    0 -0.17346144916E-02 -0.88854035259E-04  0.24838987621E-02  0.30737202319E-02  0.51109989000E-03 0. -1.
     -623    1    1    2    0    0  0.36515000436E-02 -0.57612113126E-02  0.18458340657E-02  0.17130000015E+03  0.17130000000E+03 0.  1.
      622    1    1    2    0    0 -0.19168855520E-02  0.58500653479E-02  0.39956702345E+01  0.39969261340E+01  0.10000000000E+00 0. -1.
</event>
<event>
 5   0  0.6262544E+06  0.9118800E+02  0.7818608E-02  0.1180000E+00
       11   -1    0    0    0    0  0.00000000000E+00  0.00000000000E+00  0.39999999673E+01  0.40000000000E+01  0.51109989000E-03 0. -1.
     -623   -1    0    0    0    0  0.00000000000E+00  0.00000000000E+00  0.12525980253E-10  0.17130000000E+03  0.17130000000E+03 0.  1.
       11    1    1    2    0    0 -0.11940534586E-01  0.10549849480E-01  0.15458425529E+00  0.15540408263E+00  0.51109989000E-03 0. -1.
     -623    1    1    2    0    0  0.17571042166E-02 -0.19488592922E-01  0.21455592343E-02  0.17130000113E+03  0.17130000000E+03 0.  1.
      622    1    1    2    0    0  0.10183430370E-01  0.89387434428E-02  0.38432701529E+01  0.38445947864E+01  0.10000000000E+00 0. -1.
</event>
<event>
 5   0  0.6262544E+06  0.9118800E+02  0.7818608E-02  0.1180000E+00
       11   -1    0    0    0    0  0.00000000000E+00  0.00000000000E+00  0.39999999673E+01  0.40000000000E+01  0.51109989000E-03 0.  1.
     -623   -1    0    0    0    0  0.00000000000E+00  0.00000000000E+00  0.12525980253E-10  0.17130000000E+03  0.17130000000E+03 0.  1.
       11    1    1    2    0    0  0.42736728059E-02  0.13574453549E-01  0.47927648549E-01  0.49998507847E-01  0.51109989000E-03 0.  1.
     -623    1    1    2    0    0 -0.19054000077E-01 -0.19258212359E-01  0.33707804475E-02  0.17130000218E+03  0.17130000000E+03 0.  1.
      622    1    1    2    0    0  0.14780327271E-01  0.56837588103E-02  0.39487015385E+01  0.39499993168E+01  0.10000000000E+00 0.  1.
</event>
<event>
 5   0  0.6262544E+06  0.9118800E+02  0.7818608E-02  0.1180000E+00
       11   -1    0    0    0    0  0.00000000000E+00  0.00000000000E+00  0.39999999673E+01  0.40000000000E+01  0.51109989000E-03 0. -1.
     -623   -1    0    0    0    0  0.00000000000E+00  0.00000000000E+00  0.12525980253E-10  0.17130000000E+03  0.17130000000E+03 0. -1.
       11    1    1    2    0    0  0.92569667476E-02  0.19320104362E-02  0.74025365670E-01  0.74628681372E-01  0.51109989000E-03 0. -1.
     -623    1    1    2    0    0 -0.23572372338E-01 -0.25044550715E-01  0.19748981566E-02  0.17130000346E+03  0.17130000000E+03 0. -1.
      622    1    1    2    0    0  0.14315405590E-01  0.23112540279E-01  0.39239997035E+01  0.39253678545E+01  0.10000000000E+00 0. -1.
</event>
<event>
 5   0  0.6262544E+06  0.9118800E+02  0.7818608E-02  0.1180000E+00
       11   -1    0    0    0    0  0.00000000000E+00  0.00000000000E+00  0.39999999673E+01  0.40000000000E+01  0.51109989000E-03 0.  1.
     -623   -1    0    0    0    0  0.00000000000E+00  0.00000000000E+00  0.12525980253E-10  0.17130000000E+03  0.17130000000E+03 0. -1.
       11    1    1    2    0    0  0.49279660117E-03 -0.69208885644E-02  0.14595044151E+00  0.14611616662E+00  0.51109989000E-03 0.  1.
     -623    1    1    2    0    0 -0.70982958877E-02 -0.23379999185E-04  0.14753781972E-02  0.17130000015E+03  0.17130000000E+03 0. -1.
      622    1    1    2    0    0  0.66054992868E-02  0.69442685636E-02  0.38525741478E+01  0.38538836801E+01  0.10000000000E+00 0.  1.
</event>
<event>
 5   0  0.6262544E+06  0.9118800E+02  0.7818608E-02  0.1180000E+00
       11   -1    0    0    0    0  0.00000000000E+00  0.00000000000E+00  0.39999999673E+01  0.40000000000E+01  0.51109989000E-03 0. -1.
     -623   -1    0    0    0    0  0.00000000000E+00  0.00000000000E+00  0.12525980253E-10  0.17130000000E+03  0.17130000000E+03 0. -1.
       11    1    1    2    0    0  0.67325055021E-02 -0.45285556429E-03  0.28857245820E+00  0.28865179120E+00  0.51109989000E-03 0. -1.
     -623    1    1    2    0    0  0.28681330365E-02  0.40060091250E-02  0.14409648560E-02  0.17130000008E+03  0.17130000000E+03 0. -1.
      622    1    1    2    0    0 -0.96006385386E-02 -0.35531535607E-02  0.37099865443E+01  0.37113481319E+01  0.10000000000E+00 0. -1.
</event>
<event>
 5   0  0.6262544E+06  0.9118800E+02  0.7818608E-02  0.1180000E+00
       11   -1    0    0    0    0  0.00000000000E+00  0.00000000000E+00  0.39999999673E+01  0.40000000000E+01  0.51109989000E-03 0.  1.
     -623   -1    0    0    0    0  0.00000000000E+00  0.00000000000E+00  0.12525980253E-10  0.17130000000E+03  0.17130000000E+03 0. -1.
       11    1    1    2    0    0 -0.48175136195E-02 -0.20078572630E-02  0.12105367256E-01  0.13192462536E-01  0.51109989000E-03 0.  1.
     -623    1    1    2    0    0  0.86424787006E-03 -0.17426401749E-02  0.23451486256E-02  0.17130000003E+03  0.17130000000E+03 0. -1.
      622    1    1    2    0    0  0.39532657494E-02  0.37504974380E-02  0.39855494516E+01  0.39868075105E+01  0.10000000000E+00 0.  1.
</event>
<event>
 5   0  0.6262544E+06  0.9118800E+02  0.7818608E-02  0.1180000E+00
       11   -1    0    0    0    0  0.00000000000E+00  0.00000000000E+00  0.39999999673E+01  0.40000000000E+01  0.51109989000E-03 0. -1.
     -623   -1    0    0    0    0  0.00000000000E+00  0.00000000000E+00  0.12525980253E-10  0.17130000000E+03  0.17130000000E+03 0. -1.
       11    1    1    2    0    0 -0.12070771826E-02  0.59688352668E-02  0.19754454628E-01  0.20678097846E-01  0.51109989000E-03 0. -1.
     -623    1    1    2    0    0 -0.50963947759E-02 -0.41387001271E-02  0.21858593895E-02  0.17130000014E+03  0.17130000000E+03 0. -1.
      622    1    1    2    0    0  0.63034719584E-02 -0.18301351399E-02  0.39780596532E+01  0.39793217623E+01  0.10000000000E+00 0. -1.
</event>
<event>
 5   0  0.6262544E+06  0.9118800E+02  0.7818608E-02  0.1180000E+00
       11   -1    0    0    0    0  0.00000000000E+00  0.00000000000E+00  0.39999999673E+01  0.40000000000E+01  0.51109989000E-03 0.  1.
     -623   -1    0    0    0    0  0.00000000000E+00  0.00000000000E+00  0.12525980253E-10  0.17130000000E+03  0.17130000000E+03 0. -1.
       11    1    1    2    0    0  0.29992959673E-01  0.28199658501E-01  0.28847920250E+00  0.29140231617E+00  0.51109989000E-03 0.  1.
     -623    1    1    2    0    0 -0.21754631147E-02 -0.14696542304E-01  0.44012044261E-02  0.17130000070E+03  0.17130000000E+03 0. -1.
      622    1    1    2    0    0 -0.27817496559E-01 -0.13503116197E-01  0.37071195604E+01  0.37085969830E+01  0.10000000000E+00 0.  1.
</event>
<event>
 5   0  0.6262544E+06  0.9118800E+02  0.7818608E-02  0.1180000E+00
       11   -1    0    0    0    0  0.00000000000E+00  0.00000000000E+00  0.39999999673E+01  0.40000000000E+01  0.51109989000E-03 0. -1.
     -623   -1    0    0    0    0  0.00000000000E+00  0.00000000000E+00  0.12525980253E-10  0.17130000000E+03  0.17130000000E+03 0.  1.
       11    1    1    2    0    0 -0.10757870886E-01  0.24919285520E-01  0.67133632027E+00  0.67188497432E+00  0.51109989000E-03 0. -1.
     -623    1    1    2    0    0 -0.29858550887E-02  0.41965804832E-02  0.22072156163E-02  0.17130000009E+03  0.17130000000E+03 0.  1.
      622    1    1    2    0    0  0.13743725974E-01 -0.29115866003E-01  0.33264564317E+01  0.33281149342E+01  0.10000000000E+00 0.  0.
</event>
<event>
 5   0  0.6262544E+06  0.9118800E+02  0.7818608E-02  0.1180000E+00
       11   -1    0    0    0    0  0.00000000000E+00  0.00000000000E+00  0.39999999673E+01  0.40000000000E+01  0.51109989000E-03 0.  1.
     -623   -1    0    0    0    0  0.00000000000E+00  0.00000000000E+00  0.12525980253E-10  0.17130000000E+03  0.17130000000E+03 0. -1.
       11    1    1    2    0    0 -0.54244673453E-02 -0.10369124672E-01  0.11086597228E+00  0.11148304187E+00  0.51109989000E-03 0.  1.
     -623    1    1    2    0    0  0.10073300698E-01  0.11048670604E-01  0.19065894309E-02  0.17130000066E+03  0.17130000000E+03 0. -1.
      622    1    1    2    0    0 -0.46488333537E-02 -0.67954593279E-03  0.38872274060E+01  0.38885162954E+01  0.10000000000E+00 0.  1.
</event>
<event>
 5   0  0.6262544E+06  0.9118800E+02  0.7818608E-02  0.1180000E+00
       11   -1    0    0    0    0  0.00000000000E+00  0.00000000000E+00  0.39999999673E+01  0.40000000000E+01  0.51109989000E-03 0. -1.
     -623   -1    0    0    0    0  0.00000000000E+00  0.00000000000E+00  0.12525980253E-10  0.17130000000E+03  0.17130000000E+03 0. -1.
       11    1    1    2    0    0 -0.54356232889E-02  0.78220277801E-02  0.20263256458E+01  0.20263480980E+01  0.51109989000E-03 0. -1.
     -623    1    1    2    0    0  0.31406254062E-02 -0.31439712864E-01  0.27031949637E-02  0.17130000294E+03  0.17130000000E+03 0. -1.
      622    1    1    2    0    0  0.22949978827E-02  0.23617685084E-01  0.19709711266E+01  0.19736489668E+01  0.10000000000E+00 0.  1.
</event>
<event>
 5   0  0.6262544E+06  0.9118800E+02  0.7818608E-02  0.1180000E+00
       11   -1    0    0    0    0  0.00000000000E+00  0.00000000000E+00  0.39999999673E+01  0.40000000000E+01  0.51109989000E-03 0.  1.
     -623   -1    0    0    0    0  0.00000000000E+00  0.00000000000E+00  0.12525980253E-10  0.17130000000E+03  0.17130000000E+03 0. -1.
       11    1    1    2    0    0 -0.17186175868E-01 -0.14444885331E-01  0.28906924886E+00  0.28994018558E+00  0.51109989000E-03 0.  1.
     -623    1    1    2    0    0 -0.61771286622E-03  0.17890670037E-02  0.22831903637E-02  0.17130000003E+03  0.17130000000E+03 0. -1.
      622    1    1    2    0    0  0.17803888734E-01  0.12655818327E-01  0.37086475281E+01  0.37100597888E+01  0.10000000000E+00 0.  1.
</event>
<event>
 5   0  0.6262544E+06  0.9118800E+02  0.7818608E-02  0.1180000E+00
       11   -1    0    0    0    0  0.00000000000E+00  0.00000000000E+00  0.39999999673E+01  0.40000000000E+01  0.51109989000E-03 0. -1.
     -623   -1    0    0    0    0  0.00000000000E+00  0.00000000000E+00  0.12525980253E-10  0.17130000000E+03  0.17130000000E+03 0.  1.
       11    1    1    2    0    0  0.49545527639E-02 -0.14967568944E-01  0.46947828898E+00  0.46974322855E+00  0.51109989000E-03 0. -1.
     -623    1    1    2    0    0 -0.82784847959E-02  0.23006931773E-01  0.16939959177E-02  0.17130000175E+03  0.17130000000E+03 0.  1.
      622    1    1    2    0    0  0.33239320324E-02 -0.80393628307E-02  0.35288276827E+01  0.35302550183E+01  0.10000000000E+00 0. -1.
</event>
<event>
 5   0  0.6262544E+06  0.9118800E+02  0.7818608E-02  0.1180000E+00
       11   -1    0    0    0    0  0.00000000000E+00  0.00000000000E+00  0.39999999673E+01  0.40000000000E+01  0.51109989000E-03 0. -1.
     -623   -1    0    0    0    0  0.00000000000E+00  0.00000000000E+00  0.12525980253E-10  0.17130000000E+03  0.17130000000E+03 0. -1.
       11    1    1    2    0    0 -0.49236896313E-02  0.19948966988E-01  0.10513425063E+00  0.10712458113E+00  0.51109989000E-03 0. -1.
     -623    1    1    2    0    0 -0.53571289739E-02 -0.16184273387E-03  0.33389090115E-02  0.17130000012E+03  0.17130000000E+03 0. -1.
      622    1    1    2    0    0  0.10280818605E-01 -0.19787124254E-01  0.38915268077E+01  0.38928753025E+01  0.10000000000E+00 0. -1.
</event>
<event>
 5   0  0.6262544E+06  0.9118800E+02  0.7818608E-02  0.1180000E+00
       11   -1    0    0    0    0  0.00000000000E+00  0.00000000000E+00  0.39999999673E+01  0.40000000000E+01  0.51109989000E-03 0.  1.
     -623   -1    0    0    0    0  0.00000000000E+00  0.00000000000E+00  0.12525980253E-10  0.17130000000E+03  0.17130000000E+03 0. -1.
       11    1    1    2    0    0 -0.16252400782E-01 -0.38088683846E-02  0.30658263446E-01  0.34911865444E-01  0.51109989000E-03 0.  1.
     -623    1    1    2    0    0  0.23197391876E-01  0.11029792827E-01  0.55294529879E-02  0.17130000202E+03  0.17130000000E+03 0. -1.
      622    1    1    2    0    0 -0.69449910941E-02 -0.72209244427E-02  0.39638122509E+01  0.39650861195E+01  0.10000000000E+00 0.  1.
</event>
<event>
 5   0  0.6262544E+06  0.9118800E+02  0.7818608E-02  0.1180000E+00
       11   -1    0    0    0    0  0.00000000000E+00  0.00000000000E+00  0.39999999673E+01  0.40000000000E+01  0.51109989000E-03 0. -1.
     -623   -1    0    0    0    0  0.00000000000E+00  0.00000000000E+00  0.12525980253E-10  0.17130000000E+03  0.17130000000E+03 0. -1.
       11    1    1    2    0    0 -0.66693878678E-02  0.11266783075E-01  0.79363045323E-01  0.80437399999E-01  0.51109989000E-03 0. -1.
     -623    1    1    2    0    0  0.36008204716E-02  0.17123521566E-02  0.23729430971E-02  0.17130000006E+03  0.17130000000E+03 0. -1.
      622    1    1    2    0    0  0.30685673962E-02 -0.12979135232E-01  0.39182639789E+01  0.39195625372E+01  0.10000000000E+00 0. -1.
</event>
<event>
 5   0  0.6262544E+06  0.9118800E+02  0.7818608E-02  0.1180000E+00
       11   -1    0    0    0    0  0.00000000000E+00  0.00000000000E+00  0.39999999673E+01  0.40000000000E+01  0.51109989000E-03 0. -1.
     -623   -1    0    0    0    0  0.00000000000E+00  0.00000000000E+00  0.12525980253E-10  0.17130000000E+03  0.17130000000E+03 0. -1.
       11    1    1    2    0    0 -0.18579821777E-02  0.71939816271E-02  0.11171928410E-01  0.13426789524E-01  0.51109989000E-03 0. -1.
     -623    1    1    2    0    0 -0.28646855386E-02 -0.17914472600E-02  0.35157653400E-02  0.17130000007E+03  0.17130000000E+03 0. -1.
      622    1    1    2    0    0  0.47226677164E-02 -0.54025343670E-02  0.39853122737E+01  0.39865731412E+01  0.10000000000E+00 0. -1.
</event>
<event>
 5   0  0.6262544E+06  0.9118800E+02  0.7818608E-02  0.1180000E+00
       11   -1    0    0    0    0  0.00000000000E+00  0.00000000000E+00  0.39999999673E+01  0.40000000000E+01  0.51109989000E-03 0.  1.
     -623   -1    0    0    0    0  0.00000000000E+00  0.00000000000E+00  0.12525980253E-10  0.17130000000E+03  0.17130000000E+03 0. -1.
       11    1    1    2    0    0  0.30160452895E-02  0.20708438050E-02  0.52774656314E-01  0.52903785265E-01  0.51109989000E-03 0.  1.
     -623    1    1    2    0    0 -0.86118219937E-02 -0.22732861889E-02  0.14002640449E-02  0.17130000024E+03  0.17130000000E+03 0. -1.
      622    1    1    2    0    0  0.55957767044E-02  0.20244238395E-03  0.39458250470E+01  0.39470959775E+01  0.10000000000E+00 0.  1.
</event>
<event>
 5   0  0.6262544E+06  0.9118800E+02  0.7818608E-02  0.1180000E+00
       11   -1    0    0    0    0  0.00000000000E+00  0.00000000000E+00  0.39999999673E+01  0.40000000000E+01  0.51109989000E-03 0.  1.
     -623   -1    0    0    0    0  0.00000000000E+00  0.00000000000E+00  0.12525980253E-10  0.17130000000E+03  0.17130000000E+03 0.  1.
       11    1    1    2    0    0 -0.43973558689E-01  0.14146856567E-01  0.97367085755E+00  0.97476612963E+00  0.51109989000E-03 0.  1.
     -623    1    1    2    0    0 -0.42832940696E-03 -0.14749583969E-01  0.30752224908E-02  0.17130000066E+03  0.17130000000E+03 0.  1.
      622    1    1    2    0    0  0.44401888096E-01  0.60272740132E-03  0.30232538873E+01  0.30252332072E+01  0.10000000000E+00 0.  1.
</event>
<event>
 5   0  0.6262544E+06  0.9118800E+02  0.7818608E-02  0.1180000E+00
       11   -1    0    0    0    0  0.00000000000E+00  0.00000000000E+00  0.39999999673E+01  0.40000000000E+01  0.51109989000E-03 0. -1.
     -623   -1    0    0    0    0  0.00000000000E+00  0.00000000000E+00  0.12525980253E-10  0.17130000000E+03  0.17130000000E+03 0.  1.
       11    1    1    2    0    0  0.10645235903E-02 -0.97879362257E-03  0.49281712141E-02  0.51613314215E-02  0.51109989000E-03 0. -1.
     -623    1    1    2    0    0 -0.54630549001E-03  0.11582484144E-02  0.14849875808E-02  0.17130000001E+03  0.17130000000E+03 0.  1.
      622    1    1    2    0    0 -0.51821810023E-03 -0.17945479188E-03  0.39935868087E+01  0.39948386575E+01  0.10000000000E+00 0. -1.
</event>
<event>
 5   0  0.6262544E+06  0.9118800E+02  0.7818608E-02  0.1180000E+00
       11   -1    0    0    0    0  0.00000000000E+00  0.00000000000E+00  0.39999999673E+01  0.40000000000E+01  0.51109989000E-03 0.  1.
     -623   -1    0    0    0    0  0.00000000000E+00  0.00000000000E+00  0.12525980253E-10  0.17130000000E+03  0.17130000000E+03 0. -1.
       11    1    1    2    0    0 -0.93562863815E-03  0.50921362543E-02  0.76385971118E-02  0.92420041936E-02  0.51109989000E-03 0.  1.
     -623    1    1    2    0    0  0.43304646244E-02 -0.34296664738E-02  0.28583697334E-02  0.17130000011E+03  0.17130000000E+03 0. -1.
      622    1    1    2    0    0 -0.33948359861E-02 -0.16624697806E-02  0.39895030005E+01  0.39907578828E+01  0.10000000000E+00 0.  1.
</event>
<event>
 5   0  0.6262544E+06  0.9118800E+02  0.7818608E-02  0.1180000E+00
       11   -1    0    0    0    0  0.00000000000E+00  0.00000000000E+00  0.39999999673E+01  0.40000000000E+01  0.51109989000E-03 0. -1.
     -623   -1    0    0    0    0  0.00000000000E+00  0.00000000000E+00  0.12525980253E-10  0.17130000000E+03  0.17130000000E+03 0. -1.
       11    1    1    2    0    0 -0.26592243999E-01 -0.87253124271E-02  0.17355549996E+00  0.17579832566E+00  0.51109989000E-03 0. -1.
     -623    1    1    2    0    0  0.15181470471E-01 -0.25779829117E-02  0.35849492950E-02  0.17130000073E+03  0.17130000000E+03 0. -1.
      622    1    1    2    0    0  0.11410773529E-01  0.11303295339E-01  0.38228595181E+01  0.38242009447E+01  0.10000000000E+00 0. -1.
</event>
<event>
 5   0  0.6262544E+06  0.9118800E+02  0.7818608E-02  0.1180000E+00
       11   -1    0    0    0    0  0.00000000000E+00  0.00000000000E+00  0.39999999673E+01  0.40000000000E+01  0.51109989000E-03 0. -1.
     -623   -1    0    0    0    0  0.00000000000E+00  0.00000000000E+00  0.12525980253E-10  0.17130000000E+03  0.17130000000E+03 0.  1.
       11    1    1    2    0    0  0.12631230842E-02  0.25527532159E-02  0.17770466285E+00  0.17772822075E+00  0.51109989000E-03 0. -1.
     -623    1    1    2    0    0 -0.34569736432E-03 -0.92499483039E-03  0.13323366411E-02  0.17130000001E+03  0.17130000000E+03 0.  1.
      622    1    1    2    0    0 -0.91742571984E-03 -0.16277583855E-02  0.38209629681E+01  0.38222717714E+01  0.10000000000E+00 0. -1.
</event>
<event>
 5   0  0.6262544E+06  0.9118800E+02  0.7818608E-02  0.1180000E+00
       11   -1    0    0    0    0  0.00000000000E+00  0.00000000000E+00  0.39999999673E+01  0.40000000000E+01  0.51109989000E-03 0. -1.
     -623   -1    0    0    0    0  0.00000000000E+00  0.00000000000E+00  0.12525980253E-10  0.17130000000E+03  0.17130000000E+03 0. -1.
       11    1    1    2    0    0 -0.54756903256E-02  0.31480664733E-02  0.10538538632E+00  0.10557572817E+00  0.51109989000E-03 0. -1.
     -623    1    1    2    0    0  0.19417903210E-02 -0.56260211631E-02  0.14769100407E-02  0.17130000011E+03  0.17130000000E+03 0. -1.
      622    1    1    2    0    0  0.35339000045E-02  0.24779546899E-02  0.38931376711E+01  0.38944241621E+01  0.10000000000E+00 0. -1.
</event>
<event>
 5   0  0.6262544E+06  0.9118800E+02  0.7818608E-02  0.1180000E+00
       11   -1    0    0    0    0  0.00000000000E+00  0.00000000000E+00  0.39999999673E+01  0.40000000000E+01  0.51109989000E-03 0.  1.
     -623   -1    0    0    0    0  0.00000000000E+00  0.00000000000E+00  0.12525980253E-10  0.17130000000E+03  0.17130000000E+03 0.  1.
       11    1    1    2    0    0 -0.40378250546E-02 -0.13127263629E-01  0.62912494762E-01  0.64396213392E-01  0.51109989000E-03 0.  1.
     -623    1    1    2    0    0 -0.44578953454E-02 -0.60705418521E-03  0.27875713645E-02  0.17130000008E+03  0.17130000000E+03 0.  1.
      622    1    1    2    0    0  0.84957204000E-02  0.13734317814E-01  0.39342999012E+01  0.39356037048E+01  0.10000000000E+00 0.  1.
</event>
<event>
 5   0  0.6262544E+06  0.9118800E+02  0.7818608E-02  0.1180000E+00
       11   -1    0    0    0    0  0.00000000000E+00  0.00000000000E+00  0.39999999673E+01  0.40000000000E+01  0.51109989000E-03 0.  1.
     -623   -1    0    0    0    0  0.00000000000E+00  0.00000000000E+00  0.12525980253E-10  0.17130000000E+03  0.17130000000E+03 0.  1.
       11    1    1    2    0    0 -0.15199901038E-01  0.20564210810E-01  0.66630373799E+00  0.66679446326E+00  0.51109989000E-03 0.  1.
     -623    1    1    2    0    0 -0.44836150658E-02  0.77363209242E-02  0.21696810947E-02  0.17130000025E+03  0.17130000000E+03 0.  1.
      622    1    1    2    0    0  0.19683516104E-01 -0.28300531734E-01  0.33315265482E+01  0.33332052896E+01  0.10000000000E+00 0.  0.
</event>
<event>
 5   0  0.6262544E+06  0.9118800E+02  0.7818608E-02  0.1180000E+00
       11   -1    0    0    0    0  0.00000000000E+00  0.00000000000E+00  0.39999999673E+01  0.40000000000E+01  0.51109989000E-03 0. -1.
     -623   -1    0    0    0    0  0.00000000000E+00  0.00000000000E+00  0.12525980253E-10  0.17130000000E+03  0.17130000000E+03 0. -1.
       11    1    1    2    0    0  0.79990755999E-02  0.62512011852E-02  0.11880214767E-01  0.15635327075E-01  0.51109989000E-03 0. -1.
     -623    1    1    2    0    0 -0.75766747182E-02  0.41989936810E-03  0.50160330934E-02  0.17130000024E+03  0.17130000000E+03 0. -1.
      622    1    1    2    0    0 -0.42240088168E-03 -0.66711005533E-02  0.39831037195E+01  0.39843644314E+01  0.10000000000E+00 0. -1.
</event>
<event>
 5   0  0.6262544E+06  0.9118800E+02  0.7818608E-02  0.1180000E+00
       11   -1    0    0    0    0  0.00000000000E+00  0.00000000000E+00  0.39999999673E+01  0.40000000000E+01  0.51109989000E-03 0. -1.
     -623   -1    0    0    0    0  0.00000000000E+00  0.00000000000E+00  0.12525980253E-10  0.17130000000E+03  0.17130000000E+03 0.  1.
       11    1    1    2    0    0 -0.10109699964E-01 -0.36086054659E-02  0.10079772812E-01  0.14734012007E-01  0.51109989000E-03 0. -1.
     -623    1    1    2    0    0 -0.10148068642E-01  0.14610941079E-02  0.59615183460E-02  0.17130000041E+03  0.17130000000E+03 0.  1.
      622    1    1    2    0    0  0.20257768607E-01  0.21475113580E-02  0.39839586763E+01  0.39852655775E+01  0.10000000000E+00 0. -1.
</event>
<event>
 5   0  0.6262544E+06  0.9118800E+02  0.7818608E-02  0.1180000E+00
       11   -1    0    0    0    0  0.00000000000E+00  0.00000000000E+00  0.39999999673E+01  0.40000000000E+01  0.51109989000E-03 0.  1.
     -623   -1    0    0    0    0  0.00000000000E+00  0.00000000000E+00  0.12525980253E-10  0.17130000000E+03  0.17130000000E+03 0. -1.
       11    1    1    2    0    0 -0.10894577447E-01 -0.32938167710E-01  0.10323607478E+01  0.10329436526E+01  0.51109989000E-03 0.  1.
     -623    1    1    2    0    0 -0.85246612528E-02 -0.46264178361E-02  0.25703468995E-02  0.17130000029E+03  0.17130000000E+03 0. -1.
      622    1    1    2    0    0  0.19419238700E-01  0.37564585546E-01  0.29650688726E+01  0.29670560534E+01  0.10000000000E+00 0.  0.
</event>
<event>
 5   0  0.6262544E+06  0.9118800E+02  0.7818608E-02  0.1180000E+00
       11   -1    0    0    0    0  0.00000000000E+00  0.00000000000E+00  0.39999999673E+01  0.40000000000E+01  0.51109989000E-03 0. -1.
     -623   -1    0    0    0    0  0.00000000000E+00  0.00000000000E+00  0.12525980253E-10  0.17130000000E+03  0.17130000000E+03 0.  1.
       11    1    1    2    0    0 -0.15164677576E+00  0.20162165061E-01  0.84082174777E+00  0.85462549122E+00  0.51109989000E-03 0. -1.
     -623    1    1    2    0    0  0.24905855192E-01 -0.14271907712E-01  0.17958425827E-01  0.17130000335E+03  0.17130000000E+03 0.  1.
      622    1    1    2    0    0  0.12674092057E+00 -0.58902573482E-02  0.31412197938E+01  0.31453711623E+01  0.10000000000E+00 0.  1.
</event>
<event>
 5   0  0.6262544E+06  0.9118800E+02  0.7818608E-02  0.1180000E+00
       11   -1    0    0    0    0  0.00000000000E+00  0.00000000000E+00  0.39999999673E+01  0.40000000000E+01  0.51109989000E-03 0.  1.
     -623   -1    0    0    0    0  0.00000000000E+00  0.00000000000E+00  0.12525980253E-10  0.17130000000E+03  0.17130000000E+03 0. -1.
       11    1    1    2    0    0 -0.26364119251E-02  0.29284969022E-02  0.20836617828E-01  0.21212086774E-01  0.51109989000E-03 0.  1.
     -623    1    1    2    0    0  0.72738496832E-03 -0.40713166393E-02  0.16329789642E-02  0.17130000006E+03  0.17130000000E+03 0. -1.
      622    1    1    2    0    0  0.19090269568E-02  0.11428197370E-02  0.39775303706E+01  0.39787878555E+01  0.10000000000E+00 0.  1.
</event>
<event>
 5   0  0.6262544E+06  0.9118800E+02  0.7818608E-02  0.1180000E+00
       11   -1    0    0    0    0  0.00000000000E+00  0.00000000000E+00  0.39999999673E+01  0.40000000000E+01  0.51109989000E-03 0. -1.
     -623   -1    0    0    0    0  0.00000000000E+00  0.00000000000E+00  0.12525980253E-10  0.17130000000E+03  0.17130000000E+03 0.  1.
       11    1    1    2    0    0  0.12244950590E-01  0.11111664039E-01  0.82031789199E-01  0.83683233416E-01  0.51109989000E-03 0. -1.
     -623    1    1    2    0    0 -0.95785302203E-02  0.45763791577E-02  0.29610242859E-02  0.17130000035E+03  0.17130000000E+03 0.  1.
      622    1    1    2    0    0 -0.26664203691E-02 -0.15688043197E-01  0.39150071540E+01  0.39163164121E+01  0.10000000000E+00 0. -1.
</event>
<event>
 5   0  0.6262544E+06  0.9118800E+02  0.7818608E-02  0.1180000E+00
       11   -1    0    0    0    0  0.00000000000E+00  0.00000000000E+00  0.39999999673E+01  0.40000000000E+01  0.51109989000E-03 0. -1.
     -623   -1    0    0    0    0  0.00000000000E+00  0.00000000000E+00  0.12525980253E-10  0.17130000000E+03  0.17130000000E+03 0.  1.
       11    1    1    2    0    0 -0.74878439718E-02  0.87171025159E-02  0.47638116348E-01  0.49007214121E-01  0.51109989000E-03 0. -1.
     -623    1    1    2    0    0 -0.34418413400E-02 -0.55961961591E-02  0.26512744881E-02  0.17130000015E+03  0.17130000000E+03 0.  1.
      622    1    1    2    0    0  0.10929685312E-01 -0.31209063566E-02  0.39497105767E+01  0.39509926396E+01  0.10000000000E+00 0. -1.
</event>
<event>
 5   0  0.6262544E+06  0.9118800E+02  0.7818608E-02  0.1180000E+00
       11   -1    0    0    0    0  0.00000000000E+00  0.00000000000E+00  0.39999999673E+01  0.40000000000E+01  0.51109989000E-03 0.  1.
     -623   -1    0    0    0    0  0.00000000000E+00  0.00000000000E+00  0.12525980253E-10  0.17130000000E+03  0.17130000000E+03 0.  1.
       11    1    1    2    0    0  0.25434247488E-01 -0.42144147573E-01  0.14559288379E+00  0.15368987980E+00  0.51109989000E-03 0.  1.
     -623    1    1    2    0    0 -0.11734958644E-01  0.29410964529E-02  0.96220927219E-02  0.17130000070E+03  0.17130000000E+03 0.  1.
      622    1    1    2    0    0 -0.13699288843E-01  0.39203051120E-01  0.38447849909E+01  0.38463094228E+01  0.10000000000E+00 0.  1.
</event>
<event>
 5   0  0.6262544E+06  0.9118800E+02  0.7818608E-02  0.1180000E+00
       11   -1    0    0    0    0  0.00000000000E+00  0.00000000000E+00  0.39999999673E+01  0.40000000000E+01  0.51109989000E-03 0. -1.
     -623   -1    0    0    0    0  0.00000000000E+00  0.00000000000E+00  0.12525980253E-10  0.17130000000E+03  0.17130000000E+03 0. -1.
       11    1    1    2    0    0  0.35884100166E-01  0.29761676356E-02  0.56641111694E-01  0.67119318926E-01  0.51109989000E-03 0. -1.
     -623    1    1    2    0    0 -0.31465624868E-01  0.11395286647E-01  0.11782137588E-01  0.17130000367E+03  0.17130000000E+03 0. -1.
      622    1    1    2    0    0 -0.44184752987E-02 -0.14371454282E-01  0.39315767181E+01  0.39328770069E+01  0.10000000000E+00 0. -1.
</event>
<event>
 5   0  0.6262544E+06  0.9118800E+02  0.7818608E-02  0.1180000E+00
       11   -1    0    0    0    0  0.00000000000E+00  0.00000000000E+00  0.39999999673E+01  0.40000000000E+01  0.51109989000E-03 0. -1.
     -623   -1    0    0    0    0  0.00000000000E+00  0.00000000000E+00  0.12525980253E-10  0.17130000000E+03  0.17130000000E+03 0. -1.
       11    1    1    2    0    0  0.65950722247E-02  0.11960836134E-01  0.19510834052E+00  0.19558650858E+00  0.51109989000E-03 0. -1.
     -623    1    1    2    0    0 -0.19272282906E-01 -0.12568231131E-02  0.18299171448E-02  0.17130000110E+03  0.17130000000E+03 0. -1.
      622    1    1    2    0    0  0.12677210682E-01 -0.10704013021E-01  0.38030617097E+01  0.38044123929E+01  0.10000000000E+00 0. -1.
</event>
<event>
 5   0  0.6262544E+06  0.9118800E+02  0.7818608E-02  0.1180000E+00
       11   -1    0    0    0    0  0.00000000000E+00  0.00000000000E+00  0.39999999673E+01  0.40000000000E+01  0.51109989000E-03 0.  1.
     -623   -1    0    0    0    0  0.00000000000E+00  0.00000000000E+00  0.12525980253E-10  0.17130000000E+03  0.17130000000E+03 0.  1.
       11    1    1    2    0    0  0.48609377170E-02  0.78378635160E-02  0.24079979162E+00  0.24097689036E+00  0.51109989000E-03 0.  1.
     -623    1    1    2    0    0  0.69356776327E-03 -0.39707226103E-02  0.15135836076E-02  0.17130000005E+03  0.17130000000E+03 0.  1.
      622    1    1    2    0    0 -0.55545054803E-02 -0.38671409053E-02  0.37576865925E+01  0.37590230559E+01  0.10000000000E+00 0.  1.
</event>
<event>
 5   0  0.6262544E+06  0.9118800E+02  0.7818608E-02  0.1180000E+00
       11   -1    0    0    0    0  0.00000000000E+00  0.00000000000E+00  0.39999999673E+01  0.40000000000E+01  0.51109989000E-03 0. -1.
     -623   -1    0    0    0    0  0.00000000000E+00  0.00000000000E+00  0.12525980253E-10  0.17130000000E+03  0.17130000000E+03 0.  1.
       11    1    1    2    0    0  0.58605227015E-02 -0.25701514606E-02  0.22353653500E-01  0.23257223619E-01  0.51109989000E-03 0. -1.
     -623    1    1    2    0    0 -0.13014793015E-02 -0.43558831991E-02  0.21697681391E-02  0.17130000007E+03  0.17130000000E+03 0.  1.
      622    1    1    2    0    0 -0.45590434000E-02  0.69260346596E-02  0.39754765457E+01  0.39767427023E+01  0.10000000000E+00 0. -1.
</event>
<event>
 5   0  0.6262544E+06  0.9118800E+02  0.7818608E-02  0.1180000E+00
       11   -1    0    0    0    0  0.00000000000E+00  0.00000000000E+00  0.39999999673E+01  0.40000000000E+01  0.51109989000E-03 0. -1.
     -623   -1    0    0    0    0  0.00000000000E+00  0.00000000000E+00  0.12525980253E-10  0.17130000000E+03  0.17130000000E+03 0.  1.
       11    1    1    2    0    0  0.21840876641E-01  0.61747913934E-02  0.10789651159E+01  0.10792039355E+01  0.51109989000E-03 0. -1.
     -623    1    1    2    0    0  0.23690346827E-01 -0.32467453843E-02  0.23094199972E-02  0.17130000168E+03  0.17130000000E+03 0.  1.
      622    1    1    2    0    0 -0.45531223467E-01 -0.29280460090E-02  0.29187254315E+01  0.29207943800E+01  0.10000000000E+00 0. -1.
</event>
<event>
 5   0  0.6262544E+06  0.9118800E+02  0.7818608E-02  0.1180000E+00
       11   -1    0    0    0    0  0.00000000000E+00  0.00000000000E+00  0.39999999673E+01  0.40000000000E+01  0.51109989000E-03 0.  1.
     -623   -1    0    0    0    0  0.00000000000E+00  0.00000000000E+00  0.12525980253E-10  0.17130000000E+03  0.17130000000E+03 0. -1.
       11    1    1    2    0    0 -0.35894055818E-02 -0.30706154023E-02  0.30503610013E-01  0.30871410048E-01  0.51109989000E-03 0.  1.
     -623    1    1    2    0    0  0.45242325111E-02 -0.83291850368E-03  0.16297895034E-02  0.17130000007E+03  0.17130000000E+03 0. -1.
      622    1    1    2    0    0 -0.93482692938E-03  0.39035339060E-02  0.39678665679E+01  0.39691285205E+01  0.10000000000E+00 0.  1.
</event>
<event>
 5   0  0.6262544E+06  0.9118800E+02  0.7818608E-02  0.1180000E+00
       11   -1    0    0    0    0  0.00000000000E+00  0.00000000000E+00  0.39999999673E+01  0.40000000000E+01  0.51109989000E-03 0.  1.
     -623   -1    0    0    0    0  0.00000000000E+00  0.00000000000E+00  0.12525980253E-10  0.17130000000E+03  0.17130000000E+03 0. -1.
       11    1    1    2    0    0  0.49484744914E-02 -0.61004835930E-02  0.63482407357E-01  0.63968590471E-01  0.51109989000E-03 0.  1.
     -623    1    1    2    0    0  0.53555612449E-02 -0.27107840584E-02  0.17801425234E-02  0.17130000011E+03  0.17130000000E+03 0. -1.
      622    1    1    2    0    0 -0.10304035736E-01  0.88112676514E-02  0.39347374175E+01  0.39360312951E+01  0.10000000000E+00 0.  1.
</event>
<event>
 5   0  0.6262544E+06  0.9118800E+02  0.7818608E-02  0.1180000E+00
       11   -1    0    0    0    0  0.00000000000E+00  0.00000000000E+00  0.39999999673E+01  0.40000000000E+01  0.51109989000E-03 0. -1.
     -623   -1    0    0    0    0  0.00000000000E+00  0.00000000000E+00  0.12525980253E-10  0.17130000000E+03  0.17130000000E+03 0.  1.
       11    1    1    2    0    0 -0.97525712635E-02  0.81309673460E-02  0.62434224397E-01  0.63714353748E-01  0.51109989000E-03 0. -1.
     -623    1    1    2    0    0  0.20965628794E-01 -0.13049006577E-01  0.25713841526E-02  0.17130000180E+03  0.17130000000E+03 0.  1.
      622    1    1    2    0    0 -0.11213057531E-01  0.49180392314E-02  0.39349943588E+01  0.39362838469E+01  0.10000000000E+00 0. -1.
</event>
<event>
 5   0  0.6262544E+06  0.9118800E+02  0.7818608E-02  0.1180000E+00
       11   -1    0    0    0    0  0.00000000000E+00  0.00000000000E+00  0.39999999673E+01  0.40000000000E+01  0.51109989000E-03 0. -1.
     -623   -1    0    0    0    0  0.00000000000E+00  0.00000000000E+00  0.12525980253E-10  0.17130000000E+03  0.17130000000E+03 0.  1.
       11    1    1    2    0    0  0.12401004905E-02  0.19537079167E-01  0.71216149702E+00  0.71243069444E+00  0.51109989000E-03 0. -1.
     -623    1    1    2    0    0  0.11237491535E-01  0.64773810836E-02  0.19175648578E-02  0.17130000050E+03  0.17130000000E+03 0.  1.
      622    1    1    2    0    0 -0.12477592026E-01 -0.26014460251E-01  0.32859209054E+01  0.32875688037E+01  0.10000000000E+00 0. -1.
</event>
<event>
 5   0  0.6262544E+06  0.9118800E+02  0.7818608E-02  0.1180000E+00
       11   -1    0    0    0    0  0.00000000000E+00  0.00000000000E+00  0.39999999673E+01  0.40000000000E+01  0.51109989000E-03 0.  1.
     -623   -1    0    0    0    0  0.00000000000E+00  0.00000000000E+00  0.12525980253E-10  0.17130000000E+03  0.17130000000E+03 0.  1.
       11    1    1    2    0    0  0.24522188930E-01 -0.17050450381E-01  0.17710376317E+00  0.17960528878E+00  0.51109989000E-03 0.  1.
     -623    1    1    2    0    0 -0.12575410826E-01  0.12292963377E-01  0.38330775245E-02  0.17130000095E+03  0.17130000000E+03 0.  1.
      622    1    1    2    0    0 -0.11946778105E-01  0.47574870042E-02  0.38190631267E+01  0.38203937657E+01  0.10000000000E+00 0.  0.
</event>
<event>
 5   0  0.6262544E+06  0.9118800E+02  0.7818608E-02  0.1180000E+00
       11   -1    0    0    0    0  0.00000000000E+00  0.00000000000E+00  0.39999999673E+01  0.40000000000E+01  0.51109989000E-03 0.  1.
     -623   -1    0    0    0    0  0.00000000000E+00  0.00000000000E+00  0.12525980253E-10  0.17130000000E+03  0.17130000000E+03 0. -1.
       11    1    1    2    0    0  0.86994884951E-03  0.94850176464E-02  0.43934670343E+00  0.43945023542E+00  0.51109989000E-03 0.  1.
     -623    1    1    2    0    0  0.17205972990E-01 -0.14983674673E-01  0.15597302699E-02  0.17130000153E+03  0.17130000000E+03 0. -1.
      622    1    1    2    0    0 -0.18075921840E-01  0.54986570266E-02  0.35590935337E+01  0.35605482381E+01  0.10000000000E+00 0.  1.
</event>
<event>
 5   0  0.6262544E+06  0.9118800E+02  0.7818608E-02  0.1180000E+00
       11   -1    0    0    0    0  0.00000000000E+00  0.00000000000E+00  0.39999999673E+01  0.40000000000E+01  0.51109989000E-03 0.  1.
     -623   -1    0    0    0    0  0.00000000000E+00  0.00000000000E+00  0.12525980253E-10  0.17130000000E+03  0.17130000000E+03 0.  1.
       11    1    1    2    0    0 -0.16121235257E-01 -0.12609273233E-01  0.57777047591E+00  0.57813309199E+00  0.51109989000E-03 0.  1.
     -623    1    1    2    0    0  0.42839475901E-03 -0.51497998924E-02  0.19062786230E-02  0.17130000009E+03  0.17130000000E+03 0.  1.
      622    1    1    2    0    0  0.15692840498E-01  0.17759073125E-01  0.34203232128E+01  0.34218668195E+01  0.10000000000E+00 0.  1.
</event>
<event>
 5   0  0.6262544E+06  0.9118800E+02  0.7818608E-02  0.1180000E+00
       11   -1    0    0    0    0  0.00000000000E+00  0.00000000000E+00  0.39999999673E+01  0.40000000000E+01  0.51109989000E-03 0. -1.
     -623   -1    0    0    0    0  0.00000000000E+00  0.00000000000E+00  0.12525980253E-10  0.17130000000E+03  0.17130000000E+03 0. -1.
       11    1    1    2    0    0  0.15532755729E-01 -0.14949118865E-01  0.50848539036E+00  0.50894242905E+00  0.51109989000E-03 0. -1.
     -623    1    1    2    0    0 -0.21478069817E-03 -0.50682287581E-02  0.19806504227E-02  0.17130000009E+03  0.17130000000E+03 0. -1.
      622    1    1    2    0    0 -0.15317975030E-01  0.20017347623E-01  0.34895339265E+01  0.34910574843E+01  0.10000000000E+00 0. -1.
</event>
<event>
 5   0  0.6262544E+06  0.9118800E+02  0.7818608E-02  0.1180000E+00
       11   -1    0    0    0    0  0.00000000000E+00  0.00000000000E+00  0.39999999673E+01  0.40000000000E+01  0.51109989000E-03 0.  1.
     -623   -1    0    0    0    0  0.00000000000E+00  0.00000000000E+00  0.12525980253E-10  0.17130000000E+03  0.17130000000E+03 0. -1.
       11    1    1    2    0    0 -0.48400500726E-02  0.39252234781E-01  0.19390096889E+00  0.19789393871E+00  0.51109989000E-03 0.  1.
     -623    1    1    2    0    0  0.36626455280E-02  0.15950244445E-01  0.57101850655E-02  0.17130000088E+03  0.17130000000E+03 0. -1.
      622    1    1    2    0    0  0.11774045446E-02 -0.55202479226E-01  0.38003888134E+01  0.38021051844E+01  0.10000000000E+00 0.  1.
</event>
<event>
 5   0  0.6262544E+06  0.9118800E+02  0.7818608E-02  0.1180000E+00
       11   -1    0    0    0    0  0.00000000000E+00  0.00000000000E+00  0.39999999673E+01  0.40000000000E+01  0.51109989000E-03 0. -1.
     -623   -1    0    0    0    0  0.00000000000E+00  0.00000000000E+00  0.12525980253E-10  0.17130000000E+03  0.17130000000E+03 0. -1.
       11    1    1    2    0    0 -0.31390322942E-02 -0.24439288157E-01  0.19924876838E+00  0.20076719167E+00  0.51109989000E-03 0. -1.
     -623    1    1    2    0    0 -0.43979715902E-02  0.39053596644E-02  0.28977882088E-02  0.17130000013E+03  0.17130000000E+03 0. -1.
      622    1    1    2    0    0  0.75370038845E-02  0.20533928493E-01  0.37978534108E+01  0.37992326829E+01  0.10000000000E+00 0. -1.
</event>
<event>
 5   0  0.6262544E+06  0.9118800E+02  0.7818608E-02  0.1180000E+00
       11   -1    0    0    0    0  0.00000000000E+00  0.00000000000E+00  0.39999999673E+01  0.40000000000E+01  0.51109989000E-03 0.  1.
     -623   -1    0    0    0    0  0.00000000000E+00  0.00000000000E+00  0.12525980253E-10  0.17130000000E+03  0.17130000000E+03 0. -1.
       11    1    1    2    0    0 -0.15940653040E-02  0.68542099963E-03  0.11618969647E-02  0.21499008801E-02  0.51109989000E-03 0.  1.
     -623    1    1    2    0    0  0.82090908195E-03 -0.10457409110E-02  0.22389499942E-02  0.17130000002E+03  0.17130000000E+03 0. -1.
      622    1    1    2    0    0  0.77315622206E-03  0.36031991137E-03  0.39965991204E+01  0.39978500794E+01  0.10000000000E+00 0.  1.
</event>
<event>
 5   0  0.6262544E+06  0.9118800E+02  0.7818608E-02  0.1180000E+00
       11   -1    0    0    0    0  0.00000000000E+00  0.00000000000E+00  0.39999999673E+01  0.40000000000E+01  0.51109989000E-03 0. -1.
     -623   -1    0    0    0    0  0.00000000000E+00  0.00000000000E+00  0.12525980253E-10  0.17130000000E+03  0.17130000000E+03 0.  1.
       11    1    1    2    0    0 -0.16649414336E-02  0.44887379523E-02  0.15323916568E-01  0.16062516630E-01  0.51109989000E-03 0. -1.
     -623    1    1    2    0    0  0.56996081086E-04 -0.30922131643E-02  0.19944139202E-02  0.17130000004E+03  0.17130000000E+03 0.  1.
      622    1    1    2    0    0  0.16079453525E-02 -0.13965247879E-02  0.39826816370E+01  0.39839374440E+01  0.10000000000E+00 0. -1.
</event>
<event>
 5   0  0.6262544E+06  0.9118800E+02  0.7818608E-02  0.1180000E+00
       11   -1    0    0    0    0  0.00000000000E+00  0.00000000000E+00  0.39999999673E+01  0.40000000000E+01  0.51109989000E-03 0. -1.
     -623   -1    0    0    0    0  0.00000000000E+00  0.00000000000E+00  0.12525980253E-10  0.17130000000E+03  0.17130000000E+03 0.  1.
       11    1    1    2    0    0 -0.61730818601E-03 -0.75659780314E-02  0.22240461357E+00  0.22253471291E+00  0.51109989000E-03 0. -1.
     -623    1    1    2    0    0 -0.71857813559E-03  0.13271008208E-02  0.14593406484E-02  0.17130000001E+03  0.17130000000E+03 0.  1.
      622    1    1    2    0    0  0.13358863216E-02  0.62388772106E-02  0.37761360130E+01  0.37774652741E+01  0.10000000000E+00 0. -1.
</event>
<event>
 5   0  0.6262544E+06  0.9118800E+02  0.7818608E-02  0.1180000E+00
       11   -1    0    0    0    0  0.00000000000E+00  0.00000000000E+00  0.39999999673E+01  0.40000000000E+01  0.51109989000E-03 0.  1.
     -623   -1    0    0    0    0  0.00000000000E+00  0.00000000000E+00  0.12525980253E-10  0.17130000000E+03  0.17130000000E+03 0.  1.
       11    1    1    2    0    0  0.44307308049E-01 -0.11745293209E-01  0.21908387978E+01  0.21913183220E+01  0.51109989000E-03 0.  1.
     -623    1    1    2    0    0 -0.17485990287E-01  0.18593237079E-01  0.34601617259E-02  0.17130000194E+03  0.17130000000E+03 0.  1.
      622    1    1    2    0    0 -0.26821317762E-01 -0.68479438691E-02  0.18057010079E+01  0.18086797415E+01  0.10000000000E+00 0.  0.
</event>
<event>
 5   0  0.6262544E+06  0.9118800E+02  0.7818608E-02  0.1180000E+00
       11   -1    0    0    0    0  0.00000000000E+00  0.00000000000E+00  0.39999999673E+01  0.40000000000E+01  0.51109989000E-03 0. -1.
     -623   -1    0    0    0    0  0.00000000000E+00  0.00000000000E+00  0.12525980253E-10  0.17130000000E+03  0.17130000000E+03 0. -1.
       11    1    1    2    0    0  0.28819211813E-02 -0.26815894840E-03  0.11584626449E+00  0.11588354325E+00  0.51109989000E-03 0. -1.
     -623    1    1    2    0    0 -0.28479397025E-02  0.29397951373E-02  0.13257268870E-02  0.17130000005E+03  0.17130000000E+03 0. -1.
      622    1    1    2    0    0 -0.33981478724E-04 -0.26716361889E-02  0.38828279760E+01  0.38841164027E+01  0.10000000000E+00 0. -1.
</event>
<event>
 5   0  0.6262544E+06  0.9118800E+02  0.7818608E-02  0.1180000E+00
       11   -1    0    0    0    0  0.00000000000E+00  0.00000000000E+00  0.39999999673E+01  0.40000000000E+01  0.51109989000E-03 0. -1.
     -623   -1    0    0    0    0  0.00000000000E+00  0.00000000000E+00  0.12525980253E-10  0.17130000000E+03  0.17130000000E+03 0.  1.
       11    1    1    2    0    0 -0.26448376952E-01  0.50126526119E-02  0.42098802805E+00  0.42184810573E+00  0.51109989000E-03 0. -1.
     -623    1    1    2    0    0  0.11981504383E-01 -0.13938770014E-01  0.22990846015E-02  0.17130000100E+03  0.17130000000E+03 0.  1.
      622    1    1    2    0    0  0.14466872570E-01  0.89261174027E-02  0.35767128548E+01  0.35781508928E+01  0.10000000000E+00 0. -1.
</event>
<event>
 5   0  0.6262544E+06  0.9118800E+02  0.7818608E-02  0.1180000E+00
       11   -1    0    0    0    0  0.00000000000E+00  0.00000000000E+00  0.39999999673E+01  0.40000000000E+01  0.51109989000E-03 0. -1.
     -623   -1    0    0    0    0  0.00000000000E+00  0.00000000000E+00  0.12525980253E-10  0.17130000000E+03  0.17130000000E+03 0. -1.
       11    1    1    2    0    0  0.13245383301E-01  0.24085578249E-02  0.63954884145E-01  0.65358471208E-01  0.51109989000E-03 0. -1.
     -623    1    1    2    0    0 -0.83224684531E-03 -0.45553229236E-02  0.26947802046E-02  0.17130000008E+03  0.17130000000E+03 0. -1.
      622    1    1    2    0    0 -0.12413136456E-01  0.21467650987E-02  0.39333503030E+01  0.39346414450E+01  0.10000000000E+00 0. -1.
</event>
<event>
 5   0  0.6262544E+06  0.9118800E+02  0.7818608E-02  0.1180000E+00
       11   -1    0    0    0    0  0.00000000000E+00  0.00000000000E+00  0.39999999673E+01  0.40000000000E+01  0.51109989000E-03 0. -1.
     -623   -1    0    0    0    0  0.00000000000E+00  0.00000000000E+00  0.12525980253E-10  0.17130000000E+03  0.17130000000E+03 0.  1.
       11    1    1    2    0    0 -0.24089420176E-01 -0.63155318847E-01  0.14270495064E+01  0.14286495194E+01  0.51109989000E-03 0. -1.
     -623    1    1    2    0    0  0.11918101688E-01  0.22140048290E-03  0.43453806742E-02  0.17130000047E+03  0.17130000000E+03 0.  1.
      622    1    1    2    0    0  0.12171318488E-01  0.62933918364E-01  0.25686050803E+01  0.25713500107E+01  0.10000000000E+00 0. -1.
</event>
<event>
 5   0  0.6262544E+06  0.9118800E+02  0.7818608E-02  0.1180000E+00
       11   -1    0    0    0    0  0.00000000000E+00  0.00000000000E+00  0.39999999673E+01  0.40000000000E+01  0.51109989000E-03 0. -1.
     -623   -1    0    0    0    0  0.00000000000E+00  0.00000000000E+00  0.12525980253E-10  0.17130000000E+03  0.17130000000E+03 0.  1.
       11    1    1    2    0    0 -0.40577836605E-02 -0.13931809824E-02  0.16329883832E+00  0.16335598666E+00  0.51109989000E-03 0. -1.
     -623    1    1    2    0    0  0.63442755280E-02  0.14722459743E-02  0.13613710472E-02  0.17130000013E+03  0.17130000000E+03 0.  1.
      622    1    1    2    0    0 -0.22864918675E-02 -0.79064991930E-04  0.38353397580E+01  0.38366438841E+01  0.10000000000E+00 0. -1.
</event>
<event>
 5   0  0.6262544E+06  0.9118800E+02  0.7818608E-02  0.1180000E+00
       11   -1    0    0    0    0  0.00000000000E+00  0.00000000000E+00  0.39999999673E+01  0.40000000000E+01  0.51109989000E-03 0. -1.
     -623   -1    0    0    0    0  0.00000000000E+00  0.00000000000E+00  0.12525980253E-10  0.17130000000E+03  0.17130000000E+03 0.  1.
       11    1    1    2    0    0 -0.20612770906E-02  0.25779425507E-02  0.67167283718E-01  0.67250277889E-01  0.51109989000E-03 0. -1.
     -623    1    1    2    0    0  0.47455412448E-02  0.11404915990E-03  0.13564513466E-02  0.17130000007E+03  0.17130000000E+03 0.  1.
      622    1    1    2    0    0 -0.26842641540E-02 -0.26919917106E-02  0.39314762321E+01  0.39327496508E+01  0.10000000000E+00 0. -1.
</event>
<event>
 5   0  0.6262544E+06  0.9118800E+02  0.7818608E-02  0.1180000E+00
       11   -1    0    0    0    0  0.00000000000E+00  0.00000000000E+00  0.39999999673E+01  0.40000000000E+01  0.51109989000E-03 0. -1.
     -623   -1    0    0    0    0  0.00000000000E+00  0.00000000000E+00  0.12525980253E-10  0.17130000000E+03  0.17130000000E+03 0.  1.
       11    1    1    2    0    0 -0.86238747913E-02 -0.43675966663E-02  0.21501382453E+01  0.21501600365E+01  0.51109989000E-03 0. -1.
     -623    1    1    2    0    0 -0.17266101249E-01 -0.12497909049E-01  0.29864820128E-02  0.17130000135E+03  0.17130000000E+03 0.  1.
      622    1    1    2    0    0  0.25889976040E-01  0.16865505716E-01  0.18468752400E+01  0.18498386114E+01  0.10000000000E+00 0. -1.
</event>
<event>
 5   0  0.6262544E+06  0.9118800E+02  0.7818608E-02  0.1180000E+00
       11   -1    0    0    0    0  0.00000000000E+00  0.00000000000E+00  0.39999999673E+01  0.40000000000E+01  0.51109989000E-03 0. -1.
     -623   -1    0    0    0    0  0.00000000000E+00  0.00000000000E+00  0.12525980253E-10  0.17130000000E+03  0.17130000000E+03 0. -1.
       11    1    1    2    0    0  0.45256679423E-01 -0.38954115031E-01  0.23810762727E+01  0.23818249448E+01  0.51109989000E-03 0. -1.
     -623    1    1    2    0    0 -0.21731781662E-01 -0.13183114921E-03  0.44873454760E-02  0.17130000144E+03  0.17130000000E+03 0. -1.
      622    1    1    2    0    0 -0.23524897760E-01  0.39085946181E-01  0.16144363492E+01  0.16181736179E+01  0.10000000000E+00 0. -1.
</event>
<event>
 5   0  0.6262544E+06  0.9118800E+02  0.7818608E-02  0.1180000E+00
       11   -1    0    0    0    0  0.00000000000E+00  0.00000000000E+00  0.39999999673E+01  0.40000000000E+01  0.51109989000E-03 0. -1.
     -623   -1    0    0    0    0  0.00000000000E+00  0.00000000000E+00  0.12525980253E-10  0.17130000000E+03  0.17130000000E+03 0.  1.
       11    1    1    2    0    0 -0.29522881060E-02 -0.14233330431E-02  0.16819882513E-01  0.17143848834E-01  0.51109989000E-03 0. -1.
     -623    1    1    2    0    0  0.90068256888E-02 -0.20658496293E-01  0.16468394463E-02  0.17130000149E+03  0.17130000000E+03 0.  1.
      622    1    1    2    0    0 -0.60545375833E-02  0.22081829337E-01  0.39815332456E+01  0.39828546610E+01  0.10000000000E+00 0. -1.
</event>
<event>
 5   0  0.6262544E+06  0.9118800E+02  0.7818608E-02  0.1180000E+00
       11   -1    0    0    0    0  0.00000000000E+00  0.00000000000E+00  0.39999999673E+01  0.40000000000E+01  0.51109989000E-03 0.  1.
     -623   -1    0    0    0    0  0.00000000000E+00  0.00000000000E+00  0.12525980253E-10  0.17130000000E+03  0.17130000000E+03 0.  1.
       11    1    1    2    0    0  0.91416799544E-02 -0.64985919971E-02  0.62086039066E+00  0.62096190537E+00  0.51109989000E-03 0.  1.
     -623    1    1    2    0    0  0.20123262410E-03  0.87387604830E-03  0.15991326501E-02  0.17130000001E+03  0.17130000000E+03 0.  1.
      622    1    1    2    0    0 -0.93429125785E-02  0.56247159489E-02  0.33775404439E+01  0.33790380847E+01  0.10000000000E+00 0.  1.
</event>
<event>
 5   0  0.6262544E+06  0.9118800E+02  0.7818608E-02  0.1180000E+00
       11   -1    0    0    0    0  0.00000000000E+00  0.00000000000E+00  0.39999999673E+01  0.40000000000E+01  0.51109989000E-03 0. -1.
     -623   -1    0    0    0    0  0.00000000000E+00  0.00000000000E+00  0.12525980253E-10  0.17130000000E+03  0.17130000000E+03 0. -1.
       11    1    1    2    0    0 -0.18386429930E-02  0.14496801504E-02  0.14283277173E+01  0.14283297278E+01  0.51109989000E-03 0. -1.
     -623    1    1    2    0    0  0.12145654154E-01 -0.17459810978E-01  0.20188536587E-02  0.17130000133E+03  0.17130000000E+03 0. -1.
      622    1    1    2    0    0 -0.10307011161E-01  0.16010130827E-01  0.25696533964E+01  0.25716689399E+01  0.10000000000E+00 0. -1.
</event>
<event>
 5   0  0.6262544E+06  0.9118800E+02  0.7818608E-02  0.1180000E+00
       11   -1    0    0    0    0  0.00000000000E+00  0.00000000000E+00  0.39999999673E+01  0.40000000000E+01  0.51109989000E-03 0. -1.
     -623   -1    0    0    0    0  0.00000000000E+00  0.00000000000E+00  0.12525980253E-10  0.17130000000E+03  0.17130000000E+03 0. -1.
       11    1    1    2    0    0  0.15037136649E-01  0.83011123597E-03  0.16525141591E+00  0.16593702495E+00  0.51109989000E-03 0. -1.
     -623    1    1    2    0    0 -0.81180821369E-02 -0.67101870694E-02  0.20009892384E-02  0.17130000034E+03  0.17130000000E+03 0. -1.
      622    1    1    2    0    0 -0.69190545114E-02  0.58800758337E-02  0.38327475624E+01  0.38340626397E+01  0.10000000000E+00 0. -1.
</event>
<event>
 5   0  0.6262544E+06  0.9118800E+02  0.7818608E-02  0.1180000E+00
       11   -1    0    0    0    0  0.00000000000E+00  0.00000000000E+00  0.39999999673E+01  0.40000000000E+01  0.51109989000E-03 0. -1.
     -623   -1    0    0    0    0  0.00000000000E+00  0.00000000000E+00  0.12525980253E-10  0.17130000000E+03  0.17130000000E+03 0.  1.
       11    1    1    2    0    0 -0.87101856111E-02 -0.33535370806E-01  0.75894333311E+00  0.75973398800E+00  0.51109989000E-03 0. -1.
     -623    1    1    2    0    0 -0.42722380007E-02 -0.53667705773E-02  0.25938984346E-02  0.17130000016E+03  0.17130000000E+03 0.  1.
      622    1    1    2    0    0  0.12982423612E-01  0.38902141384E-01  0.32384627358E+01  0.32402658550E+01  0.10000000000E+00 0. -1.
</event>
<event>
 5   0  0.6262544E+06  0.9118800E+02  0.7818608E-02  0.1180000E+00
       11   -1    0    0    0    0  0.00000000000E+00  0.00000000000E+00  0.39999999673E+01  0.40000000000E+01  0.51109989000E-03 0. -1.
     -623   -1    0    0    0    0  0.00000000000E+00  0.00000000000E+00  0.12525980253E-10  0.17130000000E+03  0.17130000000E+03 0. -1.
       11    1    1    2    0    0  0.89285357185E-03  0.23955915949E-01  0.43147582152E-01  0.49362517816E-01  0.51109989000E-03 0. -1.
     -623    1    1    2    0    0 -0.22264939677E-01  0.59617088486E-03  0.76164887694E-02  0.17130000162E+03  0.17130000000E+03 0. -1.
      622    1    1    2    0    0  0.21372086105E-01 -0.24552086834E-01  0.39492358964E+01  0.39506358649E+01  0.10000000000E+00 0. -1.
</event>
<event>
 5   0  0.6262544E+06  0.9118800E+02  0.7818608E-02  0.1180000E+00
       11   -1    0    0    0    0  0.00000000000E+00  0.00000000000E+00  0.39999999673E+01  0.40000000000E+01  0.51109989000E-03 0. -1.
     -623   -1    0    0    0    0  0.00000000000E+00  0.00000000000E+00  0.12525980253E-10  0.17130000000E+03  0.17130000000E+03 0.  1.
       11    1    1    2    0    0  0.99330310950E-01 -0.28550244750E-01  0.32102192744E+01  0.32118825754E+01  0.51109989000E-03 0. -1.
     -623    1    1    2    0    0 -0.14506146262E-02  0.23814469836E-01  0.14201770094E-01  0.17130000225E+03  0.17130000000E+03 0.  1.
      622    1    1    2    0    0 -0.97879696324E-01  0.47357749144E-02  0.77557892287E+00  0.78811517439E+00  0.10000000000E+00 0. -1.
</event>
<event>
 5   0  0.6262544E+06  0.9118800E+02  0.7818608E-02  0.1180000E+00
       11   -1    0    0    0    0  0.00000000000E+00  0.00000000000E+00  0.39999999673E+01  0.40000000000E+01  0.51109989000E-03 0.  1.
     -623   -1    0    0    0    0  0.00000000000E+00  0.00000000000E+00  0.12525980253E-10  0.17130000000E+03  0.17130000000E+03 0. -1.
       11    1    1    2    0    0 -0.51388211181E-03 -0.14874693710E-02  0.12581206134E-01  0.12689547307E-01  0.51109989000E-03 0.  1.
     -623    1    1    2    0    0  0.11370945180E-02  0.20926794080E-02  0.13626005277E-02  0.17130000002E+03  0.17130000000E+03 0. -1.
      622    1    1    2    0    0 -0.62321240631E-03 -0.60521003721E-03  0.39860561611E+01  0.39873104311E+01  0.10000000000E+00 0.  1.
</event>
<event>
 5   0  0.6262544E+06  0.9118800E+02  0.7818608E-02  0.1180000E+00
       11   -1    0    0    0    0  0.00000000000E+00  0.00000000000E+00  0.39999999673E+01  0.40000000000E+01  0.51109989000E-03 0.  1.
     -623   -1    0    0    0    0  0.00000000000E+00  0.00000000000E+00  0.12525980253E-10  0.17130000000E+03  0.17130000000E+03 0. -1.
       11    1    1    2    0    0  0.42673099720E-02 -0.19107949735E-02  0.63426314544E-01  0.63600469114E-01  0.51109989000E-03 0.  1.
     -623    1    1    2    0    0 -0.47580483822E-02 -0.29045381960E-02  0.14475968622E-02  0.17130000010E+03  0.17130000000E+03 0. -1.
      622    1    1    2    0    0  0.49073841010E-03  0.48153331694E-02  0.39351260558E+01  0.39363994339E+01  0.10000000000E+00 0.  1.
</event>
<event>
 5   0  0.6262544E+06  0.9118800E+02  0.7818608E-02  0.1180000E+00
       11   -1    0    0    0    0  0.00000000000E+00  0.00000000000E+00  0.39999999673E+01  0.40000000000E+01  0.51109989000E-03 0.  1.
     -623   -1    0    0    0    0  0.00000000000E+00  0.00000000000E+00  0.12525980253E-10  0.17130000000E+03  0.17130000000E+03 0.  1.
       11    1    1    2    0    0  0.14541347421E-01  0.31414110418E-01  0.25221793666E+00  0.25458288613E+00  0.51109989000E-03 0.  1.
     -623    1    1    2    0    0 -0.43205761488E-02 -0.21030015299E-03  0.38441996677E-02  0.17130000010E+03  0.17130000000E+03 0.  1.
      622    1    1    2    0    0 -0.10220771272E-01 -0.31203810265E-01  0.37439378310E+01  0.37454170161E+01  0.10000000000E+00 0.  1.
</event>
<event>
 5   0  0.6262544E+06  0.9118800E+02  0.7818608E-02  0.1180000E+00
       11   -1    0    0    0    0  0.00000000000E+00  0.00000000000E+00  0.39999999673E+01  0.40000000000E+01  0.51109989000E-03 0. -1.
     -623   -1    0    0    0    0  0.00000000000E+00  0.00000000000E+00  0.12525980253E-10  0.17130000000E+03  0.17130000000E+03 0.  1.
       11    1    1    2    0    0 -0.20884206721E-01 -0.10893508074E+00  0.67144199571E+00  0.68054214912E+00  0.51109989000E-03 0. -1.
     -623    1    1    2    0    0  0.82911940858E-01 -0.42414024068E-01  0.14666876237E-01  0.17130002594E+03  0.17130000000E+03 0.  1.
      622    1    1    2    0    0 -0.62027734137E-01  0.15134910481E+00  0.33138910954E+01  0.33194319068E+01  0.10000000000E+00 0. -1.
</event>
<event>
 5   0  0.6262544E+06  0.9118800E+02  0.7818608E-02  0.1180000E+00
       11   -1    0    0    0    0  0.00000000000E+00  0.00000000000E+00  0.39999999673E+01  0.40000000000E+01  0.51109989000E-03 0. -1.
     -623   -1    0    0    0    0  0.00000000000E+00  0.00000000000E+00  0.12525980253E-10  0.17130000000E+03  0.17130000000E+03 0.  1.
       11    1    1    2    0    0 -0.12465112287E-02  0.57467957148E-02  0.37860584559E+00  0.37865185459E+00  0.51109989000E-03 0. -1.
     -623    1    1    2    0    0  0.14378700191E-01  0.43568276709E-02  0.14655264453E-02  0.17130000067E+03  0.17130000000E+03 0.  1.
      622    1    1    2    0    0 -0.13132188962E-01 -0.10103623386E-01  0.36199285953E+01  0.36213474803E+01  0.10000000000E+00 0. -1.
</event>
<event>
 5   0  0.6262544E+06  0.9118800E+02  0.7818608E-02  0.1180000E+00
       11   -1    0    0    0    0  0.00000000000E+00  0.00000000000E+00  0.39999999673E+01  0.40000000000E+01  0.51109989000E-03 0. -1.
     -623   -1    0    0    0    0  0.00000000000E+00  0.00000000000E+00  0.12525980253E-10  0.17130000000E+03  0.17130000000E+03 0. -1.
       11    1    1    2    0    0  0.24844381965E-01  0.14211948520E-02  0.19426788211E+00  0.19585590201E+00  0.51109989000E-03 0. -1.
     -623    1    1    2    0    0 -0.51748115710E-02 -0.65065177434E-02  0.29570673474E-02  0.17130000023E+03  0.17130000000E+03 0. -1.
      622    1    1    2    0    0 -0.19669570394E-01  0.50853228914E-02  0.38027750179E+01  0.38041438707E+01  0.10000000000E+00 0. -1.
</event>
<event>
 5   0  0.6262544E+06  0.9118800E+02  0.7818608E-02  0.1180000E+00
       11   -1    0    0    0    0  0.00000000000E+00  0.00000000000E+00  0.39999999673E+01  0.40000000000E+01  0.51109989000E-03 0.  1.
     -623   -1    0    0    0    0  0.00000000000E+00  0.00000000000E+00  0.12525980253E-10  0.17130000000E+03  0.17130000000E+03 0.  1.
       11    1    1    2    0    0  0.23388346592E-02  0.54318326796E-03  0.13406553546E-02  0.27971012679E-02  0.51109989000E-03 0.  1.
     -623    1    1    2    0    0 -0.17991589640E-02 -0.83024203718E-03  0.27075633853E-02  0.17130000003E+03  0.17130000000E+03 0.  1.
      622    1    1    2    0    0 -0.53967569512E-03  0.28705876924E-03  0.39959517487E+01  0.39972028660E+01  0.10000000000E+00 0.  1.
</event>
<event>
 5   0  0.6262544E+06  0.9118800E+02  0.7818608E-02  0.1180000E+00
       11   -1    0    0    0    0  0.00000000000E+00  0.00000000000E+00  0.39999999673E+01  0.40000000000E+01  0.51109989000E-03 0. -1.
     -623   -1    0    0    0    0  0.00000000000E+00  0.00000000000E+00  0.12525980253E-10  0.17130000000E+03  0.17130000000E+03 0. -1.
       11    1    1    2    0    0  0.15844389415E-01  0.92553458762E-02  0.10875560192E+01  0.10877109277E+01  0.51109989000E-03 0. -1.
     -623    1    1    2    0    0  0.70077357527E-02 -0.77306587315E-02  0.19626855571E-02  0.17130000033E+03  0.17130000000E+03 0. -1.
      622    1    1    2    0    0 -0.22852125168E-01 -0.15246871447E-02  0.29104812626E+01  0.29122887433E+01  0.10000000000E+00 0. -1.
</event>
<event>
 5   0  0.6262544E+06  0.9118800E+02  0.7818608E-02  0.1180000E+00
       11   -1    0    0    0    0  0.00000000000E+00  0.00000000000E+00  0.39999999673E+01  0.40000000000E+01  0.51109989000E-03 0.  1.
     -623   -1    0    0    0    0  0.00000000000E+00  0.00000000000E+00  0.12525980253E-10  0.17130000000E+03  0.17130000000E+03 0.  1.
       11    1    1    2    0    0  0.10144497250E-01  0.41169503808E-02  0.96999229000E+00  0.97005420673E+00  0.51109989000E-03 0.  1.
     -623    1    1    2    0    0  0.14373621902E-02  0.21348393733E-02  0.17411575405E-02  0.17130000003E+03  0.17130000000E+03 0.  1.
      622    1    1    2    0    0 -0.11581859440E-01 -0.62517897541E-02  0.30282665198E+01  0.30299457651E+01  0.10000000000E+00 0.  1.
</event>
<event>
 5   0  0.6262544E+06  0.9118800E+02  0.7818608E-02  0.1180000E+00
       11   -1    0    0    0    0  0.00000000000E+00  0.00000000000E+00  0.39999999673E+01  0.40000000000E+01  0.51109989000E-03 0.  1.
     -623   -1    0    0    0    0  0.00000000000E+00  0.00000000000E+00  0.12525980253E-10  0.17130000000E+03  0.17130000000E+03 0. -1.
       11    1    1    2    0    0  0.38307955982E-02  0.14585261270E-01  0.17359767296E+01  0.17360423013E+01  0.51109989000E-03 0.  1.
     -623    1    1    2    0    0  0.92877268108E-02 -0.68334986383E-03  0.23561793070E-02  0.17130000027E+03  0.17130000000E+03 0. -1.
      622    1    1    2    0    0 -0.13118522409E-01 -0.13901911406E-01  0.22616670584E+01  0.22639574293E+01  0.10000000000E+00 0.  1.
</event>
<event>
 5   0  0.6262544E+06  0.9118800E+02  0.7818608E-02  0.1180000E+00
       11   -1    0    0    0    0  0.00000000000E+00  0.00000000000E+00  0.39999999673E+01  0.40000000000E+01  0.51109989000E-03 0.  1.
     -623   -1    0    0    0    0  0.00000000000E+00  0.00000000000E+00  0.12525980253E-10  0.17130000000E+03  0.17130000000E+03 0.  1.
       11    1    1    2    0    0  0.18205838997E-01 -0.13175146185E+00  0.53134953386E+00  0.54774308634E+00  0.51109989000E-03 0.  1.
     -623    1    1    2    0    0 -0.28935492919E-01  0.13575882649E-01  0.19887083184E-01  0.17130000414E+03  0.17130000000E+03 0.  1.
      622    1    1    2    0    0  0.10729653922E-01  0.11817557920E+00  0.34487633503E+01  0.34522527775E+01  0.10000000000E+00 0.  1.
</event>
<event>
 5   0  0.6262544E+06  0.9118800E+02  0.7818608E-02  0.1180000E+00
       11   -1    0    0    0    0  0.00000000000E+00  0.00000000000E+00  0.39999999673E+01  0.40000000000E+01  0.51109989000E-03 0.  1.
     -623   -1    0    0    0    0  0.00000000000E+00  0.00000000000E+00  0.12525980253E-10  0.17130000000E+03  0.17130000000E+03 0.  1.
       11    1    1    2    0    0  0.88781984673E-02 -0.20669057912E-01  0.25107529755E+00  0.25208153170E+00  0.51109989000E-03 0.  1.
     -623    1    1    2    0    0  0.59196901676E-02  0.31249289061E-02  0.24109619094E-02  0.17130000015E+03  0.17130000000E+03 0.  1.
      622    1    1    2    0    0 -0.14797888635E-01  0.17544129006E-01  0.37465137080E+01  0.37479183207E+01  0.10000000000E+00 0.  1.
</event>
<event>
 5   0  0.6262544E+06  0.9118800E+02  0.7818608E-02  0.1180000E+00
       11   -1    0    0    0    0  0.00000000000E+00  0.00000000000E+00  0.39999999673E+01  0.40000000000E+01  0.51109989000E-03 0.  1.
     -623   -1    0    0    0    0  0.00000000000E+00  0.00000000000E+00  0.12525980253E-10  0.17130000000E+03  0.17130000000E+03 0.  1.
       11    1    1    2    0    0  0.63752638213E-02  0.17371686084E-01  0.24569246959E+00  0.24638885994E+00  0.51109989000E-03 0.  1.
     -623    1    1    2    0    0 -0.69926435549E-02 -0.80397073136E-02  0.20406436221E-02  0.17130000034E+03  0.17130000000E+03 0.  1.
      622    1    1    2    0    0  0.61737973361E-03 -0.93319787703E-02  0.37522668542E+01  0.37536107966E+01  0.10000000000E+00 0.  1.
</event>
<event>
 5   0  0.6262544E+06  0.9118800E+02  0.7818608E-02  0.1180000E+00
       11   -1    0    0    0    0  0.00000000000E+00  0.00000000000E+00  0.39999999673E+01  0.40000000000E+01  0.51109989000E-03 0. -1.
     -623   -1    0    0    0    0  0.00000000000E+00  0.00000000000E+00  0.12525980253E-10  0.17130000000E+03  0.17130000000E+03 0. -1.
       11    1    1    2    0    0  0.14025807163E-01  0.17687598889E-01  0.70352072089E-01  0.73886735558E-01  0.51109989000E-03 0. -1.
     -623    1    1    2    0    0 -0.33832825510E-02  0.10963350944E-01  0.49278222915E-02  0.17130000046E+03  0.17130000000E+03 0. -1.
      622    1    1    2    0    0 -0.10642524611E-01 -0.28650949833E-01  0.39247200730E+01  0.39261128093E+01  0.10000000000E+00 0. -1.
</event>
<event>
 5   0  0.6262544E+06  0.9118800E+02  0.7818608E-02  0.1180000E+00
       11   -1    0    0    0    0  0.00000000000E+00  0.00000000000E+00  0.39999999673E+01  0.40000000000E+01  0.51109989000E-03 0. -1.
     -623   -1    0    0    0    0  0.00000000000E+00  0.00000000000E+00  0.12525980253E-10  0.17130000000E+03  0.17130000000E+03 0.  1.
       11    1    1    2    0    0 -0.79991638710E-02  0.60527064440E-01  0.18852751805E+01  0.18862635764E+01  0.51109989000E-03 0. -1.
     -623    1    1    2    0    0 -0.37949343815E-01 -0.45069991072E-02  0.46030195722E-02  0.17130000432E+03  0.17130000000E+03 0.  1.
      622    1    1    2    0    0  0.45948507686E-01 -0.56020065333E-01  0.21101217673E+01  0.21137320989E+01  0.10000000000E+00 0.  0.
</event>
<event>
 5   0  0.6262544E+06  0.9118800E+02  0.7818608E-02  0.1180000E+00
       11   -1    0    0    0    0  0.00000000000E+00  0.00000000000E+00  0.39999999673E+01  0.40000000000E+01  0.51109989000E-03 0. -1.
     -623   -1    0    0    0    0  0.00000000000E+00  0.00000000000E+00  0.12525980253E-10  0.17130000000E+03  0.17130000000E+03 0.  1.
       11    1    1    2    0    0  0.17466482132E-02 -0.61039579062E-02  0.19028407537E-01  0.20066155551E-01  0.51109989000E-03 0. -1.
     -623    1    1    2    0    0 -0.30080845607E-02  0.28282814506E-02  0.22958295865E-02  0.17130000007E+03  0.17130000000E+03 0.  1.
      622    1    1    2    0    0  0.12614363477E-02  0.32756764554E-02  0.39786757305E+01  0.39799337795E+01  0.10000000000E+00 0. -1.
</event>
<event>
 5   0  0.6262544E+06  0.9118800E+02  0.7818608E-02  0.1180000E+00
       11   -1    0    0    0    0  0.00000000000E+00  0.00000000000E+00  0.39999999673E+01  0.40000000000E+01  0.51109989000E-03 0.  1.
     -623   -1    0    0    0    0  0.00000000000E+00  0.00000000000E+00  0.12525980253E-10  0.17130000000E+03  0.17130000000E+03 0. -1.
       11    1    1    2    0    0  0.15885560019E-01  0.88299226155E-02  0.15590790373E+00  0.15696449987E+00  0.51109989000E-03 0.  1.
     -623    1    1    2    0    0 -0.70549733095E-02  0.61378446457E-02  0.23974178779E-02  0.17130000027E+03  0.17130000000E+03 0. -1.
      622    1    1    2    0    0 -0.88305867098E-02 -0.14967767261E-01  0.38416946458E+01  0.38430352281E+01  0.10000000000E+00 0.  1.
</event>
<event>
 5   0  0.6262544E+06  0.9118800E+02  0.7818608E-02  0.1180000E+00
       11   -1    0    0    0    0  0.00000000000E+00  0.00000000000E+00  0.39999999673E+01  0.40000000000E+01  0.51109989000E-03 0. -1.
     -623   -1    0    0    0    0  0.00000000000E+00  0.00000000000E+00  0.12525980253E-10  0.17130000000E+03  0.17130000000E+03 0. -1.
       11    1    1    2    0    0 -0.29612291958E-01 -0.37239067031E-01  0.19192651825E+01  0.19198548742E+01  0.51109989000E-03 0. -1.
     -623    1    1    2    0    0  0.16912541170E-02 -0.35554464823E-02  0.35829792278E-02  0.17130000008E+03  0.17130000000E+03 0. -1.
      622    1    1    2    0    0  0.27921037841E-01  0.40794513513E-01  0.20771518056E+01  0.20801450431E+01  0.10000000000E+00 0.  1.
</event>
<event>
 5   0  0.6262544E+06  0.9118800E+02  0.7818608E-02  0.1180000E+00
       11   -1    0    0    0    0  0.00000000000E+00  0.00000000000E+00  0.39999999673E+01  0.40000000000E+01  0.51109989000E-03 0. -1.
     -623   -1    0    0    0    0  0.00000000000E+00  0.00000000000E+00  0.12525980253E-10  0.17130000000E+03  0.17130000000E+03 0.  1.
       11    1    1    2    0    0 -0.35206628129E-01 -0.23100130659E-01  0.24221111061E+00  0.24584467866E+00  0.51109989000E-03 0. -1.
     -623    1    1    2    0    0 -0.11160845916E-01  0.36464088771E-01  0.52802081142E-02  0.17130000433E+03  0.17130000000E+03 0.  1.
      622    1    1    2    0    0  0.46367474045E-01 -0.13363958112E-01  0.37525086486E+01  0.37541509954E+01  0.10000000000E+00 0. -1.
</event>
<event>
 5   0  0.6262544E+06  0.9118800E+02  0.7818608E-02  0.1180000E+00
       11   -1    0    0    0    0  0.00000000000E+00  0.00000000000E+00  0.39999999673E+01  0.40000000000E+01  0.51109989000E-03 0. -1.
     -623   -1    0    0    0    0  0.00000000000E+00  0.00000000000E+00  0.12525980253E-10  0.17130000000E+03  0.17130000000E+03 0.  1.
       11    1    1    2    0    0  0.14868647729E-01  0.93064050130E-02  0.11152737655E+01  0.11154118159E+01  0.51109989000E-03 0. -1.
     -623    1    1    2    0    0  0.16454123025E-01 -0.39542708437E-01  0.22060076163E-02  0.17130000537E+03  0.17130000000E+03 0.  1.
      622    1    1    2    0    0 -0.31322770754E-01  0.30236303424E-01  0.28825201943E+01  0.28845828157E+01  0.10000000000E+00 0.  0.
</event>
<event>
 5   0  0.6262544E+06  0.9118800E+02  0.7818608E-02  0.1180000E+00
       11   -1    0    0    0    0  0.00000000000E+00  0.00000000000E+00  0.39999999673E+01  0.40000000000E+01  0.51109989000E-03 0. -1.
     -623   -1    0    0    0    0  0.00000000000E+00  0.00000000000E+00  0.12525980253E-10  0.17130000000E+03  0.17130000000E+03 0. -1.
       11    1    1    2    0    0 -0.39562399890E-02  0.14078498419E-01  0.12712752380E+00  0.12796688823E+00  0.51109989000E-03 0. -1.
     -623    1    1    2    0    0  0.59784131557E-02 -0.36172355915E-02  0.21456792784E-02  0.17130000016E+03  0.17130000000E+03 0. -1.
      622    1    1    2    0    0 -0.20221731667E-02 -0.10461262827E-01  0.38707267643E+01  0.38720329558E+01  0.10000000000E+00 0. -1.
</event>
<event>
 5   0  0.6262544E+06  0.9118800E+02  0.7818608E-02  0.1180000E+00
       11   -1    0    0    0    0  0.00000000000E+00  0.00000000000E+00  0.39999999673E+01  0.40000000000E+01  0.51109989000E-03 0.  1.
     -623   -1    0    0    0    0  0.00000000000E+00  0.00000000000E+00  0.12525980253E-10  0.17130000000E+03  0.17130000000E+03 0. -1.
       11    1    1    2    0    0  0.14441095442E-01  0.35614901588E-02  0.49996714483E+00  0.50018860102E+00  0.51109989000E-03 0.  1.
     -623    1    1    2    0    0  0.53002964066E-02  0.38117318448E-02  0.17139676087E-02  0.17130000013E+03  0.17130000000E+03 0. -1.
      622    1    1    2    0    0 -0.19741391848E-01 -0.73732220035E-02  0.34983188548E+01  0.34998112659E+01  0.10000000000E+00 0. -1.
</event>
<event>
 5   0  0.6262544E+06  0.9118800E+02  0.7818608E-02  0.1180000E+00
       11   -1    0    0    0    0  0.00000000000E+00  0.00000000000E+00  0.39999999673E+01  0.40000000000E+01  0.51109989000E-03 0.  1.
     -623   -1    0    0    0    0  0.00000000000E+00  0.00000000000E+00  0.12525980253E-10  0.17130000000E+03  0.17130000000E+03 0. -1.
       11    1    1    2    0    0  0.19588171500E-01  0.14302647774E-01  0.40689774815E+00  0.40762029006E+00  0.51109989000E-03 0.  1.
     -623    1    1    2    0    0 -0.15543728349E-01 -0.25989962502E-01  0.21386018532E-02  0.17130000269E+03  0.17130000000E+03 0. -1.
      622    1    1    2    0    0 -0.40444431499E-02  0.11687314730E-01  0.35909636176E+01  0.35923770200E+01  0.10000000000E+00 0.  1.
</event>
<event>
 5   0  0.6262544E+06  0.9118800E+02  0.7818608E-02  0.1180000E+00
       11   -1    0    0    0    0  0.00000000000E+00  0.00000000000E+00  0.39999999673E+01  0.40000000000E+01  0.51109989000E-03 0.  1.
     -623   -1    0    0    0    0  0.00000000000E+00  0.00000000000E+00  0.12525980253E-10  0.17130000000E+03  0.17130000000E+03 0.  1.
       11    1    1    2    0    0  0.42475881696E-01  0.38083825139E-01  0.10234667990E+01  0.10250556707E+01  0.51109989000E-03 0.  1.
     -623    1    1    2    0    0  0.94562981669E-02  0.52563702133E-02  0.40399182350E-02  0.17130000039E+03  0.17130000000E+03 0.  1.
      622    1    1    2    0    0 -0.51932179862E-01 -0.43340195352E-01  0.29724932502E+01  0.29749439400E+01  0.10000000000E+00 0.  0.
</event>
<event>
 5   0  0.6262544E+06  0.9118800E+02  0.7818608E-02  0.1180000E+00
       11   -1    0    0    0    0  0.00000000000E+00  0.00000000000E+00  0.39999999673E+01  0.40000000000E+01  0.51109989000E-03 0.  1.
     -623   -1    0    0    0    0  0.00000000000E+00  0.00000000000E+00  0.12525980253E-10  0.17130000000E+03  0.17130000000E+03 0.  1.
       11    1    1    2    0    0 -0.91354872902E-03  0.48278702309E-02  0.42131899628E-01  0.42420526746E-01  0.51109989000E-03 0.  1.
     -623    1    1    2    0    0  0.63160564038E-02  0.15126385222E-02  0.15610944082E-02  0.17130000013E+03  0.17130000000E+03 0.  1.
      622    1    1    2    0    0 -0.54025076747E-02 -0.63405087532E-02  0.39563069733E+01  0.39575793430E+01  0.10000000000E+00 0.  1.
</event>
<event>
 5   0  0.6262544E+06  0.9118800E+02  0.7818608E-02  0.1180000E+00
       11   -1    0    0    0    0  0.00000000000E+00  0.00000000000E+00  0.39999999673E+01  0.40000000000E+01  0.51109989000E-03 0. -1.
     -623   -1    0    0    0    0  0.00000000000E+00  0.00000000000E+00  0.12525980253E-10  0.17130000000E+03  0.17130000000E+03 0.  1.
       11    1    1    2    0    0  0.25800523720E-01 -0.30279184466E-01  0.82636429345E+00  0.82732140233E+00  0.51109989000E-03 0. -1.
     -623    1    1    2    0    0 -0.69250927283E-02  0.19062695038E-02  0.27167081010E-02  0.17130000017E+03  0.17130000000E+03 0.  1.
      622    1    1    2    0    0 -0.18875430991E-01  0.28372914962E-01  0.31709189658E+01  0.31726784255E+01  0.10000000000E+00 0. -1.
</event>
<event>
 5   0  0.6262544E+06  0.9118800E+02  0.7818608E-02  0.1180000E+00
       11   -1    0    0    0    0  0.00000000000E+00  0.00000000000E+00  0.39999999673E+01  0.40000000000E+01  0.51109989000E-03 0. -1.
     -623   -1    0    0    0    0  0.00000000000E+00  0.00000000000E+00  0.12525980253E-10  0.17130000000E+03  0.17130000000E+03 0. -1.
       11    1    1    2    0    0 -0.17073868648E-02  0.27546958825E-02  0.69517998449E-02  0.76871492436E-02  0.51109989000E-03 0. -1.
     -623    1    1    2    0    0  0.26268872449E-02 -0.14663063513E-02  0.19882719709E-02  0.17130000004E+03  0.17130000000E+03 0. -1.
      622    1    1    2    0    0 -0.91950038006E-03 -0.12883895312E-02  0.39910598955E+01  0.39923128128E+01  0.10000000000E+00 0. -1.
</event>
<event>
 5   0  0.6262544E+06  0.9118800E+02  0.7818608E-02  0.1180000E+00
       11   -1    0    0    0    0  0.00000000000E+00  0.00000000000E+00  0.39999999673E+01  0.40000000000E+01  0.51109989000E-03 0.  1.
     -623   -1    0    0    0    0  0.00000000000E+00  0.00000000000E+00  0.12525980253E-10  0.17130000000E+03  0.17130000000E+03 0. -1.
       11    1    1    2    0    0  0.43760774682E-01 -0.26617525326E-01  0.10604108260E+00  0.11776447035E+00  0.51109989000E-03 0.  1.
     -623    1    1    2    0    0 -0.10455905921E-01 -0.11889012139E-01  0.13346687987E-01  0.17130000125E+03  0.17130000000E+03 0. -1.
      622    1    1    2    0    0 -0.33304868761E-01  0.38506537465E-01  0.38806121968E+01  0.38822342780E+01  0.10000000000E+00 0.  1.
</event>
<event>
 5   0  0.6262544E+06  0.9118800E+02  0.7818608E-02  0.1180000E+00
       11   -1    0    0    0    0  0.00000000000E+00  0.00000000000E+00  0.39999999673E+01  0.40000000000E+01  0.51109989000E-03 0.  1.
     -623   -1    0    0    0    0  0.00000000000E+00  0.00000000000E+00  0.12525980253E-10  0.17130000000E+03  0.17130000000E+03 0. -1.
       11    1    1    2    0    0 -0.17447186664E-01  0.45493516105E-02  0.10598542320E+00  0.10750940459E+00  0.51109989000E-03 0.  1.
     -623    1    1    2    0    0  0.78158840058E-02 -0.78330107579E-02  0.28223711043E-02  0.17130000038E+03  0.17130000000E+03 0. -1.
      622    1    1    2    0    0  0.96313026585E-02  0.32836591473E-02  0.38911921731E+01  0.38924902148E+01  0.10000000000E+00 0.  1.
</event>
<event>
 5   0  0.6262544E+06  0.9118800E+02  0.7818608E-02  0.1180000E+00
       11   -1    0    0    0    0  0.00000000000E+00  0.00000000000E+00  0.39999999673E+01  0.40000000000E+01  0.51109989000E-03 0.  1.
     -623   -1    0    0    0    0  0.00000000000E+00  0.00000000000E+00  0.12525980253E-10  0.17130000000E+03  0.17130000000E+03 0.  1.
       11    1    1    2    0    0  0.16367510741E-01  0.31802703292E-02  0.12787007589E+00  0.12895358490E+00  0.51109989000E-03 0.  1.
     -623    1    1    2    0    0 -0.76489037903E-02  0.49594457550E-02  0.23939739468E-02  0.17130000026E+03  0.17130000000E+03 0.  1.
      622    1    1    2    0    0 -0.87186069507E-02 -0.81397160842E-02  0.38697359175E+01  0.38710461558E+01  0.10000000000E+00 0.  1.
</event>
<event>
 5   0  0.6262544E+06  0.9118800E+02  0.7818608E-02  0.1180000E+00
       11   -1    0    0    0    0  0.00000000000E+00  0.00000000000E+00  0.39999999673E+01  0.40000000000E+01  0.51109989000E-03 0.  1.
     -623   -1    0    0    0    0  0.00000000000E+00  0.00000000000E+00  0.12525980253E-10  0.17130000000E+03  0.17130000000E+03 0.  1.
       11    1    1    2    0    0 -0.26002347712E-01 -0.18047095324E-01  0.72444226979E+00  0.72513356233E+00  0.51109989000E-03 0.  1.
     -623    1    1    2    0    0  0.38805716452E-01 -0.45978608381E-02  0.23262410995E-02  0.17130000447E+03  0.17130000000E+03 0.  1.
      622    1    1    2    0    0 -0.12803368742E-01  0.22644956163E-01  0.32732314566E+01  0.32748619648E+01  0.10000000000E+00 0.  1.
</event>
<event>
 5   0  0.6262544E+06  0.9118800E+02  0.7818608E-02  0.1180000E+00
       11   -1    0    0    0    0  0.00000000000E+00  0.00000000000E+00  0.39999999673E+01  0.40000000000E+01  0.51109989000E-03 0. -1.
     -623   -1    0    0    0    0  0.00000000000E+00  0.00000000000E+00  0.12525980253E-10  0.17130000000E+03  0.17130000000E+03 0.  1.
       11    1    1    2    0    0  0.99250739808E-01  0.62100662832E-01  0.19458742308E+01  0.19493932350E+01  0.51109989000E-03 0. -1.
     -623    1    1    2    0    0 -0.67623223968E-01 -0.67120363978E-01  0.62357320692E-02  0.17130002661E+03  0.17130000000E+03 0.  1.
      622    1    1    2    0    0 -0.31627515840E-01  0.50197011464E-02  0.20478900045E+01  0.20505801540E+01  0.10000000000E+00 0.  0.
</event>
<event>
 5   0  0.6262544E+06  0.9118800E+02  0.7818608E-02  0.1180000E+00
       11   -1    0    0    0    0  0.00000000000E+00  0.00000000000E+00  0.39999999673E+01  0.40000000000E+01  0.51109989000E-03 0.  1.
     -623   -1    0    0    0    0  0.00000000000E+00  0.00000000000E+00  0.12525980253E-10  0.17130000000E+03  0.17130000000E+03 0.  1.
       11    1    1    2    0    0  0.37048020269E-01 -0.31609711062E-02  0.69453429351E+00  0.69552907461E+00  0.51109989000E-03 0.  1.
     -623    1    1    2    0    0 -0.22494072294E-01  0.15922745964E-01  0.25671531837E-02  0.17130000224E+03  0.17130000000E+03 0.  1.
      622    1    1    2    0    0 -0.14553947974E-01 -0.12761774858E-01  0.33028985209E+01  0.33044686894E+01  0.10000000000E+00 0.  1.
</event>
<event>
 5   0  0.6262544E+06  0.9118800E+02  0.7818608E-02  0.1180000E+00
       11   -1    0    0    0    0  0.00000000000E+00  0.00000000000E+00  0.39999999673E+01  0.40000000000E+01  0.51109989000E-03 0. -1.
     -623   -1    0    0    0    0  0.00000000000E+00  0.00000000000E+00  0.12525980253E-10  0.17130000000E+03  0.17130000000E+03 0. -1.
       11    1    1    2    0    0 -0.47646334522E-02 -0.96218861310E-02  0.21837248313E-01  0.24339454817E-01  0.51109989000E-03 0. -1.
     -623    1    1    2    0    0 -0.30745214213E-02  0.24992478141E-01  0.37993723057E-02  0.17130000189E+03  0.17130000000E+03 0. -1.
      622    1    1    2    0    0  0.78391548736E-02 -0.15370592010E-01  0.39743633467E+01  0.39756586523E+01  0.10000000000E+00 0. -1.
</event>
<event>
 5   0  0.6262544E+06  0.9118800E+02  0.7818608E-02  0.1180000E+00
       11   -1    0    0    0    0  0.00000000000E+00  0.00000000000E+00  0.39999999673E+01  0.40000000000E+01  0.51109989000E-03 0.  1.
     -623   -1    0    0    0    0  0.00000000000E+00  0.00000000000E+00  0.12525980253E-10  0.17130000000E+03  0.17130000000E+03 0.  1.
       11    1    1    2    0    0 -0.74079316182E-03 -0.58310875296E-01  0.35232652458E+00  0.35712035520E+00  0.51109989000E-03 0.  1.
     -623    1    1    2    0    0  0.95547422404E-02 -0.19653018852E-02  0.66765694320E-02  0.17130000041E+03  0.17130000000E+03 0.  1.
      622    1    1    2    0    0 -0.88139490786E-02  0.60276177182E-01  0.36409968733E+01  0.36428792369E+01  0.10000000000E+00 0.  1.
</event>
<event>
 5   0  0.6262544E+06  0.9118800E+02  0.7818608E-02  0.1180000E+00
       11   -1    0    0    0    0  0.00000000000E+00  0.00000000000E+00  0.39999999673E+01  0.40000000000E+01  0.51109989000E-03 0.  1.
     -623   -1    0    0    0    0  0.00000000000E+00  0.00000000000E+00  0.12525980253E-10  0.17130000000E+03  0.17130000000E+03 0. -1.
       11    1    1    2    0    0  0.11547148157E-01  0.58077319558E-02  0.27007987661E+00  0.27038947345E+00  0.51109989000E-03 0.  1.
     -623    1    1    2    0    0 -0.12104722056E-02 -0.86427716557E-02  0.16660655048E-02  0.17130000023E+03  0.17130000000E+03 0. -1.
      622    1    1    2    0    0 -0.10336675951E-01  0.28350396999E-02  0.37282540252E+01  0.37296102961E+01  0.10000000000E+00 0.  1.
</event>
<event>
 5   0  0.6262544E+06  0.9118800E+02  0.7818608E-02  0.1180000E+00
       11   -1    0    0    0    0  0.00000000000E+00  0.00000000000E+00  0.39999999673E+01  0.40000000000E+01  0.51109989000E-03 0. -1.
     -623   -1    0    0    0    0  0.00000000000E+00  0.00000000000E+00  0.12525980253E-10  0.17130000000E+03  0.17130000000E+03 0.  1.
       11    1    1    2    0    0 -0.15560221400E-01 -0.83685085834E-01  0.45626105344E+00  0.46413330433E+00  0.51109989000E-03 0. -1.
     -623    1    1    2    0    0 -0.12886787492E-01  0.41810243826E-01  0.96549987182E-02  0.17130000586E+03  0.17130000000E+03 0.  1.
      622    1    1    2    0    0  0.28447008893E-01  0.41874842009E-01  0.35340839152E+01  0.35358608364E+01  0.10000000000E+00 0. -1.
</event>
<event>
 5   0  0.6262544E+06  0.9118800E+02  0.7818608E-02  0.1180000E+00
       11   -1    0    0    0    0  0.00000000000E+00  0.00000000000E+00  0.39999999673E+01  0.40000000000E+01  0.51109989000E-03 0. -1.
     -623   -1    0    0    0    0  0.00000000000E+00  0.00000000000E+00  0.12525980253E-10  0.17130000000E+03  0.17130000000E+03 0.  1.
       11    1    1    2    0    0 -0.29529467656E-01 -0.17342677218E-01  0.29998709142E+00  0.30193587755E+00  0.51109989000E-03 0. -1.
     -623    1    1    2    0    0 -0.73111992437E-03  0.46298431297E-01  0.35446214057E-02  0.17130000629E+03  0.17130000000E+03 0.  1.
      622    1    1    2    0    0  0.30260587581E-01 -0.28955754081E-01  0.36964682546E+01  0.36980578276E+01  0.10000000000E+00 0. -1.
</event>
<event>
 5   0  0.6262544E+06  0.9118800E+02  0.7818608E-02  0.1180000E+00
       11   -1    0    0    0    0  0.00000000000E+00  0.00000000000E+00  0.39999999673E+01  0.40000000000E+01  0.51109989000E-03 0.  1.
     -623   -1    0    0    0    0  0.00000000000E+00  0.00000000000E+00  0.12525980253E-10  0.17130000000E+03  0.17130000000E+03 0. -1.
       11    1    1    2    0    0 -0.68300230115E-02 -0.71356395759E-03  0.11434993046E+00  0.11455708711E+00  0.51109989000E-03 0.  1.
     -623    1    1    2    0    0 -0.25612898159E-02 -0.66856691594E-02  0.15127492432E-02  0.17130000016E+03  0.17130000000E+03 0. -1.
      622    1    1    2    0    0  0.93913128274E-02  0.73992331170E-02  0.38841372877E+01  0.38854427566E+01  0.10000000000E+00 0.  1.
</event>
<event>
 5   0  0.6262544E+06  0.9118800E+02  0.7818608E-02  0.1180000E+00
       11   -1    0    0    0    0  0.00000000000E+00  0.00000000000E+00  0.39999999673E+01  0.40000000000E+01  0.51109989000E-03 0.  1.
     -623   -1    0    0    0    0  0.00000000000E+00  0.00000000000E+00  0.12525980253E-10  0.17130000000E+03  0.17130000000E+03 0.  1.
       11    1    1    2    0    0  0.16865174804E-02 -0.10964124426E-01  0.79035598204E-01  0.79811925000E-01  0.51109989000E-03 0.  1.
     -623    1    1    2    0    0 -0.47678630284E-02  0.38602646232E-02  0.20597230189E-02  0.17130000012E+03  0.17130000000E+03 0.  1.
      622    1    1    2    0    0  0.30813455480E-02  0.71038598031E-02  0.39189046461E+01  0.39201879528E+01  0.10000000000E+00 0.  1.
</event>
<event>
 5   0  0.6262544E+06  0.9118800E+02  0.7818608E-02  0.1180000E+00
       11   -1    0    0    0    0  0.00000000000E+00  0.00000000000E+00  0.39999999673E+01  0.40000000000E+01  0.51109989000E-03 0. -1.
     -623   -1    0    0    0    0  0.00000000000E+00  0.00000000000E+00  0.12525980253E-10  0.17130000000E+03  0.17130000000E+03 0.  1.
       11    1    1    2    0    0  0.48844271839E-02  0.29559991426E-02  0.68387509377E-02  0.89233007396E-02  0.51109989000E-03 0. -1.
     -623    1    1    2    0    0 -0.13081735314E-02 -0.43583587414E-02  0.33394508651E-02  0.17130000009E+03  0.17130000000E+03 0.  1.
      622    1    1    2    0    0 -0.35762536525E-02  0.14023595988E-02  0.39898217656E+01  0.39910766063E+01  0.10000000000E+00 0. -1.
</event>
<event>
 5   0  0.6262544E+06  0.9118800E+02  0.7818608E-02  0.1180000E+00
       11   -1    0    0    0    0  0.00000000000E+00  0.00000000000E+00  0.39999999673E+01  0.40000000000E+01  0.51109989000E-03 0.  1.
     -623   -1    0    0    0    0  0.00000000000E+00  0.00000000000E+00  0.12525980253E-10  0.17130000000E+03  0.17130000000E+03 0. -1.
       11    1    1    2    0    0 -0.19164019213E-02  0.26736466694E-02  0.54934955087E-02  0.64234491387E-02  0.51109989000E-03 0.  1.
     -623    1    1    2    0    0  0.27352484692E-02 -0.49062871708E-02  0.21829421644E-02  0.17130000011E+03  0.17130000000E+03 0. -1.
      622    1    1    2    0    0 -0.81884654798E-03  0.22326405015E-02  0.39923235298E+01  0.39935764449E+01  0.10000000000E+00 0.  1.
</event>
<event>
 5   0  0.6262544E+06  0.9118800E+02  0.7818608E-02  0.1180000E+00
       11   -1    0    0    0    0  0.00000000000E+00  0.00000000000E+00  0.39999999673E+01  0.40000000000E+01  0.51109989000E-03 0.  1.
     -623   -1    0    0    0    0  0.00000000000E+00  0.00000000000E+00  0.12525980253E-10  0.17130000000E+03  0.17130000000E+03 0. -1.
       11    1    1    2    0    0 -0.90024727364E-02 -0.55196394753E-01  0.59448412346E+00  0.59710913640E+00  0.51109989000E-03 0.  1.
     -623    1    1    2    0    0 -0.39024588243E-02  0.24833323030E-02  0.45277237994E-02  0.17130000012E+03  0.17130000000E+03 0. -1.
      622    1    1    2    0    0  0.12904931561E-01  0.52713062450E-01  0.34009881201E+01  0.34028907413E+01  0.10000000000E+00 0.  1.
</event>
<event>
 5   0  0.6262544E+06  0.9118800E+02  0.7818608E-02  0.1180000E+00
       11   -1    0    0    0    0  0.00000000000E+00  0.00000000000E+00  0.39999999673E+01  0.40000000000E+01  0.51109989000E-03 0. -1.
     -623   -1    0    0    0    0  0.00000000000E+00  0.00000000000E+00  0.12525980253E-10  0.17130000000E+03  0.17130000000E+03 0.  1.
       11    1    1    2    0    0 -0.68324809849E-02 -0.36942677682E-02  0.45361106836E-01  0.46024141976E-01  0.51109989000E-03 0. -1.
     -623    1    1    2    0    0 -0.39854573825E-02  0.46230873118E-03  0.19439376018E-02  0.17130000006E+03  0.17130000000E+03 0.  1.
      622    1    1    2    0    0  0.10817938367E-01  0.32319590370E-02  0.39526949229E+01  0.39539758000E+01  0.10000000000E+00 0. -1.
</event>
<event>
 5   0  0.6262544E+06  0.9118800E+02  0.7818608E-02  0.1180000E+00
       11   -1    0    0    0    0  0.00000000000E+00  0.00000000000E+00  0.39999999673E+01  0.40000000000E+01  0.51109989000E-03 0. -1.
     -623   -1    0    0    0    0  0.00000000000E+00  0.00000000000E+00  0.12525980253E-10  0.17130000000E+03  0.17130000000E+03 0.  1.
       11    1    1    2    0    0  0.65372346786E-02 -0.17986733083E-01  0.16506530296E+00  0.16617181911E+00  0.51109989000E-03 0. -1.
     -623    1    1    2    0    0 -0.23621094612E-02 -0.62542932069E-02  0.24899717212E-02  0.17130000015E+03  0.17130000000E+03 0.  1.
      622    1    1    2    0    0 -0.41751252174E-02  0.24241026290E-01  0.38324446927E+01  0.38338280323E+01  0.10000000000E+00 0. -1.
</event>
<event>
 5   0  0.6262544E+06  0.9118800E+02  0.7818608E-02  0.1180000E+00
       11   -1    0    0    0    0  0.00000000000E+00  0.00000000000E+00  0.39999999673E+01  0.40000000000E+01  0.51109989000E-03 0. -1.
     -623   -1    0    0    0    0  0.00000000000E+00  0.00000000000E+00  0.12525980253E-10  0.17130000000E+03  0.17130000000E+03 0. -1.
       11    1    1    2    0    0  0.73888070171E-02 -0.41302841022E-02  0.70001379052E-02  0.10996220700E-01  0.51109989000E-03 0. -1.
     -623    1    1    2    0    0 -0.12626408466E-01 -0.64989560183E-03  0.52565449762E-02  0.17130000055E+03  0.17130000000E+03 0. -1.
      622    1    1    2    0    0  0.52376014489E-02  0.47801797041E-02  0.39877432845E+01  0.39890032321E+01  0.10000000000E+00 0. -1.
</event>
<event>
 5   0  0.6262544E+06  0.9118800E+02  0.7818608E-02  0.1180000E+00
       11   -1    0    0    0    0  0.00000000000E+00  0.00000000000E+00  0.39999999673E+01  0.40000000000E+01  0.51109989000E-03 0.  1.
     -623   -1    0    0    0    0  0.00000000000E+00  0.00000000000E+00  0.12525980253E-10  0.17130000000E+03  0.17130000000E+03 0. -1.
       11    1    1    2    0    0 -0.13171383425E-01 -0.99677727839E-02  0.48780587645E+00  0.48808572624E+00  0.51109989000E-03 0.  1.
     -623    1    1    2    0    0  0.90917168298E-02 -0.13161523598E-01  0.17831538550E-02  0.17130000076E+03  0.17130000000E+03 0. -1.
      622    1    1    2    0    0  0.40796665954E-02  0.23129296382E-01  0.35104109371E+01  0.35119135177E+01  0.10000000000E+00 0.  1.
</event>
<event>
 5   0  0.6262544E+06  0.9118800E+02  0.7818608E-02  0.1180000E+00
       11   -1    0    0    0    0  0.00000000000E+00  0.00000000000E+00  0.39999999673E+01  0.40000000000E+01  0.51109989000E-03 0. -1.
     -623   -1    0    0    0    0  0.00000000000E+00  0.00000000000E+00  0.12525980253E-10  0.17130000000E+03  0.17130000000E+03 0.  1.
       11    1    1    2    0    0 -0.74222936007E-02 -0.69919978504E-02  0.20063437646E-01  0.22511802005E-01  0.51109989000E-03 0. -1.
     -623    1    1    2    0    0 -0.99771939706E-04  0.66898379529E-02  0.37129025856E-02  0.17130000017E+03  0.17130000000E+03 0.  1.
      622    1    1    2    0    0  0.75220655404E-02  0.30215989756E-03  0.39762236271E+01  0.39774880271E+01  0.10000000000E+00 0. -1.
</event>
<event>
 5   0  0.6262544E+06  0.9118800E+02  0.7818608E-02  0.1180000E+00
       11   -1    0    0    0    0  0.00000000000E+00  0.00000000000E+00  0.39999999673E+01  0.40000000000E+01  0.51109989000E-03 0.  1.
     -623   -1    0    0    0    0  0.00000000000E+00  0.00000000000E+00  0.12525980253E-10  0.17130000000E+03  0.17130000000E+03 0. -1.
       11    1    1    2    0    0 -0.17282178068E-01  0.23688169128E-01  0.10686493102E+01  0.10690516416E+01  0.51109989000E-03 0.  1.
     -623    1    1    2    0    0  0.33299060108E-01  0.28573711751E-02  0.22760809702E-02  0.17130000328E+03  0.17130000000E+03 0. -1.
      622    1    1    2    0    0 -0.16016882040E-01 -0.26545540303E-01  0.29290745762E+01  0.29309450830E+01  0.10000000000E+00 0.  1.
</event>
<event>
 5   0  0.6262544E+06  0.9118800E+02  0.7818608E-02  0.1180000E+00
       11   -1    0    0    0    0  0.00000000000E+00  0.00000000000E+00  0.39999999673E+01  0.40000000000E+01  0.51109989000E-03 0. -1.
     -623   -1    0    0    0    0  0.00000000000E+00  0.00000000000E+00  0.12525980253E-10  0.17130000000E+03  0.17130000000E+03 0.  1.
       11    1    1    2    0    0 -0.46362701442E-02 -0.25056847739E-01  0.86665125323E+00  0.86702594919E+00  0.51109989000E-03 0. -1.
     -623    1    1    2    0    0  0.52071843160E-02  0.19659682609E-02  0.20562901523E-02  0.17130000010E+03  0.17130000000E+03 0.  1.
      622    1    1    2    0    0 -0.57091417174E-03  0.23090879478E-01  0.31312924240E+01  0.31329739480E+01  0.10000000000E+00 0. -1.
</event>
<event>
 5   0  0.6262544E+06  0.9118800E+02  0.7818608E-02  0.1180000E+00
       11   -1    0    0    0    0  0.00000000000E+00  0.00000000000E+00  0.39999999673E+01  0.40000000000E+01  0.51109989000E-03 0. -1.
     -623   -1    0    0    0    0  0.00000000000E+00  0.00000000000E+00  0.12525980253E-10  0.17130000000E+03  0.17130000000E+03 0.  1.
       11    1    1    2    0    0  0.86741841109E-02 -0.16004450565E-01  0.38823639353E+00  0.38866327636E+00  0.51109989000E-03 0. -1.
     -623    1    1    2    0    0 -0.38982289815E-02  0.81211376731E-03  0.18468284611E-02  0.17130000006E+03  0.17130000000E+03 0.  1.
      622    1    1    2    0    0 -0.47759551295E-02  0.15192336798E-01  0.36099167454E+01  0.36113366674E+01  0.10000000000E+00 0.  0.
</event>
<event>
 5   0  0.6262544E+06  0.9118800E+02  0.7818608E-02  0.1180000E+00
       11   -1    0    0    0    0  0.00000000000E+00  0.00000000000E+00  0.39999999673E+01  0.40000000000E+01  0.51109989000E-03 0.  1.
     -623   -1    0    0    0    0  0.00000000000E+00  0.00000000000E+00  0.12525980253E-10  0.17130000000E+03  0.17130000000E+03 0.  1.
       11    1    1    2    0    0  0.13260883717E-01  0.80415950549E-02  0.10840271876E+00  0.10950766615E+00  0.51109989000E-03 0.  1.
     -623    1    1    2    0    0 -0.12262338681E-01 -0.54297697755E-02  0.23918584839E-02  0.17130000054E+03  0.17130000000E+03 0.  1.
      622    1    1    2    0    0 -0.99854503555E-03 -0.26118252795E-02  0.38892053901E+01  0.38904917922E+01  0.10000000000E+00 0.  1.
</event>
<event>
 5   0  0.6262544E+06  0.9118800E+02  0.7818608E-02  0.1180000E+00
       11   -1    0    0    0    0  0.00000000000E+00  0.00000000000E+00  0.39999999673E+01  0.40000000000E+01  0.51109989000E-03 0. -1.
     -623   -1    0    0    0    0  0.00000000000E+00  0.00000000000E+00  0.12525980253E-10  0.17130000000E+03  0.17130000000E+03 0. -1.
       11    1    1    2    0    0  0.61709170036E-02  0.86036301425E-02  0.27383403211E-01  0.29363491993E-01  0.51109989000E-03 0. -1.
     -623    1    1    2    0    0  0.11094816032E-02 -0.41748724559E-02  0.32487324357E-02  0.17130000009E+03  0.17130000000E+03 0. -1.
      622    1    1    2    0    0 -0.72803986068E-02 -0.44287576865E-02  0.39693678317E+01  0.39706364227E+01  0.10000000000E+00 0. -1.
</event>
<event>
 5   0  0.6262544E+06  0.9118800E+02  0.7818608E-02  0.1180000E+00
       11   -1    0    0    0    0  0.00000000000E+00  0.00000000000E+00  0.39999999673E+01  0.40000000000E+01  0.51109989000E-03 0.  1.
     -623   -1    0    0    0    0  0.00000000000E+00  0.00000000000E+00  0.12525980253E-10  0.17130000000E+03  0.17130000000E+03 0.  1.
       11    1    1    2    0    0 -0.72339447861E-02  0.18017929436E-01  0.10343338452E+01  0.10345161866E+01  0.51109989000E-03 0.  1.
     -623    1    1    2    0    0  0.45060494128E-02  0.15119947183E-02  0.19345330205E-02  0.17130000008E+03  0.17130000000E+03 0.  1.
      622    1    1    2    0    0  0.27278953731E-02 -0.19529924154E-01  0.29637315893E+01  0.29654837367E+01  0.10000000000E+00 0.  1.
</event>
<event>
 5   0  0.6262544E+06  0.9118800E+02  0.7818608E-02  0.1180000E+00
       11   -1    0    0    0    0  0.00000000000E+00  0.00000000000E+00  0.39999999673E+01  0.40000000000E+01  0.51109989000E-03 0. -1.
     -623   -1    0    0    0    0  0.00000000000E+00  0.00000000000E+00  0.12525980253E-10  0.17130000000E+03  0.17130000000E+03 0. -1.
       11    1    1    2    0    0  0.88901487911E-02 -0.21082709038E-01  0.27579715251E+00  0.27674509195E+00  0.51109989000E-03 0. -1.
     -623    1    1    2    0    0 -0.18168451051E-01 -0.68514169490E-03  0.23672626800E-02  0.17130000098E+03  0.17130000000E+03 0. -1.
      622    1    1    2    0    0  0.92783022595E-02  0.21767850733E-01  0.37218355522E+01  0.37232539268E+01  0.10000000000E+00 0. -1.
</event>
<event>
 5   0  0.6262544E+06  0.9118800E+02  0.7818608E-02  0.1180000E+00
       11   -1    0    0    0    0  0.00000000000E+00  0.00000000000E+00  0.39999999673E+01  0.40000000000E+01  0.51109989000E-03 0.  1.
     -623   -1    0    0    0    0  0.00000000000E+00  0.00000000000E+00  0.12525980253E-10  0.17130000000E+03  0.17130000000E+03 0. -1.
       11    1    1    2    0    0  0.58025749194E-03 -0.44380221347E-02  0.41099434211E-01  0.41345585662E-01  0.51109989000E-03 0.  1.
     -623    1    1    2    0    0 -0.58541018545E-02  0.73734977077E-02  0.15142441545E-02  0.17130000027E+03  0.17130000000E+03 0. -1.
      622    1    1    2    0    0  0.52738443625E-02 -0.29354755730E-02  0.39573862890E+01  0.39586541489E+01  0.10000000000E+00 0.  1.
</event>
<event>
 5   0  0.6262544E+06  0.9118800E+02  0.7818608E-02  0.1180000E+00
       11   -1    0    0    0    0  0.00000000000E+00  0.00000000000E+00  0.39999999673E+01  0.40000000000E+01  0.51109989000E-03 0.  1.
     -623   -1    0    0    0    0  0.00000000000E+00  0.00000000000E+00  0.12525980253E-10  0.17130000000E+03  0.17130000000E+03 0. -1.
       11    1    1    2    0    0  0.19178895846E-01 -0.62591699150E-02  0.31578119183E+00  0.31642539340E+00  0.51109989000E-03 0.  1.
     -623    1    1    2    0    0  0.27223405958E-02  0.25342365673E-01  0.21182902610E-02  0.17130000191E+03  0.17130000000E+03 0. -1.
      622    1    1    2    0    0 -0.21901236441E-01 -0.19083195758E-01  0.36821004853E+01  0.36835726973E+01  0.10000000000E+00 0.  1.
</event>
<event>
 5   0  0.6262544E+06  0.9118800E+02  0.7818608E-02  0.1180000E+00
       11   -1    0    0    0    0  0.00000000000E+00  0.00000000000E+00  0.39999999673E+01  0.40000000000E+01  0.51109989000E-03 0. -1.
     -623   -1    0    0    0    0  0.00000000000E+00  0.00000000000E+00  0.12525980253E-10  0.17130000000E+03  0.17130000000E+03 0.  1.
       11    1    1    2    0    0  0.49511140008E-02  0.32448975717E-02  0.22458919688E-01  0.23231598885E-01  0.51109989000E-03 0. -1.
     -623    1    1    2    0    0 -0.17247166548E-01 -0.38968514522E-02  0.20501418420E-02  0.17130000092E+03  0.17130000000E+03 0.  1.
      622    1    1    2    0    0  0.12296052547E-01  0.65195388058E-03  0.39754909060E+01  0.39767674764E+01  0.10000000000E+00 0. -1.
</event>
<event>
 5   0  0.6262544E+06  0.9118800E+02  0.7818608E-02  0.1180000E+00
       11   -1    0    0    0    0  0.00000000000E+00  0.00000000000E+00  0.39999999673E+01  0.40000000000E+01  0.51109989000E-03 0. -1.
     -623   -1    0    0    0    0  0.00000000000E+00  0.00000000000E+00  0.12525980253E-10  0.17130000000E+03  0.17130000000E+03 0. -1.
       11    1    1    2    0    0 -0.67398782833E-02 -0.58778296959E-02  0.36237156092E+00  0.36248225367E+00  0.51109989000E-03 0. -1.
     -623    1    1    2    0    0 -0.78429441212E-02  0.93738213847E-03  0.15182713758E-02  0.17130000019E+03  0.17130000000E+03 0. -1.
      622    1    1    2    0    0  0.14582822405E-01  0.49404475574E-02  0.36361101352E+01  0.36375175576E+01  0.10000000000E+00 0. -1.
</event>
<event>
 5   0  0.6262544E+06  0.9118800E+02  0.7818608E-02  0.1180000E+00
       11   -1    0    0    0    0  0.00000000000E+00  0.00000000000E+00  0.39999999673E+01  0.40000000000E+01  0.51109989000E-03 0.  1.
     -623   -1    0    0    0    0  0.00000000000E+00  0.00000000000E+00  0.12525980253E-10  0.17130000000E+03  0.17130000000E+03 0. -1.
       11    1    1    2    0    0  0.77287851166E-02 -0.99452269418E-02  0.27254307064E-01  0.30028322168E-01  0.51109989000E-03 0.  1.
     -623    1    1    2    0    0 -0.10360141224E-01  0.11652392704E-01  0.40356340195E-02  0.17130000076E+03  0.17130000000E+03 0. -1.
      622    1    1    2    0    0  0.26313561069E-02 -0.17071657625E-02  0.39687100263E+01  0.39699709207E+01  0.10000000000E+00 0.  1.
</event>
<event>
 5   0  0.6262544E+06  0.9118800E+02  0.7818608E-02  0.1180000E+00
       11   -1    0    0    0    0  0.00000000000E+00  0.00000000000E+00  0.39999999673E+01  0.40000000000E+01  0.51109989000E-03 0. -1.
     -623   -1    0    0    0    0  0.00000000000E+00  0.00000000000E+00  0.12525980253E-10  0.17130000000E+03  0.17130000000E+03 0. -1.
       11    1    1    2    0    0 -0.58405720804E-02  0.51307223207E-01  0.11523177052E+01  0.11534742730E+01  0.51109989000E-03 0. -1.
     -623    1    1    2    0    0  0.46326611462E-01  0.23660230394E-02  0.37144717951E-02  0.17130000632E+03  0.17130000000E+03 0. -1.
      622    1    1    2    0    0 -0.40486039382E-01 -0.53673246247E-01  0.28439677904E+01  0.28465194061E+01  0.10000000000E+00 0.  1.
</event>
<event>
 5   0  0.6262544E+06  0.9118800E+02  0.7818608E-02  0.1180000E+00
       11   -1    0    0    0    0  0.00000000000E+00  0.00000000000E+00  0.39999999673E+01  0.40000000000E+01  0.51109989000E-03 0.  1.
     -623   -1    0    0    0    0  0.00000000000E+00  0.00000000000E+00  0.12525980253E-10  0.17130000000E+03  0.17130000000E+03 0.  1.
       11    1    1    2    0    0 -0.85681413860E-02  0.31782193700E-01  0.49033040782E+00  0.49143432007E+00  0.51109989000E-03 0.  1.
     -623    1    1    2    0    0 -0.11361592269E-01  0.20575463334E-01  0.29783676573E-02  0.17130000164E+03  0.17130000000E+03 0.  1.
      622    1    1    2    0    0  0.19929733655E-01 -0.52357657034E-01  0.35066911919E+01  0.35085640416E+01  0.10000000000E+00 0.  0.
</event>
<event>
 5   0  0.6262544E+06  0.9118800E+02  0.7818608E-02  0.1180000E+00
       11   -1    0    0    0    0  0.00000000000E+00  0.00000000000E+00  0.39999999673E+01  0.40000000000E+01  0.51109989000E-03 0. -1.
     -623   -1    0    0    0    0  0.00000000000E+00  0.00000000000E+00  0.12525980253E-10  0.17130000000E+03  0.17130000000E+03 0. -1.
       11    1    1    2    0    0  0.21900714272E-02 -0.17787046872E-01  0.15809532806E+01  0.15810549364E+01  0.51109989000E-03 0. -1.
     -623    1    1    2    0    0  0.61259553549E-02  0.31127838102E-02  0.22285319885E-02  0.17130000015E+03  0.17130000000E+03 0. -1.
      622    1    1    2    0    0 -0.83160267820E-02  0.14674263062E-01  0.24168181548E+01  0.24189449113E+01  0.10000000000E+00 0. -1.
</event>
<event>
 5   0  0.6262544E+06  0.9118800E+02  0.7818608E-02  0.1180000E+00
       11   -1    0    0    0    0  0.00000000000E+00  0.00000000000E+00  0.39999999673E+01  0.40000000000E+01  0.51109989000E-03 0.  1.
     -623   -1    0    0    0    0  0.00000000000E+00  0.00000000000E+00  0.12525980253E-10  0.17130000000E+03  0.17130000000E+03 0.  1.
       11    1    1    2    0    0 -0.22979638422E-02 -0.48680371505E-03  0.40495874172E-01  0.40567162382E-01  0.51109989000E-03 0.  1.
     -623    1    1    2    0    0 -0.75750607777E-03 -0.37813493106E-03  0.13355452612E-02  0.17130000001E+03  0.17130000000E+03 0.  1.
      622    1    1    2    0    0  0.30554699200E-02  0.86493864611E-03  0.39581685479E+01  0.39594328302E+01  0.10000000000E+00 0.  1.
</event>
<event>
 5   0  0.6262544E+06  0.9118800E+02  0.7818608E-02  0.1180000E+00
       11   -1    0    0    0    0  0.00000000000E+00  0.00000000000E+00  0.39999999673E+01  0.40000000000E+01  0.51109989000E-03 0. -1.
     -623   -1    0    0    0    0  0.00000000000E+00  0.00000000000E+00  0.12525980253E-10  0.17130000000E+03  0.17130000000E+03 0.  1.
       11    1    1    2    0    0  0.10568795849E-01  0.69779952261E-01  0.58235567543E+00  0.58661685547E+00  0.51109989000E-03 0. -1.
     -623    1    1    2    0    0  0.13114544574E-01 -0.14697672213E-01  0.62543959955E-02  0.17130000125E+03  0.17130000000E+03 0.  1.
      622    1    1    2    0    0 -0.23683340423E-01 -0.55082280048E-01  0.34113898959E+01  0.34133818978E+01  0.10000000000E+00 0. -1.
</event>
<event>
 5   0  0.6262544E+06  0.9118800E+02  0.7818608E-02  0.1180000E+00
       11   -1    0    0    0    0  0.00000000000E+00  0.00000000000E+00  0.39999999673E+01  0.40000000000E+01  0.51109989000E-03 0.  1.
     -623   -1    0    0    0    0  0.00000000000E+00  0.00000000000E+00  0.12525980253E-10  0.17130000000E+03  0.17130000000E+03 0.  1.
       11    1    1    2    0    0 -0.30381418235E-01 -0.66348134585E-02  0.56692275096E+00  0.56777523555E+00  0.51109989000E-03 0.  1.
     -623    1    1    2    0    0  0.34188646208E-01  0.30896718295E-01  0.24036620663E-02  0.17130000621E+03  0.17130000000E+03 0.  1.
      622    1    1    2    0    0 -0.38072279733E-02 -0.24261904836E-01  0.34306735543E+01  0.34322185495E+01  0.10000000000E+00 0.  1.
</event>
<event>
 5   0  0.6262544E+06  0.9118800E+02  0.7818608E-02  0.1180000E+00
       11   -1    0    0    0    0  0.00000000000E+00  0.00000000000E+00  0.39999999673E+01  0.40000000000E+01  0.51109989000E-03 0.  1.
     -623   -1    0    0    0    0  0.00000000000E+00  0.00000000000E+00  0.12525980253E-10  0.17130000000E+03  0.17130000000E+03 0. -1.
       11    1    1    2    0    0 -0.51921574805E-02  0.45943535974E-02  0.20194275436E-01  0.21357353950E-01  0.51109989000E-03 0.  1.
     -623    1    1    2    0    0  0.35592393902E-02  0.21546567302E-03  0.24232521173E-02  0.17130000005E+03  0.17130000000E+03 0. -1.
      622    1    1    2    0    0  0.16329180903E-02 -0.48098192704E-02  0.39773824398E+01  0.39786425918E+01  0.10000000000E+00 0.  1.
</event>
<event>
 5   0  0.6262544E+06  0.9118800E+02  0.7818608E-02  0.1180000E+00
       11   -1    0    0    0    0  0.00000000000E+00  0.00000000000E+00  0.39999999673E+01  0.40000000000E+01  0.51109989000E-03 0.  1.
     -623   -1    0    0    0    0  0.00000000000E+00  0.00000000000E+00  0.12525980253E-10  0.17130000000E+03  0.17130000000E+03 0.  1.
       11    1    1    2    0    0  0.21836126872E-02  0.12647590622E-02  0.10649146614E-01  0.10955972187E-01  0.51109989000E-03 0.  1.
     -623    1    1    2    0    0 -0.45982041791E-02 -0.86522664628E-03  0.15612451295E-02  0.17130000007E+03  0.17130000000E+03 0.  1.
      622    1    1    2    0    0  0.24145914921E-02 -0.39953241590E-03  0.39877895758E+01  0.39890439570E+01  0.10000000000E+00 0.  1.
</event>
<event>
 5   0  0.6262544E+06  0.9118800E+02  0.7818608E-02  0.1180000E+00
       11   -1    0    0    0    0  0.00000000000E+00  0.00000000000E+00  0.39999999673E+01  0.40000000000E+01  0.51109989000E-03 0.  1.
     -623   -1    0    0    0    0  0.00000000000E+00  0.00000000000E+00  0.12525980253E-10  0.17130000000E+03  0.17130000000E+03 0.  1.
       11    1    1    2    0    0 -0.27692008789E-02  0.25646592389E-02  0.14533031604E-01  0.15023853693E-01  0.51109989000E-03 0.  1.
     -623    1    1    2    0    0  0.32681753152E-02  0.13528343816E-02  0.17477025774E-02  0.17130000005E+03  0.17130000000E+03 0.  1.
      622    1    1    2    0    0 -0.49897443636E-03 -0.39174936205E-02  0.39837192332E+01  0.39849761009E+01  0.10000000000E+00 0.  1.
</event>
<event>
 5   0  0.6262544E+06  0.9118800E+02  0.7818608E-02  0.1180000E+00
       11   -1    0    0    0    0  0.00000000000E+00  0.00000000000E+00  0.39999999673E+01  0.40000000000E+01  0.51109989000E-03 0. -1.
     -623   -1    0    0    0    0  0.00000000000E+00  0.00000000000E+00  0.12525980253E-10  0.17130000000E+03  0.17130000000E+03 0. -1.
       11    1    1    2    0    0  0.95748796464E-02 -0.49664470057E-02  0.41505740591E-01  0.42887429849E-01  0.51109989000E-03 0. -1.
     -623    1    1    2    0    0  0.18198043621E-02  0.20399381636E-01  0.26931673634E-02  0.17130000125E+03  0.17130000000E+03 0. -1.
      622    1    1    2    0    0 -0.11394684008E-01 -0.15432934630E-01  0.39558010594E+01  0.39571113247E+01  0.10000000000E+00 0. -1.
</event>
<event>
 5   0  0.6262544E+06  0.9118800E+02  0.7818608E-02  0.1180000E+00
       11   -1    0    0    0    0  0.00000000000E+00  0.00000000000E+00  0.39999999673E+01  0.40000000000E+01  0.51109989000E-03 0. -1.
     -623   -1    0    0    0    0  0.00000000000E+00  0.00000000000E+00  0.12525980253E-10  0.17130000000E+03  0.17130000000E+03 0. -1.
       11    1    1    2    0    0 -0.11606759742E-01 -0.19609617094E-01  0.12409861208E+00  0.12617440588E+00  0.51109989000E-03 0. -1.
     -623    1    1    2    0    0  0.12614284674E-01  0.22218461745E-01  0.33696389976E-02  0.17130000194E+03  0.17130000000E+03 0. -1.
      622    1    1    2    0    0 -0.10075249326E-02 -0.26088446518E-02  0.38725317165E+01  0.38738236558E+01  0.10000000000E+00 0. -1.
</event>
<event>
 5   0  0.6262544E+06  0.9118800E+02  0.7818608E-02  0.1180000E+00
       11   -1    0    0    0    0  0.00000000000E+00  0.00000000000E+00  0.39999999673E+01  0.40000000000E+01  0.51109989000E-03 0.  1.
     -623   -1    0    0    0    0  0.00000000000E+00  0.00000000000E+00  0.12525980253E-10  0.17130000000E+03  0.17130000000E+03 0. -1.
       11    1    1    2    0    0  0.14591511550E-01  0.75525298720E-03  0.14708942460E+00  0.14781421673E+00  0.51109989000E-03 0.  1.
     -623    1    1    2    0    0 -0.22865565819E-01 -0.10009850750E-02  0.20333809302E-02  0.17130000154E+03  0.17130000000E+03 0. -1.
      622    1    1    2    0    0  0.82740542698E-02  0.24573208783E-03  0.38508771618E+01  0.38521842422E+01  0.10000000000E+00 0.  1.
</event>
<event>
 5   0  0.6262544E+06  0.9118800E+02  0.7818608E-02  0.1180000E+00
       11   -1    0    0    0    0  0.00000000000E+00  0.00000000000E+00  0.39999999673E+01  0.40000000000E+01  0.51109989000E-03 0. -1.
     -623   -1    0    0    0    0  0.00000000000E+00  0.00000000000E+00  0.12525980253E-10  0.17130000000E+03  0.17130000000E+03 0. -1.
       11    1    1    2    0    0  0.13338615699E-02 -0.14353693737E-03  0.38138515063E-01  0.38165525561E-01  0.51109989000E-03 0. -1.
     -623    1    1    2    0    0 -0.78921301584E-02 -0.31522313752E-02  0.12962374996E-02  0.17130000022E+03  0.17130000000E+03 0. -1.
      622    1    1    2    0    0  0.65582685885E-02  0.32957683125E-02  0.39605652148E+01  0.39618342587E+01  0.10000000000E+00 0. -1.
</event>
<event>
 5   0  0.6262544E+06  0.9118800E+02  0.7818608E-02  0.1180000E+00
       11   -1    0    0    0    0  0.00000000000E+00  0.00000000000E+00  0.39999999673E+01  0.40000000000E+01  0.51109989000E-03 0. -1.
     -623   -1    0    0    0    0  0.00000000000E+00  0.00000000000E+00  0.12525980253E-10  0.17130000000E+03  0.17130000000E+03 0. -1.
       11    1    1    2    0    0  0.14128785441E-02  0.31262110173E-03  0.61214031032E-03  0.16522398708E-02  0.51109989000E-03 0. -1.
     -623    1    1    2    0    0 -0.25591632222E-02 -0.32636527092E-02  0.22920983660E-02  0.17130000007E+03  0.17130000000E+03 0. -1.
      622    1    1    2    0    0  0.11462846782E-02  0.29510316075E-02  0.39970957287E+01  0.39983476946E+01  0.10000000000E+00 0. -1.
</event>
<event>
 5   0  0.6262544E+06  0.9118800E+02  0.7818608E-02  0.1180000E+00
       11   -1    0    0    0    0  0.00000000000E+00  0.00000000000E+00  0.39999999673E+01  0.40000000000E+01  0.51109989000E-03 0. -1.
     -623   -1    0    0    0    0  0.00000000000E+00  0.00000000000E+00  0.12525980253E-10  0.17130000000E+03  0.17130000000E+03 0.  1.
       11    1    1    2    0    0  0.24777646529E-02  0.11316588677E-01  0.12594243493E+00  0.12647514632E+00  0.51109989000E-03 0. -1.
     -623    1    1    2    0    0 -0.56459220793E-02 -0.86693275354E-02  0.18262310787E-02  0.17130000032E+03  0.17130000000E+03 0.  1.
      622    1    1    2    0    0  0.31681574266E-02 -0.26472611414E-02  0.38722313015E+01  0.38735245317E+01  0.10000000000E+00 0. -1.
</event>
<event>
 5   0  0.6262544E+06  0.9118800E+02  0.7818608E-02  0.1180000E+00
       11   -1    0    0    0    0  0.00000000000E+00  0.00000000000E+00  0.39999999673E+01  0.40000000000E+01  0.51109989000E-03 0.  1.
     -623   -1    0    0    0    0  0.00000000000E+00  0.00000000000E+00  0.12525980253E-10  0.17130000000E+03  0.17130000000E+03 0.  1.
       11    1    1    2    0    0  0.13927945454E-02  0.13741716808E-02  0.18505262620E-01  0.18615428863E-01  0.51109989000E-03 0.  1.
     -623    1    1    2    0    0  0.27494670634E-02  0.59667412163E-04  0.13686175732E-02  0.17130000003E+03  0.17130000000E+03 0.  1.
      622    1    1    2    0    0 -0.41422616088E-02 -0.14338390930E-02  0.39801260872E+01  0.39813845436E+01  0.10000000000E+00 0.  1.
</event>
<event>
 5   0  0.6262544E+06  0.9118800E+02  0.7818608E-02  0.1180000E+00
       11   -1    0    0    0    0  0.00000000000E+00  0.00000000000E+00  0.39999999673E+01  0.40000000000E+01  0.51109989000E-03 0. -1.
     -623   -1    0    0    0    0  0.00000000000E+00  0.00000000000E+00  0.12525980253E-10  0.17130000000E+03  0.17130000000E+03 0.  1.
       11    1    1    2    0    0 -0.85443295766E-02 -0.97495325379E-03  0.15891555790E-01  0.18076472760E-01  0.51109989000E-03 0. -1.
     -623    1    1    2    0    0  0.16873396848E-03  0.10700118689E-01  0.34618175242E-02  0.17130000037E+03  0.17130000000E+03 0.  1.
      622    1    1    2    0    0  0.83755956081E-02 -0.97251654353E-02  0.39806465940E+01  0.39819231580E+01  0.10000000000E+00 0. -1.
</event>
<event>
 5   0  0.6262544E+06  0.9118800E+02  0.7818608E-02  0.1180000E+00
       11   -1    0    0    0    0  0.00000000000E+00  0.00000000000E+00  0.39999999673E+01  0.40000000000E+01  0.51109989000E-03 0. -1.
     -623   -1    0    0    0    0  0.00000000000E+00  0.00000000000E+00  0.12525980253E-10  0.17130000000E+03  0.17130000000E+03 0.  1.
       11    1    1    2    0    0  0.74657239501E-02 -0.31349836980E-02  0.38278442410E-01  0.39128832507E-01  0.51109989000E-03 0. -1.
     -623    1    1    2    0    0  0.17840910523E-03  0.10041528288E-02  0.21208753625E-02  0.17130000002E+03  0.17130000000E+03 0.  1.
      622    1    1    2    0    0 -0.76441330553E-02  0.21308308692E-02  0.39596006496E+01  0.39608711513E+01  0.10000000000E+00 0. -1.
</event>
<event>
 5   0  0.6262544E+06  0.9118800E+02  0.7818608E-02  0.1180000E+00
       11   -1    0    0    0    0  0.00000000000E+00  0.00000000000E+00  0.39999999673E+01  0.40000000000E+01  0.51109989000E-03 0.  1.
     -623   -1    0    0    0    0  0.00000000000E+00  0.00000000000E+00  0.12525980253E-10  0.17130000000E+03  0.17130000000E+03 0. -1.
       11    1    1    2    0    0 -0.15033247180E-02 -0.35675646247E-02  0.58186393096E-03  0.39480743776E-02  0.51109989000E-03 0.  1.
     -623    1    1    2    0    0 -0.36539171386E-02  0.47288701539E-02  0.46212731520E-02  0.17130000017E+03  0.17130000000E+03 0. -1.
      622    1    1    2    0    0  0.51572418566E-02 -0.11613055292E-02  0.39947968302E+01  0.39960517590E+01  0.10000000000E+00 0.  1.
</event>
<event>
 5   0  0.6262544E+06  0.9118800E+02  0.7818608E-02  0.1180000E+00
       11   -1    0    0    0    0  0.00000000000E+00  0.00000000000E+00  0.39999999673E+01  0.40000000000E+01  0.51109989000E-03 0.  1.
     -623   -1    0    0    0    0  0.00000000000E+00  0.00000000000E+00  0.12525980253E-10  0.17130000000E+03  0.17130000000E+03 0.  1.
       11    1    1    2    0    0 -0.87465276067E-02  0.14829549116E-01  0.59982654532E+00  0.60007379794E+00  0.51109989000E-03 0.  1.
     -623    1    1    2    0    0  0.10038631724E-01 -0.35256101270E-01  0.17837251389E-02  0.17130000393E+03  0.17130000000E+03 0.  1.
      622    1    1    2    0    0 -0.12921041174E-02  0.20426552154E-01  0.33983896970E+01  0.33999222706E+01  0.10000000000E+00 0.  1.
</event>
<event>
 5   0  0.6262544E+06  0.9118800E+02  0.7818608E-02  0.1180000E+00
       11   -1    0    0    0    0  0.00000000000E+00  0.00000000000E+00  0.39999999673E+01  0.40000000000E+01  0.51109989000E-03 0.  1.
     -623   -1    0    0    0    0  0.00000000000E+00  0.00000000000E+00  0.12525980253E-10  0.17130000000E+03  0.17130000000E+03 0.  1.
       11    1    1    2    0    0 -0.10962830028E-02  0.62455163249E-03  0.12638023049E-02  0.18575038431E-02  0.51109989000E-03 0. -1.
     -623    1    1    2    0    0 -0.16360549735E-02  0.17929383052E-02  0.18461374713E-02  0.17130000003E+03  0.17130000000E+03 0.  1.
      622    1    1    2    0    0  0.27323379764E-02 -0.24174899378E-02  0.39968900279E+01  0.39981424693E+01  0.10000000000E+00 0.  1.
</event>
<event>
 5   0  0.6262544E+06  0.9118800E+02  0.7818608E-02  0.1180000E+00
       11   -1    0    0    0    0  0.00000000000E+00  0.00000000000E+00  0.39999999673E+01  0.40000000000E+01  0.51109989000E-03 0. -1.
     -623   -1    0    0    0    0  0.00000000000E+00  0.00000000000E+00  0.12525980253E-10  0.17130000000E+03  0.17130000000E+03 0.  1.
       11    1    1    2    0    0  0.34408927253E-01 -0.58034724322E-01  0.53462601644E+00  0.53886662745E+00  0.51109989000E-03 0. -1.
     -623    1    1    2    0    0  0.10077173885E-01  0.14744756231E-01  0.62434307049E-02  0.17130000104E+03  0.17130000000E+03 0.  1.
      622    1    1    2    0    0 -0.44486101138E-01  0.43289968091E-01  0.34591305203E+01  0.34611323278E+01  0.10000000000E+00 0. -1.
</event>
<event>
 5   0  0.6262544E+06  0.9118800E+02  0.7818608E-02  0.1180000E+00
       11   -1    0    0    0    0  0.00000000000E+00  0.00000000000E+00  0.39999999673E+01  0.40000000000E+01  0.51109989000E-03 0.  1.
     -623   -1    0    0    0    0  0.00000000000E+00  0.00000000000E+00  0.12525980253E-10  0.17130000000E+03  0.17130000000E+03 0. -1.
       11    1    1    2    0    0  0.16962759173E-01  0.13265148954E-01  0.51412021961E+00  0.51457123978E+00  0.51109989000E-03 0.  1.
     -623    1    1    2    0    0 -0.94915248527E-03  0.12345370552E-01  0.20172208847E-02  0.17130000046E+03  0.17130000000E+03 0. -1.
      622    1    1    2    0    0 -0.16013606688E-01 -0.25610519507E-01  0.34838625269E+01  0.34854283009E+01  0.10000000000E+00 0.  0.
</event>
<event>
 5   0  0.6262544E+06  0.9118800E+02  0.7818608E-02  0.1180000E+00
       11   -1    0    0    0    0  0.00000000000E+00  0.00000000000E+00  0.39999999673E+01  0.40000000000E+01  0.51109989000E-03 0. -1.
     -623   -1    0    0    0    0  0.00000000000E+00  0.00000000000E+00  0.12525980253E-10  0.17130000000E+03  0.17130000000E+03 0.  1.
       11    1    1    2    0    0  0.13110190441E-01  0.82356944237E-02  0.13566731706E-01  0.20591774773E-01  0.51109989000E-03 0. -1.
     -623    1    1    2    0    0  0.36378539545E-01 -0.13041711680E-01  0.85969922555E-02  0.17130000457E+03  0.17130000000E+03 0.  1.
      622    1    1    2    0    0 -0.49488729986E-01  0.48060172567E-02  0.39778362434E+01  0.39794036502E+01  0.10000000000E+00 0. -1.
</event>
<event>
 5   0  0.6262544E+06  0.9118800E+02  0.7818608E-02  0.1180000E+00
       11   -1    0    0    0    0  0.00000000000E+00  0.00000000000E+00  0.39999999673E+01  0.40000000000E+01  0.51109989000E-03 0.  1.
     -623   -1    0    0    0    0  0.00000000000E+00  0.00000000000E+00  0.12525980253E-10  0.17130000000E+03  0.17130000000E+03 0.  1.
       11    1    1    2    0    0 -0.10697404890E-01 -0.19986515924E-01  0.69797545342E-01  0.73388376798E-01  0.51109989000E-03 0.  1.
     -623    1    1    2    0    0  0.49589248788E-02 -0.18786280107E-02  0.49296132603E-02  0.17130000015E+03  0.17130000000E+03 0.  1.
      622    1    1    2    0    0  0.57384800112E-02  0.21865143935E-01  0.39252728088E+01  0.39266114703E+01  0.10000000000E+00 0.  1.
</event>
<event>
 5   0  0.6262544E+06  0.9118800E+02  0.7818608E-02  0.1180000E+00
       11   -1    0    0    0    0  0.00000000000E+00  0.00000000000E+00  0.39999999673E+01  0.40000000000E+01  0.51109989000E-03 0. -1.
     -623   -1    0    0    0    0  0.00000000000E+00  0.00000000000E+00  0.12525980253E-10  0.17130000000E+03  0.17130000000E+03 0. -1.
       11    1    1    2    0    0 -0.20471767223E-01  0.15572668377E-02  0.10389178565E+00  0.10590223171E+00  0.51109989000E-03 0. -1.
     -623    1    1    2    0    0  0.42833340244E-01 -0.10035734246E-01  0.33737637220E-02  0.17130000568E+03  0.17130000000E+03 0. -1.
      622    1    1    2    0    0 -0.22361573021E-01  0.84784674087E-02  0.38927344180E+01  0.38940920859E+01  0.10000000000E+00 0. -1.
</event>
<event>
 5   0  0.6262544E+06  0.9118800E+02  0.7818608E-02  0.1180000E+00
       11   -1    0    0    0    0  0.00000000000E+00  0.00000000000E+00  0.39999999673E+01  0.40000000000E+01  0.51109989000E-03 0. -1.
     -623   -1    0    0    0    0  0.00000000000E+00  0.00000000000E+00  0.12525980253E-10  0.17130000000E+03  0.17130000000E+03 0. -1.
       11    1    1    2    0    0  0.52193702784E-02  0.53622343970E-02  0.31831787750E-01  0.32703506208E-01  0.51109989000E-03 0. -1.
     -623    1    1    2    0    0 -0.59340582243E-02  0.32942990048E-03  0.21364550676E-02  0.17130000012E+03  0.17130000000E+03 0. -1.
      622    1    1    2    0    0  0.71468794573E-03 -0.56916642975E-02  0.39660317244E+01  0.39672963773E+01  0.10000000000E+00 0. -1.
</event>
<event>
 5   0  0.6262544E+06  0.9118800E+02  0.7818608E-02  0.1180000E+00
       11   -1    0    0    0    0  0.00000000000E+00  0.00000000000E+00  0.39999999673E+01  0.40000000000E+01  0.51109989000E-03 0. -1.
     -623   -1    0    0    0    0  0.00000000000E+00  0.00000000000E+00  0.12525980253E-10  0.17130000000E+03  0.17130000000E+03 0. -1.
       11    1    1    2    0    0  0.29522040988E-01 -0.61408239082E-02  0.99498085347E+00  0.99543780349E+00  0.51109989000E-03 0. -1.
     -623    1    1    2    0    0  0.59807713320E-03  0.70472638538E-02  0.22728739328E-02  0.17130000016E+03  0.17130000000E+03 0. -1.
      622    1    1    2    0    0 -0.30120118122E-01 -0.90643994556E-03  0.30027462400E+01  0.30045620354E+01  0.10000000000E+00 0. -1.
</event>
<event>
 5   0  0.6262544E+06  0.9118800E+02  0.7818608E-02  0.1180000E+00
       11   -1    0    0    0    0  0.00000000000E+00  0.00000000000E+00  0.39999999673E+01  0.40000000000E+01  0.51109989000E-03 0.  1.
     -623   -1    0    0    0    0  0.00000000000E+00  0.00000000000E+00  0.12525980253E-10  0.17130000000E+03  0.17130000000E+03 0. -1.
       11    1    1    2    0    0 -0.39193945758E-02 -0.90672999216E-02  0.84823655169E-01  0.85398426676E-01  0.51109989000E-03 0.  1.
     -623    1    1    2    0    0  0.13227340097E-01  0.26868284320E-01  0.19064024558E-02  0.17130000263E+03  0.17130000000E+03 0. -1.
      622    1    1    2    0    0 -0.93079455210E-02 -0.17800984399E-01  0.39132699097E+01  0.39145989449E+01  0.10000000000E+00 0.  1.
</event>
<event>
 5   0  0.6262544E+06  0.9118800E+02  0.7818608E-02  0.1180000E+00
       11   -1    0    0    0    0  0.00000000000E+00  0.00000000000E+00  0.39999999673E+01  0.40000000000E+01  0.51109989000E-03 0.  1.
     -623   -1    0    0    0    0  0.00000000000E+00  0.00000000000E+00  0.12525980253E-10  0.17130000000E+03  0.17130000000E+03 0.  1.
       11    1    1    2    0    0  0.36721007386E-02 -0.89053930933E-02  0.21859193787E+00  0.21880467745E+00  0.51109989000E-03 0.  1.
     -623    1    1    2    0    0 -0.15060307788E-02 -0.10869065956E-02  0.15491167480E-02  0.17130000002E+03  0.17130000000E+03 0.  1.
      622    1    1    2    0    0 -0.21660699598E-02  0.99922996890E-02  0.37798589128E+01  0.37811953056E+01  0.10000000000E+00 0.  1.
</event>
<event>
 5   0  0.6262544E+06  0.9118800E+02  0.7818608E-02  0.1180000E+00
       11   -1    0    0    0    0  0.00000000000E+00  0.00000000000E+00  0.39999999673E+01  0.40000000000E+01  0.51109989000E-03 0. -1.
     -623   -1    0    0    0    0  0.00000000000E+00  0.00000000000E+00  0.12525980253E-10  0.17130000000E+03  0.17130000000E+03 0. -1.
       11    1    1    2    0    0  0.22975471337E-02  0.36291537781E-02  0.13092548199E-01  0.13788601141E-01  0.51109989000E-03 0. -1.
     -623    1    1    2    0    0  0.18815550706E-02 -0.43709143774E-02  0.19528791963E-02  0.17130000008E+03  0.17130000000E+03 0. -1.
      622    1    1    2    0    0 -0.41791022043E-02  0.74176059933E-03  0.39849545400E+01  0.39862113217E+01  0.10000000000E+00 0. -1.
</event>
<event>
 5   0  0.6262544E+06  0.9118800E+02  0.7818608E-02  0.1180000E+00
       11   -1    0    0    0    0  0.00000000000E+00  0.00000000000E+00  0.39999999673E+01  0.40000000000E+01  0.51109989000E-03 0. -1.
     -623   -1    0    0    0    0  0.00000000000E+00  0.00000000000E+00  0.12525980253E-10  0.17130000000E+03  0.17130000000E+03 0. -1.
       11    1    1    2    0    0  0.21577368391E-01  0.10859365266E-01  0.30783159705E+01  0.30784107887E+01  0.51109989000E-03 0. -1.
     -623    1    1    2    0    0 -0.60585896035E-04 -0.70044391760E-02  0.57973241882E-02  0.17130000024E+03  0.17130000000E+03 0. -1.
      622    1    1    2    0    0 -0.21516782495E-01 -0.38549260896E-02  0.91588667264E+00  0.92158896993E+00  0.10000000000E+00 0. -1.
</event>
<event>
 5   0  0.6262544E+06  0.9118800E+02  0.7818608E-02  0.1180000E+00
       11   -1    0    0    0    0  0.00000000000E+00  0.00000000000E+00  0.39999999673E+01  0.40000000000E+01  0.51109989000E-03 0. -1.
     -623   -1    0    0    0    0  0.00000000000E+00  0.00000000000E+00  0.12525980253E-10  0.17130000000E+03  0.17130000000E+03 0.  1.
       11    1    1    2    0    0 -0.63066649552E-01  0.25097992960E-01  0.87804163452E+00  0.88066150404E+00  0.51109989000E-03 0. -1.
     -623    1    1    2    0    0 -0.49210618749E-02 -0.10814084992E-01  0.49977511100E-02  0.17130000048E+03  0.17130000000E+03 0.  1.
      622    1    1    2    0    0  0.67987711427E-01 -0.14283907968E-01  0.31169605817E+01  0.31193380110E+01  0.10000000000E+00 0. -1.
</event>
<event>
 5   0  0.6262544E+06  0.9118800E+02  0.7818608E-02  0.1180000E+00
       11   -1    0    0    0    0  0.00000000000E+00  0.00000000000E+00  0.39999999673E+01  0.40000000000E+01  0.51109989000E-03 0. -1.
     -623   -1    0    0    0    0  0.00000000000E+00  0.00000000000E+00  0.12525980253E-10  0.17130000000E+03  0.17130000000E+03 0.  1.
       11    1    1    2    0    0  0.89422163411E-01  0.58554573194E-01  0.27827264122E+01  0.27847785384E+01  0.51109989000E-03 0. -1.
     -623    1    1    2    0    0 -0.18477326673E-03 -0.94260480764E-02  0.10465836655E-01  0.17130000058E+03  0.17130000000E+03 0.  1.
      622    1    1    2    0    0 -0.89237390144E-01 -0.49128525117E-01  0.12068077185E+01  0.12152208824E+01  0.10000000000E+00 0.  1.
</event>
<event>
 5   0  0.6262544E+06  0.9118800E+02  0.7818608E-02  0.1180000E+00
       11   -1    0    0    0    0  0.00000000000E+00  0.00000000000E+00  0.39999999673E+01  0.40000000000E+01  0.51109989000E-03 0.  1.
     -623   -1    0    0    0    0  0.00000000000E+00  0.00000000000E+00  0.12525980253E-10  0.17130000000E+03  0.17130000000E+03 0. -1.
       11    1    1    2    0    0 -0.48408975400E-03 -0.31869322440E-02  0.24640310553E+00  0.24642471978E+00  0.51109989000E-03 0.  1.
     -623    1    1    2    0    0 -0.12716958072E-02 -0.11347130141E-02  0.13567947601E-02  0.17130000001E+03  0.17130000000E+03 0. -1.
      622    1    1    2    0    0  0.17557855612E-02  0.43216452582E-02  0.37522400671E+01  0.37535752664E+01  0.10000000000E+00 0.  1.
</event>
<event>
 5   0  0.6262544E+06  0.9118800E+02  0.7818608E-02  0.1180000E+00
       11   -1    0    0    0    0  0.00000000000E+00  0.00000000000E+00  0.39999999673E+01  0.40000000000E+01  0.51109989000E-03 0. -1.
     -623   -1    0    0    0    0  0.00000000000E+00  0.00000000000E+00  0.12525980253E-10  0.17130000000E+03  0.17130000000E+03 0. -1.
       11    1    1    2    0    0 -0.14721957641E-02  0.29504458793E-02  0.30517180874E-02  0.45218024766E-02  0.51109989000E-03 0. -1.
     -623    1    1    2    0    0  0.46539987100E-02 -0.15573219263E-02  0.27232646887E-02  0.17130000009E+03  0.17130000000E+03 0. -1.
      622    1    1    2    0    0 -0.31818029458E-02 -0.13931239530E-02  0.39942249845E+01  0.39954781055E+01  0.10000000000E+00 0. -1.
</event>
<event>
 5   0  0.6262544E+06  0.9118800E+02  0.7818608E-02  0.1180000E+00
       11   -1    0    0    0    0  0.00000000000E+00  0.00000000000E+00  0.39999999673E+01  0.40000000000E+01  0.51109989000E-03 0.  1.
     -623   -1    0    0    0    0  0.00000000000E+00  0.00000000000E+00  0.12525980253E-10  0.17130000000E+03  0.17130000000E+03 0.  1.
       11    1    1    2    0    0  0.23229483379E-01 -0.17013060064E-02  0.25072172507E+01  0.25073254888E+01  0.51109989000E-03 0.  1.
     -623    1    1    2    0    0  0.17425317472E-01  0.82966380386E-02  0.40324025407E-02  0.17130000113E+03  0.17130000000E+03 0.  1.
      622    1    1    2    0    0 -0.40654800852E-01 -0.65953320324E-02  0.14887503142E+01  0.14926733766E+01  0.10000000000E+00 0.  0.
</event>
<event>
 5   0  0.6262544E+06  0.9118800E+02  0.7818608E-02  0.1180000E+00
       11   -1    0    0    0    0  0.00000000000E+00  0.00000000000E+00  0.39999999673E+01  0.40000000000E+01  0.51109989000E-03 0. -1.
     -623   -1    0    0    0    0  0.00000000000E+00  0.00000000000E+00  0.12525980253E-10  0.17130000000E+03  0.17130000000E+03 0.  1.
       11    1    1    2    0    0  0.15622044683E-01 -0.70663290861E-02  0.28146516217E+00  0.28198737565E+00  0.51109989000E-03 0. -1.
     -623    1    1    2    0    0  0.50915939656E-02 -0.11039938610E-02  0.19340201294E-02  0.17130000009E+03  0.17130000000E+03 0.  1.
      622    1    1    2    0    0 -0.20713638649E-01  0.81703229471E-02  0.37166007849E+01  0.37180125341E+01  0.10000000000E+00 0.  0.
</event>
<event>
 5   0  0.6262544E+06  0.9118800E+02  0.7818608E-02  0.1180000E+00
       11   -1    0    0    0    0  0.00000000000E+00  0.00000000000E+00  0.39999999673E+01  0.40000000000E+01  0.51109989000E-03 0. -1.
     -623   -1    0    0    0    0  0.00000000000E+00  0.00000000000E+00  0.12525980253E-10  0.17130000000E+03  0.17130000000E+03 0. -1.
       11    1    1    2    0    0 -0.41088602447E-03 -0.24095965379E-03 -0.12819042195E-02  0.14599282193E-02  0.51109989000E-03 0. -1.
     -623    1    1    2    0    0 -0.29252503188E-03 -0.11905967466E-02  0.39928209510E-02  0.17130000005E+03  0.17130000000E+03 0. -1.
      622    1    1    2    0    0  0.70341105636E-03  0.14315564004E-02  0.39972890507E+01  0.39985400210E+01  0.10000000000E+00 0. -1.
</event>
<event>
 5   0  0.6262544E+06  0.9118800E+02  0.7818608E-02  0.1180000E+00
       11   -1    0    0    0    0  0.00000000000E+00  0.00000000000E+00  0.39999999673E+01  0.40000000000E+01  0.51109989000E-03 0. -1.
     -623   -1    0    0    0    0  0.00000000000E+00  0.00000000000E+00  0.12525980253E-10  0.17130000000E+03  0.17130000000E+03 0. -1.
       11    1    1    2    0    0  0.30038949760E-03  0.88702215732E-02  0.22235800351E+00  0.22253564660E+00  0.51109989000E-03 0. -1.
     -623    1    1    2    0    0 -0.11421650462E-01 -0.13032225714E-01  0.15210357757E-02  0.17130000088E+03  0.17130000000E+03 0. -1.
      622    1    1    2    0    0  0.11121260965E-01  0.41620041409E-02  0.37761209281E+01  0.37774634701E+01  0.10000000000E+00 0. -1.
</event>
<event>
 5   0  0.6262544E+06  0.9118800E+02  0.7818608E-02  0.1180000E+00
       11   -1    0    0    0    0  0.00000000000E+00  0.00000000000E+00  0.39999999673E+01  0.40000000000E+01  0.51109989000E-03 0. -1.
     -623   -1    0    0    0    0  0.00000000000E+00  0.00000000000E+00  0.12525980253E-10  0.17130000000E+03  0.17130000000E+03 0.  1.
       11    1    1    2    0    0 -0.71211016021E-02 -0.19541497650E-02  0.13814503721E+01  0.13814702026E+01  0.51109989000E-03 0. -1.
     -623    1    1    2    0    0  0.12887413588E-01  0.98958911591E-03  0.19369934096E-02  0.17130000050E+03  0.17130000000E+03 0.  1.
      622    1    1    2    0    0 -0.57663119862E-02  0.96456064906E-03  0.26166126018E+01  0.26185292988E+01  0.10000000000E+00 0. -1.
</event>
<event>
 5   0  0.6262544E+06  0.9118800E+02  0.7818608E-02  0.1180000E+00
       11   -1    0    0    0    0  0.00000000000E+00  0.00000000000E+00  0.39999999673E+01  0.40000000000E+01  0.51109989000E-03 0.  1.
     -623   -1    0    0    0    0  0.00000000000E+00  0.00000000000E+00  0.12525980253E-10  0.17130000000E+03  0.17130000000E+03 0. -1.
       11    1    1    2    0    0 -0.12480633744E-02  0.68464724398E-03  0.32016946570E-03  0.15460063452E-02  0.51109989000E-03 0.  1.
     -623    1    1    2    0    0  0.12567140348E-02  0.22743227400E-02  0.24776160039E-02  0.17130000004E+03  0.17130000000E+03 0. -1.
      622    1    1    2    0    0 -0.86506604290E-05 -0.29589699839E-02  0.39972021818E+01  0.39984539559E+01  0.10000000000E+00 0.  1.
</event>
<event>
 5   0  0.6262544E+06  0.9118800E+02  0.7818608E-02  0.1180000E+00
       11   -1    0    0    0    0  0.00000000000E+00  0.00000000000E+00  0.39999999673E+01  0.40000000000E+01  0.51109989000E-03 0. -1.
     -623   -1    0    0    0    0  0.00000000000E+00  0.00000000000E+00  0.12525980253E-10  0.17130000000E+03  0.17130000000E+03 0. -1.
       11    1    1    2    0    0 -0.40977042802E-02  0.59744963729E-02  0.10261225596E-01  0.12571386603E-01  0.51109989000E-03 0. -1.
     -623    1    1    2    0    0 -0.94035019743E-02 -0.24112215160E-02  0.35890363539E-02  0.17130000031E+03  0.17130000000E+03 0. -1.
      622    1    1    2    0    0  0.13501206255E-01 -0.35632748569E-02  0.39861497055E+01  0.39874283008E+01  0.10000000000E+00 0. -1.
</event>
<event>
 5   0  0.6262544E+06  0.9118800E+02  0.7818608E-02  0.1180000E+00
       11   -1    0    0    0    0  0.00000000000E+00  0.00000000000E+00  0.39999999673E+01  0.40000000000E+01  0.51109989000E-03 0.  1.
     -623   -1    0    0    0    0  0.00000000000E+00  0.00000000000E+00  0.12525980253E-10  0.17130000000E+03  0.17130000000E+03 0. -1.
       11    1    1    2    0    0 -0.21624953147E-02 -0.51198214523E-02  0.97562623631E-01  0.97722135196E-01  0.51109989000E-03 0.  1.
     -623    1    1    2    0    0 -0.10701376517E-02  0.67282411111E-02  0.14428048388E-02  0.17130000014E+03  0.17130000000E+03 0. -1.
      622    1    1    2    0    0  0.32326329663E-02 -0.16084196588E-02  0.39009945389E+01  0.39022777233E+01  0.10000000000E+00 0.  1.
</event>
<event>
 5   0  0.6262544E+06  0.9118800E+02  0.7818608E-02  0.1180000E+00
       11   -1    0    0    0    0  0.00000000000E+00  0.00000000000E+00  0.39999999673E+01  0.40000000000E+01  0.51109989000E-03 0. -1.
     -623   -1    0    0    0    0  0.00000000000E+00  0.00000000000E+00  0.12525980253E-10  0.17130000000E+03  0.17130000000E+03 0.  1.
       11    1    1    2    0    0 -0.47572000595E-01 -0.25568301122E-02  0.84793202965E+00  0.84926946298E+00  0.51109989000E-03 0. -1.
     -623    1    1    2    0    0 -0.72659492576E-02  0.15428183928E-01  0.34294257527E-02  0.17130000088E+03  0.17130000000E+03 0.  1.
      622    1    1    2    0    0  0.54837949853E-01 -0.12871353816E-01  0.31486385120E+01  0.31507296538E+01  0.10000000000E+00 0. -1.
</event>
<event>
 5   0  0.6262544E+06  0.9118800E+02  0.7818608E-02  0.1180000E+00
       11   -1    0    0    0    0  0.00000000000E+00  0.00000000000E+00  0.39999999673E+01  0.40000000000E+01  0.51109989000E-03 0.  1.
     -623   -1    0    0    0    0  0.00000000000E+00  0.00000000000E+00  0.12525980253E-10  0.17130000000E+03  0.17130000000E+03 0.  1.
       11    1    1    2    0    0  0.13479283734E-01 -0.12204143741E-01  0.38890606670E+00  0.38933124991E+00  0.51109989000E-03 0.  1.
     -623    1    1    2    0    0  0.18576768430E-01  0.92163723513E-02  0.19550614442E-02  0.17130000127E+03  0.17130000000E+03 0.  1.
      622    1    1    2    0    0 -0.32056052165E-01  0.29877713894E-02  0.36091388392E+01  0.36106674837E+01  0.10000000000E+00 0.  1.
</event>
<event>
 5   0  0.6262544E+06  0.9118800E+02  0.7818608E-02  0.1180000E+00
       11   -1    0    0    0    0  0.00000000000E+00  0.00000000000E+00  0.39999999673E+01  0.40000000000E+01  0.51109989000E-03 0.  1.
     -623   -1    0    0    0    0  0.00000000000E+00  0.00000000000E+00  0.12525980253E-10  0.17130000000E+03  0.17130000000E+03 0. -1.
       11    1    1    2    0    0  0.78824563708E-03 -0.47343984312E-03  0.10944805434E-01  0.10995247346E-01  0.51109989000E-03 0.  1.
     -623    1    1    2    0    0  0.21521218641E-02  0.86999422585E-02  0.13138607632E-02  0.17130000024E+03  0.17130000000E+03 0. -1.
      622    1    1    2    0    0 -0.29403675012E-02 -0.82265024154E-02  0.39877413012E+01  0.39890045132E+01  0.10000000000E+00 0.  1.
</event>
<event>
 5   0  0.6262544E+06  0.9118800E+02  0.7818608E-02  0.1180000E+00
       11   -1    0    0    0    0  0.00000000000E+00  0.00000000000E+00  0.39999999673E+01  0.40000000000E+01  0.51109989000E-03 0. -1.
     -623   -1    0    0    0    0  0.00000000000E+00  0.00000000000E+00  0.12525980253E-10  0.17130000000E+03  0.17130000000E+03 0. -1.
       11    1    1    2    0    0  0.18578080400E-03 -0.55380443602E-02  0.13433567698E-01  0.14540509415E-01  0.51109989000E-03 0. -1.
     -623    1    1    2    0    0 -0.11686087411E-01  0.21381021011E-01  0.24115149291E-02  0.17130000175E+03  0.17130000000E+03 0. -1.
      622    1    1    2    0    0  0.11500306607E-01 -0.15842976651E-01  0.39841548847E+01  0.39854577406E+01  0.10000000000E+00 0. -1.
</event>
<event>
 5   0  0.6262544E+06  0.9118800E+02  0.7818608E-02  0.1180000E+00
       11   -1    0    0    0    0  0.00000000000E+00  0.00000000000E+00  0.39999999673E+01  0.40000000000E+01  0.51109989000E-03 0. -1.
     -623   -1    0    0    0    0  0.00000000000E+00  0.00000000000E+00  0.12525980253E-10  0.17130000000E+03  0.17130000000E+03 0.  1.
       11    1    1    2    0    0  0.92500263103E-02 -0.12361352275E-01  0.38698970399E+00  0.38729789341E+00  0.51109989000E-03 0. -1.
     -623    1    1    2    0    0  0.22822073288E-01  0.22749986470E-01  0.18528318286E-02  0.17130000304E+03  0.17130000000E+03 0.  1.
      622    1    1    2    0    0 -0.32072099600E-01 -0.10388634197E-01  0.36111574319E+01  0.36126990659E+01  0.10000000000E+00 0. -1.
</event>
<event>
 5   0  0.6262544E+06  0.9118800E+02  0.7818608E-02  0.1180000E+00
       11   -1    0    0    0    0  0.00000000000E+00  0.00000000000E+00  0.39999999673E+01  0.40000000000E+01  0.51109989000E-03 0. -1.
     -623   -1    0    0    0    0  0.00000000000E+00  0.00000000000E+00  0.12525980253E-10  0.17130000000E+03  0.17130000000E+03 0.  1.
       11    1    1    2    0    0 -0.14352340083E-01  0.35461368756E-01  0.10204279976E+00  0.10897932164E+00  0.51109989000E-03 0. -1.
     -623    1    1    2    0    0 -0.10782223439E-01  0.16221706842E-01  0.86476252470E-02  0.17130000133E+03  0.17130000000E+03 0.  1.
      622    1    1    2    0    0  0.25134563522E-01 -0.51683075598E-01  0.38893095424E+01  0.38910193528E+01  0.10000000000E+00 0. -1.
</event>
<event>
 5   0  0.6262544E+06  0.9118800E+02  0.7818608E-02  0.1180000E+00
       11   -1    0    0    0    0  0.00000000000E+00  0.00000000000E+00  0.39999999673E+01  0.40000000000E+01  0.51109989000E-03 0. -1.
     -623   -1    0    0    0    0  0.00000000000E+00  0.00000000000E+00  0.12525980253E-10  0.17130000000E+03  0.17130000000E+03 0.  1.
       11    1    1    2    0    0  0.10478873304E-02 -0.45174103508E-03  0.22135708745E-02  0.25422936365E-02  0.51109989000E-03 0. -1.
     -623    1    1    2    0    0 -0.22646443049E-03 -0.30423657040E-02  0.15813272857E-02  0.17130000003E+03  0.17130000000E+03 0.  1.
      622    1    1    2    0    0 -0.82142289996E-03  0.34941067389E-02  0.39962050689E+01  0.39974576716E+01  0.10000000000E+00 0. -1.
</event>
<event>
 5   0  0.6262544E+06  0.9118800E+02  0.7818608E-02  0.1180000E+00
       11   -1    0    0    0    0  0.00000000000E+00  0.00000000000E+00  0.39999999673E+01  0.40000000000E+01  0.51109989000E-03 0. -1.
     -623   -1    0    0    0    0  0.00000000000E+00  0.00000000000E+00  0.12525980253E-10  0.17130000000E+03  0.17130000000E+03 0.  1.
       11    1    1    2    0    0 -0.71162601498E-02 -0.10793510275E-01  0.79339815512E-01  0.80387863332E-01  0.51109989000E-03 0. -1.
     -623    1    1    2    0    0  0.11800713965E-01  0.16903879952E-01  0.23326805841E-02  0.17130000126E+03  0.17130000000E+03 0.  1.
      622    1    1    2    0    0 -0.46844538150E-02 -0.61103696771E-02  0.39183274713E+01  0.39196108803E+01  0.10000000000E+00 0. -1.
</event>
<event>
 5   0  0.6262544E+06  0.9118800E+02  0.7818608E-02  0.1180000E+00
       11   -1    0    0    0    0  0.00000000000E+00  0.00000000000E+00  0.39999999673E+01  0.40000000000E+01  0.51109989000E-03 0. -1.
     -623   -1    0    0    0    0  0.00000000000E+00  0.00000000000E+00  0.12525980253E-10  0.17130000000E+03  0.17130000000E+03 0. -1.
       11    1    1    2    0    0  0.95914360971E-02 -0.55826426256E-02  0.46057980878E-01  0.47378902169E-01  0.51109989000E-03 0. -1.
     -623    1    1    2    0    0 -0.29836892152E-01  0.12876309968E-01  0.26477759915E-02  0.17130000310E+03  0.17130000000E+03 0. -1.
      622    1    1    2    0    0  0.20245456055E-01 -0.72936673426E-02  0.39512942105E+01  0.39526179949E+01  0.10000000000E+00 0. -1.
</event>
<event>
 5   0  0.6262544E+06  0.9118800E+02  0.7818608E-02  0.1180000E+00
       11   -1    0    0    0    0  0.00000000000E+00  0.00000000000E+00  0.39999999673E+01  0.40000000000E+01  0.51109989000E-03 0. -1.
     -623   -1    0    0    0    0  0.00000000000E+00  0.00000000000E+00  0.12525980253E-10  0.17130000000E+03  0.17130000000E+03 0. -1.
       11    1    1    2    0    0  0.40873054064E-02 -0.59355254626E-01  0.55828807900E+00  0.56144954599E+00  0.51109989000E-03 0. -1.
     -623    1    1    2    0    0  0.61876683248E-01  0.20115975864E-01  0.54853716059E-02  0.17130001244E+03  0.17130000000E+03 0. -1.
      622    1    1    2    0    0 -0.65963988655E-01  0.39239278762E-01  0.34362265168E+01  0.34385380096E+01  0.10000000000E+00 0. -1.
</event>
<event>
 5   0  0.6262544E+06  0.9118800E+02  0.7818608E-02  0.1180000E+00
       11   -1    0    0    0    0  0.00000000000E+00  0.00000000000E+00  0.39999999673E+01  0.40000000000E+01  0.51109989000E-03 0.  1.
     -623   -1    0    0    0    0  0.00000000000E+00  0.00000000000E+00  0.12525980253E-10  0.17130000000E+03  0.17130000000E+03 0. -1.
       11    1    1    2    0    0  0.49128835806E-01  0.70084141883E-02  0.14030744817E+01  0.14039519304E+01  0.51109989000E-03 0.  1.
     -623    1    1    2    0    0 -0.51082578215E-02  0.17885900383E-01  0.32981737355E-02  0.17130000104E+03  0.17130000000E+03 0. -1.
      622    1    1    2    0    0 -0.44020577984E-01 -0.24894314571E-01  0.25936273119E+01  0.25960470279E+01  0.10000000000E+00 0.  1.
</event>
<event>
 5   0  0.6262544E+06  0.9118800E+02  0.7818608E-02  0.1180000E+00
       11   -1    0    0    0    0  0.00000000000E+00  0.00000000000E+00  0.39999999673E+01  0.40000000000E+01  0.51109989000E-03 0.  1.
     -623   -1    0    0    0    0  0.00000000000E+00  0.00000000000E+00  0.12525980253E-10  0.17130000000E+03  0.17130000000E+03 0. -1.
       11    1    1    2    0    0  0.27840957715E-01 -0.16728948608E-01  0.73966358508E-01  0.80785271308E-01  0.51109989000E-03 0.  1.
     -623    1    1    2    0    0 -0.42923179689E-01  0.57524272978E-02  0.81449293986E-02  0.17130000567E+03  0.17130000000E+03 0. -1.
      622    1    1    2    0    0  0.15082221974E-01  0.10976521311E-01  0.39178886795E+01  0.39192090608E+01  0.10000000000E+00 0.  1.
</event>
<event>
 5   0  0.6262544E+06  0.9118800E+02  0.7818608E-02  0.1180000E+00
       11   -1    0    0    0    0  0.00000000000E+00  0.00000000000E+00  0.39999999673E+01  0.40000000000E+01  0.51109989000E-03 0.  1.
     -623   -1    0    0    0    0  0.00000000000E+00  0.00000000000E+00  0.12525980253E-10  0.17130000000E+03  0.17130000000E+03 0. -1.
       11    1    1    2    0    0 -0.30640542960E-01 -0.28470446934E-01  0.34550558837E+00  0.34802842131E+00  0.51109989000E-03 0.  1.
     -623    1    1    2    0    0  0.41376349921E-02 -0.13133200597E-01  0.42260708985E-02  0.17130000061E+03  0.17130000000E+03 0. -1.
      622    1    1    2    0    0  0.26502907968E-01  0.41603647531E-01  0.36502683081E+01  0.36519709732E+01  0.10000000000E+00 0.  1.
</event>
<event>
 5   0  0.6262544E+06  0.9118800E+02  0.7818608E-02  0.1180000E+00
       11   -1    0    0    0    0  0.00000000000E+00  0.00000000000E+00  0.39999999673E+01  0.40000000000E+01  0.51109989000E-03 0.  1.
     -623   -1    0    0    0    0  0.00000000000E+00  0.00000000000E+00  0.12525980253E-10  0.17130000000E+03  0.17130000000E+03 0.  1.
       11    1    1    2    0    0 -0.17765016459E-01  0.30655074640E-01  0.64171745664E+00  0.64269501694E+00  0.51109989000E-03 0.  1.
     -623    1    1    2    0    0  0.33225164573E-01 -0.68827282347E-02  0.25903446806E-02  0.17130000338E+03  0.17130000000E+03 0.  1.
      622    1    1    2    0    0 -0.15460148114E-01 -0.23772346405E-01  0.33556921661E+01  0.33573016031E+01  0.10000000000E+00 0.  1.
</event>
<event>
 5   0  0.6262544E+06  0.9118800E+02  0.7818608E-02  0.1180000E+00
       11   -1    0    0    0    0  0.00000000000E+00  0.00000000000E+00  0.39999999673E+01  0.40000000000E+01  0.51109989000E-03 0. -1.
     -623   -1    0    0    0    0  0.00000000000E+00  0.00000000000E+00  0.12525980253E-10  0.17130000000E+03  0.17130000000E+03 0.  1.
       11    1    1    2    0    0 -0.13246570416E-01 -0.14916997293E-01  0.13273356106E+00  0.13422536232E+00  0.51109989000E-03 0. -1.
     -623    1    1    2    0    0  0.61620911569E-02 -0.39406342165E-02  0.28380708120E-02  0.17130000018E+03  0.17130000000E+03 0.  1.
      622    1    1    2    0    0  0.70844792590E-02  0.18857631509E-01  0.38644283355E+01  0.38657744580E+01  0.10000000000E+00 0. -1.
</event>
<event>
 5   0  0.6262544E+06  0.9118800E+02  0.7818608E-02  0.1180000E+00
       11   -1    0    0    0    0  0.00000000000E+00  0.00000000000E+00  0.39999999673E+01  0.40000000000E+01  0.51109989000E-03 0. -1.
     -623   -1    0    0    0    0  0.00000000000E+00  0.00000000000E+00  0.12525980253E-10  0.17130000000E+03  0.17130000000E+03 0. -1.
       11    1    1    2    0    0 -0.79911624896E-02 -0.23568868711E-01  0.61456145686E+00  0.61506535891E+00  0.51109989000E-03 0. -1.
     -623    1    1    2    0    0  0.53297750141E-02 -0.24931552466E-02  0.20828622565E-02  0.17130000011E+03  0.17130000000E+03 0. -1.
      622    1    1    2    0    0  0.26613874756E-02  0.26062023958E-01  0.33833556482E+01  0.33849345273E+01  0.10000000000E+00 0. -1.
</event>
<event>
 5   0  0.6262544E+06  0.9118800E+02  0.7818608E-02  0.1180000E+00
       11   -1    0    0    0    0  0.00000000000E+00  0.00000000000E+00  0.39999999673E+01  0.40000000000E+01  0.51109989000E-03 0.  1.
     -623   -1    0    0    0    0  0.00000000000E+00  0.00000000000E+00  0.12525980253E-10  0.17130000000E+03  0.17130000000E+03 0. -1.
       11    1    1    2    0    0  0.40860676460E-01 -0.39327222118E-01  0.63926015304E+00  0.64177101039E+00  0.51109989000E-03 0.  1.
     -623    1    1    2    0    0  0.10333661071E-01  0.35179319032E-02  0.45818869249E-02  0.17130000041E+03  0.17130000000E+03 0. -1.
      622    1    1    2    0    0 -0.51194337530E-01  0.35809290215E-01  0.33561579274E+01  0.33582285805E+01  0.10000000000E+00 0.  1.
</event>
<event>
 5   0  0.6262544E+06  0.9118800E+02  0.7818608E-02  0.1180000E+00
       11   -1    0    0    0    0  0.00000000000E+00  0.00000000000E+00  0.39999999673E+01  0.40000000000E+01  0.51109989000E-03 0.  1.
     -623   -1    0    0    0    0  0.00000000000E+00  0.00000000000E+00  0.12525980253E-10  0.17130000000E+03  0.17130000000E+03 0. -1.
       11    1    1    2    0    0  0.10016022388E-02  0.50821744169E-01  0.29231527302E+00  0.29670243166E+00  0.51109989000E-03 0.  1.
     -623    1    1    2    0    0 -0.14769785266E-02 -0.14329835505E-01  0.59181227292E-02  0.17130000071E+03  0.17130000000E+03 0. -1.
      622    1    1    2    0    0  0.47537628781E-03 -0.36491908664E-01  0.37017665716E+01  0.37032968604E+01  0.10000000000E+00 0.  1.
</event>
<event>
 5   0  0.6262544E+06  0.9118800E+02  0.7818608E-02  0.1180000E+00
       11   -1    0    0    0    0  0.00000000000E+00  0.00000000000E+00  0.39999999673E+01  0.40000000000E+01  0.51109989000E-03 0.  1.
     -623   -1    0    0    0    0  0.00000000000E+00  0.00000000000E+00  0.12525980253E-10  0.17130000000E+03  0.17130000000E+03 0. -1.
       11    1    1    2    0    0  0.54015101905E-02 -0.76633461152E-02  0.21754630360E-01  0.23694479340E-01  0.51109989000E-03 0.  1.
     -623    1    1    2    0    0 -0.41421712536E-02  0.72832274543E-02  0.31979163736E-02  0.17130000023E+03  0.17130000000E+03 0. -1.
      622    1    1    2    0    0 -0.12593389369E-02  0.38011866073E-03  0.39750474207E+01  0.39763052859E+01  0.10000000000E+00 0.  1.
</event>
<event>
 5   0  0.6262544E+06  0.9118800E+02  0.7818608E-02  0.1180000E+00
       11   -1    0    0    0    0  0.00000000000E+00  0.00000000000E+00  0.39999999673E+01  0.40000000000E+01  0.51109989000E-03 0.  1.
     -623   -1    0    0    0    0  0.00000000000E+00  0.00000000000E+00  0.12525980253E-10  0.17130000000E+03  0.17130000000E+03 0. -1.
       11    1    1    2    0    0  0.51005880800E-03 -0.48849752195E-02  0.25317370391E-01  0.25794449142E-01  0.51109989000E-03 0.  1.
     -623    1    1    2    0    0  0.37179660428E-02  0.24638469440E-02  0.17384127700E-02  0.17130000007E+03  0.17130000000E+03 0. -1.
      622    1    1    2    0    0 -0.42280248508E-02  0.24211282755E-02  0.39729441842E+01  0.39742054840E+01  0.10000000000E+00 0.  1.
</event>
<event>
 5   0  0.6262544E+06  0.9118800E+02  0.7818608E-02  0.1180000E+00
       11   -1    0    0    0    0  0.00000000000E+00  0.00000000000E+00  0.39999999673E+01  0.40000000000E+01  0.51109989000E-03 0.  1.
     -623   -1    0    0    0    0  0.00000000000E+00  0.00000000000E+00  0.12525980253E-10  0.17130000000E+03  0.17130000000E+03 0. -1.
       11    1    1    2    0    0  0.38026617552E-02  0.38578950521E-01  0.65459949736E+00  0.65574656601E+00  0.51109989000E-03 0.  1.
     -623    1    1    2    0    0 -0.24296126402E-01 -0.50991259959E-02  0.28747847188E-02  0.17130000182E+03  0.17130000000E+03 0. -1.
      622    1    1    2    0    0  0.20493464647E-01 -0.33479824526E-01  0.33425256853E+01  0.33442516110E+01  0.10000000000E+00 0.  1.
</event>
<event>
 5   0  0.6262544E+06  0.9118800E+02  0.7818608E-02  0.1180000E+00
       11   -1    0    0    0    0  0.00000000000E+00  0.00000000000E+00  0.39999999673E+01  0.40000000000E+01  0.51109989000E-03 0.  1.
     -623   -1    0    0    0    0  0.00000000000E+00  0.00000000000E+00  0.12525980253E-10  0.17130000000E+03  0.17130000000E+03 0.  1.
       11    1    1    2    0    0 -0.52487909058E-01 -0.49733044005E-02  0.45988109050E-01  0.69963431527E-01  0.51109989000E-03 0.  1.
     -623    1    1    2    0    0  0.27693141200E-01 -0.31025387659E-02  0.25338432798E-01  0.17130000414E+03  0.17130000000E+03 0.  1.
      622    1    1    2    0    0  0.24794767858E-01  0.80758431664E-02  0.39286734255E+01  0.39300324279E+01  0.10000000000E+00 0.  1.
</event>
<event>
 5   0  0.6262544E+06  0.9118800E+02  0.7818608E-02  0.1180000E+00
       11   -1    0    0    0    0  0.00000000000E+00  0.00000000000E+00  0.39999999673E+01  0.40000000000E+01  0.51109989000E-03 0. -1.
     -623   -1    0    0    0    0  0.00000000000E+00  0.00000000000E+00  0.12525980253E-10  0.17130000000E+03  0.17130000000E+03 0. -1.
       11    1    1    2    0    0 -0.57191138589E-02 -0.49050878599E-02  0.47156504862E+00  0.47162551294E+00  0.51109989000E-03 0. -1.
     -623    1    1    2    0    0  0.26667894000E-01  0.53350848122E-02  0.15422068928E-02  0.17130000217E+03  0.17130000000E+03 0. -1.
      622    1    1    2    0    0 -0.20948780141E-01 -0.42999695227E-03  0.35268927118E+01  0.35283723212E+01  0.10000000000E+00 0. -1.
</event>
<event>
 5   0  0.6262544E+06  0.9118800E+02  0.7818608E-02  0.1180000E+00
       11   -1    0    0    0    0  0.00000000000E+00  0.00000000000E+00  0.39999999673E+01  0.40000000000E+01  0.51109989000E-03 0. -1.
     -623   -1    0    0    0    0  0.00000000000E+00  0.00000000000E+00  0.12525980253E-10  0.17130000000E+03  0.17130000000E+03 0.  1.
       11    1    1    2    0    0  0.13286537308E-01 -0.85171321461E-02  0.22579753121E+01  0.22580305235E+01  0.51109989000E-03 0. -1.
     -623    1    1    2    0    0 -0.54417535540E-02  0.23895780749E-01  0.30153357095E-02  0.17130000178E+03  0.17130000000E+03 0.  1.
      622    1    1    2    0    0 -0.78447837540E-02 -0.15378648603E-01  0.17390093195E+01  0.17419676969E+01  0.10000000000E+00 0. -1.
</event>
<event>
 5   0  0.6262544E+06  0.9118800E+02  0.7818608E-02  0.1180000E+00
       11   -1    0    0    0    0  0.00000000000E+00  0.00000000000E+00  0.39999999673E+01  0.40000000000E+01  0.51109989000E-03 0.  1.
     -623   -1    0    0    0    0  0.00000000000E+00  0.00000000000E+00  0.12525980253E-10  0.17130000000E+03  0.17130000000E+03 0. -1.
       11    1    1    2    0    0  0.64347359480E-01  0.97754625536E-02  0.34219208330E+00  0.34832718160E+00  0.51109989000E-03 0.  1.
     -623    1    1    2    0    0 -0.12535631929E+00  0.16924623267E-01  0.81590138760E-02  0.17130004690E+03  0.17130000000E+03 0. -1.
      622    1    1    2    0    0  0.61008959813E-01 -0.26700085821E-01  0.36496488701E+01  0.36516259205E+01  0.10000000000E+00 0.  1.
</event>
<event>
 5   0  0.6262544E+06  0.9118800E+02  0.7818608E-02  0.1180000E+00
       11   -1    0    0    0    0  0.00000000000E+00  0.00000000000E+00  0.39999999673E+01  0.40000000000E+01  0.51109989000E-03 0.  1.
     -623   -1    0    0    0    0  0.00000000000E+00  0.00000000000E+00  0.12525980253E-10  0.17130000000E+03  0.17130000000E+03 0.  1.
       11    1    1    2    0    0  0.15124815001E-02 -0.45788743920E-03  0.12794505553E-01  0.12901854719E-01  0.51109989000E-03 0.  1.
     -623    1    1    2    0    0 -0.43170887909E-02 -0.13925560359E-02  0.13630404397E-02  0.17130000007E+03  0.17130000000E+03 0.  1.
      622    1    1    2    0    0  0.28046072908E-02  0.18504434751E-02  0.39858424214E+01  0.39870980798E+01  0.10000000000E+00 0.  1.
</event>
<event>
 5   0  0.6262544E+06  0.9118800E+02  0.7818608E-02  0.1180000E+00
       11   -1    0    0    0    0  0.00000000000E+00  0.00000000000E+00  0.39999999673E+01  0.40000000000E+01  0.51109989000E-03 0.  1.
     -623   -1    0    0    0    0  0.00000000000E+00  0.00000000000E+00  0.12525980253E-10  0.17130000000E+03  0.17130000000E+03 0. -1.
       11    1    1    2    0    0 -0.63718918255E-02 -0.13509773205E-02  0.10142261058E+00  0.10163283576E+00  0.51109989000E-03 0.  1.
     -623    1    1    2    0    0 -0.22692117660E-02 -0.55994224796E-02  0.15088831705E-02  0.17130000011E+03  0.17130000000E+03 0. -1.
      622    1    1    2    0    0  0.86411035915E-02  0.69503998001E-02  0.38970684736E+01  0.38983670510E+01  0.10000000000E+00 0.  1.
</event>
<event>
 5   0  0.6262544E+06  0.9118800E+02  0.7818608E-02  0.1180000E+00
       11   -1    0    0    0    0  0.00000000000E+00  0.00000000000E+00  0.39999999673E+01  0.40000000000E+01  0.51109989000E-03 0.  1.
     -623   -1    0    0    0    0  0.00000000000E+00  0.00000000000E+00  0.12525980253E-10  0.17130000000E+03  0.17130000000E+03 0. -1.
       11    1    1    2    0    0 -0.69312768955E-01 -0.30464324231E-01  0.19729093983E+01  0.19743616918E+01  0.51109989000E-03 0.  1.
     -623    1    1    2    0    0 -0.51809578663E-03 -0.20025103038E-01  0.57593526794E-02  0.17130000127E+03  0.17130000000E+03 0. -1.
      622    1    1    2    0    0  0.69830864742E-01  0.50489427269E-01  0.20213312164E+01  0.20256370401E+01  0.10000000000E+00 0. -1.
</event>
<event>
 5   0  0.6262544E+06  0.9118800E+02  0.7818608E-02  0.1180000E+00
       11   -1    0    0    0    0  0.00000000000E+00  0.00000000000E+00  0.39999999673E+01  0.40000000000E+01  0.51109989000E-03 0. -1.
     -623   -1    0    0    0    0  0.00000000000E+00  0.00000000000E+00  0.12525980253E-10  0.17130000000E+03  0.17130000000E+03 0. -1.
       11    1    1    2    0    0  0.76696191794E-02  0.79278619031E-03  0.96150566753E-01  0.96460584062E-01  0.51109989000E-03 0. -1.
     -623    1    1    2    0    0 -0.40918605461E-02  0.11200515805E-01  0.16115769155E-02  0.17130000042E+03  0.17130000000E+03 0. -1.
      622    1    1    2    0    0 -0.35777586333E-02 -0.11993301996E-01  0.39022378237E+01  0.39035389933E+01  0.10000000000E+00 0. -1.
</event>
<event>
 5   0  0.6262544E+06  0.9118800E+02  0.7818608E-02  0.1180000E+00
       11   -1    0    0    0    0  0.00000000000E+00  0.00000000000E+00  0.39999999673E+01  0.40000000000E+01  0.51109989000E-03 0. -1.
     -623   -1    0    0    0    0  0.00000000000E+00  0.00000000000E+00  0.12525980253E-10  0.17130000000E+03  0.17130000000E+03 0. -1.
       11    1    1    2    0    0 -0.19991747544E-01  0.17658864249E-02  0.33283933260E-01  0.38869908138E-01  0.51109989000E-03 0. -1.
     -623    1    1    2    0    0  0.17956017548E-01  0.70347163541E-02  0.68599354842E-02  0.17130000122E+03  0.17130000000E+03 0. -1.
      622    1    1    2    0    0  0.20357299954E-02 -0.88006027790E-02  0.39598560986E+01  0.39611288690E+01  0.10000000000E+00 0. -1.
</event>
<event>
 5   0  0.6262544E+06  0.9118800E+02  0.7818608E-02  0.1180000E+00
       11   -1    0    0    0    0  0.00000000000E+00  0.00000000000E+00  0.39999999673E+01  0.40000000000E+01  0.51109989000E-03 0.  1.
     -623   -1    0    0    0    0  0.00000000000E+00  0.00000000000E+00  0.12525980253E-10  0.17130000000E+03  0.17130000000E+03 0. -1.
       11    1    1    2    0    0  0.68645098489E-01 -0.81820623495E-01  0.26476090969E+00  0.28549144382E+00  0.51109989000E-03 0.  1.
     -623    1    1    2    0    0 -0.18770627245E-01  0.99525174136E-01  0.22485428702E-01  0.17130003142E+03  0.17130000000E+03 0. -1.
      622    1    1    2    0    0 -0.49874471243E-01 -0.17704550641E-01  0.37127536290E+01  0.37144771400E+01  0.10000000000E+00 0.  1.
</event>
<event>
 5   0  0.6262544E+06  0.9118800E+02  0.7818608E-02  0.1180000E+00
       11   -1    0    0    0    0  0.00000000000E+00  0.00000000000E+00  0.39999999673E+01  0.40000000000E+01  0.51109989000E-03 0. -1.
     -623   -1    0    0    0    0  0.00000000000E+00  0.00000000000E+00  0.12525980253E-10  0.17130000000E+03  0.17130000000E+03 0.  1.
       11    1    1    2    0    0  0.49238400566E-01  0.15010075758E-01  0.44343457251E+00  0.44641259367E+00  0.51109989000E-03 0. -1.
     -623    1    1    2    0    0  0.41799901106E-01 -0.52069811130E-01  0.57586020736E-02  0.17130001311E+03  0.17130000000E+03 0.  1.
      622    1    1    2    0    0 -0.91038301673E-01  0.37059735373E-01  0.35508067929E+01  0.35535742959E+01  0.10000000000E+00 0.  1.
</event>
<event>
 5   0  0.6262544E+06  0.9118800E+02  0.7818608E-02  0.1180000E+00
       11   -1    0    0    0    0  0.00000000000E+00  0.00000000000E+00  0.39999999673E+01  0.40000000000E+01  0.51109989000E-03 0. -1.
     -623   -1    0    0    0    0  0.00000000000E+00  0.00000000000E+00  0.12525980253E-10  0.17130000000E+03  0.17130000000E+03 0.  1.
       11    1    1    2    0    0 -0.51569209700E-01  0.60819134281E-01  0.13452900591E+00  0.15638626902E+00  0.51109989000E-03 0. -1.
     -623    1    1    2    0    0  0.65499972600E-01 -0.98394279568E-01  0.23409696251E-01  0.17130004238E+03  0.17130000000E+03 0.  1.
      622    1    1    2    0    0 -0.13930762901E-01  0.37575145287E-01  0.38420612652E+01  0.38435713501E+01  0.10000000000E+00 0. -1.
</event>
<event>
 5   0  0.6262544E+06  0.9118800E+02  0.7818608E-02  0.1180000E+00
       11   -1    0    0    0    0  0.00000000000E+00  0.00000000000E+00  0.39999999673E+01  0.40000000000E+01  0.51109989000E-03 0. -1.
     -623   -1    0    0    0    0  0.00000000000E+00  0.00000000000E+00  0.12525980253E-10  0.17130000000E+03  0.17130000000E+03 0. -1.
       11    1    1    2    0    0 -0.17663183678E-01 -0.21719662323E-02  0.60764933516E+00  0.60791009305E+00  0.51109989000E-03 0. -1.
     -623    1    1    2    0    0  0.15316260542E-01 -0.16054813963E-01  0.17863132950E-02  0.17130000145E+03  0.17130000000E+03 0. -1.
      622    1    1    2    0    0  0.23469231354E-02  0.18226780196E-01  0.33905643189E+01  0.33920884606E+01  0.10000000000E+00 0. -1.
</event>
<event>
 5   0  0.6262544E+06  0.9118800E+02  0.7818608E-02  0.1180000E+00
       11   -1    0    0    0    0  0.00000000000E+00  0.00000000000E+00  0.39999999673E+01  0.40000000000E+01  0.51109989000E-03 0. -1.
     -623   -1    0    0    0    0  0.00000000000E+00  0.00000000000E+00  0.12525980253E-10  0.17130000000E+03  0.17130000000E+03 0.  1.
       11    1    1    2    0    0  0.39817731911E-02 -0.24406806231E-02  0.11415289666E-01  0.12344290215E-01  0.51109989000E-03 0. -1.
     -623    1    1    2    0    0 -0.47703054087E-02 -0.29637930160E-02  0.21868821741E-02  0.17130000011E+03  0.17130000000E+03 0.  1.
      622    1    1    2    0    0  0.78853221759E-03  0.54044736391E-02  0.39863977955E+01  0.39876556038E+01  0.10000000000E+00 0. -1.
</event>
<event>
 5   0  0.6262544E+06  0.9118800E+02  0.7818608E-02  0.1180000E+00
       11   -1    0    0    0    0  0.00000000000E+00  0.00000000000E+00  0.39999999673E+01  0.40000000000E+01  0.51109989000E-03 0.  1.
     -623   -1    0    0    0    0  0.00000000000E+00  0.00000000000E+00  0.12525980253E-10  0.17130000000E+03  0.17130000000E+03 0.  1.
       11    1    1    2    0    0 -0.15743382443E-02 -0.74982509346E-03  0.47265481483E-01  0.47300398930E-01  0.51109989000E-03 0.  1.
     -623    1    1    2    0    0  0.14183002016E-02 -0.14224299080E-02  0.13006624250E-02  0.17130000002E+03  0.17130000000E+03 0.  1.
      622    1    1    2    0    0  0.15603804278E-03  0.21722550015E-02  0.39514338235E+01  0.39526995844E+01  0.10000000000E+00 0.  1.
</event>
<event>
 5   0  0.6262544E+06  0.9118800E+02  0.7818608E-02  0.1180000E+00
       11   -1    0    0    0    0  0.00000000000E+00  0.00000000000E+00  0.39999999673E+01  0.40000000000E+01  0.51109989000E-03 0.  1.
     -623   -1    0    0    0    0  0.00000000000E+00  0.00000000000E+00  0.12525980253E-10  0.17130000000E+03  0.17130000000E+03 0.  1.
       11    1    1    2    0    0 -0.28093169428E-02 -0.25613269196E-01  0.16549430027E+01  0.16551436600E+01  0.51109989000E-03 0.  1.
     -623    1    1    2    0    0  0.15767098603E-02  0.78953196553E-02  0.24014535078E-02  0.17130000021E+03  0.17130000000E+03 0.  1.
      622    1    1    2    0    0  0.12326070824E-02  0.17717949540E-01  0.23426555114E+01  0.23448561342E+01  0.10000000000E+00 0.  1.
</event>
<event>
 5   0  0.6262544E+06  0.9118800E+02  0.7818608E-02  0.1180000E+00
       11   -1    0    0    0    0  0.00000000000E+00  0.00000000000E+00  0.39999999673E+01  0.40000000000E+01  0.51109989000E-03 0.  1.
     -623   -1    0    0    0    0  0.00000000000E+00  0.00000000000E+00  0.12525980253E-10  0.17130000000E+03  0.17130000000E+03 0. -1.
       11    1    1    2    0    0  0.41730549851E-02 -0.12764124530E-02  0.45263039040E-01  0.45475790734E-01  0.51109989000E-03 0.  1.
     -623    1    1    2    0    0 -0.19362857430E-02 -0.21782600824E-01  0.15465831575E-02  0.17130000140E+03  0.17130000000E+03 0. -1.
      622    1    1    2    0    0 -0.22367692421E-02  0.23059013276E-01  0.39531903451E+01  0.39545228063E+01  0.10000000000E+00 0.  1.
</event>
<event>
 5   0  0.6262544E+06  0.9118800E+02  0.7818608E-02  0.1180000E+00
       11   -1    0    0    0    0  0.00000000000E+00  0.00000000000E+00  0.39999999673E+01  0.40000000000E+01  0.51109989000E-03 0.  1.
     -623   -1    0    0    0    0  0.00000000000E+00  0.00000000000E+00  0.12525980253E-10  0.17130000000E+03  0.17130000000E+03 0.  1.
       11    1    1    2    0    0 -0.21043711574E-02 -0.99918989812E-03  0.20799381418E-01  0.20935669240E-01  0.51109989000E-03 0.  1.
     -623    1    1    2    0    0 -0.67816992422E-02  0.99434496991E-02  0.14134404420E-02  0.17130000043E+03  0.17130000000E+03 0.  1.
      622    1    1    2    0    0  0.88860703996E-02 -0.89442598010E-02  0.39777871455E+01  0.39790639021E+01  0.10000000000E+00 0.  1.
</event>
<event>
 5   0  0.6262544E+06  0.9118800E+02  0.7818608E-02  0.1180000E+00
       11   -1    0    0    0    0  0.00000000000E+00  0.00000000000E+00  0.39999999673E+01  0.40000000000E+01  0.51109989000E-03 0. -1.
     -623   -1    0    0    0    0  0.00000000000E+00  0.00000000000E+00  0.12525980253E-10  0.17130000000E+03  0.17130000000E+03 0. -1.
       11    1    1    2    0    0  0.49662449569E-02  0.15688155926E-01  0.46597438858E+00  0.46626513258E+00  0.51109989000E-03 0. -1.
     -623    1    1    2    0    0 -0.66650186210E-02 -0.76963406596E-02  0.17156887462E-02  0.17130000031E+03  0.17130000000E+03 0. -1.
      622    1    1    2    0    0  0.16987736636E-02 -0.79918152668E-02  0.35323098898E+01  0.35337345560E+01  0.10000000000E+00 0. -1.
</event>
<event>
 5   0  0.6262544E+06  0.9118800E+02  0.7818608E-02  0.1180000E+00
       11   -1    0    0    0    0  0.00000000000E+00  0.00000000000E+00  0.39999999673E+01  0.40000000000E+01  0.51109989000E-03 0.  1.
     -623   -1    0    0    0    0  0.00000000000E+00  0.00000000000E+00  0.12525980253E-10  0.17130000000E+03  0.17130000000E+03 0.  1.
       11    1    1    2    0    0  0.35383274492E-02  0.12665222213E-02  0.19512762803E-01  0.19877951934E-01  0.51109989000E-03 0.  1.
     -623    1    1    2    0    0  0.27068196762E-02 -0.45264267952E-02  0.16279232047E-02  0.17130000009E+03  0.17130000000E+03 0.  1.
      622    1    1    2    0    0 -0.62451471254E-02  0.32599045739E-02  0.39788592814E+01  0.39801219591E+01  0.10000000000E+00 0.  1.
</event>
<event>
 5   0  0.6262544E+06  0.9118800E+02  0.7818608E-02  0.1180000E+00
       11   -1    0    0    0    0  0.00000000000E+00  0.00000000000E+00  0.39999999673E+01  0.40000000000E+01  0.51109989000E-03 0.  1.
     -623   -1    0    0    0    0  0.00000000000E+00  0.00000000000E+00  0.12525980253E-10  0.17130000000E+03  0.17130000000E+03 0.  1.
       11    1    1    2    0    0 -0.88751607395E-02 -0.36522430353E-01  0.10540501582E+01  0.10547201779E+01  0.51109989000E-03 0.  1.
     -623    1    1    2    0    0 -0.23839867436E-01 -0.63360520427E-02  0.28637579342E-02  0.17130000180E+03  0.17130000000E+03 0.  1.
      622    1    1    2    0    0  0.32715028175E-01  0.42858482396E-01  0.29430860512E+01  0.29452780221E+01  0.10000000000E+00 0.  1.
</event>
<event>
 5   0  0.6262544E+06  0.9118800E+02  0.7818608E-02  0.1180000E+00
       11   -1    0    0    0    0  0.00000000000E+00  0.00000000000E+00  0.39999999673E+01  0.40000000000E+01  0.51109989000E-03 0.  1.
     -623   -1    0    0    0    0  0.00000000000E+00  0.00000000000E+00  0.12525980253E-10  0.17130000000E+03  0.17130000000E+03 0. -1.
       11    1    1    2    0    0  0.31936334094E-01 -0.15623814480E-01  0.62837729403E-01  0.72200238730E-01  0.51109989000E-03 0.  1.
     -623    1    1    2    0    0 -0.41711796544E-01  0.15102860743E-01  0.10653940924E-01  0.17130000608E+03  0.17130000000E+03 0. -1.
      622    1    1    2    0    0  0.97754624500E-02  0.52095373715E-03  0.39265082970E+01  0.39277936857E+01  0.10000000000E+00 0.  1.
</event>
<event>
 5   0  0.6262544E+06  0.9118800E+02  0.7818608E-02  0.1180000E+00
       11   -1    0    0    0    0  0.00000000000E+00  0.00000000000E+00  0.39999999673E+01  0.40000000000E+01  0.51109989000E-03 0.  1.
     -623   -1    0    0    0    0  0.00000000000E+00  0.00000000000E+00  0.12525980253E-10  0.17130000000E+03  0.17130000000E+03 0.  1.
       11    1    1    2    0    0  0.87600849906E-03  0.16890738261E-02  0.61133516491E-02  0.64229784962E-02  0.51109989000E-03 0.  1.
     -623    1    1    2    0    0 -0.14157155500E-02 -0.44363445412E-03  0.15620452278E-02  0.17130000001E+03  0.17130000000E+03 0.  1.
      622    1    1    2    0    0  0.53970705096E-03 -0.12454393720E-02  0.39923245706E+01  0.39935770081E+01  0.10000000000E+00 0.  1.
</event>
<event>
 5   0  0.6262544E+06  0.9118800E+02  0.7818608E-02  0.1180000E+00
       11   -1    0    0    0    0  0.00000000000E+00  0.00000000000E+00  0.39999999673E+01  0.40000000000E+01  0.51109989000E-03 0.  1.
     -623   -1    0    0    0    0  0.00000000000E+00  0.00000000000E+00  0.12525980253E-10  0.17130000000E+03  0.17130000000E+03 0. -1.
       11    1    1    2    0    0  0.39694653660E-03  0.79076330600E-03  0.20747367427E-01  0.20772514280E-01  0.51109989000E-03 0.  1.
     -623    1    1    2    0    0 -0.19410582763E-02 -0.17661211864E-02  0.12822821289E-02  0.17130000002E+03  0.17130000000E+03 0. -1.
      622    1    1    2    0    0  0.15441117397E-02  0.97535788038E-03  0.39779703178E+01  0.39792274608E+01  0.10000000000E+00 0.  1.
</event>
<event>
 5   0  0.6262544E+06  0.9118800E+02  0.7818608E-02  0.1180000E+00
       11   -1    0    0    0    0  0.00000000000E+00  0.00000000000E+00  0.39999999673E+01  0.40000000000E+01  0.51109989000E-03 0. -1.
     -623   -1    0    0    0    0  0.00000000000E+00  0.00000000000E+00  0.12525980253E-10  0.17130000000E+03  0.17130000000E+03 0.  1.
       11    1    1    2    0    0 -0.51171694182E-02 -0.94385450329E-03  0.53212531862E-01  0.53468785795E-01  0.51109989000E-03 0. -1.
     -623    1    1    2    0    0  0.15487227482E-02 -0.19331524953E-02  0.15260476175E-02  0.17130000002E+03  0.17130000000E+03 0.  1.
      622    1    1    2    0    0  0.35684466700E-02  0.28770069986E-02  0.39452613879E+01  0.39465311895E+01  0.10000000000E+00 0. -1.
</event>
<event>
 5   0  0.6262544E+06  0.9118800E+02  0.7818608E-02  0.1180000E+00
       11   -1    0    0    0    0  0.00000000000E+00  0.00000000000E+00  0.39999999673E+01  0.40000000000E+01  0.51109989000E-03 0. -1.
     -623   -1    0    0    0    0  0.00000000000E+00  0.00000000000E+00  0.12525980253E-10  0.17130000000E+03  0.17130000000E+03 0. -1.
       11    1    1    2    0    0 -0.10834429941E-01 -0.80938531339E-02  0.59305503059E+00  0.59320942833E+00  0.51109989000E-03 0. -1.
     -623    1    1    2    0    0  0.83419520852E-02 -0.92351381432E-02  0.16678030594E-02  0.17130000046E+03  0.17130000000E+03 0. -1.
      622    1    1    2    0    0  0.24924778560E-02  0.17328991277E-01  0.34052771337E+01  0.34067901115E+01  0.10000000000E+00 0. -1.
</event>
<event>
 5   0  0.6262544E+06  0.9118800E+02  0.7818608E-02  0.1180000E+00
       11   -1    0    0    0    0  0.00000000000E+00  0.00000000000E+00  0.39999999673E+01  0.40000000000E+01  0.51109989000E-03 0. -1.
     -623   -1    0    0    0    0  0.00000000000E+00  0.00000000000E+00  0.12525980253E-10  0.17130000000E+03  0.17130000000E+03 0.  1.
       11    1    1    2    0    0 -0.78020450679E-02 -0.85922651963E-02  0.57082617352E-01  0.58252771224E-01  0.51109989000E-03 0. -1.
     -623    1    1    2    0    0  0.48801957852E-01 -0.11616283228E-01  0.27112944879E-02  0.17130000737E+03  0.17130000000E+03 0.  1.
      622    1    1    2    0    0 -0.40999912783E-01  0.20208548424E-01  0.39402060554E+01  0.39417398617E+01  0.10000000000E+00 0. -1.
</event>
<event>
 5   0  0.6262544E+06  0.9118800E+02  0.7818608E-02  0.1180000E+00
       11   -1    0    0    0    0  0.00000000000E+00  0.00000000000E+00  0.39999999673E+01  0.40000000000E+01  0.51109989000E-03 0. -1.
     -623   -1    0    0    0    0  0.00000000000E+00  0.00000000000E+00  0.12525980253E-10  0.17130000000E+03  0.17130000000E+03 0. -1.
       11    1    1    2    0    0 -0.13859667001E-01  0.20441313514E-02  0.21207540020E+00  0.21253824465E+00  0.51109989000E-03 0. -1.
     -623    1    1    2    0    0  0.15990853242E-01 -0.15506209535E-02  0.17845822281E-02  0.17130000076E+03  0.17130000000E+03 0. -1.
      622    1    1    2    0    0 -0.21311862414E-02 -0.49351039786E-03  0.37861399850E+01  0.37874609927E+01  0.10000000000E+00 0. -1.
</event>
<event>
 5   0  0.6262544E+06  0.9118800E+02  0.7818608E-02  0.1180000E+00
       11   -1    0    0    0    0  0.00000000000E+00  0.00000000000E+00  0.39999999673E+01  0.40000000000E+01  0.51109989000E-03 0.  1.
     -623   -1    0    0    0    0  0.00000000000E+00  0.00000000000E+00  0.12525980253E-10  0.17130000000E+03  0.17130000000E+03 0. -1.
       11    1    1    2    0    0  0.97284623974E-03  0.10216942091E-01  0.61108151193E+00  0.61116790474E+00  0.51109989000E-03 0.  1.
     -623    1    1    2    0    0 -0.15030919785E-02 -0.74979662764E-03  0.15754026874E-02  0.17130000002E+03  0.17130000000E+03 0. -1.
      622    1    1    2    0    0  0.53024573888E-03 -0.94671454635E-02  0.33873430531E+01  0.33888320802E+01  0.10000000000E+00 0.  1.
</event>
<event>
 5   0  0.6262544E+06  0.9118800E+02  0.7818608E-02  0.1180000E+00
       11   -1    0    0    0    0  0.00000000000E+00  0.00000000000E+00  0.39999999673E+01  0.40000000000E+01  0.51109989000E-03 0. -1.
     -623   -1    0    0    0    0  0.00000000000E+00  0.00000000000E+00  0.12525980253E-10  0.17130000000E+03  0.17130000000E+03 0.  1.
       11    1    1    2    0    0 -0.11829379080E-01  0.15271775427E-01  0.25918460354E+00  0.25990398472E+00  0.51109989000E-03 0. -1.
     -623    1    1    2    0    0 -0.25902796504E-02  0.67799914113E-04  0.21157596647E-02  0.17130000003E+03  0.17130000000E+03 0.  1.
      622    1    1    2    0    0  0.14419658731E-01 -0.15339575341E-01  0.37386996042E+01  0.37400959826E+01  0.10000000000E+00 0. -1.
</event>
<event>
 5   0  0.6262544E+06  0.9118800E+02  0.7818608E-02  0.1180000E+00
       11   -1    0    0    0    0  0.00000000000E+00  0.00000000000E+00  0.39999999673E+01  0.40000000000E+01  0.51109989000E-03 0.  1.
     -623   -1    0    0    0    0  0.00000000000E+00  0.00000000000E+00  0.12525980253E-10  0.17130000000E+03  0.17130000000E+03 0.  1.
       11    1    1    2    0    0  0.25768681306E-03  0.99169825984E-02  0.23606830136E+00  0.23627720389E+00  0.51109989000E-03 0.  1.
     -623    1    1    2    0    0  0.36591522383E-03  0.95650553274E-02  0.15883431823E-02  0.17130000027E+03  0.17130000000E+03 0.  1.
      622    1    1    2    0    0 -0.62360203691E-03 -0.19482037926E-01  0.37623433230E+01  0.37637225215E+01  0.10000000000E+00 0.  0.
</event>
<event>
 5   0  0.6262544E+06  0.9118800E+02  0.7818608E-02  0.1180000E+00
       11   -1    0    0    0    0  0.00000000000E+00  0.00000000000E+00  0.39999999673E+01  0.40000000000E+01  0.51109989000E-03 0.  1.
     -623   -1    0    0    0    0  0.00000000000E+00  0.00000000000E+00  0.12525980253E-10  0.17130000000E+03  0.17130000000E+03 0.  1.
       11    1    1    2    0    0  0.21211098183E-03  0.17454082309E-03  0.60928229109E-03  0.84137005850E-03  0.51109989000E-03 0.  1.
     -623    1    1    2    0    0 -0.16145508578E-02  0.78710963039E-03  0.14828910884E-02  0.17130000002E+03  0.17130000000E+03 0.  1.
      622    1    1    2    0    0  0.14024398761E-02 -0.96165045352E-03  0.39979077942E+01  0.39991586143E+01  0.10000000000E+00 0.  1.
</event>
<event>
 5   0  0.6262544E+06  0.9118800E+02  0.7818608E-02  0.1180000E+00
       11   -1    0    0    0    0  0.00000000000E+00  0.00000000000E+00  0.39999999673E+01  0.40000000000E+01  0.51109989000E-03 0.  1.
     -623   -1    0    0    0    0  0.00000000000E+00  0.00000000000E+00  0.12525980253E-10  0.17130000000E+03  0.17130000000E+03 0. -1.
       11    1    1    2    0    0  0.51804889263E-01  0.17242081918E-01  0.69819124699E+00  0.70032300729E+00  0.51109989000E-03 0.  1.
     -623    1    1    2    0    0 -0.65224512770E-02  0.16700201007E-01  0.41339096033E-02  0.17130000099E+03  0.17130000000E+03 0. -1.
      622    1    1    2    0    0 -0.45282437986E-01 -0.33942282925E-01  0.32976748108E+01  0.32996760046E+01  0.10000000000E+00 0.  1.
</event>
<event>
 5   0  0.6262544E+06  0.9118800E+02  0.7818608E-02  0.1180000E+00
       11   -1    0    0    0    0  0.00000000000E+00  0.00000000000E+00  0.39999999673E+01  0.40000000000E+01  0.51109989000E-03 0.  1.
     -623   -1    0    0    0    0  0.00000000000E+00  0.00000000000E+00  0.12525980253E-10  0.17130000000E+03  0.17130000000E+03 0.  1.
       11    1    1    2    0    0  0.63418173587E-02 -0.10817949355E-01  0.37088677723E-02  0.13086771905E-01  0.51109989000E-03 0.  1.
     -623    1    1    2    0    0 -0.21319364605E-01  0.21844889229E-02  0.10671337906E-01  0.17130000167E+03  0.17130000000E+03 0.  1.
      622    1    1    2    0    0  0.14977547246E-01  0.86334604316E-02  0.39856197617E+01  0.39869115551E+01  0.10000000000E+00 0.  1.
</event>
<event>
 5   0  0.6262544E+06  0.9118800E+02  0.7818608E-02  0.1180000E+00
       11   -1    0    0    0    0  0.00000000000E+00  0.00000000000E+00  0.39999999673E+01  0.40000000000E+01  0.51109989000E-03 0.  1.
     -623   -1    0    0    0    0  0.00000000000E+00  0.00000000000E+00  0.12525980253E-10  0.17130000000E+03  0.17130000000E+03 0.  1.
       11    1    1    2    0    0 -0.12935229860E-01  0.28086285153E-01  0.22717146725E+01  0.22719251691E+01  0.51109989000E-03 0.  1.
     -623    1    1    2    0    0 -0.78372712752E-04  0.10634385995E-01  0.35903345970E-02  0.17130000037E+03  0.17130000000E+03 0.  1.
      622    1    1    2    0    0  0.13013602573E-01 -0.38720671148E-01  0.17246949603E+01  0.17280744632E+01  0.10000000000E+00 0.  1.
</event>
<event>
 5   0  0.6262544E+06  0.9118800E+02  0.7818608E-02  0.1180000E+00
       11   -1    0    0    0    0  0.00000000000E+00  0.00000000000E+00  0.39999999673E+01  0.40000000000E+01  0.51109989000E-03 0.  1.
     -623   -1    0    0    0    0  0.00000000000E+00  0.00000000000E+00  0.12525980253E-10  0.17130000000E+03  0.17130000000E+03 0.  1.
       11    1    1    2    0    0  0.13169713084E-01  0.26136936189E-01  0.56807921898E+00  0.56883287619E+00  0.51109989000E-03 0.  1.
     -623    1    1    2    0    0 -0.12688057020E-01 -0.22676611324E-02  0.22947594189E-02  0.17130000050E+03  0.17130000000E+03 0.  1.
      622    1    1    2    0    0 -0.48165606405E-03 -0.23869275057E-01  0.34296259890E+01  0.34311666235E+01  0.10000000000E+00 0.  1.
</event>
<event>
 5   0  0.6262544E+06  0.9118800E+02  0.7818608E-02  0.1180000E+00
       11   -1    0    0    0    0  0.00000000000E+00  0.00000000000E+00  0.39999999673E+01  0.40000000000E+01  0.51109989000E-03 0. -1.
     -623   -1    0    0    0    0  0.00000000000E+00  0.00000000000E+00  0.12525980253E-10  0.17130000000E+03  0.17130000000E+03 0.  1.
       11    1    1    2    0    0  0.14930798109E-01 -0.29305086162E-01  0.29364951950E+00  0.29548607129E+00  0.51109989000E-03 0. -1.
     -623    1    1    2    0    0 -0.11490893354E-01 -0.54586461448E-02  0.33517501681E-02  0.17130000051E+03  0.17130000000E+03 0.  1.
      622    1    1    2    0    0 -0.34399047544E-02  0.34763732307E-01  0.37029986977E+01  0.37045134235E+01  0.10000000000E+00 0. -1.
</event>
<event>
 5   0  0.6262544E+06  0.9118800E+02  0.7818608E-02  0.1180000E+00
       11   -1    0    0    0    0  0.00000000000E+00  0.00000000000E+00  0.39999999673E+01  0.40000000000E+01  0.51109989000E-03 0. -1.
     -623   -1    0    0    0    0  0.00000000000E+00  0.00000000000E+00  0.12525980253E-10  0.17130000000E+03  0.17130000000E+03 0. -1.
       11    1    1    2    0    0  0.28061041493E-02  0.16148620103E-01  0.33835438273E-01  0.37599870451E-01  0.51109989000E-03 0. -1.
     -623    1    1    2    0    0  0.20576260080E-01 -0.12632221675E-01  0.50988138126E-02  0.17130000178E+03  0.17130000000E+03 0. -1.
      622    1    1    2    0    0 -0.23382364230E-01 -0.35163984283E-02  0.39610657153E+01  0.39623983521E+01  0.10000000000E+00 0. -1.
</event>
<event>
 5   0  0.6262544E+06  0.9118800E+02  0.7818608E-02  0.1180000E+00
       11   -1    0    0    0    0  0.00000000000E+00  0.00000000000E+00  0.39999999673E+01  0.40000000000E+01  0.51109989000E-03 0.  1.
     -623   -1    0    0    0    0  0.00000000000E+00  0.00000000000E+00  0.12525980253E-10  0.17130000000E+03  0.17130000000E+03 0. -1.
       11    1    1    2    0    0  0.43636743948E-02 -0.23121856544E-02  0.86207360908E-02  0.99481742330E-02  0.51109989000E-03 0.  1.
     -623    1    1    2    0    0  0.56041751037E-01 -0.95568073440E-02  0.30652538285E-02  0.17130000946E+03  0.17130000000E+03 0. -1.
      622    1    1    2    0    0 -0.60405425434E-01  0.11868992999E-01  0.39883139776E+01  0.39900423647E+01  0.10000000000E+00 0.  1.
</event>
<event>
 5   0  0.6262544E+06  0.9118800E+02  0.7818608E-02  0.1180000E+00
       11   -1    0    0    0    0  0.00000000000E+00  0.00000000000E+00  0.39999999673E+01  0.40000000000E+01  0.51109989000E-03 0. -1.
     -623   -1    0    0    0    0  0.00000000000E+00  0.00000000000E+00  0.12525980253E-10  0.17130000000E+03  0.17130000000E+03 0.  1.
       11    1    1    2    0    0  0.80613056637E-02 -0.40917866562E-02  0.50366433007E-01  0.51173881659E-01  0.51109989000E-03 0. -1.
     -623    1    1    2    0    0  0.21476721854E-02  0.31317347267E-02  0.20871907200E-02  0.17130000005E+03  0.17130000000E+03 0.  1.
      622    1    1    2    0    0 -0.10208977849E-01  0.96005192932E-03  0.39475463439E+01  0.39488260638E+01  0.10000000000E+00 0. -1.
</event>
<event>
 5   0  0.6262544E+06  0.9118800E+02  0.7818608E-02  0.1180000E+00
       11   -1    0    0    0    0  0.00000000000E+00  0.00000000000E+00  0.39999999673E+01  0.40000000000E+01  0.51109989000E-03 0.  1.
     -623   -1    0    0    0    0  0.00000000000E+00  0.00000000000E+00  0.12525980253E-10  0.17130000000E+03  0.17130000000E+03 0.  1.
       11    1    1    2    0    0  0.19517269760E-01 -0.24626652142E-02  0.14318415597E+00  0.14453010856E+00  0.51109989000E-03 0.  1.
     -623    1    1    2    0    0 -0.11337608118E-01  0.18502308100E-01  0.26864484528E-02  0.17130000140E+03  0.17130000000E+03 0.  1.
      622    1    1    2    0    0 -0.81796616425E-02 -0.16039642885E-01  0.38541293629E+01  0.38554684960E+01  0.10000000000E+00 0.  1.
</event>
<event>
 5   0  0.6262544E+06  0.9118800E+02  0.7818608E-02  0.1180000E+00
       11   -1    0    0    0    0  0.00000000000E+00  0.00000000000E+00  0.39999999673E+01  0.40000000000E+01  0.51109989000E-03 0. -1.
     -623   -1    0    0    0    0  0.00000000000E+00  0.00000000000E+00  0.12525980253E-10  0.17130000000E+03  0.17130000000E+03 0.  1.
       11    1    1    2    0    0  0.21096903847E-01 -0.56341480681E-01  0.71371373675E+00  0.71624507052E+00  0.51109989000E-03 0. -1.
     -623    1    1    2    0    0 -0.42747566844E-01  0.11294340680E-01  0.44406236555E-02  0.17130000576E+03  0.17130000000E+03 0.  1.
      622    1    1    2    0    0  0.21650662997E-01  0.45047140001E-01  0.32818456070E+01  0.32837491658E+01  0.10000000000E+00 0. -1.
</event>
<event>
 5   0  0.6262544E+06  0.9118800E+02  0.7818608E-02  0.1180000E+00
       11   -1    0    0    0    0  0.00000000000E+00  0.00000000000E+00  0.39999999673E+01  0.40000000000E+01  0.51109989000E-03 0.  1.
     -623   -1    0    0    0    0  0.00000000000E+00  0.00000000000E+00  0.12525980253E-10  0.17130000000E+03  0.17130000000E+03 0. -1.
       11    1    1    2    0    0 -0.16433241728E-01 -0.28259075363E-01  0.14640230490E+01  0.14643880551E+01  0.51109989000E-03 0.  1.
     -623    1    1    2    0    0  0.91165004734E-02 -0.29134399015E-03  0.25093442329E-02  0.17130000026E+03  0.17130000000E+03 0. -1.
      622    1    1    2    0    0  0.73167412547E-02  0.28550419353E-01  0.25334675742E+01  0.25356116837E+01  0.10000000000E+00 0. -1.
</event>
<event>
 5   0  0.6262544E+06  0.9118800E+02  0.7818608E-02  0.1180000E+00
       11   -1    0    0    0    0  0.00000000000E+00  0.00000000000E+00  0.39999999673E+01  0.40000000000E+01  0.51109989000E-03 0.  1.
     -623   -1    0    0    0    0  0.00000000000E+00  0.00000000000E+00  0.12525980253E-10  0.17130000000E+03  0.17130000000E+03 0.  1.
       11    1    1    2    0    0 -0.40591860978E-01  0.21168766465E-01  0.13245608488E+00  0.14014525142E+00  0.51109989000E-03 0.  1.
     -623    1    1    2    0    0  0.23711532372E-01  0.24159004978E-01  0.92915109528E-02  0.17130000360E+03  0.17130000000E+03 0.  1.
      622    1    1    2    0    0  0.16880328607E-01 -0.45327771443E-01  0.38582523715E+01  0.38598511519E+01  0.10000000000E+00 0.  1.
</event>
<event>
 5   0  0.6262544E+06  0.9118800E+02  0.7818608E-02  0.1180000E+00
       11   -1    0    0    0    0  0.00000000000E+00  0.00000000000E+00  0.39999999673E+01  0.40000000000E+01  0.51109989000E-03 0.  1.
     -623   -1    0    0    0    0  0.00000000000E+00  0.00000000000E+00  0.12525980253E-10  0.17130000000E+03  0.17130000000E+03 0.  1.
       11    1    1    2    0    0 -0.39178370900E-01 -0.72612812628E-01  0.13311473496E+01  0.13337020255E+01  0.51109989000E-03 0.  1.
     -623    1    1    2    0    0  0.98698966894E-03 -0.82217907392E-02  0.59312033871E-02  0.17130000030E+03  0.17130000000E+03 0.  1.
      622    1    1    2    0    0  0.38191381231E-01  0.80834603367E-01  0.26629214144E+01  0.26662976717E+01  0.10000000000E+00 0.  1.
</event>
<event>
 5   0  0.6262544E+06  0.9118800E+02  0.7818608E-02  0.1180000E+00
       11   -1    0    0    0    0  0.00000000000E+00  0.00000000000E+00  0.39999999673E+01  0.40000000000E+01  0.51109989000E-03 0.  1.
     -623   -1    0    0    0    0  0.00000000000E+00  0.00000000000E+00  0.12525980253E-10  0.17130000000E+03  0.17130000000E+03 0.  1.
       11    1    1    2    0    0 -0.32453269667E-03  0.97207076962E-02  0.74277400427E+00  0.74283785587E+00  0.51109989000E-03 0.  1.
     -623    1    1    2    0    0 -0.31286142758E-02  0.10522766970E-01  0.16643884300E-02  0.17130000036E+03  0.17130000000E+03 0.  1.
      622    1    1    2    0    0  0.34531469725E-02 -0.20243474666E-01  0.32555615747E+01  0.32571617843E+01  0.10000000000E+00 0. -1.
</event>
<event>
 5   0  0.6262544E+06  0.9118800E+02  0.7818608E-02  0.1180000E+00
       11   -1    0    0    0    0  0.00000000000E+00  0.00000000000E+00  0.39999999673E+01  0.40000000000E+01  0.51109989000E-03 0.  1.
     -623   -1    0    0    0    0  0.00000000000E+00  0.00000000000E+00  0.12525980253E-10  0.17130000000E+03  0.17130000000E+03 0.  1.
       11    1    1    2    0    0 -0.69059671888E-02 -0.40163678981E-01  0.17895530154E+00  0.18353766552E+00  0.51109989000E-03 0.  1.
     -623    1    1    2    0    0 -0.45171016191E-02  0.66785670363E-01  0.60158455531E-02  0.17130001318E+03  0.17130000000E+03 0.  1.
      622    1    1    2    0    0  0.11423068808E-01 -0.26621991382E-01  0.38150288203E+01  0.38164491502E+01  0.10000000000E+00 0.  1.
</event>
<event>
 5   0  0.6262544E+06  0.9118800E+02  0.7818608E-02  0.1180000E+00
       11   -1    0    0    0    0  0.00000000000E+00  0.00000000000E+00  0.39999999673E+01  0.40000000000E+01  0.51109989000E-03 0.  1.
     -623   -1    0    0    0    0  0.00000000000E+00  0.00000000000E+00  0.12525980253E-10  0.17130000000E+03  0.17130000000E+03 0. -1.
       11    1    1    2    0    0  0.36443018419E-02  0.10241439782E-01  0.79512333099E-02  0.13477809872E-01  0.51109989000E-03 0.  1.
     -623    1    1    2    0    0 -0.10692969428E-01 -0.10045675897E-01  0.67879686061E-02  0.17130000076E+03  0.17130000000E+03 0. -1.
      622    1    1    2    0    0  0.70486675867E-02 -0.19576388413E-03  0.39852607655E+01  0.39865214274E+01  0.10000000000E+00 0.  1.
</event>
<event>
 5   0  0.6262544E+06  0.9118800E+02  0.7818608E-02  0.1180000E+00
       11   -1    0    0    0    0  0.00000000000E+00  0.00000000000E+00  0.39999999673E+01  0.40000000000E+01  0.51109989000E-03 0. -1.
     -623   -1    0    0    0    0  0.00000000000E+00  0.00000000000E+00  0.12525980253E-10  0.17130000000E+03  0.17130000000E+03 0.  1.
       11    1    1    2    0    0  0.58753113070E-01 -0.26655704878E-01  0.37904752397E+01  0.37910243021E+01  0.51109989000E-03 0. -1.
     -623    1    1    2    0    0 -0.48186537634E-01 -0.46717144612E-01  0.41691478618E-01  0.17130001822E+03  0.17130000000E+03 0.  1.
      622    1    1    2    0    0 -0.10566575436E-01  0.73372849491E-01  0.16783324903E+00  0.20895747663E+00  0.10000000000E+00 0. -1.
</event>
<event>
 5   0  0.6262544E+06  0.9118800E+02  0.7818608E-02  0.1180000E+00
       11   -1    0    0    0    0  0.00000000000E+00  0.00000000000E+00  0.39999999673E+01  0.40000000000E+01  0.51109989000E-03 0. -1.
     -623   -1    0    0    0    0  0.00000000000E+00  0.00000000000E+00  0.12525980253E-10  0.17130000000E+03  0.17130000000E+03 0.  1.
       11    1    1    2    0    0  0.46348451858E-02 -0.51713259776E-02  0.58777909502E-01  0.59188920169E-01  0.51109989000E-03 0. -1.
     -623    1    1    2    0    0  0.80944319245E-02  0.47774218544E-02  0.17008079662E-02  0.17130000027E+03  0.17130000000E+03 0.  1.
      622    1    1    2    0    0 -0.12729277110E-01  0.39390412323E-03  0.39395212499E+01  0.39408108135E+01  0.10000000000E+00 0. -1.
</event>
<event>
 5   0  0.6262544E+06  0.9118800E+02  0.7818608E-02  0.1180000E+00
       11   -1    0    0    0    0  0.00000000000E+00  0.00000000000E+00  0.39999999673E+01  0.40000000000E+01  0.51109989000E-03 0. -1.
     -623   -1    0    0    0    0  0.00000000000E+00  0.00000000000E+00  0.12525980253E-10  0.17130000000E+03  0.17130000000E+03 0. -1.
       11    1    1    2    0    0  0.19543143652E-01 -0.45718918521E-02  0.32491935567E+00  0.32553906919E+00  0.51109989000E-03 0. -1.
     -623    1    1    2    0    0 -0.16276585793E-01  0.18840193499E-02  0.19839081443E-02  0.17130000080E+03  0.17130000000E+03 0. -1.
      622    1    1    2    0    0 -0.32665578581E-02  0.26878725022E-02  0.36730967037E+01  0.36744601358E+01  0.10000000000E+00 0. -1.
</event>
<event>
 5   0  0.6262544E+06  0.9118800E+02  0.7818608E-02  0.1180000E+00
       11   -1    0    0    0    0  0.00000000000E+00  0.00000000000E+00  0.39999999673E+01  0.40000000000E+01  0.51109989000E-03 0. -1.
     -623   -1    0    0    0    0  0.00000000000E+00  0.00000000000E+00  0.12525980253E-10  0.17130000000E+03  0.17130000000E+03 0.  1.
       11    1    1    2    0    0  0.24788124890E-02 -0.88407723497E-01  0.74178710593E+00  0.74704112460E+00  0.51109989000E-03 0. -1.
     -623    1    1    2    0    0  0.49051304643E-01  0.12900874142E-01  0.80844461071E-02  0.17130000770E+03  0.17130000000E+03 0.  1.
      622    1    1    2    0    0 -0.51530117132E-01  0.75506849355E-01  0.32501284154E+01  0.32529511760E+01  0.10000000000E+00 0. -1.
</event>
<event>
 5   0  0.6262544E+06  0.9118800E+02  0.7818608E-02  0.1180000E+00
       11   -1    0    0    0    0  0.00000000000E+00  0.00000000000E+00  0.39999999673E+01  0.40000000000E+01  0.51109989000E-03 0. -1.
     -623   -1    0    0    0    0  0.00000000000E+00  0.00000000000E+00  0.12525980253E-10  0.17130000000E+03  0.17130000000E+03 0.  1.
       11    1    1    2    0    0 -0.23351155300E-01  0.39630389551E-01  0.22031231431E+00  0.22506359388E+00  0.51109989000E-03 0. -1.
     -623    1    1    2    0    0 -0.24425628880E-01 -0.31711598187E-01  0.63915696229E-02  0.17130000480E+03  0.17130000000E+03 0.  1.
      622    1    1    2    0    0  0.47776784180E-01 -0.79187913638E-02  0.37732960834E+01  0.37749316102E+01  0.10000000000E+00 0. -1.
</event>
<event>
 5   0  0.6262544E+06  0.9118800E+02  0.7818608E-02  0.1180000E+00
       11   -1    0    0    0    0  0.00000000000E+00  0.00000000000E+00  0.39999999673E+01  0.40000000000E+01  0.51109989000E-03 0. -1.
     -623   -1    0    0    0    0  0.00000000000E+00  0.00000000000E+00  0.12525980253E-10  0.17130000000E+03  0.17130000000E+03 0.  1.
       11    1    1    2    0    0 -0.19495980053E-02 -0.88365625464E-03  0.32856526768E-02  0.39545565325E-02  0.51109989000E-03 0. -1.
     -623    1    1    2    0    0  0.14404998405E-02  0.87002031134E-02  0.19282218148E-02  0.17130000024E+03  0.17130000000E+03 0.  1.
      622    1    1    2    0    0  0.50909816462E-03 -0.78165468595E-02  0.39947860932E+01  0.39960452059E+01  0.10000000000E+00 0. -1.
</event>
<event>
 5   0  0.6262544E+06  0.9118800E+02  0.7818608E-02  0.1180000E+00
       11   -1    0    0    0    0  0.00000000000E+00  0.00000000000E+00  0.39999999673E+01  0.40000000000E+01  0.51109989000E-03 0.  1.
     -623   -1    0    0    0    0  0.00000000000E+00  0.00000000000E+00  0.12525980253E-10  0.17130000000E+03  0.17130000000E+03 0.  1.
       11    1    1    2    0    0  0.26638660979E-01  0.15167886223E-01  0.60150256658E+00  0.60228338999E+00  0.51109989000E-03 0.  1.
     -623    1    1    2    0    0 -0.84973201034E-03  0.25554156273E-02  0.23968840311E-02  0.17130000004E+03  0.17130000000E+03 0.  1.
      622    1    1    2    0    0 -0.25788928968E-01 -0.17723301851E-01  0.33961005167E+01  0.33977165721E+01  0.10000000000E+00 0.  1.
</event>
<event>
 5   0  0.6262544E+06  0.9118800E+02  0.7818608E-02  0.1180000E+00
       11   -1    0    0    0    0  0.00000000000E+00  0.00000000000E+00  0.39999999673E+01  0.40000000000E+01  0.51109989000E-03 0. -1.
     -623   -1    0    0    0    0  0.00000000000E+00  0.00000000000E+00  0.12525980253E-10  0.17130000000E+03  0.17130000000E+03 0. -1.
       11    1    1    2    0    0  0.32045632194E-02 -0.24003498657E-01  0.19703803288E+00  0.19852124520E+00  0.51109989000E-03 0. -1.
     -623    1    1    2    0    0  0.12379777937E-01 -0.91405033903E-03  0.29128085756E-02  0.17130000047E+03  0.17130000000E+03 0. -1.
      622    1    1    2    0    0 -0.15584341156E-01  0.24917548996E-01  0.38000491260E+01  0.38014782803E+01  0.10000000000E+00 0. -1.
</event>
<event>
 5   0  0.6262544E+06  0.9118800E+02  0.7818608E-02  0.1180000E+00
       11   -1    0    0    0    0  0.00000000000E+00  0.00000000000E+00  0.39999999673E+01  0.40000000000E+01  0.51109989000E-03 0. -1.
     -623   -1    0    0    0    0  0.00000000000E+00  0.00000000000E+00  0.12525980253E-10  0.17130000000E+03  0.17130000000E+03 0.  1.
       11    1    1    2    0    0 -0.12206295245E-01  0.97206789184E-04  0.11916806929E+00  0.11979270868E+00  0.51109989000E-03 0. -1.
     -623    1    1    2    0    0  0.84093557155E-02  0.10263126491E-01  0.19296308975E-02  0.17130000052E+03  0.17130000000E+03 0.  1.
      622    1    1    2    0    0  0.37969395295E-02 -0.10360333280E-01  0.38789022672E+01  0.38802067666E+01  0.10000000000E+00 0. -1.
</event>
<event>
 5   0  0.6262544E+06  0.9118800E+02  0.7818608E-02  0.1180000E+00
       11   -1    0    0    0    0  0.00000000000E+00  0.00000000000E+00  0.39999999673E+01  0.40000000000E+01  0.51109989000E-03 0.  1.
     -623   -1    0    0    0    0  0.00000000000E+00  0.00000000000E+00  0.12525980253E-10  0.17130000000E+03  0.17130000000E+03 0.  1.
       11    1    1    2    0    0  0.11000892715E+00 -0.40633378245E-01  0.91065756009E+00  0.91817780873E+00  0.51109989000E-03 0.  1.
     -623    1    1    2    0    0 -0.45941061519E-01  0.77849993779E-02  0.99912655652E-02  0.17130000663E+03  0.17130000000E+03 0.  1.
      622    1    1    2    0    0 -0.64067865628E-01  0.32848378867E-01  0.30793511417E+01  0.30818155625E+01  0.10000000000E+00 0.  1.
</event>
<event>
 5   0  0.6262544E+06  0.9118800E+02  0.7818608E-02  0.1180000E+00
       11   -1    0    0    0    0  0.00000000000E+00  0.00000000000E+00  0.39999999673E+01  0.40000000000E+01  0.51109989000E-03 0.  1.
     -623   -1    0    0    0    0  0.00000000000E+00  0.00000000000E+00  0.12525980253E-10  0.17130000000E+03  0.17130000000E+03 0. -1.
       11    1    1    2    0    0 -0.65776526092E-03  0.18653093989E-02  0.12876875111E-02  0.24148284651E-02  0.51109989000E-03 0.  1.
     -623    1    1    2    0    0  0.48750974712E-03 -0.18146134969E-02  0.23780899002E-02  0.17130000003E+03  0.17130000000E+03 0. -1.
      622    1    1    2    0    0  0.17025551379E-03 -0.50695901997E-04  0.39963341900E+01  0.39975851448E+01  0.10000000000E+00 0.  1.
</event>
<event>
 5   0  0.6262544E+06  0.9118800E+02  0.7818608E-02  0.1180000E+00
       11   -1    0    0    0    0  0.00000000000E+00  0.00000000000E+00  0.39999999673E+01  0.40000000000E+01  0.51109989000E-03 0. -1.
     -623   -1    0    0    0    0  0.00000000000E+00  0.00000000000E+00  0.12525980253E-10  0.17130000000E+03  0.17130000000E+03 0.  1.
       11    1    1    2    0    0  0.50031418101E-04  0.91074907689E-03 -0.46571220905E-03  0.11445863808E-02  0.51109989000E-03 0. -1.
     -623    1    1    2    0    0 -0.12612409226E-02  0.11447895464E-02  0.28615636163E-02  0.17130000003E+03  0.17130000000E+03 0.  1.
      622    1    1    2    0    0  0.12112095045E-02 -0.20555386233E-02  0.39976041160E+01  0.39988553813E+01  0.10000000000E+00 0. -1.
</event>
<event>
 5   0  0.6262544E+06  0.9118800E+02  0.7818608E-02  0.1180000E+00
       11   -1    0    0    0    0  0.00000000000E+00  0.00000000000E+00  0.39999999673E+01  0.40000000000E+01  0.51109989000E-03 0. -1.
     -623   -1    0    0    0    0  0.00000000000E+00  0.00000000000E+00  0.12525980253E-10  0.17130000000E+03  0.17130000000E+03 0. -1.
       11    1    1    2    0    0 -0.17305694868E-01  0.50969385288E-03  0.62269779034E-01  0.64633841481E-01  0.51109989000E-03 0. -1.
     -623    1    1    2    0    0  0.96209782622E-02  0.61525608553E-02  0.36483311220E-02  0.17130000042E+03  0.17130000000E+03 0. -1.
      622    1    1    2    0    0  0.76847166054E-02 -0.66622547081E-02  0.39340818572E+01  0.39353657390E+01  0.10000000000E+00 0. -1.
</event>
<event>
 5   0  0.6262544E+06  0.9118800E+02  0.7818608E-02  0.1180000E+00
       11   -1    0    0    0    0  0.00000000000E+00  0.00000000000E+00  0.39999999673E+01  0.40000000000E+01  0.51109989000E-03 0.  1.
     -623   -1    0    0    0    0  0.00000000000E+00  0.00000000000E+00  0.12525980253E-10  0.17130000000E+03  0.17130000000E+03 0.  1.
       11    1    1    2    0    0  0.20007246739E-01  0.31581336970E-01  0.50994780099E+00  0.51131662571E+00  0.51109989000E-03 0.  1.
     -623    1    1    2    0    0 -0.15605515467E-01 -0.11196880405E-01  0.28657497168E-02  0.17130000110E+03  0.17130000000E+03 0.  1.
      622    1    1    2    0    0 -0.44017312722E-02 -0.20384456565E-01  0.34871864166E+01  0.34886822735E+01  0.10000000000E+00 0.  0.
</event>
<event>
 5   0  0.6262544E+06  0.9118800E+02  0.7818608E-02  0.1180000E+00
       11   -1    0    0    0    0  0.00000000000E+00  0.00000000000E+00  0.39999999673E+01  0.40000000000E+01  0.51109989000E-03 0. -1.
     -623   -1    0    0    0    0  0.00000000000E+00  0.00000000000E+00  0.12525980253E-10  0.17130000000E+03  0.17130000000E+03 0.  1.
       11    1    1    2    0    0 -0.17535936131E-01  0.54804393801E-03  0.29536493453E+00  0.29588598342E+00  0.51109989000E-03 0. -1.
     -623    1    1    2    0    0  0.10012303087E-01  0.13231680585E-01  0.19052114629E-02  0.17130000081E+03  0.17130000000E+03 0.  1.
      622    1    1    2    0    0  0.75236330434E-02 -0.13779724523E-01  0.37027298212E+01  0.37041132022E+01  0.10000000000E+00 0. -1.
</event>
<event>
 5   0  0.6262544E+06  0.9118800E+02  0.7818608E-02  0.1180000E+00
       11   -1    0    0    0    0  0.00000000000E+00  0.00000000000E+00  0.39999999673E+01  0.40000000000E+01  0.51109989000E-03 0. -1.
     -623   -1    0    0    0    0  0.00000000000E+00  0.00000000000E+00  0.12525980253E-10  0.17130000000E+03  0.17130000000E+03 0.  1.
       11    1    1    2    0    0 -0.10283242586E-01  0.15232968948E-01  0.30930530131E+00  0.30985128540E+00  0.51109989000E-03 0. -1.
     -623    1    1    2    0    0  0.25307037545E-01 -0.14752954500E-01  0.19343017354E-02  0.17130000252E+03  0.17130000000E+03 0.  1.
      622    1    1    2    0    0 -0.15023794959E-01 -0.48001444798E-03  0.36887603643E+01  0.36901461990E+01  0.10000000000E+00 0. -1.
</event>
<event>
 5   0  0.6262544E+06  0.9118800E+02  0.7818608E-02  0.1180000E+00
       11   -1    0    0    0    0  0.00000000000E+00  0.00000000000E+00  0.39999999673E+01  0.40000000000E+01  0.51109989000E-03 0.  1.
     -623   -1    0    0    0    0  0.00000000000E+00  0.00000000000E+00  0.12525980253E-10  0.17130000000E+03  0.17130000000E+03 0.  1.
       11    1    1    2    0    0  0.15810738086E-01 -0.22311632882E-02  0.15790730104E+00  0.15871337207E+00  0.51109989000E-03 0.  1.
     -623    1    1    2    0    0 -0.32881363674E-02  0.78247637707E-02  0.21326226997E-02  0.17130000022E+03  0.17130000000E+03 0.  1.
      622    1    1    2    0    0 -0.12522601718E-01 -0.55936004826E-02  0.38399600437E+01  0.38412864044E+01  0.10000000000E+00 0.  1.
</event>
<event>
 5   0  0.6262544E+06  0.9118800E+02  0.7818608E-02  0.1180000E+00
       11   -1    0    0    0    0  0.00000000000E+00  0.00000000000E+00  0.39999999673E+01  0.40000000000E+01  0.51109989000E-03 0.  1.
     -623   -1    0    0    0    0  0.00000000000E+00  0.00000000000E+00  0.12525980253E-10  0.17130000000E+03  0.17130000000E+03 0. -1.
       11    1    1    2    0    0  0.32512928979E-01  0.48520640395E-02  0.17526098687E+01  0.17529182086E+01  0.51109989000E-03 0.  1.
     -623    1    1    2    0    0 -0.69913114874E-02 -0.11992867195E-01  0.26915420322E-02  0.17130000058E+03  0.17130000000E+03 0. -1.
      622    1    1    2    0    0 -0.25521617492E-01  0.71408031557E-02  0.22446985567E+01  0.22470812078E+01  0.10000000000E+00 0. -1.
</event>
<event>
 5   0  0.6262544E+06  0.9118800E+02  0.7818608E-02  0.1180000E+00
       11   -1    0    0    0    0  0.00000000000E+00  0.00000000000E+00  0.39999999673E+01  0.40000000000E+01  0.51109989000E-03 0. -1.
     -623   -1    0    0    0    0  0.00000000000E+00  0.00000000000E+00  0.12525980253E-10  0.17130000000E+03  0.17130000000E+03 0.  1.
       11    1    1    2    0    0 -0.31503375175E-02 -0.95677325276E-02  0.92328193285E-01  0.92877460294E-01  0.51109989000E-03 0. -1.
     -623    1    1    2    0    0 -0.19994241210E-02  0.51141035463E-03  0.18430747282E-02  0.17130000002E+03  0.17130000000E+03 0.  1.
      622    1    1    2    0    0  0.51497616385E-02  0.90563221729E-02  0.39058286995E+01  0.39071225175E+01  0.10000000000E+00 0. -1.
</event>
<event>
 5   0  0.6262544E+06  0.9118800E+02  0.7818608E-02  0.1180000E+00
       11   -1    0    0    0    0  0.00000000000E+00  0.00000000000E+00  0.39999999673E+01  0.40000000000E+01  0.51109989000E-03 0. -1.
     -623   -1    0    0    0    0  0.00000000000E+00  0.00000000000E+00  0.12525980253E-10  0.17130000000E+03  0.17130000000E+03 0.  1.
       11    1    1    2    0    0 -0.27366646065E-02  0.20094963412E-02 -0.23644417687E-02  0.41688387699E-02  0.51109989000E-03 0. -1.
     -623    1    1    2    0    0  0.23424364880E-02 -0.23375580425E-02  0.77849898609E-02  0.17130000021E+03  0.17130000000E+03 0.  1.
      622    1    1    2    0    0  0.39422811849E-03  0.32806170134E-03  0.39945794193E+01  0.39958309524E+01  0.10000000000E+00 0. -1.
</event>
<event>
 5   0  0.6262544E+06  0.9118800E+02  0.7818608E-02  0.1180000E+00
       11   -1    0    0    0    0  0.00000000000E+00  0.00000000000E+00  0.39999999673E+01  0.40000000000E+01  0.51109989000E-03 0.  1.
     -623   -1    0    0    0    0  0.00000000000E+00  0.00000000000E+00  0.12525980253E-10  0.17130000000E+03  0.17130000000E+03 0. -1.
       11    1    1    2    0    0  0.45679795457E-02  0.22606760221E-03  0.80188140408E-01  0.80320088557E-01  0.51109989000E-03 0.  1.
     -623    1    1    2    0    0 -0.19148921697E-02 -0.41381995989E-02  0.14106551430E-02  0.17130000007E+03  0.17130000000E+03 0. -1.
      622    1    1    2    0    0 -0.26530873759E-02  0.39121319967E-02  0.39184011718E+01  0.39196798449E+01  0.10000000000E+00 0.  1.
</event>
<event>
 5   0  0.6262544E+06  0.9118800E+02  0.7818608E-02  0.1180000E+00
       11   -1    0    0    0    0  0.00000000000E+00  0.00000000000E+00  0.39999999673E+01  0.40000000000E+01  0.51109989000E-03 0. -1.
     -623   -1    0    0    0    0  0.00000000000E+00  0.00000000000E+00  0.12525980253E-10  0.17130000000E+03  0.17130000000E+03 0. -1.
       11    1    1    2    0    0 -0.71404129237E-02  0.11629440779E-03  0.17924128714E-01  0.19301156239E-01  0.51109989000E-03 0. -1.
     -623    1    1    2    0    0  0.43622373785E-02  0.47099454764E-02  0.26372909941E-02  0.17130000014E+03  0.17130000000E+03 0. -1.
      622    1    1    2    0    0  0.27781755452E-02 -0.48262398842E-02  0.39794385477E+01  0.39806987032E+01  0.10000000000E+00 0. -1.
</event>
<event>
 5   0  0.6262544E+06  0.9118800E+02  0.7818608E-02  0.1180000E+00
       11   -1    0    0    0    0  0.00000000000E+00  0.00000000000E+00  0.39999999673E+01  0.40000000000E+01  0.51109989000E-03 0.  1.
     -623   -1    0    0    0    0  0.00000000000E+00  0.00000000000E+00  0.12525980253E-10  0.17130000000E+03  0.17130000000E+03 0.  1.
       11    1    1    2    0    0 -0.44070308994E-02  0.69050771606E-02  0.74082341860E-01  0.74535606327E-01  0.51109989000E-03 0.  1.
     -623    1    1    2    0    0  0.90098829102E-02 -0.83866455754E-02  0.17306034500E-02  0.17130000045E+03  0.17130000000E+03 0.  1.
      622    1    1    2    0    0 -0.46028520115E-02  0.14815684155E-02  0.39241870224E+01  0.39254639430E+01  0.10000000000E+00 0.  1.
</event>
<event>
 5   0  0.6262544E+06  0.9118800E+02  0.7818608E-02  0.1180000E+00
       11   -1    0    0    0    0  0.00000000000E+00  0.00000000000E+00  0.39999999673E+01  0.40000000000E+01  0.51109989000E-03 0.  1.
     -623   -1    0    0    0    0  0.00000000000E+00  0.00000000000E+00  0.12525980253E-10  0.17130000000E+03  0.17130000000E+03 0. -1.
       11    1    1    2    0    0  0.31357289072E-01 -0.18068443163E-02  0.20110729308E+00  0.20354593786E+00  0.51109989000E-03 0.  1.
     -623    1    1    2    0    0  0.83950553422E-02  0.19324057313E-01  0.40058313280E-02  0.17130000134E+03  0.17130000000E+03 0. -1.
      622    1    1    2    0    0 -0.39752344414E-01 -0.17517212996E-01  0.37948868430E+01  0.37964527197E+01  0.10000000000E+00 0.  1.
</event>
<event>
 5   0  0.6262544E+06  0.9118800E+02  0.7818608E-02  0.1180000E+00
       11   -1    0    0    0    0  0.00000000000E+00  0.00000000000E+00  0.39999999673E+01  0.40000000000E+01  0.51109989000E-03 0.  1.
     -623   -1    0    0    0    0  0.00000000000E+00  0.00000000000E+00  0.12525980253E-10  0.17130000000E+03  0.17130000000E+03 0. -1.
       11    1    1    2    0    0  0.90299309146E-03 -0.31461844503E-03  0.17752982774E-01  0.17786061930E-01  0.51109989000E-03 0.  1.
     -623    1    1    2    0    0  0.24410546537E-02  0.20872393709E-02  0.12906616409E-02  0.17130000003E+03  0.17130000000E+03 0. -1.
      622    1    1    2    0    0 -0.33440477452E-02 -0.17726209258E-02  0.39809563229E+01  0.39822139031E+01  0.10000000000E+00 0.  1.
</event>
<event>
 5   0  0.6262544E+06  0.9118800E+02  0.7818608E-02  0.1180000E+00
       11   -1    0    0    0    0  0.00000000000E+00  0.00000000000E+00  0.39999999673E+01  0.40000000000E+01  0.51109989000E-03 0. -1.
     -623   -1    0    0    0    0  0.00000000000E+00  0.00000000000E+00  0.12525980253E-10  0.17130000000E+03  0.17130000000E+03 0.  1.
       11    1    1    2    0    0 -0.15527740155E-01 -0.87515401045E-03  0.24340111713E+00  0.24389801485E+00  0.51109989000E-03 0. -1.
     -623    1    1    2    0    0  0.57544148717E-02  0.16315241488E-02  0.18411784146E-02  0.17130000011E+03  0.17130000000E+03 0.  1.
      622    1    1    2    0    0  0.97733252835E-02 -0.75637013835E-03  0.37547576718E+01  0.37561018708E+01  0.10000000000E+00 0. -1.
</event>
<event>
 5   0  0.6262544E+06  0.9118800E+02  0.7818608E-02  0.1180000E+00
       11   -1    0    0    0    0  0.00000000000E+00  0.00000000000E+00  0.39999999673E+01  0.40000000000E+01  0.51109989000E-03 0. -1.
     -623   -1    0    0    0    0  0.00000000000E+00  0.00000000000E+00  0.12525980253E-10  0.17130000000E+03  0.17130000000E+03 0. -1.
       11    1    1    2    0    0 -0.22855922394E-01  0.45508811441E-01  0.12432472183E-01  0.52423970614E-01  0.51109989000E-03 0. -1.
     -623    1    1    2    0    0  0.34208956597E-01 -0.11291949804E+00  0.41896175967E-01  0.17130004576E+03  0.17130000000E+03 0. -1.
      622    1    1    2    0    0 -0.11353034203E-01  0.67410686603E-01  0.39456713192E+01  0.39475302724E+01  0.10000000000E+00 0. -1.
</event>
<event>
 5   0  0.6262544E+06  0.9118800E+02  0.7818608E-02  0.1180000E+00
       11   -1    0    0    0    0  0.00000000000E+00  0.00000000000E+00  0.39999999673E+01  0.40000000000E+01  0.51109989000E-03 0.  1.
     -623   -1    0    0    0    0  0.00000000000E+00  0.00000000000E+00  0.12525980253E-10  0.17130000000E+03  0.17130000000E+03 0. -1.
       11    1    1    2    0    0 -0.11354507888E-01 -0.22333638212E-01  0.76637203600E+00  0.76678163451E+00  0.51109989000E-03 0.  1.
     -623    1    1    2    0    0  0.14274721570E-02 -0.87506607155E-03  0.20549898499E-02  0.17130000002E+03  0.17130000000E+03 0. -1.
      622    1    1    2    0    0  0.99270357309E-02  0.23208704283E-01  0.32315729415E+01  0.32332183450E+01  0.10000000000E+00 0.  1.
</event>
<event>
 5   0  0.6262544E+06  0.9118800E+02  0.7818608E-02  0.1180000E+00
       11   -1    0    0    0    0  0.00000000000E+00  0.00000000000E+00  0.39999999673E+01  0.40000000000E+01  0.51109989000E-03 0.  1.
     -623   -1    0    0    0    0  0.00000000000E+00  0.00000000000E+00  0.12525980253E-10  0.17130000000E+03  0.17130000000E+03 0.  1.
       11    1    1    2    0    0  0.21640570922E-02 -0.75859662995E-03  0.14717320611E-01  0.14903669381E-01  0.51109989000E-03 0.  1.
     -623    1    1    2    0    0 -0.38248791043E-03 -0.28243272367E-02  0.14432278526E-02  0.17130000003E+03  0.17130000000E+03 0.  1.
      622    1    1    2    0    0 -0.17815691818E-02  0.35829238667E-02  0.39838394189E+01  0.39850963009E+01  0.10000000000E+00 0.  1.
</event>
<event>
 5   0  0.6262544E+06  0.9118800E+02  0.7818608E-02  0.1180000E+00
       11   -1    0    0    0    0  0.00000000000E+00  0.00000000000E+00  0.39999999673E+01  0.40000000000E+01  0.51109989000E-03 0.  1.
     -623   -1    0    0    0    0  0.00000000000E+00  0.00000000000E+00  0.12525980253E-10  0.17130000000E+03  0.17130000000E+03 0.  1.
       11    1    1    2    0    0 -0.26810275741E-01  0.12216750441E-01  0.90651021009E+00  0.90698900881E+00  0.51109989000E-03 0.  1.
     -623    1    1    2    0    0  0.63132831730E-02 -0.69999098266E-02  0.21683633973E-02  0.17130000027E+03  0.17130000000E+03 0.  1.
      622    1    1    2    0    0  0.20496992568E-01 -0.52168406143E-02  0.30913213939E+01  0.30930107181E+01  0.10000000000E+00 0.  1.
</event>
<event>
 5   0  0.6262544E+06  0.9118800E+02  0.7818608E-02  0.1180000E+00
       11   -1    0    0    0    0  0.00000000000E+00  0.00000000000E+00  0.39999999673E+01  0.40000000000E+01  0.51109989000E-03 0.  1.
     -623   -1    0    0    0    0  0.00000000000E+00  0.00000000000E+00  0.12525980253E-10  0.17130000000E+03  0.17130000000E+03 0. -1.
       11    1    1    2    0    0 -0.18616152029E-01  0.27310558544E-01  0.63131069094E+00  0.63217551158E+00  0.51109989000E-03 0.  1.
     -623    1    1    2    0    0  0.57517760044E-02  0.27258421591E-01  0.28189425689E-02  0.17130000229E+03  0.17130000000E+03 0. -1.
      622    1    1    2    0    0  0.12864376025E-01 -0.54568980135E-01  0.33658703339E+01  0.33678221999E+01  0.10000000000E+00 0.  0.
</event>
<event>
 5   0  0.6262544E+06  0.9118800E+02  0.7818608E-02  0.1180000E+00
       11   -1    0    0    0    0  0.00000000000E+00  0.00000000000E+00  0.39999999673E+01  0.40000000000E+01  0.51109989000E-03 0.  1.
     -623   -1    0    0    0    0  0.00000000000E+00  0.00000000000E+00  0.12525980253E-10  0.17130000000E+03  0.17130000000E+03 0.  1.
       11    1    1    2    0    0  0.34615452471E-02 -0.35647609336E-02  0.62177952946E-02  0.79757141846E-02  0.51109989000E-03 0.  1.
     -623    1    1    2    0    0 -0.81563975727E-02  0.72063391092E-03  0.30145775289E-02  0.17130000022E+03  0.17130000000E+03 0.  1.
      622    1    1    2    0    0  0.46948523255E-02  0.28441270227E-02  0.39907675945E+01  0.39920240636E+01  0.10000000000E+00 0.  1.
</event>
<event>
 5   0  0.6262544E+06  0.9118800E+02  0.7818608E-02  0.1180000E+00
       11   -1    0    0    0    0  0.00000000000E+00  0.00000000000E+00  0.39999999673E+01  0.40000000000E+01  0.51109989000E-03 0.  1.
     -623   -1    0    0    0    0  0.00000000000E+00  0.00000000000E+00  0.12525980253E-10  0.17130000000E+03  0.17130000000E+03 0. -1.
       11    1    1    2    0    0  0.53662242062E-02  0.32956238718E-02  0.19991110550E+00  0.20001092176E+00  0.51109989000E-03 0.  1.
     -623    1    1    2    0    0 -0.27604907502E-02 -0.89143114369E-03  0.14174897231E-02  0.17130000003E+03  0.17130000000E+03 0. -1.
      622    1    1    2    0    0 -0.26057334561E-02 -0.24041927281E-02  0.37986713720E+01  0.37999890477E+01  0.10000000000E+00 0.  1.
</event>
<event>
 5   0  0.6262544E+06  0.9118800E+02  0.7818608E-02  0.1180000E+00
       11   -1    0    0    0    0  0.00000000000E+00  0.00000000000E+00  0.39999999673E+01  0.40000000000E+01  0.51109989000E-03 0.  1.
     -623   -1    0    0    0    0  0.00000000000E+00  0.00000000000E+00  0.12525980253E-10  0.17130000000E+03  0.17130000000E+03 0.  1.
       11    1    1    2    0    0  0.19233030903E-01  0.95864605423E-02  0.39142585253E+00  0.39201564887E+00  0.51109989000E-03 0.  1.
     -623    1    1    2    0    0 -0.38016401704E-01  0.23459860660E-02  0.20487461266E-02  0.17130000425E+03  0.17130000000E+03 0.  1.
      622    1    1    2    0    0  0.18783370800E-01 -0.11932446608E-01  0.36065253687E+01  0.36079801043E+01  0.10000000000E+00 0.  1.
</event>
<event>
 5   0  0.6262544E+06  0.9118800E+02  0.7818608E-02  0.1180000E+00
       11   -1    0    0    0    0  0.00000000000E+00  0.00000000000E+00  0.39999999673E+01  0.40000000000E+01  0.51109989000E-03 0.  1.
     -623   -1    0    0    0    0  0.00000000000E+00  0.00000000000E+00  0.12525980253E-10  0.17130000000E+03  0.17130000000E+03 0.  1.
       11    1    1    2    0    0 -0.32566140361E-02 -0.48611391457E-02  0.64005509656E-01  0.64274432695E-01  0.51109989000E-03 0.  1.
     -623    1    1    2    0    0 -0.23611857102E-02  0.58333856796E-03  0.15458697725E-02  0.17130000002E+03  0.17130000000E+03 0.  1.
      622    1    1    2    0    0  0.56177997465E-02  0.42778005777E-02  0.39344485882E+01  0.39357255434E+01  0.10000000000E+00 0.  1.
</event>
<event>
 5   0  0.6262544E+06  0.9118800E+02  0.7818608E-02  0.1180000E+00
       11   -1    0    0    0    0  0.00000000000E+00  0.00000000000E+00  0.39999999673E+01  0.40000000000E+01  0.51109989000E-03 0. -1.
     -623   -1    0    0    0    0  0.00000000000E+00  0.00000000000E+00  0.12525980253E-10  0.17130000000E+03  0.17130000000E+03 0. -1.
       11    1    1    2    0    0 -0.71679921781E-01  0.19296948783E-01  0.23495987818E+01  0.23507711671E+01  0.51109989000E-03 0. -1.
     -623    1    1    2    0    0  0.68673568219E-01  0.14715703189E-01  0.45755102684E-02  0.17130001446E+03  0.17130000000E+03 0. -1.
      622    1    1    2    0    0  0.30063535641E-02 -0.34012651972E-01  0.16458256751E+01  0.16492143741E+01  0.10000000000E+00 0.  1.
</event>
<event>
 5   0  0.6262544E+06  0.9118800E+02  0.7818608E-02  0.1180000E+00
       11   -1    0    0    0    0  0.00000000000E+00  0.00000000000E+00  0.39999999673E+01  0.40000000000E+01  0.51109989000E-03 0. -1.
     -623   -1    0    0    0    0  0.00000000000E+00  0.00000000000E+00  0.12525980253E-10  0.17130000000E+03  0.17130000000E+03 0.  1.
       11    1    1    2    0    0  0.28418447586E-01 -0.11298494155E-01  0.33484352933E+00  0.33623758638E+00  0.51109989000E-03 0. -1.
     -623    1    1    2    0    0 -0.30723842909E-02  0.15586642033E-01  0.28499734261E-02  0.17130000076E+03  0.17130000000E+03 0.  1.
      622    1    1    2    0    0 -0.25346063295E-01 -0.42881478778E-02  0.36623064647E+01  0.36637616533E+01  0.10000000000E+00 0. -1.
</event>
<event>
 5   0  0.6262544E+06  0.9118800E+02  0.7818608E-02  0.1180000E+00
       11   -1    0    0    0    0  0.00000000000E+00  0.00000000000E+00  0.39999999673E+01  0.40000000000E+01  0.51109989000E-03 0.  1.
     -623   -1    0    0    0    0  0.00000000000E+00  0.00000000000E+00  0.12525980253E-10  0.17130000000E+03  0.17130000000E+03 0.  1.
       11    1    1    2    0    0 -0.15064253508E-02  0.11772603371E-02  0.43111107988E-02  0.47436440271E-02  0.51109989000E-03 0.  1.
     -623    1    1    2    0    0  0.25166166334E-02 -0.13217449401E-02  0.16843430492E-02  0.17130000003E+03  0.17130000000E+03 0.  1.
      622    1    1    2    0    0 -0.10101912828E-02  0.14448460301E-03  0.39940045138E+01  0.39952563244E+01  0.10000000000E+00 0.  1.
</event>
<event>
 5   0  0.6262544E+06  0.9118800E+02  0.7818608E-02  0.1180000E+00
       11   -1    0    0    0    0  0.00000000000E+00  0.00000000000E+00  0.39999999673E+01  0.40000000000E+01  0.51109989000E-03 0.  1.
     -623   -1    0    0    0    0  0.00000000000E+00  0.00000000000E+00  0.12525980253E-10  0.17130000000E+03  0.17130000000E+03 0. -1.
       11    1    1    2    0    0  0.12500494044E-02  0.13503137734E-03  0.34745223065E-03  0.14010007625E-02  0.51109989000E-03 0.  1.
     -623    1    1    2    0    0 -0.18190105347E-02 -0.20737520756E-02  0.23046977957E-02  0.17130000004E+03  0.17130000000E+03 0. -1.
      622    1    1    2    0    0  0.56896113029E-03  0.19387206982E-02  0.39973478174E+01  0.39985989616E+01  0.10000000000E+00 0.  1.
</event>
<event>
 5   0  0.6262544E+06  0.9118800E+02  0.7818608E-02  0.1180000E+00
       11   -1    0    0    0    0  0.00000000000E+00  0.00000000000E+00  0.39999999673E+01  0.40000000000E+01  0.51109989000E-03 0.  1.
     -623   -1    0    0    0    0  0.00000000000E+00  0.00000000000E+00  0.12525980253E-10  0.17130000000E+03  0.17130000000E+03 0.  1.
       11    1    1    2    0    0  0.12814018642E-01 -0.67018586524E-01  0.28378962333E+01  0.28387164322E+01  0.51109989000E-03 0.  1.
     -623    1    1    2    0    0 -0.13095276967E-01  0.86227120189E-02  0.66092922977E-02  0.17130000085E+03  0.17130000000E+03 0.  1.
      622    1    1    2    0    0  0.28125832491E-03  0.58395874505E-01  0.11554944417E+01  0.11612827227E+01  0.10000000000E+00 0. -1.
</event>
<event>
 5   0  0.6262544E+06  0.9118800E+02  0.7818608E-02  0.1180000E+00
       11   -1    0    0    0    0  0.00000000000E+00  0.00000000000E+00  0.39999999673E+01  0.40000000000E+01  0.51109989000E-03 0.  1.
     -623   -1    0    0    0    0  0.00000000000E+00  0.00000000000E+00  0.12525980253E-10  0.17130000000E+03  0.17130000000E+03 0. -1.
       11    1    1    2    0    0 -0.19100971262E-01  0.23590445981E-01  0.56944010896E+00  0.57024876603E+00  0.51109989000E-03 0.  1.
     -623    1    1    2    0    0  0.16705235758E-01  0.61812760510E-02  0.23978195794E-02  0.17130000094E+03  0.17130000000E+03 0. -1.
      622    1    1    2    0    0  0.23957355041E-02 -0.29771722032E-01  0.34281620388E+01  0.34297502911E+01  0.10000000000E+00 0.  1.
</event>
<event>
 5   0  0.6262544E+06  0.9118800E+02  0.7818608E-02  0.1180000E+00
       11   -1    0    0    0    0  0.00000000000E+00  0.00000000000E+00  0.39999999673E+01  0.40000000000E+01  0.51109989000E-03 0. -1.
     -623   -1    0    0    0    0  0.00000000000E+00  0.00000000000E+00  0.12525980253E-10  0.17130000000E+03  0.17130000000E+03 0. -1.
       11    1    1    2    0    0  0.11315523806E-02  0.36350400636E-02  0.30599773240E-01  0.30839929839E-01  0.51109989000E-03 0. -1.
     -623    1    1    2    0    0 -0.15660657176E-02 -0.44331787126E-02  0.15002114617E-02  0.17130000007E+03  0.17130000000E+03 0. -1.
      622    1    1    2    0    0  0.43451333715E-03  0.79813864932E-03  0.39678999830E+01  0.39691599994E+01  0.10000000000E+00 0. -1.
</event>
<event>
 5   0  0.6262544E+06  0.9118800E+02  0.7818608E-02  0.1180000E+00
       11   -1    0    0    0    0  0.00000000000E+00  0.00000000000E+00  0.39999999673E+01  0.40000000000E+01  0.51109989000E-03 0. -1.
     -623   -1    0    0    0    0  0.00000000000E+00  0.00000000000E+00  0.12525980253E-10  0.17130000000E+03  0.17130000000E+03 0. -1.
       11    1    1    2    0    0  0.58333017067E-02  0.12587048466E-01  0.11192253635E-01  0.17832245019E-01  0.51109989000E-03 0. -1.
     -623    1    1    2    0    0 -0.18777582902E-01  0.22257966131E-01  0.80719687785E-02  0.17130000267E+03  0.17130000000E+03 0. -1.
      622    1    1    2    0    0  0.12944281196E-01 -0.34845014598E-01  0.39807357449E+01  0.39821650896E+01  0.10000000000E+00 0. -1.
</event>
<event>
 5   0  0.6262544E+06  0.9118800E+02  0.7818608E-02  0.1180000E+00
       11   -1    0    0    0    0  0.00000000000E+00  0.00000000000E+00  0.39999999673E+01  0.40000000000E+01  0.51109989000E-03 0. -1.
     -623   -1    0    0    0    0  0.00000000000E+00  0.00000000000E+00  0.12525980253E-10  0.17130000000E+03  0.17130000000E+03 0.  1.
       11    1    1    2    0    0 -0.15316594588E-01  0.50281207394E-01  0.22177400664E+01  0.22183629237E+01  0.51109989000E-03 0. -1.
     -623    1    1    2    0    0 -0.75562966690E-02  0.28778551312E-02  0.43733079327E-02  0.17130000025E+03  0.17130000000E+03 0.  1.
      622    1    1    2    0    0  0.22872891257E-01 -0.53159062525E-01  0.17778865930E+01  0.17816368296E+01  0.10000000000E+00 0.  0.
</event>
<event>
 5   0  0.6262544E+06  0.9118800E+02  0.7818608E-02  0.1180000E+00
       11   -1    0    0    0    0  0.00000000000E+00  0.00000000000E+00  0.39999999673E+01  0.40000000000E+01  0.51109989000E-03 0.  1.
     -623   -1    0    0    0    0  0.00000000000E+00  0.00000000000E+00  0.12525980253E-10  0.17130000000E+03  0.17130000000E+03 0.  1.
       11    1    1    2    0    0  0.35939036442E-01 -0.23467476785E-01  0.12544822288E+01  0.12552164198E+01  0.51109989000E-03 0.  1.
     -623    1    1    2    0    0  0.55514026402E-02  0.10987641196E-01  0.28990744619E-02  0.17130000047E+03  0.17130000000E+03 0.  1.
      622    1    1    2    0    0 -0.41490439082E-01  0.12479835589E-01  0.27426186640E+01  0.27447831133E+01  0.10000000000E+00 0.  1.
</event>
<event>
 5   0  0.6262544E+06  0.9118800E+02  0.7818608E-02  0.1180000E+00
       11   -1    0    0    0    0  0.00000000000E+00  0.00000000000E+00  0.39999999673E+01  0.40000000000E+01  0.51109989000E-03 0.  1.
     -623   -1    0    0    0    0  0.00000000000E+00  0.00000000000E+00  0.12525980253E-10  0.17130000000E+03  0.17130000000E+03 0.  1.
       11    1    1    2    0    0 -0.11861195221E-01  0.66813093205E-03  0.11231265108E-01  0.16356554882E-01  0.51109989000E-03 0.  1.
     -623    1    1    2    0    0  0.58477625650E-02 -0.99244188518E-02  0.63963916356E-02  0.17130000051E+03  0.17130000000E+03 0.  1.
      622    1    1    2    0    0  0.60134326561E-02  0.92562879198E-02  0.39823723106E+01  0.39836429384E+01  0.10000000000E+00 0.  1.
</event>
<event>
 5   0  0.6262544E+06  0.9118800E+02  0.7818608E-02  0.1180000E+00
       11   -1    0    0    0    0  0.00000000000E+00  0.00000000000E+00  0.39999999673E+01  0.40000000000E+01  0.51109989000E-03 0.  1.
     -623   -1    0    0    0    0  0.00000000000E+00  0.00000000000E+00  0.12525980253E-10  0.17130000000E+03  0.17130000000E+03 0.  1.
       11    1    1    2    0    0  0.17081793560E-01 -0.15036646890E-02  0.79468628833E-01  0.81299279629E-01  0.51109989000E-03 0.  1.
     -623    1    1    2    0    0 -0.18212826893E-01 -0.32673821700E-02  0.31108556202E-02  0.17130000103E+03  0.17130000000E+03 0.  1.
      622    1    1    2    0    0  0.11310333328E-02  0.47710468591E-02  0.39174204829E+01  0.39186996928E+01  0.10000000000E+00 0.  1.
</event>
<event>
 5   0  0.6262544E+06  0.9118800E+02  0.7818608E-02  0.1180000E+00
       11   -1    0    0    0    0  0.00000000000E+00  0.00000000000E+00  0.39999999673E+01  0.40000000000E+01  0.51109989000E-03 0. -1.
     -623   -1    0    0    0    0  0.00000000000E+00  0.00000000000E+00  0.12525980253E-10  0.17130000000E+03  0.17130000000E+03 0. -1.
       11    1    1    2    0    0 -0.28085436020E-02 -0.65695677020E-02  0.23554805667E+00  0.23565694422E+00  0.51109989000E-03 0. -1.
     -623    1    1    2    0    0  0.24920028531E-02 -0.20011509510E-02  0.14471520317E-02  0.17130000004E+03  0.17130000000E+03 0. -1.
      622    1    1    2    0    0  0.31654074886E-03  0.85707186530E-02  0.37630047587E+01  0.37643430199E+01  0.10000000000E+00 0. -1.
</event>
<event>
 5   0  0.6262544E+06  0.9118800E+02  0.7818608E-02  0.1180000E+00
       11   -1    0    0    0    0  0.00000000000E+00  0.00000000000E+00  0.39999999673E+01  0.40000000000E+01  0.51109989000E-03 0. -1.
     -623   -1    0    0    0    0  0.00000000000E+00  0.00000000000E+00  0.12525980253E-10  0.17130000000E+03  0.17130000000E+03 0. -1.
       11    1    1    2    0    0  0.17677911493E-02 -0.46430632904E-02  0.28025507791E-01  0.28467058723E-01  0.51109989000E-03 0. -1.
     -623    1    1    2    0    0 -0.34299996693E-02  0.64964855024E-02  0.17016242145E-02  0.17130000017E+03  0.17130000000E+03 0. -1.
      622    1    1    2    0    0  0.16622085201E-02 -0.18534222123E-02  0.39702728355E+01  0.39715327755E+01  0.10000000000E+00 0. -1.
</event>
<event>
 5   0  0.6262544E+06  0.9118800E+02  0.7818608E-02  0.1180000E+00
       11   -1    0    0    0    0  0.00000000000E+00  0.00000000000E+00  0.39999999673E+01  0.40000000000E+01  0.51109989000E-03 0. -1.
     -623   -1    0    0    0    0  0.00000000000E+00  0.00000000000E+00  0.12525980253E-10  0.17130000000E+03  0.17130000000E+03 0.  1.
       11    1    1    2    0    0  0.12034727518E-01 -0.19169358963E-01  0.42426484555E-01  0.48089154738E-01  0.51109989000E-03 0. -1.
     -623    1    1    2    0    0 -0.27063533569E-01  0.11762559676E-01  0.69662643683E-02  0.17130000268E+03  0.17130000000E+03 0.  1.
      622    1    1    2    0    0  0.15028806051E-01  0.74067992866E-02  0.39506072184E+01  0.39519081619E+01  0.10000000000E+00 0. -1.
</event>
<event>
 5   0  0.6262544E+06  0.9118800E+02  0.7818608E-02  0.1180000E+00
       11   -1    0    0    0    0  0.00000000000E+00  0.00000000000E+00  0.39999999673E+01  0.40000000000E+01  0.51109989000E-03 0. -1.
     -623   -1    0    0    0    0  0.00000000000E+00  0.00000000000E+00  0.12525980253E-10  0.17130000000E+03  0.17130000000E+03 0.  1.
       11    1    1    2    0    0 -0.53409179445E-02  0.58293276287E-02  0.25448576505E-02  0.83212972938E-02  0.51109989000E-03 0. -1.
     -623    1    1    2    0    0  0.74356669352E-02 -0.13830107357E-02  0.70325478063E-02  0.17130000031E+03  0.17130000000E+03 0.  1.
      622    1    1    2    0    0 -0.20947489908E-02 -0.44463168930E-02  0.39904225620E+01  0.39916783915E+01  0.10000000000E+00 0. -1.
</event>
<event>
 5   0  0.6262544E+06  0.9118800E+02  0.7818608E-02  0.1180000E+00
       11   -1    0    0    0    0  0.00000000000E+00  0.00000000000E+00  0.39999999673E+01  0.40000000000E+01  0.51109989000E-03 0. -1.
     -623   -1    0    0    0    0  0.00000000000E+00  0.00000000000E+00  0.12525980253E-10  0.17130000000E+03  0.17130000000E+03 0. -1.
       11    1    1    2    0    0  0.20209035806E-01 -0.38285559676E-03  0.12748660488E+00  0.12908000369E+00  0.51109989000E-03 0. -1.
     -623    1    1    2    0    0 -0.59259292349E-03  0.14856988713E-01  0.29627272965E-02  0.17130000067E+03  0.17130000000E+03 0. -1.
      622    1    1    2    0    0 -0.19616442883E-01 -0.14474133116E-01  0.38695506353E+01  0.38709193255E+01  0.10000000000E+00 0. -1.
</event>
<event>
 5   0  0.6262544E+06  0.9118800E+02  0.7818608E-02  0.1180000E+00
       11   -1    0    0    0    0  0.00000000000E+00  0.00000000000E+00  0.39999999673E+01  0.40000000000E+01  0.51109989000E-03 0. -1.
     -623   -1    0    0    0    0  0.00000000000E+00  0.00000000000E+00  0.12525980253E-10  0.17130000000E+03  0.17130000000E+03 0.  1.
       11    1    1    2    0    0 -0.11209316455E-01  0.52273309090E-03  0.51246781896E-01  0.52463472084E-01  0.51109989000E-03 0. -1.
     -623    1    1    2    0    0 -0.67412201441E-02  0.96569291833E-02  0.25378533727E-02  0.17130000042E+03  0.17130000000E+03 0.  1.
      622    1    1    2    0    0  0.17950536599E-01 -0.10179662274E-01  0.39462153320E+01  0.39475361042E+01  0.10000000000E+00 0. -1.
</event>
<event>
 5   0  0.6262544E+06  0.9118800E+02  0.7818608E-02  0.1180000E+00
       11   -1    0    0    0    0  0.00000000000E+00  0.00000000000E+00  0.39999999673E+01  0.40000000000E+01  0.51109989000E-03 0. -1.
     -623   -1    0    0    0    0  0.00000000000E+00  0.00000000000E+00  0.12525980253E-10  0.17130000000E+03  0.17130000000E+03 0.  1.
       11    1    1    2    0    0  0.19747562984E-01 -0.16277629324E-01  0.28934649890E+00  0.29047647944E+00  0.51109989000E-03 0. -1.
     -623    1    1    2    0    0 -0.22988720783E-02 -0.13855291691E-02  0.25612355830E-02  0.17130000004E+03  0.17130000000E+03 0.  1.
      622    1    1    2    0    0 -0.17448690905E-01  0.17663158493E-01  0.37080922330E+01  0.37095234805E+01  0.10000000000E+00 0. -1.
</event>
<event>
 5   0  0.6262544E+06  0.9118800E+02  0.7818608E-02  0.1180000E+00
       11   -1    0    0    0    0  0.00000000000E+00  0.00000000000E+00  0.39999999673E+01  0.40000000000E+01  0.51109989000E-03 0. -1.
     -623   -1    0    0    0    0  0.00000000000E+00  0.00000000000E+00  0.12525980253E-10  0.17130000000E+03  0.17130000000E+03 0.  1.
       11    1    1    2    0    0  0.28051240802E-03 -0.30406096259E-01  0.30827927751E+01  0.30829427768E+01  0.51109989000E-03 0. -1.
     -623    1    1    2    0    0 -0.10385409586E-01  0.13606385307E-01  0.58302883690E-02  0.17130000095E+03  0.17130000000E+03 0.  1.
      622    1    1    2    0    0  0.10104897178E-01  0.16799710952E-01  0.91137690387E+00  0.91705626880E+00  0.10000000000E+00 0.  1.
</event>
<event>
 5   0  0.6262544E+06  0.9118800E+02  0.7818608E-02  0.1180000E+00
       11   -1    0    0    0    0  0.00000000000E+00  0.00000000000E+00  0.39999999673E+01  0.40000000000E+01  0.51109989000E-03 0. -1.
     -623   -1    0    0    0    0  0.00000000000E+00  0.00000000000E+00  0.12525980253E-10  0.17130000000E+03  0.17130000000E+03 0. -1.
       11    1    1    2    0    0  0.35180422739E-01  0.33419381339E-01  0.11698429215E+00  0.12664952833E+00  0.51109989000E-03 0. -1.
     -623    1    1    2    0    0 -0.58042176931E-02 -0.27284918686E-01  0.11075216659E-01  0.17130000263E+03  0.17130000000E+03 0. -1.
      622    1    1    2    0    0 -0.29376205046E-01 -0.61344626537E-02  0.38719404585E+01  0.38733478423E+01  0.10000000000E+00 0. -1.
</event>
<event>
 5   0  0.6262544E+06  0.9118800E+02  0.7818608E-02  0.1180000E+00
       11   -1    0    0    0    0  0.00000000000E+00  0.00000000000E+00  0.39999999673E+01  0.40000000000E+01  0.51109989000E-03 0. -1.
     -623   -1    0    0    0    0  0.00000000000E+00  0.00000000000E+00  0.12525980253E-10  0.17130000000E+03  0.17130000000E+03 0. -1.
       11    1    1    2    0    0  0.14261550838E-01 -0.35564811094E-02  0.60608428093E-01  0.62367324531E-01  0.51109989000E-03 0. -1.
     -623    1    1    2    0    0 -0.16379359215E-01  0.57668481971E-02  0.30309646391E-02  0.17130000091E+03  0.17130000000E+03 0. -1.
      622    1    1    2    0    0  0.21178083775E-02 -0.22103670877E-02  0.39363605746E+01  0.39376317685E+01  0.10000000000E+00 0. -1.
</event>
<event>
 5   0  0.6262544E+06  0.9118800E+02  0.7818608E-02  0.1180000E+00
       11   -1    0    0    0    0  0.00000000000E+00  0.00000000000E+00  0.39999999673E+01  0.40000000000E+01  0.51109989000E-03 0.  1.
     -623   -1    0    0    0    0  0.00000000000E+00  0.00000000000E+00  0.12525980253E-10  0.17130000000E+03  0.17130000000E+03 0. -1.
       11    1    1    2    0    0  0.36196809708E-01  0.39211352565E-02  0.31799069669E+00  0.32006863129E+00  0.51109989000E-03 0.  1.
     -623    1    1    2    0    0  0.54912332068E-02 -0.14901300813E-01  0.36902645253E-02  0.17130000078E+03  0.17130000000E+03 0. -1.
      622    1    1    2    0    0 -0.41688042914E-01  0.10980165556E-01  0.36783190061E+01  0.36799305928E+01  0.10000000000E+00 0.  1.
</event>
<event>
 5   0  0.6262544E+06  0.9118800E+02  0.7818608E-02  0.1180000E+00
       11   -1    0    0    0    0  0.00000000000E+00  0.00000000000E+00  0.39999999673E+01  0.40000000000E+01  0.51109989000E-03 0. -1.
     -623   -1    0    0    0    0  0.00000000000E+00  0.00000000000E+00  0.12525980253E-10  0.17130000000E+03  0.17130000000E+03 0. -1.
       11    1    1    2    0    0 -0.17557750162E-01 -0.54971369201E-02  0.60049829637E-01  0.62807136279E-01  0.51109989000E-03 0. -1.
     -623    1    1    2    0    0 -0.11436300410E-01 -0.52398006999E-02  0.41493708535E-02  0.17130000051E+03  0.17130000000E+03 0. -1.
      622    1    1    2    0    0  0.28994050572E-01  0.10736937620E-01  0.39358007670E+01  0.39371923517E+01  0.10000000000E+00 0. -1.
</event>
<event>
 5   0  0.6262544E+06  0.9118800E+02  0.7818608E-02  0.1180000E+00
       11   -1    0    0    0    0  0.00000000000E+00  0.00000000000E+00  0.39999999673E+01  0.40000000000E+01  0.51109989000E-03 0.  1.
     -623   -1    0    0    0    0  0.00000000000E+00  0.00000000000E+00  0.12525980253E-10  0.17130000000E+03  0.17130000000E+03 0. -1.
       11    1    1    2    0    0  0.10948424086E-01  0.79622988308E-03  0.45113395669E-01  0.46432549617E-01  0.51109989000E-03 0.  1.
     -623    1    1    2    0    0 -0.95136914739E-03  0.32779621478E-02  0.25988013196E-02  0.17130000005E+03  0.17130000000E+03 0. -1.
      622    1    1    2    0    0 -0.99970549386E-02 -0.40741920308E-02  0.39522877703E+01  0.39535673966E+01  0.10000000000E+00 0.  1.
</event>
<event>
 5   0  0.6262544E+06  0.9118800E+02  0.7818608E-02  0.1180000E+00
       11   -1    0    0    0    0  0.00000000000E+00  0.00000000000E+00  0.39999999673E+01  0.40000000000E+01  0.51109989000E-03 0. -1.
     -623   -1    0    0    0    0  0.00000000000E+00  0.00000000000E+00  0.12525980253E-10  0.17130000000E+03  0.17130000000E+03 0. -1.
       11    1    1    2    0    0 -0.15797939514E-01  0.40149075142E-01  0.73280226083E+00  0.73407148006E+00  0.51109989000E-03 0. -1.
     -623    1    1    2    0    0  0.12402522747E-01  0.10163704457E-01  0.31907983810E-02  0.17130000078E+03  0.17130000000E+03 0. -1.
      622    1    1    2    0    0  0.33954167664E-02 -0.50312779600E-01  0.32640069082E+01  0.32659277398E+01  0.10000000000E+00 0. -1.
</event>
<event>
 5   0  0.6262544E+06  0.9118800E+02  0.7818608E-02  0.1180000E+00
       11   -1    0    0    0    0  0.00000000000E+00  0.00000000000E+00  0.39999999673E+01  0.40000000000E+01  0.51109989000E-03 0. -1.
     -623   -1    0    0    0    0  0.00000000000E+00  0.00000000000E+00  0.12525980253E-10  0.17130000000E+03  0.17130000000E+03 0. -1.
       11    1    1    2    0    0 -0.11539584422E-01  0.79980583184E-02  0.26831540614E+00  0.26868299042E+00  0.51109989000E-03 0. -1.
     -623    1    1    2    0    0  0.55093418968E-02 -0.12157530321E-01  0.17155243324E-02  0.17130000053E+03  0.17130000000E+03 0. -1.
      622    1    1    2    0    0  0.60302425248E-02  0.41594720021E-02  0.37299690368E+01  0.37313164809E+01  0.10000000000E+00 0. -1.
</event>
<event>
 5   0  0.6262544E+06  0.9118800E+02  0.7818608E-02  0.1180000E+00
       11   -1    0    0    0    0  0.00000000000E+00  0.00000000000E+00  0.39999999673E+01  0.40000000000E+01  0.51109989000E-03 0.  1.
     -623   -1    0    0    0    0  0.00000000000E+00  0.00000000000E+00  0.12525980253E-10  0.17130000000E+03  0.17130000000E+03 0. -1.
       11    1    1    2    0    0  0.23390221506E-02  0.10666438077E-01  0.36392342377E+00  0.36408757672E+00  0.51109989000E-03 0.  1.
     -623    1    1    2    0    0 -0.17637140100E-02 -0.97885582217E-03  0.15525263256E-02  0.17130000002E+03  0.17130000000E+03 0. -1.
      622    1    1    2    0    0 -0.57530814059E-03 -0.96875822552E-02  0.36345240173E+01  0.36359124044E+01  0.10000000000E+00 0.  1.
</event>
<event>
 5   0  0.6262544E+06  0.9118800E+02  0.7818608E-02  0.1180000E+00
       11   -1    0    0    0    0  0.00000000000E+00  0.00000000000E+00  0.39999999673E+01  0.40000000000E+01  0.51109989000E-03 0. -1.
     -623   -1    0    0    0    0  0.00000000000E+00  0.00000000000E+00  0.12525980253E-10  0.17130000000E+03  0.17130000000E+03 0. -1.
       11    1    1    2    0    0  0.15592087998E-01  0.17895566732E-01  0.26623336882E+00  0.26728979107E+00  0.51109989000E-03 0. -1.
     -623    1    1    2    0    0 -0.15488323366E-01  0.64372684591E-02  0.24763200557E-02  0.17130000084E+03  0.17130000000E+03 0. -1.
      622    1    1    2    0    0 -0.10376463122E-03 -0.24332835191E-01  0.37312902786E+01  0.37327093700E+01  0.10000000000E+00 0. -1.
</event>
<event>
 5   0  0.6262544E+06  0.9118800E+02  0.7818608E-02  0.1180000E+00
       11   -1    0    0    0    0  0.00000000000E+00  0.00000000000E+00  0.39999999673E+01  0.40000000000E+01  0.51109989000E-03 0. -1.
     -623   -1    0    0    0    0  0.00000000000E+00  0.00000000000E+00  0.12525980253E-10  0.17130000000E+03  0.17130000000E+03 0.  1.
       11    1    1    2    0    0 -0.15728524950E-01  0.20732372014E-02  0.99699001543E-02  0.18744197497E-01  0.51109989000E-03 0. -1.
     -623    1    1    2    0    0  0.73014123164E-02 -0.61750885176E-02  0.10041944783E-01  0.17130000056E+03  0.17130000000E+03 0.  1.
      622    1    1    2    0    0  0.84271126340E-02  0.41018513162E-02  0.39799881224E+01  0.39812552413E+01  0.10000000000E+00 0. -1.
</event>
<event>
 5   0  0.6262544E+06  0.9118800E+02  0.7818608E-02  0.1180000E+00
       11   -1    0    0    0    0  0.00000000000E+00  0.00000000000E+00  0.39999999673E+01  0.40000000000E+01  0.51109989000E-03 0.  1.
     -623   -1    0    0    0    0  0.00000000000E+00  0.00000000000E+00  0.12525980253E-10  0.17130000000E+03  0.17130000000E+03 0. -1.
       11    1    1    2    0    0 -0.28931988496E-01 -0.15547435229E-01  0.14021372831E+01  0.14025220157E+01  0.51109989000E-03 0.  1.
     -623    1    1    2    0    0  0.38289955362E-01 -0.75939533865E-03  0.23827539833E-02  0.17130000430E+03  0.17130000000E+03 0. -1.
      622    1    1    2    0    0 -0.93579668654E-02  0.16306830568E-01  0.25954799303E+01  0.25974736867E+01  0.10000000000E+00 0.  1.
</event>
<event>
 5   0  0.6262544E+06  0.9118800E+02  0.7818608E-02  0.1180000E+00
       11   -1    0    0    0    0  0.00000000000E+00  0.00000000000E+00  0.39999999673E+01  0.40000000000E+01  0.51109989000E-03 0. -1.
     -623   -1    0    0    0    0  0.00000000000E+00  0.00000000000E+00  0.12525980253E-10  0.17130000000E+03  0.17130000000E+03 0.  1.
       11    1    1    2    0    0 -0.32066890339E-02 -0.25498475274E-03  0.16257741052E-01  0.16580809359E-01  0.51109989000E-03 0. -1.
     -623    1    1    2    0    0  0.36342500404E-03  0.17460907535E-02  0.15797473501E-02  0.17130000002E+03  0.17130000000E+03 0.  1.
      622    1    1    2    0    0  0.28432640298E-02 -0.14911060009E-02  0.39821624791E+01  0.39834191742E+01  0.10000000000E+00 0. -1.
</event>
<event>
 5   0  0.6262544E+06  0.9118800E+02  0.7818608E-02  0.1180000E+00
       11   -1    0    0    0    0  0.00000000000E+00  0.00000000000E+00  0.39999999673E+01  0.40000000000E+01  0.51109989000E-03 0. -1.
     -623   -1    0    0    0    0  0.00000000000E+00  0.00000000000E+00  0.12525980253E-10  0.17130000000E+03  0.17130000000E+03 0. -1.
       11    1    1    2    0    0  0.13179074233E-02  0.29546809773E-02  0.10346896907E+00  0.10352079889E+00  0.51109989000E-03 0. -1.
     -623    1    1    2    0    0 -0.53517768509E-02 -0.28425732745E-02  0.13374210691E-02  0.17130000011E+03  0.17130000000E+03 0. -1.
      622    1    1    2    0    0  0.40338694279E-02 -0.11210770260E-03  0.38951935774E+01  0.38964790889E+01  0.10000000000E+00 0. -1.
</event>
<event>
 5   0  0.6262544E+06  0.9118800E+02  0.7818608E-02  0.1180000E+00
       11   -1    0    0    0    0  0.00000000000E+00  0.00000000000E+00  0.39999999673E+01  0.40000000000E+01  0.51109989000E-03 0. -1.
     -623   -1    0    0    0    0  0.00000000000E+00  0.00000000000E+00  0.12525980253E-10  0.17130000000E+03  0.17130000000E+03 0.  1.
       11    1    1    2    0    0 -0.32106990226E-02 -0.59462937759E-02  0.10290076947E-01  0.12321278528E-01  0.51109989000E-03 0. -1.
     -623    1    1    2    0    0  0.32879718913E-02  0.10397794236E-01  0.32880933957E-02  0.17130000038E+03  0.17130000000E+03 0.  1.
      622    1    1    2    0    0 -0.77272868818E-04 -0.44515004608E-02  0.39864217972E+01  0.39876783430E+01  0.10000000000E+00 0. -1.
</event>
<event>
 5   0  0.6262544E+06  0.9118800E+02  0.7818608E-02  0.1180000E+00
       11   -1    0    0    0    0  0.00000000000E+00  0.00000000000E+00  0.39999999673E+01  0.40000000000E+01  0.51109989000E-03 0. -1.
     -623   -1    0    0    0    0  0.00000000000E+00  0.00000000000E+00  0.12525980253E-10  0.17130000000E+03  0.17130000000E+03 0.  1.
       11    1    1    2    0    0 -0.95886106284E-02  0.43062814233E-02  0.81663455893E-01  0.82338731845E-01  0.51109989000E-03 0. -1.
     -623    1    1    2    0    0  0.47614871402E-02 -0.56523436516E-03  0.19565628302E-02  0.17130000008E+03  0.17130000000E+03 0.  1.
      622    1    1    2    0    0  0.48271234882E-02 -0.37410470581E-02  0.39163799486E+01  0.39176611899E+01  0.10000000000E+00 0. -1.
</event>
<event>
 5   0  0.6262544E+06  0.9118800E+02  0.7818608E-02  0.1180000E+00
       11   -1    0    0    0    0  0.00000000000E+00  0.00000000000E+00  0.39999999673E+01  0.40000000000E+01  0.51109989000E-03 0. -1.
     -623   -1    0    0    0    0  0.00000000000E+00  0.00000000000E+00  0.12525980253E-10  0.17130000000E+03  0.17130000000E+03 0.  1.
       11    1    1    2    0    0  0.25925736383E-02 -0.21459901249E-02  0.73692143589E-01  0.73770725636E-01  0.51109989000E-03 0. -1.
     -623    1    1    2    0    0 -0.62471031420E-02  0.86831500798E-02  0.13597273188E-02  0.17130000034E+03  0.17130000000E+03 0.  1.
      622    1    1    2    0    0  0.36545295037E-02 -0.65371599549E-02  0.39249480965E+01  0.39262289350E+01  0.10000000000E+00 0. -1.
</event>
<event>
 5   0  0.6262544E+06  0.9118800E+02  0.7818608E-02  0.1180000E+00
       11   -1    0    0    0    0  0.00000000000E+00  0.00000000000E+00  0.39999999673E+01  0.40000000000E+01  0.51109989000E-03 0.  1.
     -623   -1    0    0    0    0  0.00000000000E+00  0.00000000000E+00  0.12525980253E-10  0.17130000000E+03  0.17130000000E+03 0.  1.
       11    1    1    2    0    0 -0.32175950160E-02 -0.10367237354E-01  0.58224582422E-02  0.12328615895E-01  0.51109989000E-03 0.  1.
     -623    1    1    2    0    0 -0.66998898259E-02  0.20348049938E-01  0.77865348560E-02  0.17130000152E+03  0.17130000000E+03 0.  1.
      622    1    1    2    0    0  0.99174848419E-02 -0.99808125834E-02  0.39863909743E+01  0.39876698676E+01  0.10000000000E+00 0.  1.
</event>
<event>
 5   0  0.6262544E+06  0.9118800E+02  0.7818608E-02  0.1180000E+00
       11   -1    0    0    0    0  0.00000000000E+00  0.00000000000E+00  0.39999999673E+01  0.40000000000E+01  0.51109989000E-03 0.  1.
     -623   -1    0    0    0    0  0.00000000000E+00  0.00000000000E+00  0.12525980253E-10  0.17130000000E+03  0.17130000000E+03 0. -1.
       11    1    1    2    0    0  0.11633315480E+00 -0.36129282102E-01  0.53726986133E+00  0.55090642858E+00  0.51109989000E-03 0.  1.
     -623    1    1    2    0    0 -0.50526895714E-01  0.28403303882E-01  0.15733779016E-01  0.17130001053E+03  0.17130000000E+03 0. -1.
      622    1    1    2    0    0 -0.65806259083E-01  0.77259782195E-02  0.34469963270E+01  0.34490830423E+01  0.10000000000E+00 0.  1.
</event>
<event>
 5   0  0.6262544E+06  0.9118800E+02  0.7818608E-02  0.1180000E+00
       11   -1    0    0    0    0  0.00000000000E+00  0.00000000000E+00  0.39999999673E+01  0.40000000000E+01  0.51109989000E-03 0. -1.
     -623   -1    0    0    0    0  0.00000000000E+00  0.00000000000E+00  0.12525980253E-10  0.17130000000E+03  0.17130000000E+03 0. -1.
       11    1    1    2    0    0 -0.21179803143E-02 -0.11678010324E-01  0.45832757930E+00  0.45848150774E+00  0.51109989000E-03 0. -1.
     -623    1    1    2    0    0  0.25767316002E-01 -0.16574310096E-01  0.17604857598E-02  0.17130000275E+03  0.17130000000E+03 0. -1.
      622    1    1    2    0    0 -0.23649335688E-01  0.28252320420E-01  0.35399119023E+01  0.35415157434E+01  0.10000000000E+00 0. -1.
</event>
<event>
 5   0  0.6262544E+06  0.9118800E+02  0.7818608E-02  0.1180000E+00
       11   -1    0    0    0    0  0.00000000000E+00  0.00000000000E+00  0.39999999673E+01  0.40000000000E+01  0.51109989000E-03 0. -1.
     -623   -1    0    0    0    0  0.00000000000E+00  0.00000000000E+00  0.12525980253E-10  0.17130000000E+03  0.17130000000E+03 0. -1.
       11    1    1    2    0    0  0.11230945542E-02 -0.21859239055E-02  0.47406432144E-02  0.53641892102E-02  0.51109989000E-03 0. -1.
     -623    1    1    2    0    0  0.63984458269E-03  0.67782601531E-03  0.18760747949E-02  0.17130000001E+03  0.17130000000E+03 0. -1.
      622    1    1    2    0    0 -0.17629391369E-02  0.15080978901E-02  0.39933832494E+01  0.39946357981E+01  0.10000000000E+00 0. -1.
</event>
<event>
 5   0  0.6262544E+06  0.9118800E+02  0.7818608E-02  0.1180000E+00
       11   -1    0    0    0    0  0.00000000000E+00  0.00000000000E+00  0.39999999673E+01  0.40000000000E+01  0.51109989000E-03 0. -1.
     -623   -1    0    0    0    0  0.00000000000E+00  0.00000000000E+00  0.12525980253E-10  0.17130000000E+03  0.17130000000E+03 0. -1.
       11    1    1    2    0    0  0.54400277988E-01  0.17851383081E-02  0.13112919352E+00  0.14197782777E+00  0.51109989000E-03 0. -1.
     -623    1    1    2    0    0 -0.17432155832E-01  0.54661307034E-02  0.12330236337E-01  0.17130000142E+03  0.17130000000E+03 0. -1.
      622    1    1    2    0    0 -0.36968122156E-01 -0.72512690115E-02  0.38565405375E+01  0.38580207543E+01  0.10000000000E+00 0. -1.
</event>
<event>
 5   0  0.6262544E+06  0.9118800E+02  0.7818608E-02  0.1180000E+00
       11   -1    0    0    0    0  0.00000000000E+00  0.00000000000E+00  0.39999999673E+01  0.40000000000E+01  0.51109989000E-03 0. -1.
     -623   -1    0    0    0    0  0.00000000000E+00  0.00000000000E+00  0.12525980253E-10  0.17130000000E+03  0.17130000000E+03 0.  1.
       11    1    1    2    0    0 -0.89648655526E-02  0.85077005770E-02  0.12035528821E+00  0.12098928220E+00  0.51109989000E-03 0. -1.
     -623    1    1    2    0    0  0.82419179098E-02 -0.96297405329E-02  0.19238736653E-02  0.17130000048E+03  0.17130000000E+03 0.  1.
      622    1    1    2    0    0  0.72294764252E-03  0.11220399562E-02  0.38777208056E+01  0.38790102382E+01  0.10000000000E+00 0. -1.
</event>
<event>
 5   0  0.6262544E+06  0.9118800E+02  0.7818608E-02  0.1180000E+00
       11   -1    0    0    0    0  0.00000000000E+00  0.00000000000E+00  0.39999999673E+01  0.40000000000E+01  0.51109989000E-03 0.  1.
     -623   -1    0    0    0    0  0.00000000000E+00  0.00000000000E+00  0.12525980253E-10  0.17130000000E+03  0.17130000000E+03 0. -1.
       11    1    1    2    0    0 -0.96805082640E-03  0.15140829466E-02  0.18403221556E-01  0.18497820271E-01  0.51109989000E-03 0.  1.
     -623    1    1    2    0    0  0.81356172235E-03  0.81103303481E-03  0.13512629165E-02  0.17130000001E+03  0.17130000000E+03 0. -1.
      622    1    1    2    0    0  0.15448910404E-03 -0.23251159814E-02  0.39802454829E+01  0.39815021705E+01  0.10000000000E+00 0.  1.
</event>
<event>
 5   0  0.6262544E+06  0.9118800E+02  0.7818608E-02  0.1180000E+00
       11   -1    0    0    0    0  0.00000000000E+00  0.00000000000E+00  0.39999999673E+01  0.40000000000E+01  0.51109989000E-03 0. -1.
     -623   -1    0    0    0    0  0.00000000000E+00  0.00000000000E+00  0.12525980253E-10  0.17130000000E+03  0.17130000000E+03 0. -1.
       11    1    1    2    0    0 -0.42006736698E-02 -0.16195304749E-01  0.14193894528E+01  0.14194881520E+01  0.51109989000E-03 0. -1.
     -623    1    1    2    0    0 -0.12234216170E-01  0.24384867052E-01  0.21045625758E-02  0.17130000219E+03  0.17130000000E+03 0. -1.
      622    1    1    2    0    0  0.16434889840E-01 -0.81895623030E-02  0.25785059520E+01  0.25805096626E+01  0.10000000000E+00 0. -1.
</event>
<event>
 5   0  0.6262544E+06  0.9118800E+02  0.7818608E-02  0.1180000E+00
       11   -1    0    0    0    0  0.00000000000E+00  0.00000000000E+00  0.39999999673E+01  0.40000000000E+01  0.51109989000E-03 0. -1.
     -623   -1    0    0    0    0  0.00000000000E+00  0.00000000000E+00  0.12525980253E-10  0.17130000000E+03  0.17130000000E+03 0. -1.
       11    1    1    2    0    0  0.34242813480E-01 -0.18702093185E-01  0.60720118749E+00  0.60845368097E+00  0.51109989000E-03 0. -1.
     -623    1    1    2    0    0  0.51935893757E-02  0.25987502083E-02  0.29947971409E-02  0.17130000012E+03  0.17130000000E+03 0. -1.
      622    1    1    2    0    0 -0.39436402855E-01  0.16103342977E-01  0.33898039828E+01  0.33915461944E+01  0.10000000000E+00 0. -1.
</event>
<event>
 5   0  0.6262544E+06  0.9118800E+02  0.7818608E-02  0.1180000E+00
       11   -1    0    0    0    0  0.00000000000E+00  0.00000000000E+00  0.39999999673E+01  0.40000000000E+01  0.51109989000E-03 0.  1.
     -623   -1    0    0    0    0  0.00000000000E+00  0.00000000000E+00  0.12525980253E-10  0.17130000000E+03  0.17130000000E+03 0.  1.
       11    1    1    2    0    0 -0.51699150681E-05  0.19374098932E-01  0.18494081404E+01  0.18495096881E+01  0.51109989000E-03 0.  1.
     -623    1    1    2    0    0 -0.60941914767E-03  0.38628302021E-02  0.25536581396E-02  0.17130000006E+03  0.17130000000E+03 0.  1.
      622    1    1    2    0    0  0.61458906274E-03 -0.23236929134E-01  0.21480381689E+01  0.21504902482E+01  0.10000000000E+00 0.  1.
</event>
<event>
 5   0  0.6262544E+06  0.9118800E+02  0.7818608E-02  0.1180000E+00
       11   -1    0    0    0    0  0.00000000000E+00  0.00000000000E+00  0.39999999673E+01  0.40000000000E+01  0.51109989000E-03 0.  1.
     -623   -1    0    0    0    0  0.00000000000E+00  0.00000000000E+00  0.12525980253E-10  0.17130000000E+03  0.17130000000E+03 0. -1.
       11    1    1    2    0    0  0.22366610621E-01 -0.36052363489E-01  0.88552585120E+00  0.88654178275E+00  0.51109989000E-03 0.  1.
     -623    1    1    2    0    0 -0.53606996277E-01 -0.73801320617E-02  0.30907690451E-02  0.17130000857E+03  0.17130000000E+03 0. -1.
      622    1    1    2    0    0  0.31240385656E-01  0.43432495550E-01  0.31113833471E+01  0.31134496424E+01  0.10000000000E+00 0.  1.
</event>
<event>
 5   0  0.6262544E+06  0.9118800E+02  0.7818608E-02  0.1180000E+00
       11   -1    0    0    0    0  0.00000000000E+00  0.00000000000E+00  0.39999999673E+01  0.40000000000E+01  0.51109989000E-03 0. -1.
     -623   -1    0    0    0    0  0.00000000000E+00  0.00000000000E+00  0.12525980253E-10  0.17130000000E+03  0.17130000000E+03 0. -1.
       11    1    1    2    0    0  0.70976503220E-02  0.53111619788E-02  0.33374493215E-02  0.94860355843E-02  0.51109989000E-03 0. -1.
     -623    1    1    2    0    0 -0.84210652010E-02  0.20153299431E-02  0.74090482891E-02  0.17130000038E+03  0.17130000000E+03 0. -1.
      622    1    1    2    0    0  0.13234148790E-02 -0.73264919220E-02  0.39892534697E+01  0.39905135853E+01  0.10000000000E+00 0. -1.
</event>
<event>
 5   0  0.6262544E+06  0.9118800E+02  0.7818608E-02  0.1180000E+00
       11   -1    0    0    0    0  0.00000000000E+00  0.00000000000E+00  0.39999999673E+01  0.40000000000E+01  0.51109989000E-03 0. -1.
     -623   -1    0    0    0    0  0.00000000000E+00  0.00000000000E+00  0.12525980253E-10  0.17130000000E+03  0.17130000000E+03 0.  1.
       11    1    1    2    0    0 -0.43187897507E-01 -0.16489622692E-01  0.65380195115E+00  0.65543447781E+00  0.51109989000E-03 0. -1.
     -623    1    1    2    0    0  0.18906635189E-01 -0.28463398408E-02  0.32729906554E-02  0.17130000110E+03  0.17130000000E+03 0.  1.
      622    1    1    2    0    0  0.24281262319E-01  0.19335962533E-01  0.33429250256E+01  0.33445644239E+01  0.10000000000E+00 0. -1.
</event>
<event>
 5   0  0.6262544E+06  0.9118800E+02  0.7818608E-02  0.1180000E+00
       11   -1    0    0    0    0  0.00000000000E+00  0.00000000000E+00  0.39999999673E+01  0.40000000000E+01  0.51109989000E-03 0. -1.
     -623   -1    0    0    0    0  0.00000000000E+00  0.00000000000E+00  0.12525980253E-10  0.17130000000E+03  0.17130000000E+03 0.  1.
       11    1    1    2    0    0 -0.64564171531E-02  0.38025792878E-02  0.71956244787E-02  0.10401113711E-01  0.51109989000E-03 0. -1.
     -623    1    1    2    0    0 -0.57943213292E-02  0.21316009657E-01  0.45583122161E-02  0.17130000148E+03  0.17130000000E+03 0.  1.
      622    1    1    2    0    0  0.12250738483E-01 -0.25118588946E-01  0.39882460308E+01  0.39895974015E+01  0.10000000000E+00 0. -1.
</event>
<event>
 5   0  0.6262544E+06  0.9118800E+02  0.7818608E-02  0.1180000E+00
       11   -1    0    0    0    0  0.00000000000E+00  0.00000000000E+00  0.39999999673E+01  0.40000000000E+01  0.51109989000E-03 0.  1.
     -623   -1    0    0    0    0  0.00000000000E+00  0.00000000000E+00  0.12525980253E-10  0.17130000000E+03  0.17130000000E+03 0. -1.
       11    1    1    2    0    0  0.15961382263E-02  0.55451785876E-02  0.51824562234E-01  0.52147321472E-01  0.51109989000E-03 0.  1.
     -623    1    1    2    0    0  0.37485730857E-02 -0.33304422865E-02  0.15937624433E-02  0.17130000008E+03  0.17130000000E+03 0. -1.
      622    1    1    2    0    0 -0.53447113121E-02 -0.22147363010E-02  0.39465816428E+01  0.39478525979E+01  0.10000000000E+00 0.  1.
</event>
<event>
 5   0  0.6262544E+06  0.9118800E+02  0.7818608E-02  0.1180000E+00
       11   -1    0    0    0    0  0.00000000000E+00  0.00000000000E+00  0.39999999673E+01  0.40000000000E+01  0.51109989000E-03 0.  1.
     -623   -1    0    0    0    0  0.00000000000E+00  0.00000000000E+00  0.12525980253E-10  0.17130000000E+03  0.17130000000E+03 0. -1.
       11    1    1    2    0    0 -0.41140929825E-02 -0.13614472813E-01  0.25066527881E+00  0.25106896035E+00  0.51109989000E-03 0.  1.
     -623    1    1    2    0    0  0.91820064289E-02  0.29483834086E-02  0.17564855108E-02  0.17130000028E+03  0.17130000000E+03 0. -1.
      622    1    1    2    0    0 -0.50679134466E-02  0.10666089405E-01  0.37475782031E+01  0.37489307592E+01  0.10000000000E+00 0.  1.
</event>
<event>
 5   0  0.6262544E+06  0.9118800E+02  0.7818608E-02  0.1180000E+00
       11   -1    0    0    0    0  0.00000000000E+00  0.00000000000E+00  0.39999999673E+01  0.40000000000E+01  0.51109989000E-03 0.  1.
     -623   -1    0    0    0    0  0.00000000000E+00  0.00000000000E+00  0.12525980253E-10  0.17130000000E+03  0.17130000000E+03 0. -1.
       11    1    1    2    0    0 -0.82923412421E-02 -0.53356735607E-02  0.76816608070E-01  0.77448594784E-01  0.51109989000E-03 0.  1.
     -623    1    1    2    0    0  0.17628422536E-02 -0.93239232790E-03  0.19173101283E-02  0.17130000002E+03  0.17130000000E+03 0. -1.
      622    1    1    2    0    0  0.65294989885E-02  0.62680658886E-02  0.39212660494E+01  0.39225513831E+01  0.10000000000E+00 0.  1.
</event>
<event>
 5   0  0.6262544E+06  0.9118800E+02  0.7818608E-02  0.1180000E+00
       11   -1    0    0    0    0  0.00000000000E+00  0.00000000000E+00  0.39999999673E+01  0.40000000000E+01  0.51109989000E-03 0. -1.
     -623   -1    0    0    0    0  0.00000000000E+00  0.00000000000E+00  0.12525980253E-10  0.17130000000E+03  0.17130000000E+03 0. -1.
       11    1    1    2    0    0  0.46151676262E-01  0.57457791267E-01  0.13015524127E+01  0.13036373419E+01  0.51109989000E-03 0. -1.
     -623    1    1    2    0    0 -0.32170966923E-01 -0.31121852937E-01  0.41107644294E-02  0.17130000590E+03  0.17130000000E+03 0. -1.
      622    1    1    2    0    0 -0.13980709339E-01 -0.26335938330E-01  0.26943367902E+01  0.26963567607E+01  0.10000000000E+00 0.  0.
</event>
<event>
 5   0  0.6262544E+06  0.9118800E+02  0.7818608E-02  0.1180000E+00
       11   -1    0    0    0    0  0.00000000000E+00  0.00000000000E+00  0.39999999673E+01  0.40000000000E+01  0.51109989000E-03 0.  1.
     -623   -1    0    0    0    0  0.00000000000E+00  0.00000000000E+00  0.12525980253E-10  0.17130000000E+03  0.17130000000E+03 0. -1.
       11    1    1    2    0    0  0.61983111547E-01  0.14849967576E-01  0.87312570149E+00  0.87544913015E+00  0.51109989000E-03 0.  1.
     -623    1    1    2    0    0 -0.21722378350E-02  0.22930625474E-01  0.47270336181E-02  0.17130000161E+03  0.17130000000E+03 0. -1.
      622    1    1    2    0    0 -0.59810873712E-01 -0.37780593050E-01  0.31221472322E+01  0.31245492560E+01  0.10000000000E+00 0.  1.
</event>
<event>
 5   0  0.6262544E+06  0.9118800E+02  0.7818608E-02  0.1180000E+00
       11   -1    0    0    0    0  0.00000000000E+00  0.00000000000E+00  0.39999999673E+01  0.40000000000E+01  0.51109989000E-03 0.  1.
     -623   -1    0    0    0    0  0.00000000000E+00  0.00000000000E+00  0.12525980253E-10  0.17130000000E+03  0.17130000000E+03 0. -1.
       11    1    1    2    0    0  0.56599956822E-02 -0.22385265602E-01  0.66626104065E-01  0.70515492147E-01  0.51109989000E-03 0.  1.
     -623    1    1    2    0    0  0.34177639348E-02  0.13906396258E-01  0.51823098783E-02  0.17130000068E+03  0.17130000000E+03 0. -1.
      622    1    1    2    0    0 -0.90777596170E-02  0.84788693436E-02  0.39281915534E+01  0.39294838309E+01  0.10000000000E+00 0.  1.
</event>
<event>
 5   0  0.6262544E+06  0.9118800E+02  0.7818608E-02  0.1180000E+00
       11   -1    0    0    0    0  0.00000000000E+00  0.00000000000E+00  0.39999999673E+01  0.40000000000E+01  0.51109989000E-03 0. -1.
     -623   -1    0    0    0    0  0.00000000000E+00  0.00000000000E+00  0.12525980253E-10  0.17130000000E+03  0.17130000000E+03 0.  1.
       11    1    1    2    0    0  0.97272969477E-02  0.13213876410E-02  0.45215146453E-01  0.46271341682E-01  0.51109989000E-03 0. -1.
     -623    1    1    2    0    0  0.10892705800E-03 -0.16877390092E-02  0.23332745357E-02  0.17130000002E+03  0.17130000000E+03 0.  1.
      622    1    1    2    0    0 -0.98362240057E-02  0.36635136825E-03  0.39524515464E+01  0.39537286341E+01  0.10000000000E+00 0. -1.
</event>
<event>
 5   0  0.6262544E+06  0.9118800E+02  0.7818608E-02  0.1180000E+00
       11   -1    0    0    0    0  0.00000000000E+00  0.00000000000E+00  0.39999999673E+01  0.40000000000E+01  0.51109989000E-03 0.  1.
     -623   -1    0    0    0    0  0.00000000000E+00  0.00000000000E+00  0.12525980253E-10  0.17130000000E+03  0.17130000000E+03 0. -1.
       11    1    1    2    0    0 -0.17101338443E-02 -0.70622117078E-02  0.38903351498E+00  0.38910170443E+00  0.51109989000E-03 0.  1.
     -623    1    1    2    0    0  0.90289175836E-03 -0.27273376002E-02  0.14665154483E-02  0.17130000003E+03  0.17130000000E+03 0. -1.
      622    1    1    2    0    0  0.80724208598E-03  0.97895493080E-02  0.36094999369E+01  0.36108982652E+01  0.10000000000E+00 0.  0.
</event>
<event>
 5   0  0.6262544E+06  0.9118800E+02  0.7818608E-02  0.1180000E+00
       11   -1    0    0    0    0  0.00000000000E+00  0.00000000000E+00  0.39999999673E+01  0.40000000000E+01  0.51109989000E-03 0.  1.
     -623   -1    0    0    0    0  0.00000000000E+00  0.00000000000E+00  0.12525980253E-10  0.17130000000E+03  0.17130000000E+03 0. -1.
       11    1    1    2    0    0 -0.55855960194E-02  0.27641192861E-02  0.46286048104E-01  0.46706516776E-01  0.51109989000E-03 0.  1.
     -623    1    1    2    0    0  0.16307413373E-02 -0.25069663181E-02  0.16874282800E-02  0.17130000003E+03  0.17130000000E+03 0. -1.
      622    1    1    2    0    0  0.39548546821E-02 -0.25715296800E-03  0.39520264910E+01  0.39532934488E+01  0.10000000000E+00 0.  1.
</event>
<event>
 5   0  0.6262544E+06  0.9118800E+02  0.7818608E-02  0.1180000E+00
       11   -1    0    0    0    0  0.00000000000E+00  0.00000000000E+00  0.39999999673E+01  0.40000000000E+01  0.51109989000E-03 0.  1.
     -623   -1    0    0    0    0  0.00000000000E+00  0.00000000000E+00  0.12525980253E-10  0.17130000000E+03  0.17130000000E+03 0.  1.
       11    1    1    2    0    0  0.20084869643E-05 -0.37653952114E-03 -0.12638650810E-02  0.14143422802E-02  0.51109989000E-03 0.  1.
     -623    1    1    2    0    0 -0.72827400290E-02  0.64878228121E-03  0.39356535800E-02  0.17130000020E+03  0.17130000000E+03 0.  1.
      622    1    1    2    0    0  0.72807315419E-02 -0.27224276006E-03  0.39973281788E+01  0.39985854564E+01  0.10000000000E+00 0.  1.
</event>
<event>
 5   0  0.6262544E+06  0.9118800E+02  0.7818608E-02  0.1180000E+00
       11   -1    0    0    0    0  0.00000000000E+00  0.00000000000E+00  0.39999999673E+01  0.40000000000E+01  0.51109989000E-03 0.  1.
     -623   -1    0    0    0    0  0.00000000000E+00  0.00000000000E+00  0.12525980253E-10  0.17130000000E+03  0.17130000000E+03 0. -1.
       11    1    1    2    0    0  0.73937056447E-03 -0.20822370211E-02  0.80353387716E-02  0.83492676136E-02  0.51109989000E-03 0.  1.
     -623    1    1    2    0    0 -0.23088944377E-03  0.61288596506E-02  0.15689086429E-02  0.17130000012E+03  0.17130000000E+03 0. -1.
      622    1    1    2    0    0 -0.50848112070E-03 -0.40466226294E-02  0.39903957199E+01  0.39916506154E+01  0.10000000000E+00 0.  1.
</event>
<event>
 5   0  0.6262544E+06  0.9118800E+02  0.7818608E-02  0.1180000E+00
       11   -1    0    0    0    0  0.00000000000E+00  0.00000000000E+00  0.39999999673E+01  0.40000000000E+01  0.51109989000E-03 0.  1.
     -623   -1    0    0    0    0  0.00000000000E+00  0.00000000000E+00  0.12525980253E-10  0.17130000000E+03  0.17130000000E+03 0. -1.
       11    1    1    2    0    0 -0.49472263759E-01 -0.66388513072E-03  0.21562414870E+00  0.22122834436E+00  0.51109989000E-03 0.  1.
     -623    1    1    2    0    0  0.17589156595E-01 -0.15946951450E-01  0.71004479191E-02  0.17130000179E+03  0.17130000000E+03 0. -1.
      622    1    1    2    0    0  0.31883107164E-01  0.16610836580E-01  0.37772753707E+01  0.37787698632E+01  0.10000000000E+00 0.  1.
</event>
<event>
 5   0  0.6262544E+06  0.9118800E+02  0.7818608E-02  0.1180000E+00
       11   -1    0    0    0    0  0.00000000000E+00  0.00000000000E+00  0.39999999673E+01  0.40000000000E+01  0.51109989000E-03 0. -1.
     -623   -1    0    0    0    0  0.00000000000E+00  0.00000000000E+00  0.12525980253E-10  0.17130000000E+03  0.17130000000E+03 0. -1.
       11    1    1    2    0    0  0.69890401354E-01 -0.51413121782E-01  0.24313431908E+00  0.25815215596E+00  0.51109989000E-03 0. -1.
     -623    1    1    2    0    0 -0.39347519686E-03 -0.77395704508E-01  0.19237413977E-01  0.17130001856E+03  0.17130000000E+03 0. -1.
      622    1    1    2    0    0 -0.69496926157E-01  0.12880882629E+00  0.37376282343E+01  0.37418292792E+01  0.10000000000E+00 0. -1.
</event>
<event>
 5   0  0.6262544E+06  0.9118800E+02  0.7818608E-02  0.1180000E+00
       11   -1    0    0    0    0  0.00000000000E+00  0.00000000000E+00  0.39999999673E+01  0.40000000000E+01  0.51109989000E-03 0.  1.
     -623   -1    0    0    0    0  0.00000000000E+00  0.00000000000E+00  0.12525980253E-10  0.17130000000E+03  0.17130000000E+03 0.  1.
       11    1    1    2    0    0  0.79666361956E-03 -0.24248810104E-02  0.18690891467E-02  0.32045964135E-02  0.51109989000E-03 0.  1.
     -623    1    1    2    0    0  0.32850937956E-02 -0.35987744594E-02  0.25933872037E-02  0.17130000009E+03  0.17130000000E+03 0.  1.
      622    1    1    2    0    0 -0.40817574152E-02  0.60236554699E-02  0.39955374910E+01  0.39967953147E+01  0.10000000000E+00 0.  1.
</event>
<event>
 5   0  0.6262544E+06  0.9118800E+02  0.7818608E-02  0.1180000E+00
       11   -1    0    0    0    0  0.00000000000E+00  0.00000000000E+00  0.39999999673E+01  0.40000000000E+01  0.51109989000E-03 0. -1.
     -623   -1    0    0    0    0  0.00000000000E+00  0.00000000000E+00  0.12525980253E-10  0.17130000000E+03  0.17130000000E+03 0.  1.
       11    1    1    2    0    0 -0.30002449585E-03 -0.36092400030E-02  0.78509608192E-01  0.78594760826E-01  0.51109989000E-03 0. -1.
     -623    1    1    2    0    0  0.30506892010E-02  0.60553639459E-02  0.13622483499E-02  0.17130000014E+03  0.17130000000E+03 0.  1.
      622    1    1    2    0    0 -0.27506647052E-02 -0.24461239429E-02  0.39201281108E+01  0.39214050996E+01  0.10000000000E+00 0. -1.
</event>
<event>
 5   0  0.6262544E+06  0.9118800E+02  0.7818608E-02  0.1180000E+00
       11   -1    0    0    0    0  0.00000000000E+00  0.00000000000E+00  0.39999999673E+01  0.40000000000E+01  0.51109989000E-03 0.  1.
     -623   -1    0    0    0    0  0.00000000000E+00  0.00000000000E+00  0.12525980253E-10  0.17130000000E+03  0.17130000000E+03 0.  1.
       11    1    1    2    0    0  0.99731334886E-03 -0.80700873241E-03  0.20931825861E-02  0.25076948472E-02  0.51109989000E-03 0.  1.
     -623    1    1    2    0    0 -0.18652403094E-02 -0.31047895359E-02  0.16675147524E-02  0.17130000005E+03  0.17130000000E+03 0.  1.
      622    1    1    2    0    0  0.86792696062E-03  0.39117982684E-02  0.39962392701E+01  0.39974922589E+01  0.10000000000E+00 0.  1.
</event>
<event>
 5   0  0.6262544E+06  0.9118800E+02  0.7818608E-02  0.1180000E+00
       11   -1    0    0    0    0  0.00000000000E+00  0.00000000000E+00  0.39999999673E+01  0.40000000000E+01  0.51109989000E-03 0. -1.
     -623   -1    0    0    0    0  0.00000000000E+00  0.00000000000E+00  0.12525980253E-10  0.17130000000E+03  0.17130000000E+03 0. -1.
       11    1    1    2    0    0 -0.52636770345E-02  0.64014155893E-02  0.39475634781E-01  0.40339451929E-01  0.51109989000E-03 0. -1.
     -623    1    1    2    0    0 -0.44728025677E-04 -0.50427209966E-02  0.21306005259E-02  0.17130000009E+03  0.17130000000E+03 0. -1.
      622    1    1    2    0    0  0.53084050602E-02 -0.13586945926E-02  0.39583937322E+01  0.39596604607E+01  0.10000000000E+00 0. -1.
</event>
<event>
 5   0  0.6262544E+06  0.9118800E+02  0.7818608E-02  0.1180000E+00
       11   -1    0    0    0    0  0.00000000000E+00  0.00000000000E+00  0.39999999673E+01  0.40000000000E+01  0.51109989000E-03 0. -1.
     -623   -1    0    0    0    0  0.00000000000E+00  0.00000000000E+00  0.12525980253E-10  0.17130000000E+03  0.17130000000E+03 0. -1.
       11    1    1    2    0    0 -0.50141862436E-02  0.15760457560E-01  0.29187245589E-01  0.33551313120E-01  0.51109989000E-03 0. -1.
     -623    1    1    2    0    0 -0.36936478423E-02 -0.10246555282E-01  0.56386432504E-02  0.17130000044E+03  0.17130000000E+03 0. -1.
      622    1    1    2    0    0  0.87078340859E-02 -0.55139022781E-02  0.39651740785E+01  0.39664482478E+01  0.10000000000E+00 0. -1.
</event>
<event>
 5   0  0.6262544E+06  0.9118800E+02  0.7818608E-02  0.1180000E+00
       11   -1    0    0    0    0  0.00000000000E+00  0.00000000000E+00  0.39999999673E+01  0.40000000000E+01  0.51109989000E-03 0.  1.
     -623   -1    0    0    0    0  0.00000000000E+00  0.00000000000E+00  0.12525980253E-10  0.17130000000E+03  0.17130000000E+03 0.  1.
       11    1    1    2    0    0 -0.47040291238E-02  0.25362132154E-02  0.11351870086E-01  0.12557326244E-01  0.51109989000E-03 0.  1.
     -623    1    1    2    0    0 -0.36547501882E-02  0.63193038910E-02  0.24783312365E-02  0.17130000017E+03  0.17130000000E+03 0.  1.
      622    1    1    2    0    0  0.83587793121E-02 -0.88555171064E-02  0.39861697660E+01  0.39874425003E+01  0.10000000000E+00 0.  1.
</event>
<event>
 5   0  0.6262544E+06  0.9118800E+02  0.7818608E-02  0.1180000E+00
       11   -1    0    0    0    0  0.00000000000E+00  0.00000000000E+00  0.39999999673E+01  0.40000000000E+01  0.51109989000E-03 0.  1.
     -623   -1    0    0    0    0  0.00000000000E+00  0.00000000000E+00  0.12525980253E-10  0.17130000000E+03  0.17130000000E+03 0.  1.
       11    1    1    2    0    0  0.67466953477E-03  0.13605967727E-02  0.61036278039E-02  0.63104594148E-02  0.51109989000E-03 0.  1.
     -623    1    1    2    0    0 -0.26476023532E-02 -0.57384478428E-02  0.14619809782E-02  0.17130000012E+03  0.17130000000E+03 0.  1.
      622    1    1    2    0    0  0.19729328184E-02  0.43778510700E-02  0.39924343585E+01  0.39936894177E+01  0.10000000000E+00 0.  1.
</event>
<event>
 5   0  0.6262544E+06  0.9118800E+02  0.7818608E-02  0.1180000E+00
       11   -1    0    0    0    0  0.00000000000E+00  0.00000000000E+00  0.39999999673E+01  0.40000000000E+01  0.51109989000E-03 0.  1.
     -623   -1    0    0    0    0  0.00000000000E+00  0.00000000000E+00  0.12525980253E-10  0.17130000000E+03  0.17130000000E+03 0.  1.
       11    1    1    2    0    0 -0.79510216114E-03 -0.21689643510E-02  0.74809308568E-02  0.78461546877E-02  0.51109989000E-03 0.  1.
     -623    1    1    2    0    0 -0.62493226744E-04  0.18626603380E-02  0.16179661440E-02  0.17130000002E+03  0.17130000000E+03 0.  1.
      622    1    1    2    0    0  0.85759538789E-03  0.30630401297E-03  0.39909010704E+01  0.39921538276E+01  0.10000000000E+00 0.  1.
</event>
<event>
 5   0  0.6262544E+06  0.9118800E+02  0.7818608E-02  0.1180000E+00
       11   -1    0    0    0    0  0.00000000000E+00  0.00000000000E+00  0.39999999673E+01  0.40000000000E+01  0.51109989000E-03 0. -1.
     -623   -1    0    0    0    0  0.00000000000E+00  0.00000000000E+00  0.12525980253E-10  0.17130000000E+03  0.17130000000E+03 0.  1.
       11    1    1    2    0    0  0.73208482487E-02  0.41462071433E-01  0.90054270058E+00  0.90152654702E+00  0.51109989000E-03 0. -1.
     -623    1    1    2    0    0  0.60180416013E-02 -0.12779895965E-01  0.27600909891E-02  0.17130000060E+03  0.17130000000E+03 0.  1.
      622    1    1    2    0    0 -0.13338889850E-01 -0.28682175468E-01  0.30966971758E+01  0.30984728483E+01  0.10000000000E+00 0. -1.
</event>
<event>
 5   0  0.6262544E+06  0.9118800E+02  0.7818608E-02  0.1180000E+00
       11   -1    0    0    0    0  0.00000000000E+00  0.00000000000E+00  0.39999999673E+01  0.40000000000E+01  0.51109989000E-03 0.  1.
     -623   -1    0    0    0    0  0.00000000000E+00  0.00000000000E+00  0.12525980253E-10  0.17130000000E+03  0.17130000000E+03 0. -1.
       11    1    1    2    0    0  0.26997577184E-02 -0.24021312108E-01  0.49465462630E+00  0.49524516421E+00  0.51109989000E-03 0.  1.
     -623    1    1    2    0    0 -0.11941644994E-01  0.16906185221E-01  0.20381077253E-02  0.17130000126E+03  0.17130000000E+03 0. -1.
      622    1    1    2    0    0  0.92418872752E-02  0.71151268867E-02  0.35033072333E+01  0.35047535732E+01  0.10000000000E+00 0.  1.
</event>
<event>
 5   0  0.6262544E+06  0.9118800E+02  0.7818608E-02  0.1180000E+00
       11   -1    0    0    0    0  0.00000000000E+00  0.00000000000E+00  0.39999999673E+01  0.40000000000E+01  0.51109989000E-03 0. -1.
     -623   -1    0    0    0    0  0.00000000000E+00  0.00000000000E+00  0.12525980253E-10  0.17130000000E+03  0.17130000000E+03 0.  1.
       11    1    1    2    0    0  0.89300047435E-02 -0.21521959039E-01  0.17757682242E+00  0.17909977327E+00  0.51109989000E-03 0. -1.
     -623    1    1    2    0    0  0.68809774703E-02  0.55979924900E-02  0.28979073899E-02  0.17130000025E+03  0.17130000000E+03 0.  1.
      622    1    1    2    0    0 -0.15810982214E-01  0.15923966549E-01  0.38195252376E+01  0.38208999725E+01  0.10000000000E+00 0. -1.
</event>
<event>
 5   0  0.6262544E+06  0.9118800E+02  0.7818608E-02  0.1180000E+00
       11   -1    0    0    0    0  0.00000000000E+00  0.00000000000E+00  0.39999999673E+01  0.40000000000E+01  0.51109989000E-03 0.  1.
     -623   -1    0    0    0    0  0.00000000000E+00  0.00000000000E+00  0.12525980253E-10  0.17130000000E+03  0.17130000000E+03 0.  1.
       11    1    1    2    0    0 -0.14702167654E-01  0.37629143513E-02  0.95288087279E+00  0.95300185320E+00  0.51109989000E-03 0.  1.
     -623    1    1    2    0    0  0.68766291702E-02 -0.14868743105E-01  0.17934474027E-02  0.17130000079E+03  0.17130000000E+03 0.  1.
      622    1    1    2    0    0  0.78255384840E-02  0.11105828754E-01  0.30453256472E+01  0.30469973541E+01  0.10000000000E+00 0.  1.
</event>
<event>
 5   0  0.6262544E+06  0.9118800E+02  0.7818608E-02  0.1180000E+00
       11   -1    0    0    0    0  0.00000000000E+00  0.00000000000E+00  0.39999999673E+01  0.40000000000E+01  0.51109989000E-03 0.  1.
     -623   -1    0    0    0    0  0.00000000000E+00  0.00000000000E+00  0.12525980253E-10  0.17130000000E+03  0.17130000000E+03 0.  1.
       11    1    1    2    0    0 -0.16055012312E-02  0.53391425222E-02  0.17716048154E+00  0.17724892530E+00  0.51109989000E-03 0.  1.
     -623    1    1    2    0    0 -0.71852422830E-02 -0.19028102933E-01  0.14324365206E-02  0.17130000121E+03  0.17130000000E+03 0.  1.
      622    1    1    2    0    0  0.87907435143E-02  0.13688960410E-01  0.38214070493E+01  0.38227498612E+01  0.10000000000E+00 0.  1.
</event>
<event>
 5   0  0.6262544E+06  0.9118800E+02  0.7818608E-02  0.1180000E+00
       11   -1    0    0    0    0  0.00000000000E+00  0.00000000000E+00  0.39999999673E+01  0.40000000000E+01  0.51109989000E-03 0.  1.
     -623   -1    0    0    0    0  0.00000000000E+00  0.00000000000E+00  0.12525980253E-10  0.17130000000E+03  0.17130000000E+03 0.  1.
       11    1    1    2    0    0  0.15315483783E+00 -0.14792401796E-01  0.10141820132E+01  0.10257878127E+01  0.51109989000E-03 0.  1.
     -623    1    1    2    0    0 -0.15576985498E+00 -0.12953627627E-01  0.13489894068E-01  0.17130007184E+03  0.17130000000E+03 0.  1.
      622    1    1    2    0    0  0.26150171469E-02  0.27746029423E-01  0.29723280601E+01  0.29741403426E+01  0.10000000000E+00 0.  1.
</event>
<event>
 5   0  0.6262544E+06  0.9118800E+02  0.7818608E-02  0.1180000E+00
       11   -1    0    0    0    0  0.00000000000E+00  0.00000000000E+00  0.39999999673E+01  0.40000000000E+01  0.51109989000E-03 0.  1.
     -623   -1    0    0    0    0  0.00000000000E+00  0.00000000000E+00  0.12525980253E-10  0.17130000000E+03  0.17130000000E+03 0.  1.
       11    1    1    2    0    0 -0.40048470919E-02 -0.61857624711E-03  0.70733836631E-01  0.70851664079E-01  0.51109989000E-03 0.  1.
     -623    1    1    2    0    0 -0.11130268213E-02 -0.31825518189E-02  0.13957536618E-02  0.17130000004E+03  0.17130000000E+03 0.  1.
      622    1    1    2    0    0  0.51178739132E-02  0.38011280660E-02  0.39278703771E+01  0.39291482971E+01  0.10000000000E+00 0.  1.
</event>
<event>
 5   0  0.6262544E+06  0.9118800E+02  0.7818608E-02  0.1180000E+00
       11   -1    0    0    0    0  0.00000000000E+00  0.00000000000E+00  0.39999999673E+01  0.40000000000E+01  0.51109989000E-03 0. -1.
     -623   -1    0    0    0    0  0.00000000000E+00  0.00000000000E+00  0.12525980253E-10  0.17130000000E+03  0.17130000000E+03 0. -1.
       11    1    1    2    0    0 -0.97183836815E-02 -0.13315640959E+00  0.92606170979E+00  0.93563648281E+00  0.51109989000E-03 0. -1.
     -623    1    1    2    0    0 -0.33871700376E-01 -0.60331198129E-01  0.17650475596E-01  0.17130001488E+03  0.17130000000E+03 0. -1.
      622    1    1    2    0    0  0.43590084058E-01  0.19348760772E+00  0.30562877820E+01  0.30643486349E+01  0.10000000000E+00 0. -1.
</event>
<event>
 5   0  0.6262544E+06  0.9118800E+02  0.7818608E-02  0.1180000E+00
       11   -1    0    0    0    0  0.00000000000E+00  0.00000000000E+00  0.39999999673E+01  0.40000000000E+01  0.51109989000E-03 0.  1.
     -623   -1    0    0    0    0  0.00000000000E+00  0.00000000000E+00  0.12525980253E-10  0.17130000000E+03  0.17130000000E+03 0.  1.
       11    1    1    2    0    0  0.35666592346E-02  0.93172369402E-02  0.37949624686E-01  0.39242415817E-01  0.51109989000E-03 0.  1.
     -623    1    1    2    0    0 -0.16344196042E-02 -0.18847309483E-01  0.25683491293E-02  0.17130000106E+03  0.17130000000E+03 0.  1.
      622    1    1    2    0    0 -0.19322396304E-02  0.95300725432E-02  0.39594819936E+01  0.39607565204E+01  0.10000000000E+00 0.  1.
</event>
<event>
 5   0  0.6262544E+06  0.9118800E+02  0.7818608E-02  0.1180000E+00
       11   -1    0    0    0    0  0.00000000000E+00  0.00000000000E+00  0.39999999673E+01  0.40000000000E+01  0.51109989000E-03 0.  1.
     -623   -1    0    0    0    0  0.00000000000E+00  0.00000000000E+00  0.12525980253E-10  0.17130000000E+03  0.17130000000E+03 0. -1.
       11    1    1    2    0    0 -0.24724345466E-02 -0.52399279319E-02  0.15183538038E-01  0.16259484207E-01  0.51109989000E-03 0.  1.
     -623    1    1    2    0    0  0.63310841612E-02  0.87070976367E-02  0.23349460421E-02  0.17130000035E+03  0.17130000000E+03 0. -1.
      622    1    1    2    0    0 -0.38586496146E-02 -0.34671697048E-02  0.39824814833E+01  0.39837401616E+01  0.10000000000E+00 0.  1.
</event>
<event>
 5   0  0.6262544E+06  0.9118800E+02  0.7818608E-02  0.1180000E+00
       11   -1    0    0    0    0  0.00000000000E+00  0.00000000000E+00  0.39999999673E+01  0.40000000000E+01  0.51109989000E-03 0. -1.
     -623   -1    0    0    0    0  0.00000000000E+00  0.00000000000E+00  0.12525980253E-10  0.17130000000E+03  0.17130000000E+03 0. -1.
       11    1    1    2    0    0 -0.13747480680E-01 -0.12985753409E-01  0.19137898943E+00  0.19231173088E+00  0.51109989000E-03 0. -1.
     -623    1    1    2    0    0 -0.10935449734E-01  0.10275610552E-02  0.23452515156E-02  0.17130000037E+03  0.17130000000E+03 0. -1.
      622    1    1    2    0    0  0.24682930414E-01  0.11958192353E-01  0.38062757264E+01  0.38076879009E+01  0.10000000000E+00 0. -1.
</event>
<event>
 5   0  0.6262544E+06  0.9118800E+02  0.7818608E-02  0.1180000E+00
       11   -1    0    0    0    0  0.00000000000E+00  0.00000000000E+00  0.39999999673E+01  0.40000000000E+01  0.51109989000E-03 0.  1.
     -623   -1    0    0    0    0  0.00000000000E+00  0.00000000000E+00  0.12525980253E-10  0.17130000000E+03  0.17130000000E+03 0.  1.
       11    1    1    2    0    0  0.17110008977E-02  0.43381564002E-02  0.15695709399E-01  0.16381808254E-01  0.51109989000E-03 0.  1.
     -623    1    1    2    0    0 -0.48670785861E-02 -0.31794468376E-02  0.19429332661E-02  0.17130000011E+03  0.17130000000E+03 0.  1.
      622    1    1    2    0    0  0.31560776882E-02 -0.11587095626E-02  0.39823613246E+01  0.39836180820E+01  0.10000000000E+00 0.  1.
</event>
<event>
 5   0  0.6262544E+06  0.9118800E+02  0.7818608E-02  0.1180000E+00
       11   -1    0    0    0    0  0.00000000000E+00  0.00000000000E+00  0.39999999673E+01  0.40000000000E+01  0.51109989000E-03 0.  1.
     -623   -1    0    0    0    0  0.00000000000E+00  0.00000000000E+00  0.12525980253E-10  0.17130000000E+03  0.17130000000E+03 0. -1.
       11    1    1    2    0    0 -0.30068048812E-02  0.10895454309E-02  0.30874661799E-02  0.44745564416E-02  0.51109989000E-03 0.  1.
     -623    1    1    2    0    0  0.14471872200E-01 -0.21474708961E-01  0.27091069146E-02  0.17130000198E+03  0.17130000000E+03 0. -1.
      622    1    1    2    0    0 -0.11465067319E-01  0.20385163531E-01  0.39942033944E+01  0.39955234649E+01  0.10000000000E+00 0.  1.
</event>
<event>
 5   0  0.6262544E+06  0.9118800E+02  0.7818608E-02  0.1180000E+00
       11   -1    0    0    0    0  0.00000000000E+00  0.00000000000E+00  0.39999999673E+01  0.40000000000E+01  0.51109989000E-03 0. -1.
     -623   -1    0    0    0    0  0.00000000000E+00  0.00000000000E+00  0.12525980253E-10  0.17130000000E+03  0.17130000000E+03 0. -1.
       11    1    1    2    0    0 -0.11447148387E-01 -0.17912042209E-02  0.21346704172E+00  0.21378186252E+00  0.51109989000E-03 0. -1.
     -623    1    1    2    0    0  0.86753966934E-02 -0.19953360558E-02  0.16387457168E-02  0.17130000024E+03  0.17130000000E+03 0. -1.
      622    1    1    2    0    0  0.27717516936E-02  0.37865402768E-02  0.37848941800E+01  0.37862178984E+01  0.10000000000E+00 0. -1.
</event>
<event>
 5   0  0.6262544E+06  0.9118800E+02  0.7818608E-02  0.1180000E+00
       11   -1    0    0    0    0  0.00000000000E+00  0.00000000000E+00  0.39999999673E+01  0.40000000000E+01  0.51109989000E-03 0.  1.
     -623   -1    0    0    0    0  0.00000000000E+00  0.00000000000E+00  0.12525980253E-10  0.17130000000E+03  0.17130000000E+03 0. -1.
       11    1    1    2    0    0  0.28947226692E-01  0.13407452331E-01  0.14632732506E+01  0.14636210469E+01  0.51109989000E-03 0.  1.
     -623    1    1    2    0    0 -0.71860950758E-02 -0.16226308449E-01  0.24157746016E-02  0.17130000094E+03  0.17130000000E+03 0. -1.
      622    1    1    2    0    0 -0.21761131616E-01  0.28188561180E-02  0.25343109423E+01  0.25363780170E+01  0.10000000000E+00 0.  1.
</event>
<event>
 5   0  0.6262544E+06  0.9118800E+02  0.7818608E-02  0.1180000E+00
       11   -1    0    0    0    0  0.00000000000E+00  0.00000000000E+00  0.39999999673E+01  0.40000000000E+01  0.51109989000E-03 0.  1.
     -623   -1    0    0    0    0  0.00000000000E+00  0.00000000000E+00  0.12525980253E-10  0.17130000000E+03  0.17130000000E+03 0. -1.
       11    1    1    2    0    0 -0.50826887595E-01 -0.61636286230E-01  0.11794854095E+01  0.11821880124E+01  0.51109989000E-03 0.  1.
     -623    1    1    2    0    0 -0.25998769922E-02 -0.15848004528E-01  0.60516752239E-02  0.17130000086E+03  0.17130000000E+03 0. -1.
      622    1    1    2    0    0  0.53426764587E-01  0.77484290758E-01  0.28144628827E+01  0.28178111279E+01  0.10000000000E+00 0.  0.
</event>
<event>
 5   0  0.6262544E+06  0.9118800E+02  0.7818608E-02  0.1180000E+00
       11   -1    0    0    0    0  0.00000000000E+00  0.00000000000E+00  0.39999999673E+01  0.40000000000E+01  0.51109989000E-03 0. -1.
     -623   -1    0    0    0    0  0.00000000000E+00  0.00000000000E+00  0.12525980253E-10  0.17130000000E+03  0.17130000000E+03 0.  1.
       11    1    1    2    0    0 -0.69138958701E-02 -0.17994020799E-01  0.13941942558E+00  0.14074666672E+00  0.51109989000E-03 0. -1.
     -623    1    1    2    0    0  0.39488779368E-02 -0.11370247832E-02  0.26716572998E-02  0.17130000007E+03  0.17130000000E+03 0.  1.
      622    1    1    2    0    0  0.29650179333E-02  0.19131045582E-01  0.38579088844E+01  0.38592532631E+01  0.10000000000E+00 0. -1.
</event>
<event>
 5   0  0.6262544E+06  0.9118800E+02  0.7818608E-02  0.1180000E+00
       11   -1    0    0    0    0  0.00000000000E+00  0.00000000000E+00  0.39999999673E+01  0.40000000000E+01  0.51109989000E-03 0. -1.
     -623   -1    0    0    0    0  0.00000000000E+00  0.00000000000E+00  0.12525980253E-10  0.17130000000E+03  0.17130000000E+03 0. -1.
       11    1    1    2    0    0  0.15413671821E-01  0.35225356005E-01  0.37613754161E+00  0.37809802752E+00  0.51109989000E-03 0. -1.
     -623    1    1    2    0    0 -0.52452460308E-02 -0.19837435325E-03  0.35250427654E-02  0.17130000012E+03  0.17130000000E+03 0. -1.
      622    1    1    2    0    0 -0.10168425790E-01 -0.35026981652E-01  0.36203373830E+01  0.36219018558E+01  0.10000000000E+00 0. -1.
</event>
<event>
 5   0  0.6262544E+06  0.9118800E+02  0.7818608E-02  0.1180000E+00
       11   -1    0    0    0    0  0.00000000000E+00  0.00000000000E+00  0.39999999673E+01  0.40000000000E+01  0.51109989000E-03 0. -1.
     -623   -1    0    0    0    0  0.00000000000E+00  0.00000000000E+00  0.12525980253E-10  0.17130000000E+03  0.17130000000E+03 0. -1.
       11    1    1    2    0    0 -0.75280812050E-02 -0.13983064917E-01  0.95565218373E+00  0.95578426206E+00  0.51109989000E-03 0. -1.
     -623    1    1    2    0    0 -0.14339507055E-01 -0.28305889493E-02  0.19006258282E-02  0.17130000063E+03  0.17130000000E+03 0. -1.
      622    1    1    2    0    0  0.21867588260E-01  0.16813653867E-01  0.30424471578E+01  0.30442151038E+01  0.10000000000E+00 0. -1.
</event>
<event>
 5   0  0.6262544E+06  0.9118800E+02  0.7818608E-02  0.1180000E+00
       11   -1    0    0    0    0  0.00000000000E+00  0.00000000000E+00  0.39999999673E+01  0.40000000000E+01  0.51109989000E-03 0.  1.
     -623   -1    0    0    0    0  0.00000000000E+00  0.00000000000E+00  0.12525980253E-10  0.17130000000E+03  0.17130000000E+03 0. -1.
       11    1    1    2    0    0 -0.36800300872E-02 -0.20563498937E-01  0.67320031402E+00  0.67352455347E+00  0.51109989000E-03 0.  1.
     -623    1    1    2    0    0 -0.80650711186E-03 -0.12102995200E-02  0.19019770618E-02  0.17130000002E+03  0.17130000000E+03 0. -1.
      622    1    1    2    0    0  0.44865371991E-02  0.21773798457E-01  0.33248976763E+01  0.33264754298E+01  0.10000000000E+00 0.  0.
</event>
<event>
 5   0  0.6262544E+06  0.9118800E+02  0.7818608E-02  0.1180000E+00
       11   -1    0    0    0    0  0.00000000000E+00  0.00000000000E+00  0.39999999673E+01  0.40000000000E+01  0.51109989000E-03 0.  1.
     -623   -1    0    0    0    0  0.00000000000E+00  0.00000000000E+00  0.12525980253E-10  0.17130000000E+03  0.17130000000E+03 0. -1.
       11    1    1    2    0    0 -0.16409621466E-01  0.51138935918E-01  0.12233622265E+00  0.13360718184E+00  0.51109989000E-03 0.  1.
     -623    1    1    2    0    0 -0.32160105660E-01  0.25948494382E-02  0.13246630933E-01  0.17130000355E+03  0.17130000000E+03 0. -1.
      622    1    1    2    0    0  0.48569727127E-01 -0.53733785356E-01  0.38644171138E+01  0.38663892674E+01  0.10000000000E+00 0.  0.
</event>
<event>
 5   0  0.6262544E+06  0.9118800E+02  0.7818608E-02  0.1180000E+00
       11   -1    0    0    0    0  0.00000000000E+00  0.00000000000E+00  0.39999999673E+01  0.40000000000E+01  0.51109989000E-03 0.  1.
     -623   -1    0    0    0    0  0.00000000000E+00  0.00000000000E+00  0.12525980253E-10  0.17130000000E+03  0.17130000000E+03 0. -1.
       11    1    1    2    0    0  0.38658476426E-02  0.10911941583E-02  0.71964603354E-02  0.82574661455E-02  0.51109989000E-03 0.  1.
     -623    1    1    2    0    0 -0.13536143017E-01 -0.87383072854E-02  0.23335738314E-02  0.17130000077E+03  0.17130000000E+03 0. -1.
      622    1    1    2    0    0  0.96702953754E-02  0.76471131277E-02  0.39904699335E+01  0.39917417605E+01  0.10000000000E+00 0.  1.
</event>
<event>
 5   0  0.6262544E+06  0.9118800E+02  0.7818608E-02  0.1180000E+00
       11   -1    0    0    0    0  0.00000000000E+00  0.00000000000E+00  0.39999999673E+01  0.40000000000E+01  0.51109989000E-03 0. -1.
     -623   -1    0    0    0    0  0.00000000000E+00  0.00000000000E+00  0.12525980253E-10  0.17130000000E+03  0.17130000000E+03 0.  1.
       11    1    1    2    0    0 -0.12823007612E-02 -0.28444237226E-02  0.15367191568E-01  0.15689067574E-01  0.51109989000E-03 0. -1.
     -623    1    1    2    0    0  0.38549978397E-02  0.33001509043E-02  0.15779025934E-02  0.17130000008E+03  0.17130000000E+03 0.  1.
      622    1    1    2    0    0 -0.25726970786E-02 -0.45572718179E-03  0.39830548733E+01  0.39843108501E+01  0.10000000000E+00 0. -1.
</event>
<event>
 5   0  0.6262544E+06  0.9118800E+02  0.7818608E-02  0.1180000E+00
       11   -1    0    0    0    0  0.00000000000E+00  0.00000000000E+00  0.39999999673E+01  0.40000000000E+01  0.51109989000E-03 0. -1.
     -623   -1    0    0    0    0  0.00000000000E+00  0.00000000000E+00  0.12525980253E-10  0.17130000000E+03  0.17130000000E+03 0. -1.
       11    1    1    2    0    0 -0.11568955340E-01  0.16021438884E-01  0.58876287979E-01  0.62106406596E-01  0.51109989000E-03 0. -1.
     -623    1    1    2    0    0  0.17451736705E-01  0.65158170194E-02  0.45699885902E-02  0.17130000107E+03  0.17130000000E+03 0. -1.
      622    1    1    2    0    0 -0.58827813648E-02 -0.22537255904E-01  0.39365536908E+01  0.39378925195E+01  0.10000000000E+00 0. -1.
</event>
<event>
 5   0  0.6262544E+06  0.9118800E+02  0.7818608E-02  0.1180000E+00
       11   -1    0    0    0    0  0.00000000000E+00  0.00000000000E+00  0.39999999673E+01  0.40000000000E+01  0.51109989000E-03 0. -1.
     -623   -1    0    0    0    0  0.00000000000E+00  0.00000000000E+00  0.12525980253E-10  0.17130000000E+03  0.17130000000E+03 0. -1.
       11    1    1    2    0    0 -0.12747160505E-01 -0.34343317723E-02  0.23104428646E-01  0.26615044276E-01  0.51109989000E-03 0. -1.
     -623    1    1    2    0    0  0.19007506642E-01 -0.57134334768E-02  0.47858392978E-02  0.17130000122E+03  0.17130000000E+03 0. -1.
      622    1    1    2    0    0 -0.62603461372E-02  0.91477652490E-02  0.39721096994E+01  0.39733837390E+01  0.10000000000E+00 0. -1.
</event>
<event>
 5   0  0.6262544E+06  0.9118800E+02  0.7818608E-02  0.1180000E+00
       11   -1    0    0    0    0  0.00000000000E+00  0.00000000000E+00  0.39999999673E+01  0.40000000000E+01  0.51109989000E-03 0. -1.
     -623   -1    0    0    0    0  0.00000000000E+00  0.00000000000E+00  0.12525980253E-10  0.17130000000E+03  0.17130000000E+03 0. -1.
       11    1    1    2    0    0  0.28196292276E-02  0.24060812336E-02  0.47587819642E+00  0.47589290664E+00  0.51109989000E-03 0. -1.
     -623    1    1    2    0    0 -0.40227754493E-03 -0.33872844595E-02  0.14347684628E-02  0.17130000004E+03  0.17130000000E+03 0. -1.
      622    1    1    2    0    0 -0.24173516827E-02  0.98120322578E-03  0.35226870023E+01  0.35241070532E+01  0.10000000000E+00 0.  1.
</event>
<event>
 5   0  0.6262544E+06  0.9118800E+02  0.7818608E-02  0.1180000E+00
       11   -1    0    0    0    0  0.00000000000E+00  0.00000000000E+00  0.39999999673E+01  0.40000000000E+01  0.51109989000E-03 0.  1.
     -623   -1    0    0    0    0  0.00000000000E+00  0.00000000000E+00  0.12525980253E-10  0.17130000000E+03  0.17130000000E+03 0.  1.
       11    1    1    2    0    0 -0.14549854802E-01  0.21227705493E+00  0.32657427213E+00  0.38977463074E+00  0.51109989000E-03 0.  1.
     -623    1    1    2    0    0  0.79067681750E-02 -0.18744513936E+00  0.64792133537E-01  0.17130011499E+03  0.17130000000E+03 0.  1.
      622    1    1    2    0    0  0.66430866274E-02 -0.24831915566E-01  0.36086335617E+01  0.36101103774E+01  0.10000000000E+00 0.  1.
</event>
<event>
 5   0  0.6262544E+06  0.9118800E+02  0.7818608E-02  0.1180000E+00
       11   -1    0    0    0    0  0.00000000000E+00  0.00000000000E+00  0.39999999673E+01  0.40000000000E+01  0.51109989000E-03 0.  1.
     -623   -1    0    0    0    0  0.00000000000E+00  0.00000000000E+00  0.12525980253E-10  0.17130000000E+03  0.17130000000E+03 0. -1.
       11    1    1    2    0    0  0.13040229277E-01 -0.11194874236E-01  0.76023081365E-01  0.77943203095E-01  0.51109989000E-03 0.  1.
     -623    1    1    2    0    0  0.16536761766E-01  0.77765376197E-02  0.33091956407E-02  0.17130000101E+03  0.17130000000E+03 0. -1.
      622    1    1    2    0    0 -0.29576991043E-01  0.34183366165E-02  0.39206676904E+01  0.39220557902E+01  0.10000000000E+00 0.  1.
</event>
<event>
 5   0  0.6262544E+06  0.9118800E+02  0.7818608E-02  0.1180000E+00
       11   -1    0    0    0    0  0.00000000000E+00  0.00000000000E+00  0.39999999673E+01  0.40000000000E+01  0.51109989000E-03 0. -1.
     -623   -1    0    0    0    0  0.00000000000E+00  0.00000000000E+00  0.12525980253E-10  0.17130000000E+03  0.17130000000E+03 0.  1.
       11    1    1    2    0    0  0.56388004741E-02 -0.81780202038E-02  0.55734537625E-01  0.56615156906E-01  0.51109989000E-03 0. -1.
     -623    1    1    2    0    0 -0.15624272776E-01  0.45379997921E-02  0.21638506522E-02  0.17130000079E+03  0.17130000000E+03 0.  1.
      622    1    1    2    0    0  0.99854723024E-02  0.36400204117E-02  0.39421015791E+01  0.39433840568E+01  0.10000000000E+00 0. -1.
</event>
<event>
 5   0  0.6262544E+06  0.9118800E+02  0.7818608E-02  0.1180000E+00
       11   -1    0    0    0    0  0.00000000000E+00  0.00000000000E+00  0.39999999673E+01  0.40000000000E+01  0.51109989000E-03 0.  1.
     -623   -1    0    0    0    0  0.00000000000E+00  0.00000000000E+00  0.12525980253E-10  0.17130000000E+03  0.17130000000E+03 0.  1.
       11    1    1    2    0    0  0.76018745222E-02  0.50848785774E-02  0.22944562332E-01  0.24705437634E-01  0.51109989000E-03 0.  1.
     -623    1    1    2    0    0 -0.45830227833E-02  0.38123102420E-02  0.30300469848E-02  0.17130000013E+03  0.17130000000E+03 0.  1.
      622    1    1    2    0    0 -0.30188517389E-02 -0.88971888194E-02  0.39740253580E+01  0.39752944318E+01  0.10000000000E+00 0.  1.
</event>
<event>
 5   0  0.6262544E+06  0.9118800E+02  0.7818608E-02  0.1180000E+00
       11   -1    0    0    0    0  0.00000000000E+00  0.00000000000E+00  0.39999999673E+01  0.40000000000E+01  0.51109989000E-03 0.  1.
     -623   -1    0    0    0    0  0.00000000000E+00  0.00000000000E+00  0.12525980253E-10  0.17130000000E+03  0.17130000000E+03 0.  1.
       11    1    1    2    0    0 -0.21946592045E-02  0.13552577491E-02  0.34257499758E-01  0.34358270698E-01  0.51109989000E-03 0.  1.
     -623    1    1    2    0    0  0.23966982345E-02 -0.80683495139E-03  0.13618359509E-02  0.17130000002E+03  0.17130000000E+03 0.  1.
      622    1    1    2    0    0 -0.20203902990E-03 -0.54842279770E-03  0.39643806315E+01  0.39656417050E+01  0.10000000000E+00 0.  1.
</event>
<event>
 5   0  0.6262544E+06  0.9118800E+02  0.7818608E-02  0.1180000E+00
       11   -1    0    0    0    0  0.00000000000E+00  0.00000000000E+00  0.39999999673E+01  0.40000000000E+01  0.51109989000E-03 0.  1.
     -623   -1    0    0    0    0  0.00000000000E+00  0.00000000000E+00  0.12525980253E-10  0.17130000000E+03  0.17130000000E+03 0. -1.
       11    1    1    2    0    0 -0.65013373105E-02  0.11037038742E-01  0.98989124605E+00  0.98997425413E+00  0.51109989000E-03 0.  1.
     -623    1    1    2    0    0  0.25635469430E-02  0.16004389304E-02  0.17737062219E-02  0.17130000004E+03  0.17130000000E+03 0. -1.
      622    1    1    2    0    0  0.39377903675E-02 -0.12637477673E-01  0.30083350151E+01  0.30100257100E+01  0.10000000000E+00 0.  1.
</event>
<event>
 5   0  0.6262544E+06  0.9118800E+02  0.7818608E-02  0.1180000E+00
       11   -1    0    0    0    0  0.00000000000E+00  0.00000000000E+00  0.39999999673E+01  0.40000000000E+01  0.51109989000E-03 0. -1.
     -623   -1    0    0    0    0  0.00000000000E+00  0.00000000000E+00  0.12525980253E-10  0.17130000000E+03  0.17130000000E+03 0.  1.
       11    1    1    2    0    0 -0.35780187239E-01 -0.43717992869E-02  0.52479105387E+00  0.52602779953E+00  0.51109989000E-03 0. -1.
     -623    1    1    2    0    0  0.10160099164E-01 -0.11039981984E-01  0.28056804389E-02  0.17130000068E+03  0.17130000000E+03 0.  1.
      622    1    1    2    0    0  0.25620088074E-01  0.15411781271E-01  0.34724032330E+01  0.34739715204E+01  0.10000000000E+00 0. -1.
</event>
<event>
 5   0  0.6262544E+06  0.9118800E+02  0.7818608E-02  0.1180000E+00
       11   -1    0    0    0    0  0.00000000000E+00  0.00000000000E+00  0.39999999673E+01  0.40000000000E+01  0.51109989000E-03 0. -1.
     -623   -1    0    0    0    0  0.00000000000E+00  0.00000000000E+00  0.12525980253E-10  0.17130000000E+03  0.17130000000E+03 0.  1.
       11    1    1    2    0    0 -0.32039037851E-01 -0.15226753033E-01  0.18622469242E+00  0.18957386751E+00  0.51109989000E-03 0. -1.
     -623    1    1    2    0    0  0.22240500828E-01 -0.15669511568E-01  0.48016936134E-02  0.17130000223E+03  0.17130000000E+03 0.  1.
      622    1    1    2    0    0  0.97985370224E-02  0.30896264601E-01  0.38089735813E+01  0.38104239047E+01  0.10000000000E+00 0. -1.
</event>
<event>
 5   0  0.6262544E+06  0.9118800E+02  0.7818608E-02  0.1180000E+00
       11   -1    0    0    0    0  0.00000000000E+00  0.00000000000E+00  0.39999999673E+01  0.40000000000E+01  0.51109989000E-03 0. -1.
     -623   -1    0    0    0    0  0.00000000000E+00  0.00000000000E+00  0.12525980253E-10  0.17130000000E+03  0.17130000000E+03 0. -1.
       11    1    1    2    0    0 -0.34029744493E-01  0.17755935145E-01  0.85883574269E+00  0.85969319579E+00  0.51109989000E-03 0. -1.
     -623    1    1    2    0    0  0.23134791807E-03 -0.64612615014E-02  0.26524709838E-02  0.17130000014E+03  0.17130000000E+03 0. -1.
      622    1    1    2    0    0  0.33798396575E-01 -0.11294673644E-01  0.31385117537E+01  0.31403066617E+01  0.10000000000E+00 0. -1.
</event>
<event>
 5   0  0.6262544E+06  0.9118800E+02  0.7818608E-02  0.1180000E+00
       11   -1    0    0    0    0  0.00000000000E+00  0.00000000000E+00  0.39999999673E+01  0.40000000000E+01  0.51109989000E-03 0.  1.
     -623   -1    0    0    0    0  0.00000000000E+00  0.00000000000E+00  0.12525980253E-10  0.17130000000E+03  0.17130000000E+03 0. -1.
       11    1    1    2    0    0 -0.20648060863E-03 -0.11245773968E-02  0.18031511541E-02  0.21954238191E-02  0.51109989000E-03 0. -1.
     -623    1    1    2    0    0  0.33967259451E-01 -0.18876314304E-01  0.18401902348E-02  0.17130000442E+03  0.17130000000E+03 0. -1.
      622    1    1    2    0    0 -0.33760778843E-01  0.20000891701E-01  0.39963566260E+01  0.39978001586E+01  0.10000000000E+00 0.  1.
</event>
<event>
 5   0  0.6262544E+06  0.9118800E+02  0.7818608E-02  0.1180000E+00
       11   -1    0    0    0    0  0.00000000000E+00  0.00000000000E+00  0.39999999673E+01  0.40000000000E+01  0.51109989000E-03 0.  1.
     -623   -1    0    0    0    0  0.00000000000E+00  0.00000000000E+00  0.12525980253E-10  0.17130000000E+03  0.17130000000E+03 0.  1.
       11    1    1    2    0    0  0.10305491534E-02 -0.47632756506E-02  0.42740438585E-02  0.65022688719E-02  0.51109989000E-03 0.  1.
     -623    1    1    2    0    0 -0.61495318145E-02  0.65386303210E-03  0.34859679891E-02  0.17130000015E+03  0.17130000000E+03 0.  1.
      622    1    1    2    0    0  0.51189826613E-02  0.41094126184E-02  0.39922399557E+01  0.39934975842E+01  0.10000000000E+00 0.  1.
</event>
<event>
 5   0  0.6262544E+06  0.9118800E+02  0.7818608E-02  0.1180000E+00
       11   -1    0    0    0    0  0.00000000000E+00  0.00000000000E+00  0.39999999673E+01  0.40000000000E+01  0.51109989000E-03 0. -1.
     -623   -1    0    0    0    0  0.00000000000E+00  0.00000000000E+00  0.12525980253E-10  0.17130000000E+03  0.17130000000E+03 0. -1.
       11    1    1    2    0    0  0.56165459146E-01 -0.37991418780E-02  0.99282693781E+00  0.99442173244E+00  0.51109989000E-03 0. -1.
     -623    1    1    2    0    0 -0.13422040945E-01 -0.10980933432E-01  0.36001957314E-02  0.17130000092E+03  0.17130000000E+03 0. -1.
      622    1    1    2    0    0 -0.42743418201E-01  0.14780075310E-01  0.30035728338E+01  0.30055773519E+01  0.10000000000E+00 0. -1.
</event>
<event>
 5   0  0.6262544E+06  0.9118800E+02  0.7818608E-02  0.1180000E+00
       11   -1    0    0    0    0  0.00000000000E+00  0.00000000000E+00  0.39999999673E+01  0.40000000000E+01  0.51109989000E-03 0.  1.
     -623   -1    0    0    0    0  0.00000000000E+00  0.00000000000E+00  0.12525980253E-10  0.17130000000E+03  0.17130000000E+03 0.  1.
       11    1    1    2    0    0  0.11978416490E-01  0.25712196391E-02  0.21392758122E-02  0.12447142451E-01  0.51109989000E-03 0.  1.
     -623    1    1    2    0    0 -0.56760245156E-02  0.82812613381E-02  0.11582373856E-01  0.17130000069E+03  0.17130000000E+03 0.  1.
      622    1    1    2    0    0 -0.63023919740E-02 -0.10852480977E-01  0.39862783177E+01  0.39875521718E+01  0.10000000000E+00 0.  1.
</event>
<event>
 5   0  0.6262544E+06  0.9118800E+02  0.7818608E-02  0.1180000E+00
       11   -1    0    0    0    0  0.00000000000E+00  0.00000000000E+00  0.39999999673E+01  0.40000000000E+01  0.51109989000E-03 0.  1.
     -623   -1    0    0    0    0  0.00000000000E+00  0.00000000000E+00  0.12525980253E-10  0.17130000000E+03  0.17130000000E+03 0.  1.
       11    1    1    2    0    0 -0.15526970714E-01 -0.98605988254E-02  0.52005153506E+00  0.52037695814E+00  0.51109989000E-03 0.  1.
     -623    1    1    2    0    0  0.55043745914E-02  0.54992434495E-02  0.17799853387E-02  0.17130000019E+03  0.17130000000E+03 0.  1.
      622    1    1    2    0    0  0.10022596122E-01  0.43613553757E-02  0.34781684471E+01  0.34796228560E+01  0.10000000000E+00 0.  1.
</event>
<event>
 5   0  0.6262544E+06  0.9118800E+02  0.7818608E-02  0.1180000E+00
       11   -1    0    0    0    0  0.00000000000E+00  0.00000000000E+00  0.39999999673E+01  0.40000000000E+01  0.51109989000E-03 0.  1.
     -623   -1    0    0    0    0  0.00000000000E+00  0.00000000000E+00  0.12525980253E-10  0.17130000000E+03  0.17130000000E+03 0.  1.
       11    1    1    2    0    0 -0.45846239068E-02 -0.78820262229E-02  0.21555948493E+00  0.21575286296E+00  0.51109989000E-03 0.  1.
     -623    1    1    2    0    0  0.22863528118E-01  0.90757244740E-02  0.15609668510E-02  0.17130000177E+03  0.17130000000E+03 0.  1.
      622    1    1    2    0    0 -0.18278904211E-01 -0.11936982511E-02  0.37828795156E+01  0.37842453637E+01  0.10000000000E+00 0.  1.
</event>
<event>
 5   0  0.6262544E+06  0.9118800E+02  0.7818608E-02  0.1180000E+00
       11   -1    0    0    0    0  0.00000000000E+00  0.00000000000E+00  0.39999999673E+01  0.40000000000E+01  0.51109989000E-03 0.  1.
     -623   -1    0    0    0    0  0.00000000000E+00  0.00000000000E+00  0.12525980253E-10  0.17130000000E+03  0.17130000000E+03 0.  1.
       11    1    1    2    0    0 -0.42099532863E-02 -0.10546192106E-01  0.74072352729E-02  0.13567395921E-01  0.51109989000E-03 0.  1.
     -623    1    1    2    0    0 -0.48515243087E-02  0.63046570284E-02  0.74274846653E-02  0.17130000035E+03  0.17130000000E+03 0.  1.
      622    1    1    2    0    0  0.90614775951E-02  0.42415350772E-02  0.39851652475E+01  0.39864322584E+01  0.10000000000E+00 0.  1.
</event>
<event>
 5   0  0.6262544E+06  0.9118800E+02  0.7818608E-02  0.1180000E+00
       11   -1    0    0    0    0  0.00000000000E+00  0.00000000000E+00  0.39999999673E+01  0.40000000000E+01  0.51109989000E-03 0.  1.
     -623   -1    0    0    0    0  0.00000000000E+00  0.00000000000E+00  0.12525980253E-10  0.17130000000E+03  0.17130000000E+03 0.  1.
       11    1    1    2    0    0  0.47660939684E-02  0.50718873952E-02  0.39329619200E-01  0.39943959005E-01  0.51109989000E-03 0.  1.
     -623    1    1    2    0    0 -0.65530776873E-02  0.30804871085E-02  0.18860778376E-02  0.17130000016E+03  0.17130000000E+03 0.  1.
      622    1    1    2    0    0  0.17869837189E-02 -0.81523745037E-02  0.39587842703E+01  0.39600558776E+01  0.10000000000E+00 0.  1.
</event>
<event>
 5   0  0.6262544E+06  0.9118800E+02  0.7818608E-02  0.1180000E+00
       11   -1    0    0    0    0  0.00000000000E+00  0.00000000000E+00  0.39999999673E+01  0.40000000000E+01  0.51109989000E-03 0.  1.
     -623   -1    0    0    0    0  0.00000000000E+00  0.00000000000E+00  0.12525980253E-10  0.17130000000E+03  0.17130000000E+03 0. -1.
       11    1    1    2    0    0 -0.36492672282E-01  0.14207916884E-01  0.22473997106E+00  0.22812692924E+00  0.51109989000E-03 0.  1.
     -623    1    1    2    0    0  0.58454754973E-02  0.12885524013E-01  0.49353137283E-02  0.17130000066E+03  0.17130000000E+03 0. -1.
      622    1    1    2    0    0  0.30647196785E-01 -0.27093440897E-01  0.37703246826E+01  0.37718724153E+01  0.10000000000E+00 0.  1.
</event>
<event>
 5   0  0.6262544E+06  0.9118800E+02  0.7818608E-02  0.1180000E+00
       11   -1    0    0    0    0  0.00000000000E+00  0.00000000000E+00  0.39999999673E+01  0.40000000000E+01  0.51109989000E-03 0. -1.
     -623   -1    0    0    0    0  0.00000000000E+00  0.00000000000E+00  0.12525980253E-10  0.17130000000E+03  0.17130000000E+03 0.  1.
       11    1    1    2    0    0 -0.50618001851E-02 -0.45380072203E-02  0.13411978782E-02  0.69480476029E-02  0.51109989000E-03 0. -1.
     -623    1    1    2    0    0 -0.33474140832E-02 -0.12400851010E-01  0.69046065129E-02  0.17130000062E+03  0.17130000000E+03 0.  1.
      622    1    1    2    0    0  0.84092142684E-02  0.16938858231E-01  0.39917541630E+01  0.39930513318E+01  0.10000000000E+00 0. -1.
</event>
<event>
 5   0  0.6262544E+06  0.9118800E+02  0.7818608E-02  0.1180000E+00
       11   -1    0    0    0    0  0.00000000000E+00  0.00000000000E+00  0.39999999673E+01  0.40000000000E+01  0.51109989000E-03 0. -1.
     -623   -1    0    0    0    0  0.00000000000E+00  0.00000000000E+00  0.12525980253E-10  0.17130000000E+03  0.17130000000E+03 0. -1.
       11    1    1    2    0    0  0.17064374839E-02  0.81943276575E-02  0.41439433987E-02  0.93537385378E-02  0.51109989000E-03 0. -1.
     -623    1    1    2    0    0 -0.24252981154E-01  0.26958535057E-02  0.65433298129E-02  0.17130000186E+03  0.17130000000E+03 0. -1.
      622    1    1    2    0    0  0.22546543670E-01 -0.10890181163E-01  0.39893126942E+01  0.39906443984E+01  0.10000000000E+00 0. -1.
</event>
<event>
 5   0  0.6262544E+06  0.9118800E+02  0.7818608E-02  0.1180000E+00
       11   -1    0    0    0    0  0.00000000000E+00  0.00000000000E+00  0.39999999673E+01  0.40000000000E+01  0.51109989000E-03 0.  1.
     -623   -1    0    0    0    0  0.00000000000E+00  0.00000000000E+00  0.12525980253E-10  0.17130000000E+03  0.17130000000E+03 0. -1.
       11    1    1    2    0    0 -0.94118506741E-02  0.92702329591E-02  0.82899057549E-01  0.83946620628E-01  0.51109989000E-03 0.  1.
     -623    1    1    2    0    0 -0.23931087326E-02 -0.17236284753E-02  0.23496486534E-02  0.17130000004E+03  0.17130000000E+03 0. -1.
      622    1    1    2    0    0  0.11804959407E-01 -0.75466044838E-02  0.39147512612E+01  0.39160533379E+01  0.10000000000E+00 0.  1.
</event>
<event>
 5   0  0.6262544E+06  0.9118800E+02  0.7818608E-02  0.1180000E+00
       11   -1    0    0    0    0  0.00000000000E+00  0.00000000000E+00  0.39999999673E+01  0.40000000000E+01  0.51109989000E-03 0.  1.
     -623   -1    0    0    0    0  0.00000000000E+00  0.00000000000E+00  0.12525980253E-10  0.17130000000E+03  0.17130000000E+03 0.  1.
       11    1    1    2    0    0  0.35262419400E-01 -0.12248095116E-01  0.65845908320E+00  0.65951654985E+00  0.51109989000E-03 0.  1.
     -623    1    1    2    0    0 -0.10527082688E-01  0.22732338246E-03  0.26681636176E-02  0.17130000034E+03  0.17130000000E+03 0.  1.
      622    1    1    2    0    0 -0.24735336712E-01  0.12020771733E-01  0.33388727205E+01  0.33404831058E+01  0.10000000000E+00 0.  0.
</event>
<event>
 5   0  0.6262544E+06  0.9118800E+02  0.7818608E-02  0.1180000E+00
       11   -1    0    0    0    0  0.00000000000E+00  0.00000000000E+00  0.39999999673E+01  0.40000000000E+01  0.51109989000E-03 0. -1.
     -623   -1    0    0    0    0  0.00000000000E+00  0.00000000000E+00  0.12525980253E-10  0.17130000000E+03  0.17130000000E+03 0. -1.
       11    1    1    2    0    0  0.47866236998E-01 -0.13219718766E+00  0.22528314355E+01  0.22572144363E+01  0.51109989000E-03 0. -1.
     -623    1    1    2    0    0  0.12982040430E-01 -0.49091348053E-02  0.13733506802E-01  0.17130000111E+03  0.17130000000E+03 0. -1.
      622    1    1    2    0    0 -0.60848277428E-01  0.13710632246E+00  0.17334350250E+01  0.17427844510E+01  0.10000000000E+00 0. -1.
</event>
<event>
 5   0  0.6262544E+06  0.9118800E+02  0.7818608E-02  0.1180000E+00
       11   -1    0    0    0    0  0.00000000000E+00  0.00000000000E+00  0.39999999673E+01  0.40000000000E+01  0.51109989000E-03 0. -1.
     -623   -1    0    0    0    0  0.00000000000E+00  0.00000000000E+00  0.12525980253E-10  0.17130000000E+03  0.17130000000E+03 0. -1.
       11    1    1    2    0    0  0.68159746158E-02  0.26784267003E-02  0.12177874777E+00  0.12199982012E+00  0.51109989000E-03 0. -1.
     -623    1    1    2    0    0 -0.18741661979E-02  0.20860876270E-03  0.15148203071E-02  0.17130000002E+03  0.17130000000E+03 0. -1.
      622    1    1    2    0    0 -0.49418084179E-02 -0.28870354630E-02  0.38767063993E+01  0.38780001628E+01  0.10000000000E+00 0. -1.
</event>
<event>
 5   0  0.6262544E+06  0.9118800E+02  0.7818608E-02  0.1180000E+00
       11   -1    0    0    0    0  0.00000000000E+00  0.00000000000E+00  0.39999999673E+01  0.40000000000E+01  0.51109989000E-03 0.  1.
     -623   -1    0    0    0    0  0.00000000000E+00  0.00000000000E+00  0.12525980253E-10  0.17130000000E+03  0.17130000000E+03 0.  1.
       11    1    1    2    0    0 -0.47435411708E-02  0.14103525912E-01  0.42879686820E-01  0.45390961515E-01  0.51109989000E-03 0.  1.
     -623    1    1    2    0    0 -0.24143936808E-02 -0.69163971283E-02  0.37890034959E-02  0.17130000020E+03  0.17130000000E+03 0.  1.
      622    1    1    2    0    0  0.71579348516E-02 -0.71871287833E-02  0.39533312770E+01  0.39546088399E+01  0.10000000000E+00 0.  1.
</event>
<event>
 5   0  0.6262544E+06  0.9118800E+02  0.7818608E-02  0.1180000E+00
       11   -1    0    0    0    0  0.00000000000E+00  0.00000000000E+00  0.39999999673E+01  0.40000000000E+01  0.51109989000E-03 0. -1.
     -623   -1    0    0    0    0  0.00000000000E+00  0.00000000000E+00  0.12525980253E-10  0.17130000000E+03  0.17130000000E+03 0.  1.
       11    1    1    2    0    0 -0.19474605792E-04 -0.12245982303E-01  0.34446191760E+00  0.34467990710E+00  0.51109989000E-03 0. -1.
     -623    1    1    2    0    0 -0.33662318752E-02  0.10261209423E-01  0.15885376918E-02  0.17130000035E+03  0.17130000000E+03 0.  1.
      622    1    1    2    0    0  0.33857064811E-02  0.19847728798E-02  0.36539495121E+01  0.36553197451E+01  0.10000000000E+00 0.  1.
</event>
<event>
 5   0  0.6262544E+06  0.9118800E+02  0.7818608E-02  0.1180000E+00
       11   -1    0    0    0    0  0.00000000000E+00  0.00000000000E+00  0.39999999673E+01  0.40000000000E+01  0.51109989000E-03 0.  1.
     -623   -1    0    0    0    0  0.00000000000E+00  0.00000000000E+00  0.12525980253E-10  0.17130000000E+03  0.17130000000E+03 0.  1.
       11    1    1    2    0    0  0.18741068447E-01  0.38006828379E-02  0.11647981680E+00  0.11804017020E+00  0.51109989000E-03 0.  1.
     -623    1    1    2    0    0 -0.13666523324E-01  0.28771857616E-02  0.28582005954E-02  0.17130000059E+03  0.17130000000E+03 0.  1.
      622    1    1    2    0    0 -0.50745451230E-02 -0.66778685995E-02  0.38806619500E+01  0.38819592366E+01  0.10000000000E+00 0.  0.
</event>
<event>
 5   0  0.6262544E+06  0.9118800E+02  0.7818608E-02  0.1180000E+00
       11   -1    0    0    0    0  0.00000000000E+00  0.00000000000E+00  0.39999999673E+01  0.40000000000E+01  0.51109989000E-03 0. -1.
     -623   -1    0    0    0    0  0.00000000000E+00  0.00000000000E+00  0.12525980253E-10  0.17130000000E+03  0.17130000000E+03 0. -1.
       11    1    1    2    0    0  0.11033501426E-02  0.35897990141E-02  0.81750002022E-01  0.81837815783E-01  0.51109989000E-03 0. -1.
     -623    1    1    2    0    0 -0.28887900085E-02 -0.31030211031E-02  0.13645925746E-02  0.17130000006E+03  0.17130000000E+03 0. -1.
      622    1    1    2    0    0  0.17854398659E-02 -0.48677791109E-03  0.39168853727E+01  0.39181621263E+01  0.10000000000E+00 0. -1.
</event>
<event>
 5   0  0.6262544E+06  0.9118800E+02  0.7818608E-02  0.1180000E+00
       11   -1    0    0    0    0  0.00000000000E+00  0.00000000000E+00  0.39999999673E+01  0.40000000000E+01  0.51109989000E-03 0. -1.
     -623   -1    0    0    0    0  0.00000000000E+00  0.00000000000E+00  0.12525980253E-10  0.17130000000E+03  0.17130000000E+03 0. -1.
       11    1    1    2    0    0  0.87926942907E-02 -0.68350271227E-03  0.64050514372E-01  0.64656850088E-01  0.51109989000E-03 0. -1.
     -623    1    1    2    0    0 -0.58852008205E-03 -0.36722883762E-02  0.18880621977E-02  0.17130000005E+03  0.17130000000E+03 0. -1.
      622    1    1    2    0    0 -0.82041742087E-02  0.43557910884E-02  0.39340613907E+01  0.39353430990E+01  0.10000000000E+00 0. -1.
</event>
<event>
 5   0  0.6262544E+06  0.9118800E+02  0.7818608E-02  0.1180000E+00
       11   -1    0    0    0    0  0.00000000000E+00  0.00000000000E+00  0.39999999673E+01  0.40000000000E+01  0.51109989000E-03 0.  1.
     -623   -1    0    0    0    0  0.00000000000E+00  0.00000000000E+00  0.12525980253E-10  0.17130000000E+03  0.17130000000E+03 0. -1.
       11    1    1    2    0    0 -0.13985958540E-02 -0.21188480281E-02  0.19619481671E-01  0.19789665774E-01  0.51109989000E-03 0.  1.
     -623    1    1    2    0    0 -0.18539574621E-02  0.19622335321E-02  0.14279244812E-02  0.17130000003E+03  0.17130000000E+03 0. -1.
      622    1    1    2    0    0  0.32525533161E-02  0.15661449596E-03  0.39789525613E+01  0.39802103071E+01  0.10000000000E+00 0.  1.
</event>
<event>
 5   0  0.6262544E+06  0.9118800E+02  0.7818608E-02  0.1180000E+00
       11   -1    0    0    0    0  0.00000000000E+00  0.00000000000E+00  0.39999999673E+01  0.40000000000E+01  0.51109989000E-03 0.  1.
     -623   -1    0    0    0    0  0.00000000000E+00  0.00000000000E+00  0.12525980253E-10  0.17130000000E+03  0.17130000000E+03 0. -1.
       11    1    1    2    0    0 -0.21316128495E-01 -0.16434128848E-01  0.80708544388E-01  0.85079893543E-01  0.51109989000E-03 0.  1.
     -623    1    1    2    0    0  0.67331752356E-03 -0.10620301590E-01  0.57970744454E-02  0.17130000043E+03  0.17130000000E+03 0. -1.
      622    1    1    2    0    0  0.20642810971E-01  0.27054430438E-01  0.39134943486E+01  0.39149196779E+01  0.10000000000E+00 0.  1.
</event>
<event>
 5   0  0.6262544E+06  0.9118800E+02  0.7818608E-02  0.1180000E+00
       11   -1    0    0    0    0  0.00000000000E+00  0.00000000000E+00  0.39999999673E+01  0.40000000000E+01  0.51109989000E-03 0.  1.
     -623   -1    0    0    0    0  0.00000000000E+00  0.00000000000E+00  0.12525980253E-10  0.17130000000E+03  0.17130000000E+03 0. -1.
       11    1    1    2    0    0 -0.14197495880E-01 -0.25811138498E-01  0.65227219845E+00  0.65293726027E+00  0.51109989000E-03 0.  1.
     -623    1    1    2    0    0  0.20807676772E-01  0.53379836441E-02  0.22297453660E-02  0.17130000136E+03  0.17130000000E+03 0. -1.
      622    1    1    2    0    0 -0.66101808931E-02  0.20473154854E-01  0.33454980237E+01  0.33470613785E+01  0.10000000000E+00 0.  1.
</event>
<event>
 5   0  0.6262544E+06  0.9118800E+02  0.7818608E-02  0.1180000E+00
       11   -1    0    0    0    0  0.00000000000E+00  0.00000000000E+00  0.39999999673E+01  0.40000000000E+01  0.51109989000E-03 0. -1.
     -623   -1    0    0    0    0  0.00000000000E+00  0.00000000000E+00  0.12525980253E-10  0.17130000000E+03  0.17130000000E+03 0. -1.
       11    1    1    2    0    0 -0.36866208953E-02 -0.11416295311E-02  0.16405724240E-02  0.42245937778E-02  0.51109989000E-03 0. -1.
     -623    1    1    2    0    0  0.50221140972E-02  0.22803554858E-02  0.38360236356E-02  0.17130000013E+03  0.17130000000E+03 0. -1.
      622    1    1    2    0    0 -0.13354932019E-02 -0.11387259548E-02  0.39945233713E+01  0.39957752745E+01  0.10000000000E+00 0. -1.
</event>
<event>
 5   0  0.6262544E+06  0.9118800E+02  0.7818608E-02  0.1180000E+00
       11   -1    0    0    0    0  0.00000000000E+00  0.00000000000E+00  0.39999999673E+01  0.40000000000E+01  0.51109989000E-03 0. -1.
     -623   -1    0    0    0    0  0.00000000000E+00  0.00000000000E+00  0.12525980253E-10  0.17130000000E+03  0.17130000000E+03 0.  1.
       11    1    1    2    0    0  0.12000747714E-01 -0.10514390469E-01  0.11966629167E+00  0.12072635560E+00  0.51109989000E-03 0. -1.
     -623    1    1    2    0    0  0.96702312670E-02  0.81775912254E-02  0.24108873372E-02  0.17130000049E+03  0.17130000000E+03 0.  1.
      622    1    1    2    0    0 -0.21670978981E-01  0.23367992437E-02  0.38779227884E+01  0.38792731593E+01  0.10000000000E+00 0. -1.
</event>
<event>
 5   0  0.6262544E+06  0.9118800E+02  0.7818608E-02  0.1180000E+00
       11   -1    0    0    0    0  0.00000000000E+00  0.00000000000E+00  0.39999999673E+01  0.40000000000E+01  0.51109989000E-03 0.  1.
     -623   -1    0    0    0    0  0.00000000000E+00  0.00000000000E+00  0.12525980253E-10  0.17130000000E+03  0.17130000000E+03 0.  1.
       11    1    1    2    0    0 -0.86932257612E-02  0.16644808354E-01  0.39959171191E+00  0.40003302273E+00  0.51109989000E-03 0.  1.
     -623    1    1    2    0    0  0.23867784459E-02 -0.23383811509E-02  0.18644548753E-02  0.17130000004E+03  0.17130000000E+03 0.  1.
      622    1    1    2    0    0  0.63064473154E-02 -0.14306427204E-01  0.35985438004E+01  0.35999669344E+01  0.10000000000E+00 0.  1.
</event>
<event>
 5   0  0.6262544E+06  0.9118800E+02  0.7818608E-02  0.1180000E+00
       11   -1    0    0    0    0  0.00000000000E+00  0.00000000000E+00  0.39999999673E+01  0.40000000000E+01  0.51109989000E-03 0.  1.
     -623   -1    0    0    0    0  0.00000000000E+00  0.00000000000E+00  0.12525980253E-10  0.17130000000E+03  0.17130000000E+03 0.  1.
       11    1    1    2    0    0 -0.74662285525E-02 -0.26223922644E-01  0.96779255269E-02  0.28937210515E-01  0.51109989000E-03 0.  1.
     -623    1    1    2    0    0  0.19491418720E-01 -0.10576339526E-02  0.20632874214E-01  0.17130000235E+03  0.17130000000E+03 0.  1.
      622    1    1    2    0    0 -0.12025190167E-01  0.27281556597E-01  0.39696891676E+01  0.39710604347E+01  0.10000000000E+00 0.  1.
</event>
<event>
 5   0  0.6262544E+06  0.9118800E+02  0.7818608E-02  0.1180000E+00
       11   -1    0    0    0    0  0.00000000000E+00  0.00000000000E+00  0.39999999673E+01  0.40000000000E+01  0.51109989000E-03 0.  1.
     -623   -1    0    0    0    0  0.00000000000E+00  0.00000000000E+00  0.12525980253E-10  0.17130000000E+03  0.17130000000E+03 0. -1.
       11    1    1    2    0    0 -0.33495629161E-01  0.29969556699E-04  0.16325184483E+00  0.16665348521E+00  0.51109989000E-03 0.  1.
     -623    1    1    2    0    0 -0.10066723789E-01  0.25876286867E-02  0.49550690162E-02  0.17130000039E+03  0.17130000000E+03 0. -1.
      622    1    1    2    0    0  0.43562352950E-01 -0.26175982434E-02  0.38317930535E+01  0.38333461278E+01  0.10000000000E+00 0.  0.
</event>
<event>
 5   0  0.6262544E+06  0.9118800E+02  0.7818608E-02  0.1180000E+00
       11   -1    0    0    0    0  0.00000000000E+00  0.00000000000E+00  0.39999999673E+01  0.40000000000E+01  0.51109989000E-03 0.  1.
     -623   -1    0    0    0    0  0.00000000000E+00  0.00000000000E+00  0.12525980253E-10  0.17130000000E+03  0.17130000000E+03 0.  1.
       11    1    1    2    0    0  0.11439741032E-01 -0.26691523076E-01  0.15020251258E+00  0.15298483941E+00  0.51109989000E-03 0.  1.
     -623    1    1    2    0    0 -0.38520926671E-03 -0.48650820522E-02  0.42277066709E-02  0.17130000012E+03  0.17130000000E+03 0.  1.
      622    1    1    2    0    0 -0.11054531765E-01  0.31556605129E-01  0.38455697481E+01  0.38470150389E+01  0.10000000000E+00 0.  1.
</event>
<event>
 5   0  0.6262544E+06  0.9118800E+02  0.7818608E-02  0.1180000E+00
       11   -1    0    0    0    0  0.00000000000E+00  0.00000000000E+00  0.39999999673E+01  0.40000000000E+01  0.51109989000E-03 0. -1.
     -623   -1    0    0    0    0  0.00000000000E+00  0.00000000000E+00  0.12525980253E-10  0.17130000000E+03  0.17130000000E+03 0.  1.
       11    1    1    2    0    0 -0.11894790702E-01 -0.21220526834E-01  0.12770039501E+00  0.12999788042E+00  0.51109989000E-03 0. -1.
     -623    1    1    2    0    0 -0.27629264242E-01  0.34868671390E-01  0.38214557149E-02  0.17130000582E+03  0.17130000000E+03 0.  1.
      622    1    1    2    0    0  0.39524054944E-01 -0.13648144555E-01  0.38684781166E+01  0.38699962999E+01  0.10000000000E+00 0. -1.
</event>
<event>
 5   0  0.6262544E+06  0.9118800E+02  0.7818608E-02  0.1180000E+00
       11   -1    0    0    0    0  0.00000000000E+00  0.00000000000E+00  0.39999999673E+01  0.40000000000E+01  0.51109989000E-03 0.  1.
     -623   -1    0    0    0    0  0.00000000000E+00  0.00000000000E+00  0.12525980253E-10  0.17130000000E+03  0.17130000000E+03 0.  1.
       11    1    1    2    0    0 -0.22525215732E-02 -0.12259047818E-02  0.43711669239E+00  0.43712451394E+00  0.51109989000E-03 0.  1.
     -623    1    1    2    0    0 -0.14947742452E-03 -0.44352290901E-02  0.14167989526E-02  0.17130000006E+03  0.17130000000E+03 0.  1.
      622    1    1    2    0    0  0.24019989978E-02  0.56611338719E-02  0.35614664760E+01  0.35628754227E+01  0.10000000000E+00 0.  1.
</event>
<event>
 5   0  0.6262544E+06  0.9118800E+02  0.7818608E-02  0.1180000E+00
       11   -1    0    0    0    0  0.00000000000E+00  0.00000000000E+00  0.39999999673E+01  0.40000000000E+01  0.51109989000E-03 0. -1.
     -623   -1    0    0    0    0  0.00000000000E+00  0.00000000000E+00  0.12525980253E-10  0.17130000000E+03  0.17130000000E+03 0. -1.
       11    1    1    2    0    0  0.86290697325E-02 -0.92952659153E-02  0.64676548419E-01  0.65910393338E-01  0.51109989000E-03 0. -1.
     -623    1    1    2    0    0  0.82740520701E-02 -0.24710340452E-02  0.25591227986E-02  0.17130000024E+03  0.17130000000E+03 0. -1.
      622    1    1    2    0    0 -0.16903121803E-01  0.11766299961E-01  0.39327642961E+01  0.39340893699E+01  0.10000000000E+00 0. -1.
</event>
<event>
 5   0  0.6262544E+06  0.9118800E+02  0.7818608E-02  0.1180000E+00
       11   -1    0    0    0    0  0.00000000000E+00  0.00000000000E+00  0.39999999673E+01  0.40000000000E+01  0.51109989000E-03 0. -1.
     -623   -1    0    0    0    0  0.00000000000E+00  0.00000000000E+00  0.12525980253E-10  0.17130000000E+03  0.17130000000E+03 0.  1.
       11    1    1    2    0    0 -0.77840074462E-03  0.16339538712E-02  0.73259864127E-02  0.75635317802E-02  0.51109989000E-03 0. -1.
     -623    1    1    2    0    0  0.47273341031E-02  0.10767351517E-02  0.14930265130E-02  0.17130000008E+03  0.17130000000E+03 0.  1.
      622    1    1    2    0    0 -0.39489333587E-02 -0.27106890230E-02  0.39911809546E+01  0.39924363933E+01  0.10000000000E+00 0. -1.
</event>
<event>
 5   0  0.6262544E+06  0.9118800E+02  0.7818608E-02  0.1180000E+00
       11   -1    0    0    0    0  0.00000000000E+00  0.00000000000E+00  0.39999999673E+01  0.40000000000E+01  0.51109989000E-03 0.  1.
     -623   -1    0    0    0    0  0.00000000000E+00  0.00000000000E+00  0.12525980253E-10  0.17130000000E+03  0.17130000000E+03 0. -1.
       11    1    1    2    0    0 -0.11815361252E-02 -0.33180177787E-03 -0.30576637171E-02  0.33341641441E-02  0.51109989000E-03 0.  1.
     -623    1    1    2    0    0  0.43338261695E-02  0.16016186420E-02  0.76447121728E-02  0.17130000023E+03  0.17130000000E+03 0. -1.
      622    1    1    2    0    0 -0.31522900442E-02 -0.12698168642E-02  0.39954129189E+01  0.39966656030E+01  0.10000000000E+00 0.  1.
</event>
<event>
 5   0  0.6262544E+06  0.9118800E+02  0.7818608E-02  0.1180000E+00
       11   -1    0    0    0    0  0.00000000000E+00  0.00000000000E+00  0.39999999673E+01  0.40000000000E+01  0.51109989000E-03 0.  1.
     -623   -1    0    0    0    0  0.00000000000E+00  0.00000000000E+00  0.12525980253E-10  0.17130000000E+03  0.17130000000E+03 0. -1.
       11    1    1    2    0    0 -0.54650033862E-02  0.60057413811E-02  0.37985154926E-01  0.38846729713E-01  0.51109989000E-03 0.  1.
     -623    1    1    2    0    0  0.53863788877E-03 -0.11830165211E-02  0.21300213108E-02  0.17130000002E+03  0.17130000000E+03 0. -1.
      622    1    1    2    0    0  0.49263654974E-02 -0.48227248600E-02  0.39598847912E+01  0.39611532522E+01  0.10000000000E+00 0.  1.
</event>
<event>
 5   0  0.6262544E+06  0.9118800E+02  0.7818608E-02  0.1180000E+00
       11   -1    0    0    0    0  0.00000000000E+00  0.00000000000E+00  0.39999999673E+01  0.40000000000E+01  0.51109989000E-03 0.  1.
     -623   -1    0    0    0    0  0.00000000000E+00  0.00000000000E+00  0.12525980253E-10  0.17130000000E+03  0.17130000000E+03 0. -1.
       11    1    1    2    0    0  0.10717174489E-01  0.16868345458E-02  0.15586998387E+00  0.15624793225E+00  0.51109989000E-03 0.  1.
     -623    1    1    2    0    0 -0.64989891040E-02  0.11034874332E-01  0.17028106924E-02  0.17130000049E+03  0.17130000000E+03 0. -1.
      622    1    1    2    0    0 -0.42181853848E-02 -0.12721708878E-01  0.38424271728E+01  0.38437515806E+01  0.10000000000E+00 0.  1.
</event>
<event>
 5   0  0.6262544E+06  0.9118800E+02  0.7818608E-02  0.1180000E+00
       11   -1    0    0    0    0  0.00000000000E+00  0.00000000000E+00  0.39999999673E+01  0.40000000000E+01  0.51109989000E-03 0. -1.
     -623   -1    0    0    0    0  0.00000000000E+00  0.00000000000E+00  0.12525980253E-10  0.17130000000E+03  0.17130000000E+03 0.  1.
       11    1    1    2    0    0  0.17413568554E-01  0.13469675909E-01  0.57559113220E+00  0.57601221969E+00  0.51109989000E-03 0. -1.
     -623    1    1    2    0    0  0.21782013951E-02 -0.27570640312E-02  0.19545404893E-02  0.17130000005E+03  0.17130000000E+03 0.  1.
      622    1    1    2    0    0 -0.19591769950E-01 -0.10712611878E-01  0.34224542947E+01  0.34239877331E+01  0.10000000000E+00 0. -1.
</event>
<event>
 5   0  0.6262544E+06  0.9118800E+02  0.7818608E-02  0.1180000E+00
       11   -1    0    0    0    0  0.00000000000E+00  0.00000000000E+00  0.39999999673E+01  0.40000000000E+01  0.51109989000E-03 0. -1.
     -623   -1    0    0    0    0  0.00000000000E+00  0.00000000000E+00  0.12525980253E-10  0.17130000000E+03  0.17130000000E+03 0. -1.
       11    1    1    2    0    0  0.66775201343E-03  0.38937488629E-02  0.15850266765E-01  0.16343174495E-01  0.51109989000E-03 0. -1.
     -623    1    1    2    0    0  0.93345083871E-02 -0.10520551203E-01  0.17668622937E-02  0.17130000059E+03  0.17130000000E+03 0. -1.
      622    1    1    2    0    0 -0.10002260401E-01  0.66268023406E-02  0.39823828385E+01  0.39836562392E+01  0.10000000000E+00 0. -1.
</event>
<event>
 5   0  0.6262544E+06  0.9118800E+02  0.7818608E-02  0.1180000E+00
       11   -1    0    0    0    0  0.00000000000E+00  0.00000000000E+00  0.39999999673E+01  0.40000000000E+01  0.51109989000E-03 0.  1.
     -623   -1    0    0    0    0  0.00000000000E+00  0.00000000000E+00  0.12525980253E-10  0.17130000000E+03  0.17130000000E+03 0. -1.
       11    1    1    2    0    0  0.35736467738E-01  0.20447631663E-01  0.21723662986E+00  0.22110453487E+00  0.51109989000E-03 0.  1.
     -623    1    1    2    0    0  0.15644294939E-01 -0.26699848184E-01  0.55487475062E-02  0.17130000289E+03  0.17130000000E+03 0. -1.
      622    1    1    2    0    0 -0.51380762677E-01  0.62522165203E-02  0.37772145900E+01  0.37788925801E+01  0.10000000000E+00 0.  1.
</event>
<event>
 5   0  0.6262544E+06  0.9118800E+02  0.7818608E-02  0.1180000E+00
       11   -1    0    0    0    0  0.00000000000E+00  0.00000000000E+00  0.39999999673E+01  0.40000000000E+01  0.51109989000E-03 0. -1.
     -623   -1    0    0    0    0  0.00000000000E+00  0.00000000000E+00  0.12525980253E-10  0.17130000000E+03  0.17130000000E+03 0.  1.
       11    1    1    2    0    0 -0.53505990541E-01  0.19193396382E-01  0.14860858466E+01  0.14871727143E+01  0.51109989000E-03 0. -1.
     -623    1    1    2    0    0  0.17093603523E-01  0.16441222544E-03  0.34169741416E-02  0.17130000089E+03  0.17130000000E+03 0.  1.
      622    1    1    2    0    0  0.36412387018E-01 -0.19357808608E-01  0.25104971466E+01  0.25128263986E+01  0.10000000000E+00 0.  0.
</event>
<event>
 5   0  0.6262544E+06  0.9118800E+02  0.7818608E-02  0.1180000E+00
       11   -1    0    0    0    0  0.00000000000E+00  0.00000000000E+00  0.39999999673E+01  0.40000000000E+01  0.51109989000E-03 0. -1.
     -623   -1    0    0    0    0  0.00000000000E+00  0.00000000000E+00  0.12525980253E-10  0.17130000000E+03  0.17130000000E+03 0.  1.
       11    1    1    2    0    0  0.10479710822E-01 -0.82786931753E-02  0.28272642671E-01  0.31272426265E-01  0.51109989000E-03 0. -1.
     -623    1    1    2    0    0 -0.14482967875E-01 -0.72145333521E-02  0.42928897127E-02  0.17130000082E+03  0.17130000000E+03 0.  1.
      622    1    1    2    0    0  0.40032570528E-02  0.15493226527E-01  0.39674344350E+01  0.39687267558E+01  0.10000000000E+00 0. -1.
</event>
<event>
 5   0  0.6262544E+06  0.9118800E+02  0.7818608E-02  0.1180000E+00
       11   -1    0    0    0    0  0.00000000000E+00  0.00000000000E+00  0.39999999673E+01  0.40000000000E+01  0.51109989000E-03 0. -1.
     -623   -1    0    0    0    0  0.00000000000E+00  0.00000000000E+00  0.12525980253E-10  0.17130000000E+03  0.17130000000E+03 0. -1.
       11    1    1    2    0    0  0.92129746273E-02 -0.15740077441E-01  0.33310946410E+00  0.33360876073E+00  0.51109989000E-03 0. -1.
     -623    1    1    2    0    0  0.43459826218E-02 -0.36423783940E-04  0.19223597817E-02  0.17130000007E+03  0.17130000000E+03 0. -1.
      622    1    1    2    0    0 -0.13558957249E-01  0.15776501225E-01  0.36649681435E+01  0.36663911734E+01  0.10000000000E+00 0. -1.
</event>
<event>
 5   0  0.6262544E+06  0.9118800E+02  0.7818608E-02  0.1180000E+00
       11   -1    0    0    0    0  0.00000000000E+00  0.00000000000E+00  0.39999999673E+01  0.40000000000E+01  0.51109989000E-03 0.  1.
     -623   -1    0    0    0    0  0.00000000000E+00  0.00000000000E+00  0.12525980253E-10  0.17130000000E+03  0.17130000000E+03 0. -1.
       11    1    1    2    0    0  0.35737165884E-01 -0.23931470787E-02  0.45267999735E+00  0.45409504886E+00  0.51109989000E-03 0.  1.
     -623    1    1    2    0    0  0.99526442588E-02  0.59158935211E-02  0.31220385511E-02  0.17130000042E+03  0.17130000000E+03 0. -1.
      622    1    1    2    0    0 -0.45689810142E-01 -0.35227464424E-02  0.35441979315E+01  0.35459045314E+01  0.10000000000E+00 0.  1.
</event>
<event>
 5   0  0.6262544E+06  0.9118800E+02  0.7818608E-02  0.1180000E+00
       11   -1    0    0    0    0  0.00000000000E+00  0.00000000000E+00  0.39999999673E+01  0.40000000000E+01  0.51109989000E-03 0.  1.
     -623   -1    0    0    0    0  0.00000000000E+00  0.00000000000E+00  0.12525980253E-10  0.17130000000E+03  0.17130000000E+03 0. -1.
       11    1    1    2    0    0 -0.14637401259E-02 -0.11267133882E-01  0.37878367968E-01  0.39548992685E-01  0.51109989000E-03 0.  1.
     -623    1    1    2    0    0  0.13226519108E-02  0.21162026833E-01  0.29469811858E-02  0.17130000134E+03  0.17130000000E+03 0. -1.
      622    1    1    2    0    0  0.14108821509E-03 -0.98948929519E-02  0.39591746182E+01  0.39604496697E+01  0.10000000000E+00 0.  1.
</event>
<event>
 5   0  0.6262544E+06  0.9118800E+02  0.7818608E-02  0.1180000E+00
       11   -1    0    0    0    0  0.00000000000E+00  0.00000000000E+00  0.39999999673E+01  0.40000000000E+01  0.51109989000E-03 0.  1.
     -623   -1    0    0    0    0  0.00000000000E+00  0.00000000000E+00  0.12525980253E-10  0.17130000000E+03  0.17130000000E+03 0. -1.
       11    1    1    2    0    0 -0.67403603924E-02  0.20655172957E-02  0.14065059465E+00  0.14082808604E+00  0.51109989000E-03 0.  1.
     -623    1    1    2    0    0 -0.93308762897E-03 -0.33053781034E-02  0.14811625138E-02  0.17130000004E+03  0.17130000000E+03 0. -1.
      622    1    1    2    0    0  0.76734480215E-02  0.12398608078E-02  0.38578682104E+01  0.38591718733E+01  0.10000000000E+00 0.  1.
</event>
<event>
 5   0  0.6262544E+06  0.9118800E+02  0.7818608E-02  0.1180000E+00
       11   -1    0    0    0    0  0.00000000000E+00  0.00000000000E+00  0.39999999673E+01  0.40000000000E+01  0.51109989000E-03 0. -1.
     -623   -1    0    0    0    0  0.00000000000E+00  0.00000000000E+00  0.12525980253E-10  0.17130000000E+03  0.17130000000E+03 0. -1.
       11    1    1    2    0    0  0.10563608965E-01  0.58492557408E-02  0.32701282298E+00  0.32723607876E+00  0.51109989000E-03 0. -1.
     -623    1    1    2    0    0 -0.19000030165E-02  0.27738376117E-01  0.17509773338E-02  0.17130000227E+03  0.17130000000E+03 0. -1.
      622    1    1    2    0    0 -0.86636059482E-02 -0.33587631858E-01  0.36712361670E+01  0.36727616559E+01  0.10000000000E+00 0. -1.
</event>
<event>
 5   0  0.6262544E+06  0.9118800E+02  0.7818608E-02  0.1180000E+00
       11   -1    0    0    0    0  0.00000000000E+00  0.00000000000E+00  0.39999999673E+01  0.40000000000E+01  0.51109989000E-03 0. -1.
     -623   -1    0    0    0    0  0.00000000000E+00  0.00000000000E+00  0.12525980253E-10  0.17130000000E+03  0.17130000000E+03 0.  1.
       11    1    1    2    0    0  0.13416629202E-01 -0.11442227906E-01  0.37262311648E+00  0.37304045180E+00  0.51109989000E-03 0. -1.
     -623    1    1    2    0    0 -0.35638150686E-03  0.16744260252E-02  0.18328294803E-02  0.17130000002E+03  0.17130000000E+03 0.  1.
      622    1    1    2    0    0 -0.13060247695E-01  0.97678018808E-02  0.36255440214E+01  0.36269595298E+01  0.10000000000E+00 0.  0.
</event>
<event>
 5   0  0.6262544E+06  0.9118800E+02  0.7818608E-02  0.1180000E+00
       11   -1    0    0    0    0  0.00000000000E+00  0.00000000000E+00  0.39999999673E+01  0.40000000000E+01  0.51109989000E-03 0.  1.
     -623   -1    0    0    0    0  0.00000000000E+00  0.00000000000E+00  0.12525980253E-10  0.17130000000E+03  0.17130000000E+03 0. -1.
       11    1    1    2    0    0  0.27291456769E-02  0.19802998623E-02  0.74736857545E-02  0.82150487232E-02  0.51109989000E-03 0.  1.
     -623    1    1    2    0    0 -0.15890617376E-01  0.46745897881E-02  0.20221660087E-02  0.17130000081E+03  0.17130000000E+03 0. -1.
      622    1    1    2    0    0  0.13161471699E-01 -0.66548896502E-02  0.39905041155E+01  0.39917841384E+01  0.10000000000E+00 0.  1.
</event>
<event>
 5   0  0.6262544E+06  0.9118800E+02  0.7818608E-02  0.1180000E+00
       11   -1    0    0    0    0  0.00000000000E+00  0.00000000000E+00  0.39999999673E+01  0.40000000000E+01  0.51109989000E-03 0. -1.
     -623   -1    0    0    0    0  0.00000000000E+00  0.00000000000E+00  0.12525980253E-10  0.17130000000E+03  0.17130000000E+03 0.  1.
       11    1    1    2    0    0 -0.15873042315E-01  0.97173548393E-01  0.12399831795E+01  0.12438863287E+01  0.51109989000E-03 0. -1.
     -623    1    1    2    0    0  0.16304701856E-02 -0.10332082551E-01  0.71245449221E-02  0.17130000047E+03  0.17130000000E+03 0.  1.
      622    1    1    2    0    0  0.14242572130E-01 -0.86841465842E-01  0.27528922430E+01  0.27561132039E+01  0.10000000000E+00 0.  0.
</event>
<event>
 5   0  0.6262544E+06  0.9118800E+02  0.7818608E-02  0.1180000E+00
       11   -1    0    0    0    0  0.00000000000E+00  0.00000000000E+00  0.39999999673E+01  0.40000000000E+01  0.51109989000E-03 0. -1.
     -623   -1    0    0    0    0  0.00000000000E+00  0.00000000000E+00  0.12525980253E-10  0.17130000000E+03  0.17130000000E+03 0.  1.
       11    1    1    2    0    0 -0.43195316920E-01  0.19366839695E-02  0.12897883076E+01  0.12905129701E+01  0.51109989000E-03 0. -1.
     -623    1    1    2    0    0 -0.27585323783E-01  0.45233939149E-01  0.39152316841E-02  0.17130000824E+03  0.17130000000E+03 0.  1.
      622    1    1    2    0    0  0.70780640703E-01 -0.47170623120E-01  0.27062964281E+01  0.27094787919E+01  0.10000000000E+00 0. -1.
</event>
<event>
 5   0  0.6262544E+06  0.9118800E+02  0.7818608E-02  0.1180000E+00
       11   -1    0    0    0    0  0.00000000000E+00  0.00000000000E+00  0.39999999673E+01  0.40000000000E+01  0.51109989000E-03 0. -1.
     -623   -1    0    0    0    0  0.00000000000E+00  0.00000000000E+00  0.12525980253E-10  0.17130000000E+03  0.17130000000E+03 0.  1.
       11    1    1    2    0    0  0.51951781640E-01 -0.40163456006E-01  0.57517461765E-01  0.87296107845E-01  0.51109989000E-03 0. -1.
     -623    1    1    2    0    0  0.25018969311E-02 -0.26948327081E-01  0.32016752173E-01  0.17130000513E+03  0.17130000000E+03 0.  1.
      622    1    1    2    0    0 -0.54453678571E-01  0.67111783087E-01  0.39104657534E+01  0.39126987621E+01  0.10000000000E+00 0. -1.
</event>
<event>
 5   0  0.6262544E+06  0.9118800E+02  0.7818608E-02  0.1180000E+00
       11   -1    0    0    0    0  0.00000000000E+00  0.00000000000E+00  0.39999999673E+01  0.40000000000E+01  0.51109989000E-03 0. -1.
     -623   -1    0    0    0    0  0.00000000000E+00  0.00000000000E+00  0.12525980253E-10  0.17130000000E+03  0.17130000000E+03 0. -1.
       11    1    1    2    0    0  0.17998521788E-01 -0.17293618092E-01  0.43204319510E-01  0.49898802197E-01  0.51109989000E-03 0. -1.
     -623    1    1    2    0    0  0.10446866563E-02  0.94534924991E-02  0.80145961376E-02  0.17130000045E+03  0.17130000000E+03 0. -1.
      622    1    1    2    0    0 -0.19043208445E-01  0.78401255927E-02  0.39487810517E+01  0.39501007463E+01  0.10000000000E+00 0. -1.
</event>
<event>
 5   0  0.6262544E+06  0.9118800E+02  0.7818608E-02  0.1180000E+00
       11   -1    0    0    0    0  0.00000000000E+00  0.00000000000E+00  0.39999999673E+01  0.40000000000E+01  0.51109989000E-03 0.  1.
     -623   -1    0    0    0    0  0.00000000000E+00  0.00000000000E+00  0.12525980253E-10  0.17130000000E+03  0.17130000000E+03 0.  1.
       11    1    1    2    0    0 -0.10722546097E-01 -0.54233435140E-01  0.25055696699E+01  0.25061795368E+01  0.51109989000E-03 0.  1.
     -623    1    1    2    0    0 -0.32183069975E-01  0.39440471692E-02  0.54305536982E-02  0.17130000315E+03  0.17130000000E+03 0.  1.
      622    1    1    2    0    0  0.42905616072E-01  0.50289387971E-01  0.14889997438E+01  0.14938173086E+01  0.10000000000E+00 0.  1.
</event>
<event>
 5   0  0.6262544E+06  0.9118800E+02  0.7818608E-02  0.1180000E+00
       11   -1    0    0    0    0  0.00000000000E+00  0.00000000000E+00  0.39999999673E+01  0.40000000000E+01  0.51109989000E-03 0.  1.
     -623   -1    0    0    0    0  0.00000000000E+00  0.00000000000E+00  0.12525980253E-10  0.17130000000E+03  0.17130000000E+03 0. -1.
       11    1    1    2    0    0  0.76899099028E-03  0.22200324726E-02  0.15643720147E+00  0.15645567780E+00  0.51109989000E-03 0.  1.
     -623    1    1    2    0    0  0.21033972786E-02 -0.18991356588E-02  0.13206621516E-02  0.17130000003E+03  0.17130000000E+03 0. -1.
      622    1    1    2    0    0 -0.28723882688E-02 -0.32089681382E-03  0.38422421036E+01  0.38435442936E+01  0.10000000000E+00 0.  1.
</event>
<event>
 5   0  0.6262544E+06  0.9118800E+02  0.7818608E-02  0.1180000E+00
       11   -1    0    0    0    0  0.00000000000E+00  0.00000000000E+00  0.39999999673E+01  0.40000000000E+01  0.51109989000E-03 0. -1.
     -623   -1    0    0    0    0  0.00000000000E+00  0.00000000000E+00  0.12525980253E-10  0.17130000000E+03  0.17130000000E+03 0. -1.
       11    1    1    2    0    0  0.22349384197E-02  0.26252557519E-02  0.31925028610E+00  0.31926931158E+00  0.51109989000E-03 0. -1.
     -623    1    1    2    0    0  0.49290503554E-01  0.67965196259E-02  0.17577681300E-02  0.17130000724E+03  0.17130000000E+03 0. -1.
      622    1    1    2    0    0 -0.51525441973E-01 -0.94217753777E-02  0.36789919131E+01  0.36807234531E+01  0.10000000000E+00 0. -1.
</event>
<event>
 5   0  0.6262544E+06  0.9118800E+02  0.7818608E-02  0.1180000E+00
       11   -1    0    0    0    0  0.00000000000E+00  0.00000000000E+00  0.39999999673E+01  0.40000000000E+01  0.51109989000E-03 0. -1.
     -623   -1    0    0    0    0  0.00000000000E+00  0.00000000000E+00  0.12525980253E-10  0.17130000000E+03  0.17130000000E+03 0.  1.
       11    1    1    2    0    0  0.42201978599E-03  0.29249474726E-02  0.11990106259E-02  0.32299021650E-02  0.51109989000E-03 0. -1.
     -623    1    1    2    0    0 -0.89721538728E-03 -0.19287722835E-02  0.32822620173E-02  0.17130000004E+03  0.17130000000E+03 0.  1.
      622    1    1    2    0    0  0.47519560132E-03 -0.99617518900E-03  0.39955186948E+01  0.39967700533E+01  0.10000000000E+00 0. -1.
</event>
<event>
 5   0  0.6262544E+06  0.9118800E+02  0.7818608E-02  0.1180000E+00
       11   -1    0    0    0    0  0.00000000000E+00  0.00000000000E+00  0.39999999673E+01  0.40000000000E+01  0.51109989000E-03 0.  1.
     -623   -1    0    0    0    0  0.00000000000E+00  0.00000000000E+00  0.12525980253E-10  0.17130000000E+03  0.17130000000E+03 0.  1.
       11    1    1    2    0    0  0.12011391684E-01  0.38470224808E-01  0.23632393433E+00  0.23973630280E+00  0.51109989000E-03 0.  1.
     -623    1    1    2    0    0  0.14471238446E-01 -0.10124061430E-01  0.49434202484E-02  0.17130000098E+03  0.17130000000E+03 0.  1.
      622    1    1    2    0    0 -0.26482630131E-01 -0.28346163378E-01  0.37587326128E+01  0.37602627154E+01  0.10000000000E+00 0.  1.
</event>
<event>
 5   0  0.6262544E+06  0.9118800E+02  0.7818608E-02  0.1180000E+00
       11   -1    0    0    0    0  0.00000000000E+00  0.00000000000E+00  0.39999999673E+01  0.40000000000E+01  0.51109989000E-03 0.  1.
     -623   -1    0    0    0    0  0.00000000000E+00  0.00000000000E+00  0.12525980253E-10  0.17130000000E+03  0.17130000000E+03 0. -1.
       11    1    1    2    0    0  0.66928589579E-01 -0.12051628181E-01  0.19267301358E+00  0.20432285538E+00  0.51109989000E-03 0.  1.
     -623    1    1    2    0    0 -0.12575822722E-01  0.81658626085E-02  0.13359804866E-01  0.17130000118E+03  0.17130000000E+03 0. -1.
      622    1    1    2    0    0 -0.54352766857E-01  0.38857655728E-02  0.37939671489E+01  0.37956759674E+01  0.10000000000E+00 0.  0.
</event>
<event>
 5   0  0.6262544E+06  0.9118800E+02  0.7818608E-02  0.1180000E+00
       11   -1    0    0    0    0  0.00000000000E+00  0.00000000000E+00  0.39999999673E+01  0.40000000000E+01  0.51109989000E-03 0.  1.
     -623   -1    0    0    0    0  0.00000000000E+00  0.00000000000E+00  0.12525980253E-10  0.17130000000E+03  0.17130000000E+03 0.  1.
       11    1    1    2    0    0  0.12640865150E-01  0.29710773996E-01  0.15652773595E+00  0.15982401230E+00  0.51109989000E-03 0.  1.
     -623    1    1    2    0    0  0.71448065761E-02 -0.16037531766E-01  0.46747913360E-02  0.17130000096E+03  0.17130000000E+03 0.  1.
      622    1    1    2    0    0 -0.19785671726E-01 -0.13673242230E-01  0.38387974401E+01  0.38401750242E+01  0.10000000000E+00 0.  1.
</event>
<event>
 5   0  0.6262544E+06  0.9118800E+02  0.7818608E-02  0.1180000E+00
       11   -1    0    0    0    0  0.00000000000E+00  0.00000000000E+00  0.39999999673E+01  0.40000000000E+01  0.51109989000E-03 0.  1.
     -623   -1    0    0    0    0  0.00000000000E+00  0.00000000000E+00  0.12525980253E-10  0.17130000000E+03  0.17130000000E+03 0. -1.
       11    1    1    2    0    0 -0.76824340090E-02 -0.47741990172E-02  0.14389524813E+00  0.14418015268E+00  0.51109989000E-03 0.  1.
     -623    1    1    2    0    0  0.15041230330E-01  0.86031980461E-02  0.15916414967E-02  0.17130000088E+03  0.17130000000E+03 0. -1.
      622    1    1    2    0    0 -0.73587963211E-02 -0.38289990290E-02  0.38545130777E+01  0.38558189635E+01  0.10000000000E+00 0.  1.
</event>
<event>
 5   0  0.6262544E+06  0.9118800E+02  0.7818608E-02  0.1180000E+00
       11   -1    0    0    0    0  0.00000000000E+00  0.00000000000E+00  0.39999999673E+01  0.40000000000E+01  0.51109989000E-03 0. -1.
     -623   -1    0    0    0    0  0.00000000000E+00  0.00000000000E+00  0.12525980253E-10  0.17130000000E+03  0.17130000000E+03 0.  1.
       11    1    1    2    0    0 -0.60870204554E-01 -0.43537775493E-01  0.68065931565E+00  0.68476133427E+00  0.51109989000E-03 0. -1.
     -623    1    1    2    0    0 -0.67639166858E-02  0.22828086369E-01  0.63673059554E-02  0.17130000177E+03  0.17130000000E+03 0.  1.
      622    1    1    2    0    0  0.67634121240E-01  0.20709689123E-01  0.33129733458E+01  0.33152368929E+01  0.10000000000E+00 0. -1.
</event>
<event>
 5   0  0.6262544E+06  0.9118800E+02  0.7818608E-02  0.1180000E+00
       11   -1    0    0    0    0  0.00000000000E+00  0.00000000000E+00  0.39999999673E+01  0.40000000000E+01  0.51109989000E-03 0.  1.
     -623   -1    0    0    0    0  0.00000000000E+00  0.00000000000E+00  0.12525980253E-10  0.17130000000E+03  0.17130000000E+03 0.  1.
       11    1    1    2    0    0 -0.14510655154E-01  0.15111547967E-01  0.30297463099E+00  0.30369854500E+00  0.51109989000E-03 0.  1.
     -623    1    1    2    0    0  0.80608474676E-02 -0.17436400764E-02  0.21068553028E-02  0.17130000021E+03  0.17130000000E+03 0.  1.
      622    1    1    2    0    0  0.64498076868E-02 -0.13367907891E-01  0.36949184811E+01  0.36963012435E+01  0.10000000000E+00 0.  1.
</event>
<event>
 5   0  0.6262544E+06  0.9118800E+02  0.7818608E-02  0.1180000E+00
       11   -1    0    0    0    0  0.00000000000E+00  0.00000000000E+00  0.39999999673E+01  0.40000000000E+01  0.51109989000E-03 0. -1.
     -623   -1    0    0    0    0  0.00000000000E+00  0.00000000000E+00  0.12525980253E-10  0.17130000000E+03  0.17130000000E+03 0.  1.
       11    1    1    2    0    0  0.33231319203E-01 -0.28164338940E-01  0.16526096405E+01  0.16531837271E+01  0.51109989000E-03 0. -1.
     -623    1    1    2    0    0 -0.43418552463E-02  0.24822318471E-02  0.30243189912E-02  0.17130000010E+03  0.17130000000E+03 0.  1.
      622    1    1    2    0    0 -0.28889463957E-01  0.25682107093E-01  0.23443660079E+01  0.23468161732E+01  0.10000000000E+00 0.  0.
</event>
<event>
 5   0  0.6262544E+06  0.9118800E+02  0.7818608E-02  0.1180000E+00
       11   -1    0    0    0    0  0.00000000000E+00  0.00000000000E+00  0.39999999673E+01  0.40000000000E+01  0.51109989000E-03 0. -1.
     -623   -1    0    0    0    0  0.00000000000E+00  0.00000000000E+00  0.12525980253E-10  0.17130000000E+03  0.17130000000E+03 0. -1.
       11    1    1    2    0    0  0.21333268160E-02  0.97026141982E-02  0.53844825681E-02  0.11311307670E-01  0.51109989000E-03 0. -1.
     -623    1    1    2    0    0 -0.10986204234E-01 -0.86008188540E-02  0.71912334849E-02  0.17130000072E+03  0.17130000000E+03 0. -1.
      622    1    1    2    0    0  0.88528774184E-02 -0.11017953441E-02  0.39874242513E+01  0.39886879732E+01  0.10000000000E+00 0. -1.
</event>
<event>
 5   0  0.6262544E+06  0.9118800E+02  0.7818608E-02  0.1180000E+00
       11   -1    0    0    0    0  0.00000000000E+00  0.00000000000E+00  0.39999999673E+01  0.40000000000E+01  0.51109989000E-03 0. -1.
     -623   -1    0    0    0    0  0.00000000000E+00  0.00000000000E+00  0.12525980253E-10  0.17130000000E+03  0.17130000000E+03 0.  1.
       11    1    1    2    0    0 -0.17281802668E-01  0.25084490450E-02  0.98879772726E-01  0.10041127275E+00  0.51109989000E-03 0. -1.
     -623    1    1    2    0    0 -0.17495188124E-02  0.49989213434E-02  0.28676548266E-02  0.17130000011E+03  0.17130000000E+03 0.  1.
      622    1    1    2    0    0  0.19031321480E-01 -0.75073703883E-02  0.38982525398E+01  0.38995886214E+01  0.10000000000E+00 0. -1.
</event>
<event>
 5   0  0.6262544E+06  0.9118800E+02  0.7818608E-02  0.1180000E+00
       11   -1    0    0    0    0  0.00000000000E+00  0.00000000000E+00  0.39999999673E+01  0.40000000000E+01  0.51109989000E-03 0.  1.
     -623   -1    0    0    0    0  0.00000000000E+00  0.00000000000E+00  0.12525980253E-10  0.17130000000E+03  0.17130000000E+03 0. -1.
       11    1    1    2    0    0 -0.16406172633E-01 -0.12721125308E-01  0.13236719452E+00  0.13398628638E+00  0.51109989000E-03 0.  1.
     -623    1    1    2    0    0  0.11699705286E-01  0.11847654370E-01  0.29163963127E-02  0.17130000083E+03  0.17130000000E+03 0. -1.
      622    1    1    2    0    0  0.47064673466E-02  0.87347093724E-03  0.38647163767E+01  0.38660128797E+01  0.10000000000E+00 0.  1.
</event>
<event>
 5   0  0.6262544E+06  0.9118800E+02  0.7818608E-02  0.1180000E+00
       11   -1    0    0    0    0  0.00000000000E+00  0.00000000000E+00  0.39999999673E+01  0.40000000000E+01  0.51109989000E-03 0.  1.
     -623   -1    0    0    0    0  0.00000000000E+00  0.00000000000E+00  0.12525980253E-10  0.17130000000E+03  0.17130000000E+03 0.  1.
       11    1    1    2    0    0 -0.32384957820E-02 -0.46951967745E-02  0.40126582422E-01  0.40533153916E-01  0.51109989000E-03 0.  1.
     -623    1    1    2    0    0 -0.39338046420E-03  0.46920466177E-02  0.16712756847E-02  0.17130000007E+03  0.17130000000E+03 0.  1.
      622    1    1    2    0    0  0.36318762462E-02  0.31501567879E-05  0.39582021093E+01  0.39594667732E+01  0.10000000000E+00 0.  1.
</event>
<event>
 5   0  0.6262544E+06  0.9118800E+02  0.7818608E-02  0.1180000E+00
       11   -1    0    0    0    0  0.00000000000E+00  0.00000000000E+00  0.39999999673E+01  0.40000000000E+01  0.51109989000E-03 0. -1.
     -623   -1    0    0    0    0  0.00000000000E+00  0.00000000000E+00  0.12525980253E-10  0.17130000000E+03  0.17130000000E+03 0. -1.
       11    1    1    2    0    0  0.26169814472E-01 -0.86527103943E-02  0.71741158238E+00  0.71794106188E+00  0.51109989000E-03 0. -1.
     -623    1    1    2    0    0  0.30909748633E-02  0.19065008418E-02  0.21907225816E-02  0.17130000005E+03  0.17130000000E+03 0. -1.
      622    1    1    2    0    0 -0.29260789336E-01  0.67462095524E-02  0.32803976625E+01  0.32820588857E+01  0.10000000000E+00 0. -1.
</event>
<event>
 5   0  0.6262544E+06  0.9118800E+02  0.7818608E-02  0.1180000E+00
       11   -1    0    0    0    0  0.00000000000E+00  0.00000000000E+00  0.39999999673E+01  0.40000000000E+01  0.51109989000E-03 0.  1.
     -623   -1    0    0    0    0  0.00000000000E+00  0.00000000000E+00  0.12525980253E-10  0.17130000000E+03  0.17130000000E+03 0.  1.
       11    1    1    2    0    0  0.42712120324E-02  0.13867519599E-02  0.12135193851E+00  0.12143607591E+00  0.51109989000E-03 0.  1.
     -623    1    1    2    0    0  0.72797508372E-03 -0.74524572186E-03  0.13767406492E-02  0.17130000001E+03  0.17130000000E+03 0.  1.
      622    1    1    2    0    0 -0.49991871161E-02 -0.64150623801E-03  0.38772712882E+01  0.38785639154E+01  0.10000000000E+00 0.  1.
</event>
<event>
 5   0  0.6262544E+06  0.9118800E+02  0.7818608E-02  0.1180000E+00
       11   -1    0    0    0    0  0.00000000000E+00  0.00000000000E+00  0.39999999673E+01  0.40000000000E+01  0.51109989000E-03 0.  1.
     -623   -1    0    0    0    0  0.00000000000E+00  0.00000000000E+00  0.12525980253E-10  0.17130000000E+03  0.17130000000E+03 0.  1.
       11    1    1    2    0    0  0.33970913241E-01  0.23006387854E-01  0.19630441881E+01  0.19634729594E+01  0.51109989000E-03 0.  1.
     -623    1    1    2    0    0 -0.31136727933E-01 -0.29811709384E-01  0.29041944309E-02  0.17130000545E+03  0.17130000000E+03 0.  1.
      622    1    1    2    0    0 -0.28341853075E-02  0.68053215307E-02  0.20340515849E+01  0.20365215920E+01  0.10000000000E+00 0.  1.
</event>
<event>
 5   0  0.6262544E+06  0.9118800E+02  0.7818608E-02  0.1180000E+00
       11   -1    0    0    0    0  0.00000000000E+00  0.00000000000E+00  0.39999999673E+01  0.40000000000E+01  0.51109989000E-03 0. -1.
     -623   -1    0    0    0    0  0.00000000000E+00  0.00000000000E+00  0.12525980253E-10  0.17130000000E+03  0.17130000000E+03 0.  1.
       11    1    1    2    0    0 -0.75765246019E-02  0.18129015550E-02  0.11568653383E+00  0.11594966869E+00  0.51109989000E-03 0. -1.
     -623    1    1    2    0    0  0.80665906346E-02 -0.12821071642E-01  0.15669445157E-02  0.17130000068E+03  0.17130000000E+03 0.  1.
      622    1    1    2    0    0 -0.49006603242E-03  0.11008170087E-01  0.38827464889E+01  0.38840496543E+01  0.10000000000E+00 0. -1.
</event>
<event>
 5   0  0.6262544E+06  0.9118800E+02  0.7818608E-02  0.1180000E+00
       11   -1    0    0    0    0  0.00000000000E+00  0.00000000000E+00  0.39999999673E+01  0.40000000000E+01  0.51109989000E-03 0.  1.
     -623   -1    0    0    0    0  0.00000000000E+00  0.00000000000E+00  0.12525980253E-10  0.17130000000E+03  0.17130000000E+03 0. -1.
       11    1    1    2    0    0 -0.40201710702E-01  0.22806373891E-01  0.13420462815E+01  0.13428420574E+01  0.51109989000E-03 0.  1.
     -623    1    1    2    0    0 -0.10525422911E-03 -0.33486104760E-01  0.30088484627E-02  0.17130000330E+03  0.17130000000E+03 0. -1.
      622    1    1    2    0    0  0.40306964931E-01  0.10679730869E-01  0.26549448374E+01  0.26571546432E+01  0.10000000000E+00 0.  1.
</event>
<event>
 5   0  0.6262544E+06  0.9118800E+02  0.7818608E-02  0.1180000E+00
       11   -1    0    0    0    0  0.00000000000E+00  0.00000000000E+00  0.39999999673E+01  0.40000000000E+01  0.51109989000E-03 0. -1.
     -623   -1    0    0    0    0  0.00000000000E+00  0.00000000000E+00  0.12525980253E-10  0.17130000000E+03  0.17130000000E+03 0. -1.
       11    1    1    2    0    0  0.63724277385E-02  0.37914506692E-01  0.10411504049E+00  0.11098792967E+00  0.51109989000E-03 0. -1.
     -623    1    1    2    0    0  0.14527155309E-01 -0.36541887885E-01  0.82198736583E-02  0.17130000471E+03  0.17130000000E+03 0. -1.
      622    1    1    2    0    0 -0.20899583047E-01 -0.13726188070E-02  0.38876650532E+01  0.38890073596E+01  0.10000000000E+00 0. -1.
</event>
<event>
 5   0  0.6262544E+06  0.9118800E+02  0.7818608E-02  0.1180000E+00
       11   -1    0    0    0    0  0.00000000000E+00  0.00000000000E+00  0.39999999673E+01  0.40000000000E+01  0.51109989000E-03 0. -1.
     -623   -1    0    0    0    0  0.00000000000E+00  0.00000000000E+00  0.12525980253E-10  0.17130000000E+03  0.17130000000E+03 0. -1.
       11    1    1    2    0    0 -0.33399242127E-02  0.51413207504E-01  0.37354334115E+00  0.37708004712E+00  0.51109989000E-03 0. -1.
     -623    1    1    2    0    0 -0.19558480882E-01 -0.39009017511E-01  0.50163080326E-02  0.17130000563E+03  0.17130000000E+03 0. -1.
      622    1    1    2    0    0  0.22898405095E-01 -0.12404189993E-01  0.36214403182E+01  0.36229143212E+01  0.10000000000E+00 0. -1.
</event>
<event>
 5   0  0.6262544E+06  0.9118800E+02  0.7818608E-02  0.1180000E+00
       11   -1    0    0    0    0  0.00000000000E+00  0.00000000000E+00  0.39999999673E+01  0.40000000000E+01  0.51109989000E-03 0.  1.
     -623   -1    0    0    0    0  0.00000000000E+00  0.00000000000E+00  0.12525980253E-10  0.17130000000E+03  0.17130000000E+03 0.  1.
       11    1    1    2    0    0  0.46116679907E-02 -0.28205951394E-01  0.85064820273E+00  0.85112835060E+00  0.51109989000E-03 0.  1.
     -623    1    1    2    0    0 -0.94668592220E-02  0.56423069474E-02  0.21533826507E-02  0.17130000037E+03  0.17130000000E+03 0.  1.
      622    1    1    2    0    0  0.48551912312E-02  0.22563644447E-01  0.31471983819E+01  0.31488712813E+01  0.10000000000E+00 0.  1.
</event>
<event>
 5   0  0.6262544E+06  0.9118800E+02  0.7818608E-02  0.1180000E+00
       11   -1    0    0    0    0  0.00000000000E+00  0.00000000000E+00  0.39999999673E+01  0.40000000000E+01  0.51109989000E-03 0.  1.
     -623   -1    0    0    0    0  0.00000000000E+00  0.00000000000E+00  0.12525980253E-10  0.17130000000E+03  0.17130000000E+03 0.  1.
       11    1    1    2    0    0 -0.54961152743E-01 -0.11524339751E-01  0.52664243228E+00  0.52962821999E+00  0.51109989000E-03 0.  1.
     -623    1    1    2    0    0  0.20400531779E-02  0.20462686988E-02  0.48435635924E-02  0.17130000009E+03  0.17130000000E+03 0.  1.
      622    1    1    2    0    0  0.52921099565E-01  0.94780710522E-02  0.34685139715E+01  0.34703716872E+01  0.10000000000E+00 0.  1.
</event>
<event>
 5   0  0.6262544E+06  0.9118800E+02  0.7818608E-02  0.1180000E+00
       11   -1    0    0    0    0  0.00000000000E+00  0.00000000000E+00  0.39999999673E+01  0.40000000000E+01  0.51109989000E-03 0. -1.
     -623   -1    0    0    0    0  0.00000000000E+00  0.00000000000E+00  0.12525980253E-10  0.17130000000E+03  0.17130000000E+03 0.  1.
       11    1    1    2    0    0  0.33236207103E-02  0.11717057241E-01  0.10039042535E+00  0.10112781322E+00  0.51109989000E-03 0. -1.
     -623    1    1    2    0    0 -0.17667613387E-02  0.27183480126E-02  0.20470743259E-02  0.17130000004E+03  0.17130000000E+03 0.  1.
      622    1    1    2    0    0 -0.15568593716E-02 -0.14435405253E-01  0.38975624677E+01  0.38988721439E+01  0.10000000000E+00 0. -1.
</event>
<event>
 5   0  0.6262544E+06  0.9118800E+02  0.7818608E-02  0.1180000E+00
       11   -1    0    0    0    0  0.00000000000E+00  0.00000000000E+00  0.39999999673E+01  0.40000000000E+01  0.51109989000E-03 0.  1.
     -623   -1    0    0    0    0  0.00000000000E+00  0.00000000000E+00  0.12525980253E-10  0.17130000000E+03  0.17130000000E+03 0.  1.
       11    1    1    2    0    0  0.20047870171E-02 -0.12584968614E-02  0.39176881561E-01  0.39251652888E-01  0.51109989000E-03 0.  1.
     -623    1    1    2    0    0 -0.23246961371E-02 -0.34533538471E-03  0.13376867288E-02  0.17130000002E+03  0.17130000000E+03 0.  1.
      622    1    1    2    0    0  0.31990911997E-03  0.16038322461E-02  0.39594853991E+01  0.39607483258E+01  0.10000000000E+00 0.  1.
</event>
<event>
 5   0  0.6262544E+06  0.9118800E+02  0.7818608E-02  0.1180000E+00
       11   -1    0    0    0    0  0.00000000000E+00  0.00000000000E+00  0.39999999673E+01  0.40000000000E+01  0.51109989000E-03 0. -1.
     -623   -1    0    0    0    0  0.00000000000E+00  0.00000000000E+00  0.12525980253E-10  0.17130000000E+03  0.17130000000E+03 0.  1.
       11    1    1    2    0    0 -0.58666172760E-02  0.49764023677E-02  0.12353047431E-01  0.14561620195E-01  0.51109989000E-03 0. -1.
     -623    1    1    2    0    0 -0.18077775281E-02 -0.25592345261E-02  0.34714931458E-02  0.17130000006E+03  0.17130000000E+03 0.  1.
      622    1    1    2    0    0  0.76743948042E-02 -0.24171678415E-02  0.39841754269E+01  0.39854383161E+01  0.10000000000E+00 0. -1.
</event>
<event>
 5   0  0.6262544E+06  0.9118800E+02  0.7818608E-02  0.1180000E+00
       11   -1    0    0    0    0  0.00000000000E+00  0.00000000000E+00  0.39999999673E+01  0.40000000000E+01  0.51109989000E-03 0. -1.
     -623   -1    0    0    0    0  0.00000000000E+00  0.00000000000E+00  0.12525980253E-10  0.17130000000E+03  0.17130000000E+03 0. -1.
       11    1    1    2    0    0 -0.26534928620E-01  0.12037094671E-01  0.18851377523E+00  0.19075297837E+00  0.51109989000E-03 0. -1.
     -623    1    1    2    0    0 -0.60437810801E-01  0.54697363962E-01  0.51497933473E-02  0.17130001947E+03  0.17130000000E+03 0. -1.
      622    1    1    2    0    0  0.86972739421E-01 -0.66734458632E-01  0.38063363988E+01  0.38092275498E+01  0.10000000000E+00 0. -1.
</event>
<event>
 5   0  0.6262544E+06  0.9118800E+02  0.7818608E-02  0.1180000E+00
       11   -1    0    0    0    0  0.00000000000E+00  0.00000000000E+00  0.39999999673E+01  0.40000000000E+01  0.51109989000E-03 0. -1.
     -623   -1    0    0    0    0  0.00000000000E+00  0.00000000000E+00  0.12525980253E-10  0.17130000000E+03  0.17130000000E+03 0.  1.
       11    1    1    2    0    0  0.23948021355E-02  0.79160674042E-02  0.15647125650E+00  0.15669050555E+00  0.51109989000E-03 0. -1.
     -623    1    1    2    0    0 -0.13726817007E-02  0.20089534016E-02  0.15333785193E-02  0.17130000002E+03  0.17130000000E+03 0.  1.
      622    1    1    2    0    0 -0.10221204348E-02 -0.99250208058E-02  0.38419953323E+01  0.38433094703E+01  0.10000000000E+00 0. -1.
</event>
<event>
 5   0  0.6262544E+06  0.9118800E+02  0.7818608E-02  0.1180000E+00
       11   -1    0    0    0    0  0.00000000000E+00  0.00000000000E+00  0.39999999673E+01  0.40000000000E+01  0.51109989000E-03 0.  1.
     -623   -1    0    0    0    0  0.00000000000E+00  0.00000000000E+00  0.12525980253E-10  0.17130000000E+03  0.17130000000E+03 0. -1.
       11    1    1    2    0    0  0.17991612484E-02 -0.31382568704E-02  0.23984605660E-01  0.24261248302E-01  0.51109989000E-03 0.  1.
     -623    1    1    2    0    0 -0.29692282487E-02 -0.11949162639E-02  0.15370080385E-02  0.17130000004E+03  0.17130000000E+03 0. -1.
      622    1    1    2    0    0  0.11700670002E-02  0.43331731343E-02  0.39744783536E+01  0.39757387149E+01  0.10000000000E+00 0.  1.
</event>
<event>
 5   0  0.6262544E+06  0.9118800E+02  0.7818608E-02  0.1180000E+00
       11   -1    0    0    0    0  0.00000000000E+00  0.00000000000E+00  0.39999999673E+01  0.40000000000E+01  0.51109989000E-03 0. -1.
     -623   -1    0    0    0    0  0.00000000000E+00  0.00000000000E+00  0.12525980253E-10  0.17130000000E+03  0.17130000000E+03 0.  1.
       11    1    1    2    0    0 -0.14907654704E-01  0.44840142716E-01  0.16579982951E+01  0.16586716023E+01  0.51109989000E-03 0. -1.
     -623    1    1    2    0    0  0.11511843900E-01 -0.29854767113E-01  0.28632695527E-02  0.17130000301E+03  0.17130000000E+03 0.  1.
      622    1    1    2    0    0  0.33958108036E-02 -0.14985375603E-01  0.23391384028E+01  0.23413253854E+01  0.10000000000E+00 0.  0.
</event>
<event>
 5   0  0.6262544E+06  0.9118800E+02  0.7818608E-02  0.1180000E+00
       11   -1    0    0    0    0  0.00000000000E+00  0.00000000000E+00  0.39999999673E+01  0.40000000000E+01  0.51109989000E-03 0.  1.
     -623   -1    0    0    0    0  0.00000000000E+00  0.00000000000E+00  0.12525980253E-10  0.17130000000E+03  0.17130000000E+03 0.  1.
       11    1    1    2    0    0 -0.12258919691E-01  0.17102550696E-01  0.11021500739E+00  0.11220689564E+00  0.51109989000E-03 0.  1.
     -623    1    1    2    0    0  0.83464399071E-02 -0.29880074442E-01  0.33039607061E-02  0.17130000284E+03  0.17130000000E+03 0.  1.
      622    1    1    2    0    0  0.39124797836E-02  0.12777523747E-01  0.38864809994E+01  0.38877902633E+01  0.10000000000E+00 0.  1.
</event>
<event>
 5   0  0.6262544E+06  0.9118800E+02  0.7818608E-02  0.1180000E+00
       11   -1    0    0    0    0  0.00000000000E+00  0.00000000000E+00  0.39999999673E+01  0.40000000000E+01  0.51109989000E-03 0. -1.
     -623   -1    0    0    0    0  0.00000000000E+00  0.00000000000E+00  0.12525980253E-10  0.17130000000E+03  0.17130000000E+03 0. -1.
       11    1    1    2    0    0  0.88279799163E-02 -0.66939276723E-03  0.57185107891E-02  0.10551962033E-01  0.51109989000E-03 0. -1.
     -623    1    1    2    0    0 -0.14976877268E-01 -0.45501449792E-03  0.60925842673E-02  0.17130000076E+03  0.17130000000E+03 0. -1.
      622    1    1    2    0    0  0.61488973519E-02  0.11244072652E-02  0.39881888723E+01  0.39894472743E+01  0.10000000000E+00 0. -1.
</event>
<event>
 5   0  0.6262544E+06  0.9118800E+02  0.7818608E-02  0.1180000E+00
       11   -1    0    0    0    0  0.00000000000E+00  0.00000000000E+00  0.39999999673E+01  0.40000000000E+01  0.51109989000E-03 0. -1.
     -623   -1    0    0    0    0  0.00000000000E+00  0.00000000000E+00  0.12525980253E-10  0.17130000000E+03  0.17130000000E+03 0.  1.
       11    1    1    2    0    0 -0.37645254887E-02 -0.87375869794E-02  0.18799808055E+00  0.18823935983E+00  0.51109989000E-03 0. -1.
     -623    1    1    2    0    0  0.15700909546E-01 -0.17020990273E-01  0.16605369027E-02  0.17130000157E+03  0.17130000000E+03 0.  1.
      622    1    1    2    0    0 -0.11936384057E-01  0.25758577253E-01  0.38103413499E+01  0.38117590669E+01  0.10000000000E+00 0. -1.
</event>
<event>
 5   0  0.6262544E+06  0.9118800E+02  0.7818608E-02  0.1180000E+00
       11   -1    0    0    0    0  0.00000000000E+00  0.00000000000E+00  0.39999999673E+01  0.40000000000E+01  0.51109989000E-03 0. -1.
     -623   -1    0    0    0    0  0.00000000000E+00  0.00000000000E+00  0.12525980253E-10  0.17130000000E+03  0.17130000000E+03 0. -1.
       11    1    1    2    0    0 -0.31674198610E-04 -0.20713137319E-02  0.13314002284E-02  0.25149937369E-02  0.51109989000E-03 0. -1.
     -623    1    1    2    0    0  0.12963266530E-02  0.57473863775E-03  0.24350465624E-02  0.17130000002E+03  0.17130000000E+03 0. -1.
      622    1    1    2    0    0 -0.12646524544E-02  0.14965750941E-02  0.39962335205E+01  0.39974849830E+01  0.10000000000E+00 0. -1.
</event>
<event>
 5   0  0.6262544E+06  0.9118800E+02  0.7818608E-02  0.1180000E+00
       11   -1    0    0    0    0  0.00000000000E+00  0.00000000000E+00  0.39999999673E+01  0.40000000000E+01  0.51109989000E-03 0.  1.
     -623   -1    0    0    0    0  0.00000000000E+00  0.00000000000E+00  0.12525980253E-10  0.17130000000E+03  0.17130000000E+03 0. -1.
       11    1    1    2    0    0 -0.50592684411E-03 -0.89392581309E-03  0.10859949625E-01  0.10920384205E-01  0.51109989000E-03 0.  1.
     -623    1    1    2    0    0 -0.19494696700E-02  0.24914828303E-02  0.13151310754E-02  0.17130000003E+03  0.17130000000E+03 0. -1.
      622    1    1    2    0    0  0.24553965142E-02 -0.15975570172E-02  0.39878248867E+01  0.39890795815E+01  0.10000000000E+00 0.  1.
</event>
<event>
 5   0  0.6262544E+06  0.9118800E+02  0.7818608E-02  0.1180000E+00
       11   -1    0    0    0    0  0.00000000000E+00  0.00000000000E+00  0.39999999673E+01  0.40000000000E+01  0.51109989000E-03 0.  1.
     -623   -1    0    0    0    0  0.00000000000E+00  0.00000000000E+00  0.12525980253E-10  0.17130000000E+03  0.17130000000E+03 0. -1.
       11    1    1    2    0    0 -0.24624455945E-01 -0.11432100332E-01  0.26250204644E+00  0.26390271381E+00  0.51109989000E-03 0.  1.
     -623    1    1    2    0    0  0.15522314299E+00  0.70892668504E-01  0.55821168293E-02  0.17130008509E+03  0.17130000000E+03 0. -1.
      622    1    1    2    0    0 -0.13059868705E+00 -0.59460568172E-01  0.37319158041E+01  0.37360121982E+01  0.10000000000E+00 0.  1.
</event>
<event>
 5   0  0.6262544E+06  0.9118800E+02  0.7818608E-02  0.1180000E+00
       11   -1    0    0    0    0  0.00000000000E+00  0.00000000000E+00  0.39999999673E+01  0.40000000000E+01  0.51109989000E-03 0. -1.
     -623   -1    0    0    0    0  0.00000000000E+00  0.00000000000E+00  0.12525980253E-10  0.17130000000E+03  0.17130000000E+03 0. -1.
       11    1    1    2    0    0  0.75335111700E-04  0.31082300371E-02  0.98200248925E-01  0.98250785647E-01  0.51109989000E-03 0. -1.
     -623    1    1    2    0    0 -0.39416762435E-02 -0.63256852116E-02  0.13356017995E-02  0.17130000017E+03  0.17130000000E+03 0. -1.
      622    1    1    2    0    0  0.38663411318E-02  0.32174551744E-02  0.39004641166E+01  0.39017490470E+01  0.10000000000E+00 0. -1.
</event>
<event>
 5   0  0.6262544E+06  0.9118800E+02  0.7818608E-02  0.1180000E+00
       11   -1    0    0    0    0  0.00000000000E+00  0.00000000000E+00  0.39999999673E+01  0.40000000000E+01  0.51109989000E-03 0.  1.
     -623   -1    0    0    0    0  0.00000000000E+00  0.00000000000E+00  0.12525980253E-10  0.17130000000E+03  0.17130000000E+03 0. -1.
       11    1    1    2    0    0  0.12315159374E-01 -0.44979638959E-02  0.11156524336E-01  0.17222778173E-01  0.51109989000E-03 0.  1.
     -623    1    1    2    0    0  0.50024369772E-01  0.32613341688E-01  0.79197641546E-02  0.17130001059E+03  0.17130000000E+03 0. -1.
      622    1    1    2    0    0 -0.62339529147E-01 -0.28115377793E-01  0.39809236789E+01  0.39827666300E+01  0.10000000000E+00 0.  1.
</event>
<event>
 5   0  0.6262544E+06  0.9118800E+02  0.7818608E-02  0.1180000E+00
       11   -1    0    0    0    0  0.00000000000E+00  0.00000000000E+00  0.39999999673E+01  0.40000000000E+01  0.51109989000E-03 0.  1.
     -623   -1    0    0    0    0  0.00000000000E+00  0.00000000000E+00  0.12525980253E-10  0.17130000000E+03  0.17130000000E+03 0. -1.
       11    1    1    2    0    0  0.15374261009E-02 -0.26263188909E-03  0.46080164970E+00  0.46080457273E+00  0.51109989000E-03 0.  1.
     -623    1    1    2    0    0 -0.24135186290E-01 -0.17029588852E-01  0.15329127046E-02  0.17130000255E+03  0.17130000000E+03 0. -1.
      622    1    1    2    0    0  0.22597760189E-01  0.17292220741E-01  0.35376654050E+01  0.35391928737E+01  0.10000000000E+00 0.  1.
</event>
<event>
 5   0  0.6262544E+06  0.9118800E+02  0.7818608E-02  0.1180000E+00
       11   -1    0    0    0    0  0.00000000000E+00  0.00000000000E+00  0.39999999673E+01  0.40000000000E+01  0.51109989000E-03 0. -1.
     -623   -1    0    0    0    0  0.00000000000E+00  0.00000000000E+00  0.12525980253E-10  0.17130000000E+03  0.17130000000E+03 0.  1.
       11    1    1    2    0    0 -0.45502893965E-01  0.12903775093E+00  0.25104594238E+01  0.25141853620E+01  0.51109989000E-03 0. -1.
     -623    1    1    2    0    0  0.73787442362E-02 -0.37940465577E-01  0.10392451681E-01  0.17130000468E+03  0.17130000000E+03 0.  1.
      622    1    1    2    0    0  0.38124149728E-01 -0.91097285357E-01  0.14791480919E+01  0.14858099622E+01  0.10000000000E+00 0.  0.
</event>
<event>
 5   0  0.6262544E+06  0.9118800E+02  0.7818608E-02  0.1180000E+00
       11   -1    0    0    0    0  0.00000000000E+00  0.00000000000E+00  0.39999999673E+01  0.40000000000E+01  0.51109989000E-03 0.  1.
     -623   -1    0    0    0    0  0.00000000000E+00  0.00000000000E+00  0.12525980253E-10  0.17130000000E+03  0.17130000000E+03 0. -1.
       11    1    1    2    0    0 -0.62729403178E-02  0.77841403451E-02  0.57922299147E-01  0.58780920227E-01  0.51109989000E-03 0.  1.
     -623    1    1    2    0    0  0.95054084866E-02 -0.77598772530E-02  0.21292146432E-02  0.17130000045E+03  0.17130000000E+03 0. -1.
      622    1    1    2    0    0 -0.32324681683E-02 -0.24263092558E-04  0.39399484533E+01  0.39412186268E+01  0.10000000000E+00 0.  1.
</event>
<event>
 5   0  0.6262544E+06  0.9118800E+02  0.7818608E-02  0.1180000E+00
       11   -1    0    0    0    0  0.00000000000E+00  0.00000000000E+00  0.39999999673E+01  0.40000000000E+01  0.51109989000E-03 0.  1.
     -623   -1    0    0    0    0  0.00000000000E+00  0.00000000000E+00  0.12525980253E-10  0.17130000000E+03  0.17130000000E+03 0.  1.
       11    1    1    2    0    0  0.54462540864E-02 -0.36549960580E-02  0.12955553683E-01  0.14530253752E-01  0.51109989000E-03 0.  1.
     -623    1    1    2    0    0 -0.22182347368E-02  0.61980392401E-02  0.28316914113E-02  0.17130000015E+03  0.17130000000E+03 0.  1.
      622    1    1    2    0    0 -0.32280193496E-02 -0.25430431821E-02  0.39842127223E+01  0.39854695963E+01  0.10000000000E+00 0.  1.
</event>
<event>
 5   0  0.6262544E+06  0.9118800E+02  0.7818608E-02  0.1180000E+00
       11   -1    0    0    0    0  0.00000000000E+00  0.00000000000E+00  0.39999999673E+01  0.40000000000E+01  0.51109989000E-03 0.  1.
     -623   -1    0    0    0    0  0.00000000000E+00  0.00000000000E+00  0.12525980253E-10  0.17130000000E+03  0.17130000000E+03 0.  1.
       11    1    1    2    0    0 -0.89774539396E-02  0.49926950025E-03  0.17519346618E+01  0.17519578090E+01  0.51109989000E-03 0.  1.
     -623    1    1    2    0    0 -0.88099698580E-02  0.85293050136E-02  0.23374190877E-02  0.17130000045E+03  0.17130000000E+03 0.  1.
      622    1    1    2    0    0  0.17787423798E-01 -0.90285745138E-02  0.22457278864E+01  0.22480417362E+01  0.10000000000E+00 0.  1.
</event>
<event>
 5   0  0.6262544E+06  0.9118800E+02  0.7818608E-02  0.1180000E+00
       11   -1    0    0    0    0  0.00000000000E+00  0.00000000000E+00  0.39999999673E+01  0.40000000000E+01  0.51109989000E-03 0. -1.
     -623   -1    0    0    0    0  0.00000000000E+00  0.00000000000E+00  0.12525980253E-10  0.17130000000E+03  0.17130000000E+03 0. -1.
       11    1    1    2    0    0  0.14317050768E-02  0.63988403323E-02  0.42088979771E-01  0.42599746201E-01  0.51109989000E-03 0. -1.
     -623    1    1    2    0    0 -0.58664212820E-02 -0.60583468894E-02  0.17771083856E-02  0.17130000022E+03  0.17130000000E+03 0. -1.
      622    1    1    2    0    0  0.44347162052E-02 -0.34049344288E-03  0.39561338792E+01  0.39574000370E+01  0.10000000000E+00 0. -1.
</event>
<event>
 5   0  0.6262544E+06  0.9118800E+02  0.7818608E-02  0.1180000E+00
       11   -1    0    0    0    0  0.00000000000E+00  0.00000000000E+00  0.39999999673E+01  0.40000000000E+01  0.51109989000E-03 0. -1.
     -623   -1    0    0    0    0  0.00000000000E+00  0.00000000000E+00  0.12525980253E-10  0.17130000000E+03  0.17130000000E+03 0. -1.
       11    1    1    2    0    0  0.92236003140E-02 -0.43968003830E-02  0.77174068070E-01  0.77849243166E-01  0.51109989000E-03 0. -1.
     -623    1    1    2    0    0 -0.84757111198E-04  0.34295672843E-02  0.19609758544E-02  0.17130000005E+03  0.17130000000E+03 0. -1.
      622    1    1    2    0    0 -0.91388432028E-02  0.96723309871E-03  0.39208649234E+01  0.39221507113E+01  0.10000000000E+00 0. -1.
</event>
<event>
 5   0  0.6262544E+06  0.9118800E+02  0.7818608E-02  0.1180000E+00
       11   -1    0    0    0    0  0.00000000000E+00  0.00000000000E+00  0.39999999673E+01  0.40000000000E+01  0.51109989000E-03 0.  1.
     -623   -1    0    0    0    0  0.00000000000E+00  0.00000000000E+00  0.12525980253E-10  0.17130000000E+03  0.17130000000E+03 0.  1.
       11    1    1    2    0    0 -0.33863866307E-01 -0.20196190738E-01  0.18275981192E+01  0.18280234665E+01  0.51109989000E-03 0.  1.
     -623    1    1    2    0    0  0.10065561937E-02  0.30984179827E-02  0.30448297602E-02  0.17130000006E+03  0.17130000000E+03 0.  1.
      622    1    1    2    0    0  0.32857310114E-01  0.17097772755E-01  0.21693570184E+01  0.21719764755E+01  0.10000000000E+00 0.  1.
</event>
<event>
 5   0  0.6262544E+06  0.9118800E+02  0.7818608E-02  0.1180000E+00
       11   -1    0    0    0    0  0.00000000000E+00  0.00000000000E+00  0.39999999673E+01  0.40000000000E+01  0.51109989000E-03 0. -1.
     -623   -1    0    0    0    0  0.00000000000E+00  0.00000000000E+00  0.12525980253E-10  0.17130000000E+03  0.17130000000E+03 0. -1.
       11    1    1    2    0    0  0.23919351264E-01  0.67334731276E-01  0.17175907219E+01  0.17190765691E+01  0.51109989000E-03 0. -1.
     -623    1    1    2    0    0 -0.39574002012E-02  0.14468763065E-01  0.52359878521E-02  0.17130000074E+03  0.17130000000E+03 0. -1.
      622    1    1    2    0    0 -0.19961951062E-01 -0.81803494341E-01  0.22771732576E+01  0.22809226941E+01  0.10000000000E+00 0.  0.
</event>
<event>
 5   0  0.6262544E+06  0.9118800E+02  0.7818608E-02  0.1180000E+00
       11   -1    0    0    0    0  0.00000000000E+00  0.00000000000E+00  0.39999999673E+01  0.40000000000E+01  0.51109989000E-03 0.  1.
     -623   -1    0    0    0    0  0.00000000000E+00  0.00000000000E+00  0.12525980253E-10  0.17130000000E+03  0.17130000000E+03 0.  1.
       11    1    1    2    0    0 -0.13368301580E-02 -0.66681183167E-03  0.90721446487E-03  0.18209926065E-02  0.51109989000E-03 0.  1.
     -623    1    1    2    0    0 -0.25313866037E-03  0.20434530980E-02  0.21650898452E-02  0.17130000003E+03  0.17130000000E+03 0.  1.
      622    1    1    2    0    0  0.15899688183E-02 -0.13766412663E-02  0.39969276631E+01  0.39981789814E+01  0.10000000000E+00 0.  1.
</event>
<event>
 5   0  0.6262544E+06  0.9118800E+02  0.7818608E-02  0.1180000E+00
       11   -1    0    0    0    0  0.00000000000E+00  0.00000000000E+00  0.39999999673E+01  0.40000000000E+01  0.51109989000E-03 0. -1.
     -623   -1    0    0    0    0  0.00000000000E+00  0.00000000000E+00  0.12525980253E-10  0.17130000000E+03  0.17130000000E+03 0.  1.
       11    1    1    2    0    0  0.77994240240E-02 -0.36297555457E-02  0.12021893325E-01  0.14791662606E-01  0.51109989000E-03 0. -1.
     -623    1    1    2    0    0 -0.40111597420E-01  0.14326039274E-01  0.41753186302E-02  0.17130000535E+03  0.17130000000E+03 0.  1.
      622    1    1    2    0    0  0.32312173396E-01 -0.10696283729E-01  0.39838027555E+01  0.39852029913E+01  0.10000000000E+00 0. -1.
</event>
<event>
 5   0  0.6262544E+06  0.9118800E+02  0.7818608E-02  0.1180000E+00
       11   -1    0    0    0    0  0.00000000000E+00  0.00000000000E+00  0.39999999673E+01  0.40000000000E+01  0.51109989000E-03 0. -1.
     -623   -1    0    0    0    0  0.00000000000E+00  0.00000000000E+00  0.12525980253E-10  0.17130000000E+03  0.17130000000E+03 0.  1.
       11    1    1    2    0    0 -0.21005421727E-02 -0.24483810299E-02  0.55308207855E-02  0.64232428073E-02  0.51109989000E-03 0. -1.
     -623    1    1    2    0    0  0.26733384636E-02  0.86089744341E-02  0.21496412764E-02  0.17130000025E+03  0.17130000000E+03 0.  1.
      622    1    1    2    0    0 -0.57279629093E-03 -0.61605934042E-02  0.39923195053E+01  0.39935765065E+01  0.10000000000E+00 0. -1.
</event>
<event>
 5   0  0.6262544E+06  0.9118800E+02  0.7818608E-02  0.1180000E+00
       11   -1    0    0    0    0  0.00000000000E+00  0.00000000000E+00  0.39999999673E+01  0.40000000000E+01  0.51109989000E-03 0. -1.
     -623   -1    0    0    0    0  0.00000000000E+00  0.00000000000E+00  0.12525980253E-10  0.17130000000E+03  0.17130000000E+03 0.  1.
       11    1    1    2    0    0 -0.32014884916E-02 -0.17436652527E-02  0.30431307112E-01  0.30653149438E-01  0.51109989000E-03 0. -1.
     -623    1    1    2    0    0  0.28873676200E-02 -0.19663846284E-02  0.14834515926E-02  0.17130000004E+03  0.17130000000E+03 0.  1.
      622    1    1    2    0    0  0.31412087151E-03  0.37100498811E-02  0.39680852087E+01  0.39693468085E+01  0.10000000000E+00 0. -1.
</event>
<event>
 5   0  0.6262544E+06  0.9118800E+02  0.7818608E-02  0.1180000E+00
       11   -1    0    0    0    0  0.00000000000E+00  0.00000000000E+00  0.39999999673E+01  0.40000000000E+01  0.51109989000E-03 0.  1.
     -623   -1    0    0    0    0  0.00000000000E+00  0.00000000000E+00  0.12525980253E-10  0.17130000000E+03  0.17130000000E+03 0. -1.
       11    1    1    2    0    0  0.33204688099E-01 -0.41214796345E-02  0.11931441962E+01  0.11936133679E+01  0.51109989000E-03 0.  1.
     -623    1    1    2    0    0  0.89102331513E-02  0.58384758359E-02  0.25684558338E-02  0.17130000035E+03  0.17130000000E+03 0. -1.
      622    1    1    2    0    0 -0.42114921250E-01 -0.17169962014E-02  0.28042873153E+01  0.28063862816E+01  0.10000000000E+00 0.  0.
</event>
<event>
 5   0  0.6262544E+06  0.9118800E+02  0.7818608E-02  0.1180000E+00
       11   -1    0    0    0    0  0.00000000000E+00  0.00000000000E+00  0.39999999673E+01  0.40000000000E+01  0.51109989000E-03 0.  1.
     -623   -1    0    0    0    0  0.00000000000E+00  0.00000000000E+00  0.12525980253E-10  0.17130000000E+03  0.17130000000E+03 0. -1.
       11    1    1    2    0    0 -0.69026113808E-02  0.52254547970E-03  0.24565968019E+00  0.24575772377E+00  0.51109989000E-03 0.  1.
     -623    1    1    2    0    0 -0.93505541908E-03 -0.19268156765E-02  0.14385402857E-02  0.17130000002E+03  0.17130000000E+03 0. -1.
      622    1    1    2    0    0  0.78376667998E-02  0.14042701966E-02  0.37529017467E+01  0.37542422566E+01  0.10000000000E+00 0.  1.
</event>
<event>
 5   0  0.6262544E+06  0.9118800E+02  0.7818608E-02  0.1180000E+00
       11   -1    0    0    0    0  0.00000000000E+00  0.00000000000E+00  0.39999999673E+01  0.40000000000E+01  0.51109989000E-03 0. -1.
     -623   -1    0    0    0    0  0.00000000000E+00  0.00000000000E+00  0.12525980253E-10  0.17130000000E+03  0.17130000000E+03 0. -1.
       11    1    1    2    0    0 -0.75565751348E-01 -0.59493300824E-01  0.64375998432E+00  0.65090461225E+00  0.51109989000E-03 0. -1.
     -623    1    1    2    0    0  0.22418011654E-01 -0.18588791675E-01  0.99734224313E-02  0.17130000277E+03  0.17130000000E+03 0. -1.
      622    1    1    2    0    0  0.53147739694E-01  0.78082092499E-01  0.33462665606E+01  0.33490926219E+01  0.10000000000E+00 0. -1.
</event>
<event>
 5   0  0.6262544E+06  0.9118800E+02  0.7818608E-02  0.1180000E+00
       11   -1    0    0    0    0  0.00000000000E+00  0.00000000000E+00  0.39999999673E+01  0.40000000000E+01  0.51109989000E-03 0.  1.
     -623   -1    0    0    0    0  0.00000000000E+00  0.00000000000E+00  0.12525980253E-10  0.17130000000E+03  0.17130000000E+03 0. -1.
       11    1    1    2    0    0 -0.15365335608E-01  0.43062568021E-01  0.74071390309E+00  0.74212386146E+00  0.51109989000E-03 0.  1.
     -623    1    1    2    0    0  0.24723553412E-01 -0.38725993096E-02  0.31961700133E-02  0.17130000186E+03  0.17130000000E+03 0. -1.
      622    1    1    2    0    0 -0.93582178036E-02 -0.39189968712E-01  0.32560898943E+01  0.32578742808E+01  0.10000000000E+00 0.  1.
</event>
<event>
 5   0  0.6262544E+06  0.9118800E+02  0.7818608E-02  0.1180000E+00
       11   -1    0    0    0    0  0.00000000000E+00  0.00000000000E+00  0.39999999673E+01  0.40000000000E+01  0.51109989000E-03 0. -1.
     -623   -1    0    0    0    0  0.00000000000E+00  0.00000000000E+00  0.12525980253E-10  0.17130000000E+03  0.17130000000E+03 0.  1.
       11    1    1    2    0    0 -0.18459997259E-01 -0.20889179998E-01  0.15179861764E+00  0.15433797614E+00  0.51109989000E-03 0. -1.
     -623    1    1    2    0    0  0.11538868676E-01 -0.27680176377E-01  0.41554421289E-02  0.17130000268E+03  0.17130000000E+03 0.  1.
      622    1    1    2    0    0  0.69211285829E-02  0.48569356375E-01  0.38440459076E+01  0.38456593484E+01  0.10000000000E+00 0. -1.
</event>
<event>
 5   0  0.6262544E+06  0.9118800E+02  0.7818608E-02  0.1180000E+00
       11   -1    0    0    0    0  0.00000000000E+00  0.00000000000E+00  0.39999999673E+01  0.40000000000E+01  0.51109989000E-03 0.  1.
     -623   -1    0    0    0    0  0.00000000000E+00  0.00000000000E+00  0.12525980253E-10  0.17130000000E+03  0.17130000000E+03 0.  1.
       11    1    1    2    0    0  0.66756438438E-02  0.19069301845E-02  0.55262009004E-01  0.55698756411E-01  0.51109989000E-03 0.  1.
     -623    1    1    2    0    0 -0.15002807954E-02  0.49583141437E-02  0.17140301177E-02  0.17130000009E+03  0.17130000000E+03 0.  1.
      622    1    1    2    0    0 -0.51753630483E-02 -0.68652443283E-02  0.39430239283E+01  0.39443011567E+01  0.10000000000E+00 0.  1.
</event>
<event>
 5   0  0.6262544E+06  0.9118800E+02  0.7818608E-02  0.1180000E+00
       11   -1    0    0    0    0  0.00000000000E+00  0.00000000000E+00  0.39999999673E+01  0.40000000000E+01  0.51109989000E-03 0. -1.
     -623   -1    0    0    0    0  0.00000000000E+00  0.00000000000E+00  0.12525980253E-10  0.17130000000E+03  0.17130000000E+03 0.  1.
       11    1    1    2    0    0  0.95953575502E-03 -0.17457559789E-02  0.52681821836E-01  0.52721949394E-01  0.51109989000E-03 0. -1.
     -623    1    1    2    0    0 -0.47495501203E-03  0.60088400862E-03  0.13071964315E-02  0.17130000001E+03  0.17130000000E+03 0.  1.
      622    1    1    2    0    0 -0.48458074295E-03  0.11448719702E-02  0.39460109494E+01  0.39472780442E+01  0.10000000000E+00 0. -1.
</event>
<event>
 5   0  0.6262544E+06  0.9118800E+02  0.7818608E-02  0.1180000E+00
       11   -1    0    0    0    0  0.00000000000E+00  0.00000000000E+00  0.39999999673E+01  0.40000000000E+01  0.51109989000E-03 0. -1.
     -623   -1    0    0    0    0  0.00000000000E+00  0.00000000000E+00  0.12525980253E-10  0.17130000000E+03  0.17130000000E+03 0. -1.
       11    1    1    2    0    0 -0.23802464786E-01  0.81878498689E-01  0.59430178358E+00  0.60038780556E+00  0.51109989000E-03 0. -1.
     -623    1    1    2    0    0  0.39990552650E-01 -0.14548449919E-01  0.82682158279E-02  0.17130000549E+03  0.17130000000E+03 0. -1.
      622    1    1    2    0    0 -0.16188087864E-01 -0.67330048770E-01  0.33974299679E+01  0.33996067091E+01  0.10000000000E+00 0. -1.
</event>
<event>
 5   0  0.6262544E+06  0.9118800E+02  0.7818608E-02  0.1180000E+00
       11   -1    0    0    0    0  0.00000000000E+00  0.00000000000E+00  0.39999999673E+01  0.40000000000E+01  0.51109989000E-03 0. -1.
     -623   -1    0    0    0    0  0.00000000000E+00  0.00000000000E+00  0.12525980253E-10  0.17130000000E+03  0.17130000000E+03 0. -1.
       11    1    1    2    0    0  0.35075694456E-02 -0.87133007211E-02  0.10336165242E+00  0.10378880992E+00  0.51109989000E-03 0. -1.
     -623    1    1    2    0    0  0.11183170243E-01 -0.93111408460E-03  0.17506565971E-02  0.17130000038E+03  0.17130000000E+03 0. -1.
      622    1    1    2    0    0 -0.14690739689E-01  0.96444148057E-02  0.38948876583E+01  0.38962108136E+01  0.10000000000E+00 0. -1.
</event>
<event>
 5   0  0.6262544E+06  0.9118800E+02  0.7818608E-02  0.1180000E+00
       11   -1    0    0    0    0  0.00000000000E+00  0.00000000000E+00  0.39999999673E+01  0.40000000000E+01  0.51109989000E-03 0.  1.
     -623   -1    0    0    0    0  0.00000000000E+00  0.00000000000E+00  0.12525980253E-10  0.17130000000E+03  0.17130000000E+03 0.  1.
       11    1    1    2    0    0 -0.32857991079E-03 -0.19944282179E-02  0.14716543225E-01  0.14863498020E-01  0.51109989000E-03 0.  1.
     -623    1    1    2    0    0  0.15400894647E-02  0.23574088820E-03  0.14023671191E-02  0.17130000001E+03  0.17130000000E+03 0.  1.
      622    1    1    2    0    0 -0.12115095539E-02  0.17586873297E-02  0.39838810570E+01  0.39851364892E+01  0.10000000000E+00 0.  1.
</event>
<event>
 5   0  0.6262544E+06  0.9118800E+02  0.7818608E-02  0.1180000E+00
       11   -1    0    0    0    0  0.00000000000E+00  0.00000000000E+00  0.39999999673E+01  0.40000000000E+01  0.51109989000E-03 0.  1.
     -623   -1    0    0    0    0  0.00000000000E+00  0.00000000000E+00  0.12525980253E-10  0.17130000000E+03  0.17130000000E+03 0. -1.
       11    1    1    2    0    0  0.24962200890E-01 -0.14725101952E-02  0.12793334035E+01  0.12795778594E+01  0.51109989000E-03 0.  1.
     -623    1    1    2    0    0  0.10995259151E-02 -0.27625393990E-01  0.23659010412E-02  0.17130000225E+03  0.17130000000E+03 0. -1.
      622    1    1    2    0    0 -0.26061726805E-01  0.29097904186E-01  0.27183006628E+01  0.27204198931E+01  0.10000000000E+00 0.  1.
</event>
<event>
 5   0  0.6262544E+06  0.9118800E+02  0.7818608E-02  0.1180000E+00
       11   -1    0    0    0    0  0.00000000000E+00  0.00000000000E+00  0.39999999673E+01  0.40000000000E+01  0.51109989000E-03 0. -1.
     -623   -1    0    0    0    0  0.00000000000E+00  0.00000000000E+00  0.12525980253E-10  0.17130000000E+03  0.17130000000E+03 0. -1.
       11    1    1    2    0    0  0.51439153719E-02  0.26708417792E-01  0.68605286933E+00  0.68659201873E+00  0.51109989000E-03 0. -1.
     -623    1    1    2    0    0 -0.17803914859E-01  0.23301412882E-02  0.22009412602E-02  0.17130000096E+03  0.17130000000E+03 0. -1.
      622    1    1    2    0    0  0.12659999487E-01 -0.29038559080E-01  0.33117461568E+01  0.33134070261E+01  0.10000000000E+00 0. -1.
</event>
<event>
 5   0  0.6262544E+06  0.9118800E+02  0.7818608E-02  0.1180000E+00
       11   -1    0    0    0    0  0.00000000000E+00  0.00000000000E+00  0.39999999673E+01  0.40000000000E+01  0.51109989000E-03 0.  1.
     -623   -1    0    0    0    0  0.00000000000E+00  0.00000000000E+00  0.12525980253E-10  0.17130000000E+03  0.17130000000E+03 0. -1.
       11    1    1    2    0    0  0.14117900177E-01 -0.53834859286E-01  0.12540223948E+01  0.12552569200E+01  0.51109989000E-03 0.  1.
     -623    1    1    2    0    0  0.43002643005E-02  0.21453808384E-03  0.36428558951E-02  0.17130000009E+03  0.17130000000E+03 0. -1.
      622    1    1    2    0    0 -0.18418164477E-01  0.53620321202E-01  0.27423347166E+01  0.27447429872E+01  0.10000000000E+00 0.  1.
</event>
<event>
 5   0  0.6262544E+06  0.9118800E+02  0.7818608E-02  0.1180000E+00
       11   -1    0    0    0    0  0.00000000000E+00  0.00000000000E+00  0.39999999673E+01  0.40000000000E+01  0.51109989000E-03 0. -1.
     -623   -1    0    0    0    0  0.00000000000E+00  0.00000000000E+00  0.12525980253E-10  0.17130000000E+03  0.17130000000E+03 0.  1.
       11    1    1    2    0    0 -0.11521792923E+00  0.45756925161E-01  0.38978662712E+00  0.40902658022E+00  0.51109989000E-03 0. -1.
     -623    1    1    2    0    0  0.57255501567E-01 -0.86268834559E-02  0.21303753256E-01  0.17130001111E+03  0.17130000000E+03 0.  1.
      622    1    1    2    0    0  0.57962427664E-01 -0.37130041705E-01  0.35889095870E+01  0.35909623093E+01  0.10000000000E+00 0. -1.
</event>
<event>
 5   0  0.6262544E+06  0.9118800E+02  0.7818608E-02  0.1180000E+00
       11   -1    0    0    0    0  0.00000000000E+00  0.00000000000E+00  0.39999999673E+01  0.40000000000E+01  0.51109989000E-03 0.  1.
     -623   -1    0    0    0    0  0.00000000000E+00  0.00000000000E+00  0.12525980253E-10  0.17130000000E+03  0.17130000000E+03 0.  1.
       11    1    1    2    0    0  0.80540031458E-02  0.11826444696E-01  0.98355380455E-01  0.99392021050E-01  0.51109989000E-03 0.  1.
     -623    1    1    2    0    0 -0.23452825881E-02  0.47132521814E-02  0.23580243800E-02  0.17130000010E+03  0.17130000000E+03 0.  1.
      622    1    1    2    0    0 -0.57087205577E-02 -0.16539696877E-01  0.38992865627E+01  0.39006078820E+01  0.10000000000E+00 0.  1.
</event>
<event>
 5   0  0.6262544E+06  0.9118800E+02  0.7818608E-02  0.1180000E+00
       11   -1    0    0    0    0  0.00000000000E+00  0.00000000000E+00  0.39999999673E+01  0.40000000000E+01  0.51109989000E-03 0. -1.
     -623   -1    0    0    0    0  0.00000000000E+00  0.00000000000E+00  0.12525980253E-10  0.17130000000E+03  0.17130000000E+03 0.  1.
       11    1    1    2    0    0 -0.43697475077E-01  0.86374981091E-01  0.17981897575E+01  0.18007933729E+01  0.51109989000E-03 0. -1.
     -623    1    1    2    0    0  0.20366267753E-01  0.21010860109E-01  0.76310958803E-02  0.17130000267E+03  0.17130000000E+03 0.  1.
      622    1    1    2    0    0  0.23331207324E-01 -0.10738584120E+00  0.21941791140E+01  0.21992039579E+01  0.10000000000E+00 0. -1.
</event>
<event>
 5   0  0.6262544E+06  0.9118800E+02  0.7818608E-02  0.1180000E+00
       11   -1    0    0    0    0  0.00000000000E+00  0.00000000000E+00  0.39999999673E+01  0.40000000000E+01  0.51109989000E-03 0.  1.
     -623   -1    0    0    0    0  0.00000000000E+00  0.00000000000E+00  0.12525980253E-10  0.17130000000E+03  0.17130000000E+03 0. -1.
       11    1    1    2    0    0  0.36949208400E-03  0.65119840459E-03  0.21219036219E-01  0.21238392218E-01  0.51109989000E-03 0.  1.
     -623    1    1    2    0    0  0.54552241933E-03  0.25713053187E-02  0.12776298998E-02  0.17130000002E+03  0.17130000000E+03 0. -1.
      622    1    1    2    0    0 -0.91501450333E-03 -0.32225037233E-02  0.39775033012E+01  0.39787615829E+01  0.10000000000E+00 0.  1.
</event>
<event>
 5   0  0.6262544E+06  0.9118800E+02  0.7818608E-02  0.1180000E+00
       11   -1    0    0    0    0  0.00000000000E+00  0.00000000000E+00  0.39999999673E+01  0.40000000000E+01  0.51109989000E-03 0. -1.
     -623   -1    0    0    0    0  0.00000000000E+00  0.00000000000E+00  0.12525980253E-10  0.17130000000E+03  0.17130000000E+03 0.  1.
       11    1    1    2    0    0 -0.10376236902E-01  0.90244006460E-02  0.37243256388E-02  0.14256153893E-01  0.51109989000E-03 0. -1.
     -623    1    1    2    0    0 -0.19944325407E-02  0.51503718257E-02  0.11831379048E-01  0.17130000050E+03  0.17130000000E+03 0.  1.
      622    1    1    2    0    0  0.12370669443E-01 -0.14174772472E-01  0.39844442627E+01  0.39857433485E+01  0.10000000000E+00 0. -1.
</event>
<event>
 5   0  0.6262544E+06  0.9118800E+02  0.7818608E-02  0.1180000E+00
       11   -1    0    0    0    0  0.00000000000E+00  0.00000000000E+00  0.39999999673E+01  0.40000000000E+01  0.51109989000E-03 0.  1.
     -623   -1    0    0    0    0  0.00000000000E+00  0.00000000000E+00  0.12525980253E-10  0.17130000000E+03  0.17130000000E+03 0.  1.
       11    1    1    2    0    0 -0.87889817116E-03  0.24657261276E-02  0.44361067750E-02  0.51761503461E-02  0.51109989000E-03 0.  1.
     -623    1    1    2    0    0  0.48799844575E-03  0.25345556539E-02  0.19950072958E-02  0.17130000003E+03  0.17130000000E+03 0.  1.
      622    1    1    2    0    0  0.39089972542E-03 -0.50002817815E-02  0.39935688533E+01  0.39948238186E+01  0.10000000000E+00 0.  1.
</event>
<event>
 5   0  0.6262544E+06  0.9118800E+02  0.7818608E-02  0.1180000E+00
       11   -1    0    0    0    0  0.00000000000E+00  0.00000000000E+00  0.39999999673E+01  0.40000000000E+01  0.51109989000E-03 0. -1.
     -623   -1    0    0    0    0  0.00000000000E+00  0.00000000000E+00  0.12525980253E-10  0.17130000000E+03  0.17130000000E+03 0. -1.
       11    1    1    2    0    0 -0.20584794074E-02 -0.42024318463E-02  0.26439585337E+00  0.26443775501E+00  0.51109989000E-03 0. -1.
     -623    1    1    2    0    0  0.29511192669E-03 -0.14760291758E-02  0.13853415318E-02  0.17130000001E+03  0.17130000000E+03 0. -1.
      622    1    1    2    0    0  0.17633674807E-02  0.56784610221E-02  0.37342187725E+01  0.37355622328E+01  0.10000000000E+00 0. -1.
</event>
<event>
 5   0  0.6262544E+06  0.9118800E+02  0.7818608E-02  0.1180000E+00
       11   -1    0    0    0    0  0.00000000000E+00  0.00000000000E+00  0.39999999673E+01  0.40000000000E+01  0.51109989000E-03 0. -1.
     -623   -1    0    0    0    0  0.00000000000E+00  0.00000000000E+00  0.12525980253E-10  0.17130000000E+03  0.17130000000E+03 0. -1.
       11    1    1    2    0    0 -0.59635112962E-03  0.17897123206E-02  0.15785677864E-01  0.15906211127E-01  0.51109989000E-03 0. -1.
     -623    1    1    2    0    0 -0.15115732097E-02 -0.25211115246E-02  0.13763446104E-02  0.17130000003E+03  0.17130000000E+03 0. -1.
      622    1    1    2    0    0  0.21079243393E-02  0.73139920397E-03  0.39828379449E+01  0.39840937581E+01  0.10000000000E+00 0. -1.
</event>
<event>
 5   0  0.6262544E+06  0.9118800E+02  0.7818608E-02  0.1180000E+00
       11   -1    0    0    0    0  0.00000000000E+00  0.00000000000E+00  0.39999999673E+01  0.40000000000E+01  0.51109989000E-03 0.  1.
     -623   -1    0    0    0    0  0.00000000000E+00  0.00000000000E+00  0.12525980253E-10  0.17130000000E+03  0.17130000000E+03 0. -1.
       11    1    1    2    0    0  0.20670399883E-01 -0.54891645797E-01  0.47684338324E+00  0.48043754181E+00  0.51109989000E-03 0.  1.
     -623    1    1    2    0    0  0.39694277951E-02  0.36819746262E-02  0.54742323943E-02  0.17130000017E+03  0.17130000000E+03 0. -1.
      622    1    1    2    0    0 -0.24639827678E-01  0.51209671170E-01  0.35176823517E+01  0.35195622852E+01  0.10000000000E+00 0.  1.
</event>
<event>
 5   0  0.6262544E+06  0.9118800E+02  0.7818608E-02  0.1180000E+00
       11   -1    0    0    0    0  0.00000000000E+00  0.00000000000E+00  0.39999999673E+01  0.40000000000E+01  0.51109989000E-03 0.  1.
     -623   -1    0    0    0    0  0.00000000000E+00  0.00000000000E+00  0.12525980253E-10  0.17130000000E+03  0.17130000000E+03 0. -1.
       11    1    1    2    0    0  0.84410143807E-02 -0.86861727730E-02  0.13959053145E+00  0.14011594490E+00  0.51109989000E-03 0.  1.
     -623    1    1    2    0    0 -0.39664947478E-02  0.42201916754E-03  0.18324745062E-02  0.17130000006E+03  0.17130000000E+03 0. -1.
      622    1    1    2    0    0 -0.44745196330E-02  0.82641536055E-02  0.38585769612E+01  0.38598839987E+01  0.10000000000E+00 0.  1.
</event>
<event>
 5   0  0.6262544E+06  0.9118800E+02  0.7818608E-02  0.1180000E+00
       11   -1    0    0    0    0  0.00000000000E+00  0.00000000000E+00  0.39999999673E+01  0.40000000000E+01  0.51109989000E-03 0. -1.
     -623   -1    0    0    0    0  0.00000000000E+00  0.00000000000E+00  0.12525980253E-10  0.17130000000E+03  0.17130000000E+03 0.  1.
       11    1    1    2    0    0  0.21027605652E-02  0.34187598787E-02  0.39038849271E-01  0.39247961657E-01  0.51109989000E-03 0. -1.
     -623    1    1    2    0    0 -0.15779975709E-02 -0.38554877811E-03  0.14728781361E-02  0.17130000001E+03  0.17130000000E+03 0.  1.
      622    1    1    2    0    0 -0.52476299436E-03 -0.30332111006E-02  0.39594882400E+01  0.39607520243E+01  0.10000000000E+00 0. -1.
</event>
<event>
 5   0  0.6262544E+06  0.9118800E+02  0.7818608E-02  0.1180000E+00
       11   -1    0    0    0    0  0.00000000000E+00  0.00000000000E+00  0.39999999673E+01  0.40000000000E+01  0.51109989000E-03 0.  1.
     -623   -1    0    0    0    0  0.00000000000E+00  0.00000000000E+00  0.12525980253E-10  0.17130000000E+03  0.17130000000E+03 0. -1.
       11    1    1    2    0    0 -0.31836225751E-01  0.17384177199E-03  0.23575241671E+01  0.23577391788E+01  0.51109989000E-03 0.  1.
     -623    1    1    2    0    0 -0.25773136662E-02  0.68846303395E-02  0.36390646065E-02  0.17130000020E+03  0.17130000000E+03 0. -1.
      622    1    1    2    0    0  0.34413539417E-01 -0.70584721116E-02  0.16388367357E+01  0.16422606249E+01  0.10000000000E+00 0.  0.
</event>
<event>
 5   0  0.6262544E+06  0.9118800E+02  0.7818608E-02  0.1180000E+00
       11   -1    0    0    0    0  0.00000000000E+00  0.00000000000E+00  0.39999999673E+01  0.40000000000E+01  0.51109989000E-03 0. -1.
     -623   -1    0    0    0    0  0.00000000000E+00  0.00000000000E+00  0.12525980253E-10  0.17130000000E+03  0.17130000000E+03 0.  1.
       11    1    1    2    0    0  0.26444531456E-01 -0.10410672352E-01  0.11655556106E+01  0.11659021562E+01  0.51109989000E-03 0. -1.
     -623    1    1    2    0    0 -0.60477418083E-02 -0.74348867650E-02  0.22412404342E-02  0.17130000028E+03  0.17130000000E+03 0.  1.
      622    1    1    2    0    0 -0.20396789648E-01  0.17845559117E-01  0.28322031163E+01  0.28340975610E+01  0.10000000000E+00 0. -1.
</event>
<event>
 5   0  0.6262544E+06  0.9118800E+02  0.7818608E-02  0.1180000E+00
       11   -1    0    0    0    0  0.00000000000E+00  0.00000000000E+00  0.39999999673E+01  0.40000000000E+01  0.51109989000E-03 0.  1.
     -623   -1    0    0    0    0  0.00000000000E+00  0.00000000000E+00  0.12525980253E-10  0.17130000000E+03  0.17130000000E+03 0. -1.
       11    1    1    2    0    0  0.18259573903E-01 -0.29232547645E-02  0.26609179614E+00  0.26673406729E+00  0.51109989000E-03 0.  1.
     -623    1    1    2    0    0 -0.19880693188E-01  0.10665107175E-01  0.19916688236E-02  0.17130000150E+03  0.17130000000E+03 0. -1.
      622    1    1    2    0    0  0.16211192862E-02 -0.77418524105E-02  0.37319165025E+01  0.37332644356E+01  0.10000000000E+00 0.  1.
</event>
<event>
 5   0  0.6262544E+06  0.9118800E+02  0.7818608E-02  0.1180000E+00
       11   -1    0    0    0    0  0.00000000000E+00  0.00000000000E+00  0.39999999673E+01  0.40000000000E+01  0.51109989000E-03 0. -1.
     -623   -1    0    0    0    0  0.00000000000E+00  0.00000000000E+00  0.12525980253E-10  0.17130000000E+03  0.17130000000E+03 0.  1.
       11    1    1    2    0    0  0.11766785075E-01 -0.23126492219E-01  0.76547871725E-01  0.80827778406E-01  0.51109989000E-03 0. -1.
     -623    1    1    2    0    0 -0.23907675223E-01  0.24151219258E-02  0.56311956466E-02  0.17130000178E+03  0.17130000000E+03 0.  1.
      622    1    1    2    0    0  0.12140890149E-01  0.20711370293E-01  0.39178209000E+01  0.39191704437E+01  0.10000000000E+00 0. -1.
</event>
<event>
 5   0  0.6262544E+06  0.9118800E+02  0.7818608E-02  0.1180000E+00
       11   -1    0    0    0    0  0.00000000000E+00  0.00000000000E+00  0.39999999673E+01  0.40000000000E+01  0.51109989000E-03 0.  1.
     -623   -1    0    0    0    0  0.00000000000E+00  0.00000000000E+00  0.12525980253E-10  0.17130000000E+03  0.17130000000E+03 0. -1.
       11    1    1    2    0    0 -0.53185277557E-02 -0.11228102765E-01  0.19967848385E+00  0.20006527725E+00  0.51109989000E-03 0.  1.
     -623    1    1    2    0    0 -0.54744040190E-02  0.11603960714E-01  0.17186415176E-02  0.17130000049E+03  0.17130000000E+03 0. -1.
      622    1    1    2    0    0  0.10792931775E-01 -0.37585794872E-03  0.37986028420E+01  0.37999342336E+01  0.10000000000E+00 0.  1.
</event>
<event>
 5   0  0.6262544E+06  0.9118800E+02  0.7818608E-02  0.1180000E+00
       11   -1    0    0    0    0  0.00000000000E+00  0.00000000000E+00  0.39999999673E+01  0.40000000000E+01  0.51109989000E-03 0. -1.
     -623   -1    0    0    0    0  0.00000000000E+00  0.00000000000E+00  0.12525980253E-10  0.17130000000E+03  0.17130000000E+03 0. -1.
       11    1    1    2    0    0 -0.29185365452E-01 -0.79457924602E-02  0.89797546255E+00  0.89848489900E+00  0.51109989000E-03 0. -1.
     -623    1    1    2    0    0  0.26865653600E-01 -0.24551510529E-01  0.22970347515E-02  0.17130000388E+03  0.17130000000E+03 0. -1.
      622    1    1    2    0    0  0.23197118516E-02  0.32497302989E-01  0.30997274701E+01  0.31015112195E+01  0.10000000000E+00 0. -1.
</event>
<event>
 5   0  0.6262544E+06  0.9118800E+02  0.7818608E-02  0.1180000E+00
       11   -1    0    0    0    0  0.00000000000E+00  0.00000000000E+00  0.39999999673E+01  0.40000000000E+01  0.51109989000E-03 0.  1.
     -623   -1    0    0    0    0  0.00000000000E+00  0.00000000000E+00  0.12525980253E-10  0.17130000000E+03  0.17130000000E+03 0.  1.
       11    1    1    2    0    0 -0.37853617435E-02 -0.17675545795E-02  0.11898012435E+00  0.11905454392E+00  0.51109989000E-03 0.  1.
     -623    1    1    2    0    0 -0.11065233678E-01 -0.64993472476E-02  0.14006637803E-02  0.17130000049E+03  0.17130000000E+03 0.  1.
      622    1    1    2    0    0  0.14850595422E-01  0.82669018273E-02  0.38796191793E+01  0.38809449698E+01  0.10000000000E+00 0.  0.
</event>
<event>
 5   0  0.6262544E+06  0.9118800E+02  0.7818608E-02  0.1180000E+00
       11   -1    0    0    0    0  0.00000000000E+00  0.00000000000E+00  0.39999999673E+01  0.40000000000E+01  0.51109989000E-03 0. -1.
     -623   -1    0    0    0    0  0.00000000000E+00  0.00000000000E+00  0.12525980253E-10  0.17130000000E+03  0.17130000000E+03 0.  1.
       11    1    1    2    0    0 -0.19509194542E-01 -0.18124662952E-01  0.10525157947E+00  0.10856918661E+00  0.51109989000E-03 0. -1.
     -623    1    1    2    0    0 -0.16335141334E-02  0.40741860144E-02  0.46856109049E-02  0.17130000012E+03  0.17130000000E+03 0.  1.
      622    1    1    2    0    0  0.21142708676E-01  0.14050476937E-01  0.38900627770E+01  0.38914306931E+01  0.10000000000E+00 0. -1.
</event>
<event>
 5   0  0.6262544E+06  0.9118800E+02  0.7818608E-02  0.1180000E+00
       11   -1    0    0    0    0  0.00000000000E+00  0.00000000000E+00  0.39999999673E+01  0.40000000000E+01  0.51109989000E-03 0.  1.
     -623   -1    0    0    0    0  0.00000000000E+00  0.00000000000E+00  0.12525980253E-10  0.17130000000E+03  0.17130000000E+03 0. -1.
       11    1    1    2    0    0  0.20344372679E-02  0.22171458786E-01  0.51756151749E+00  0.51804044063E+00  0.51109989000E-03 0.  1.
     -623    1    1    2    0    0 -0.10842178882E-01  0.27716318468E-02  0.20160601630E-02  0.17130000038E+03  0.17130000000E+03 0. -1.
      622    1    1    2    0    0  0.88077416146E-02 -0.24943090633E-01  0.34804223897E+01  0.34819591820E+01  0.10000000000E+00 0.  1.
</event>
<event>
 5   0  0.6262544E+06  0.9118800E+02  0.7818608E-02  0.1180000E+00
       11   -1    0    0    0    0  0.00000000000E+00  0.00000000000E+00  0.39999999673E+01  0.40000000000E+01  0.51109989000E-03 0. -1.
     -623   -1    0    0    0    0  0.00000000000E+00  0.00000000000E+00  0.12525980253E-10  0.17130000000E+03  0.17130000000E+03 0. -1.
       11    1    1    2    0    0  0.58152235870E-02 -0.10837408532E+00  0.13278372195E+01  0.13322652521E+01  0.51109989000E-03 0. -1.
     -623    1    1    2    0    0 -0.17930240604E-01 -0.34886276321E-01  0.10187390410E-01  0.17130000479E+03  0.17130000000E+03 0. -1.
      622    1    1    2    0    0  0.12115017017E-01  0.14326036164E+00  0.26619753574E+01  0.26677299542E+01  0.10000000000E+00 0.  1.
</event>
<event>
 5   0  0.6262544E+06  0.9118800E+02  0.7818608E-02  0.1180000E+00
       11   -1    0    0    0    0  0.00000000000E+00  0.00000000000E+00  0.39999999673E+01  0.40000000000E+01  0.51109989000E-03 0.  1.
     -623   -1    0    0    0    0  0.00000000000E+00  0.00000000000E+00  0.12525980253E-10  0.17130000000E+03  0.17130000000E+03 0.  1.
       11    1    1    2    0    0 -0.48074147201E-02 -0.11259314796E+00  0.17678355411E+01  0.17714240288E+01  0.51109989000E-03 0.  1.
     -623    1    1    2    0    0 -0.21666984699E-01  0.71435494076E-01  0.63874864638E-02  0.17130001638E+03  0.17130000000E+03 0.  1.
      622    1    1    2    0    0  0.26474399419E-01  0.41157653886E-01  0.22257769398E+01  0.22285595868E+01  0.10000000000E+00 0.  1.
</event>
<event>
 5   0  0.6262544E+06  0.9118800E+02  0.7818608E-02  0.1180000E+00
       11   -1    0    0    0    0  0.00000000000E+00  0.00000000000E+00  0.39999999673E+01  0.40000000000E+01  0.51109989000E-03 0.  1.
     -623   -1    0    0    0    0  0.00000000000E+00  0.00000000000E+00  0.12525980253E-10  0.17130000000E+03  0.17130000000E+03 0. -1.
       11    1    1    2    0    0 -0.64664725264E-02  0.24308963640E-01  0.34513958158E+00  0.34605539004E+00  0.51109989000E-03 0.  1.
     -623    1    1    2    0    0 -0.12791095911E-02 -0.51092451474E-03  0.23701788605E-02  0.17130000002E+03  0.17130000000E+03 0. -1.
      622    1    1    2    0    0  0.77455821175E-02 -0.23798039126E-01  0.36524902069E+01  0.36539445880E+01  0.10000000000E+00 0.  1.
</event>
<event>
 5   0  0.6262544E+06  0.9118800E+02  0.7818608E-02  0.1180000E+00
       11   -1    0    0    0    0  0.00000000000E+00  0.00000000000E+00  0.39999999673E+01  0.40000000000E+01  0.51109989000E-03 0. -1.
     -623   -1    0    0    0    0  0.00000000000E+00  0.00000000000E+00  0.12525980253E-10  0.17130000000E+03  0.17130000000E+03 0. -1.
       11    1    1    2    0    0 -0.15604774880E-01 -0.59162369600E-03  0.51172239150E+00  0.51196086394E+00  0.51109989000E-03 0. -1.
     -623    1    1    2    0    0  0.22294358536E-02  0.11737088861E-01  0.17160996505E-02  0.17130000043E+03  0.17130000000E+03 0. -1.
      622    1    1    2    0    0  0.13375339026E-01 -0.11145465165E-01  0.34865614762E+01  0.34880387109E+01  0.10000000000E+00 0. -1.
</event>
<event>
 5   0  0.6262544E+06  0.9118800E+02  0.7818608E-02  0.1180000E+00
       11   -1    0    0    0    0  0.00000000000E+00  0.00000000000E+00  0.39999999673E+01  0.40000000000E+01  0.51109989000E-03 0. -1.
     -623   -1    0    0    0    0  0.00000000000E+00  0.00000000000E+00  0.12525980253E-10  0.17130000000E+03  0.17130000000E+03 0. -1.
       11    1    1    2    0    0 -0.69100270490E-03 -0.43041406567E-01  0.46192294160E+00  0.46392467639E+00  0.51109989000E-03 0. -1.
     -623    1    1    2    0    0 -0.21818783338E-01  0.69030788213E-02  0.36739735246E-02  0.17130000157E+03  0.17130000000E+03 0. -1.
      622    1    1    2    0    0  0.22509786043E-01  0.36138327746E-01  0.35344030522E+01  0.35360737556E+01  0.10000000000E+00 0. -1.
</event>
<event>
 5   0  0.6262544E+06  0.9118800E+02  0.7818608E-02  0.1180000E+00
       11   -1    0    0    0    0  0.00000000000E+00  0.00000000000E+00  0.39999999673E+01  0.40000000000E+01  0.51109989000E-03 0. -1.
     -623   -1    0    0    0    0  0.00000000000E+00  0.00000000000E+00  0.12525980253E-10  0.17130000000E+03  0.17130000000E+03 0.  1.
       11    1    1    2    0    0  0.82655747884E-01  0.77193509043E-01  0.44278951723E+00  0.45700506374E+00  0.51109989000E-03 0. -1.
     -623    1    1    2    0    0  0.47279405441E-01 -0.59494162563E-01  0.18073477717E-01  0.17130001781E+03  0.17130000000E+03 0.  1.
      622    1    1    2    0    0 -0.12993515333E+00 -0.17699346480E-01  0.35391369724E+01  0.35429771267E+01  0.10000000000E+00 0. -1.
</event>
<event>
 5   0  0.6262544E+06  0.9118800E+02  0.7818608E-02  0.1180000E+00
       11   -1    0    0    0    0  0.00000000000E+00  0.00000000000E+00  0.39999999673E+01  0.40000000000E+01  0.51109989000E-03 0. -1.
     -623   -1    0    0    0    0  0.00000000000E+00  0.00000000000E+00  0.12525980253E-10  0.17130000000E+03  0.17130000000E+03 0.  1.
       11    1    1    2    0    0 -0.12299126538E-02  0.27289408064E-02  0.62305967712E-02  0.69311876531E-02  0.51109989000E-03 0. -1.
     -623    1    1    2    0    0 -0.78535132417E-02 -0.51291517298E-02  0.19642488953E-02  0.17130000027E+03  0.17130000000E+03 0.  1.
      622    1    1    2    0    0  0.90834258958E-02  0.24002109236E-02  0.39918051218E+01  0.39930685444E+01  0.10000000000E+00 0. -1.
</event>
<event>
 5   0  0.6262544E+06  0.9118800E+02  0.7818608E-02  0.1180000E+00
       11   -1    0    0    0    0  0.00000000000E+00  0.00000000000E+00  0.39999999673E+01  0.40000000000E+01  0.51109989000E-03 0.  1.
     -623   -1    0    0    0    0  0.00000000000E+00  0.00000000000E+00  0.12525980253E-10  0.17130000000E+03  0.17130000000E+03 0.  1.
       11    1    1    2    0    0 -0.14634060182E-01 -0.48414586134E-02  0.33217390005E+00  0.33253173764E+00  0.51109989000E-03 0.  1.
     -623    1    1    2    0    0  0.43199449071E-02 -0.52883866363E-02  0.17500456189E-02  0.17130000015E+03  0.17130000000E+03 0.  1.
      622    1    1    2    0    0  0.10314115275E-01  0.10129845250E-01  0.36660760220E+01  0.36674681176E+01  0.10000000000E+00 0.  1.
</event>
<event>
 5   0  0.6262544E+06  0.9118800E+02  0.7818608E-02  0.1180000E+00
       11   -1    0    0    0    0  0.00000000000E+00  0.00000000000E+00  0.39999999673E+01  0.40000000000E+01  0.51109989000E-03 0.  1.
     -623   -1    0    0    0    0  0.00000000000E+00  0.00000000000E+00  0.12525980253E-10  0.17130000000E+03  0.17130000000E+03 0.  1.
       11    1    1    2    0    0 -0.82033572444E-02 -0.80194490308E-02  0.29914109966E-01  0.32042500344E-01  0.51109989000E-03 0.  1.
     -623    1    1    2    0    0 -0.25982833775E-02  0.25899270437E-02  0.34071480365E-02  0.17130000007E+03  0.17130000000E+03 0.  1.
      622    1    1    2    0    0  0.10801640622E-01  0.54295219872E-02  0.39666787094E+01  0.39679574265E+01  0.10000000000E+00 0.  1.
</event>
<event>
 5   0  0.6262544E+06  0.9118800E+02  0.7818608E-02  0.1180000E+00
       11   -1    0    0    0    0  0.00000000000E+00  0.00000000000E+00  0.39999999673E+01  0.40000000000E+01  0.51109989000E-03 0. -1.
     -623   -1    0    0    0    0  0.00000000000E+00  0.00000000000E+00  0.12525980253E-10  0.17130000000E+03  0.17130000000E+03 0.  1.
       11    1    1    2    0    0 -0.26108570558E-02  0.12084737668E-01  0.20892280836E-01  0.24281805549E-01  0.51109989000E-03 0. -1.
     -623    1    1    2    0    0  0.91257013899E-02 -0.25986106292E-01  0.46792550540E-02  0.17130000228E+03  0.17130000000E+03 0.  1.
      622    1    1    2    0    0 -0.65148443341E-02  0.13901368625E-01  0.39744284315E+01  0.39757159165E+01  0.10000000000E+00 0. -1.
</event>
<event>
 5   0  0.6262544E+06  0.9118800E+02  0.7818608E-02  0.1180000E+00
       11   -1    0    0    0    0  0.00000000000E+00  0.00000000000E+00  0.39999999673E+01  0.40000000000E+01  0.51109989000E-03 0.  1.
     -623   -1    0    0    0    0  0.00000000000E+00  0.00000000000E+00  0.12525980253E-10  0.17130000000E+03  0.17130000000E+03 0. -1.
       11    1    1    2    0    0 -0.19569435498E-01  0.38408666661E-01  0.14636644988E+00  0.15258305068E+00  0.51109989000E-03 0.  1.
     -623    1    1    2    0    0 -0.19631762245E-01  0.19843167656E-01  0.81597916000E-02  0.17130000247E+03  0.17130000000E+03 0. -1.
      622    1    1    2    0    0  0.39201197744E-01 -0.58251834317E-01  0.38454737259E+01  0.38474144807E+01  0.10000000000E+00 0.  1.
</event>
<event>
 5   0  0.6262544E+06  0.9118800E+02  0.7818608E-02  0.1180000E+00
       11   -1    0    0    0    0  0.00000000000E+00  0.00000000000E+00  0.39999999673E+01  0.40000000000E+01  0.51109989000E-03 0.  1.
     -623   -1    0    0    0    0  0.00000000000E+00  0.00000000000E+00  0.12525980253E-10  0.17130000000E+03  0.17130000000E+03 0.  1.
       11    1    1    2    0    0 -0.10598896141E-01  0.31848743953E-02  0.10031073805E+01  0.10031685592E+01  0.51109989000E-03 0.  1.
     -623    1    1    2    0    0 -0.11054785704E-01 -0.75840210725E-02  0.18120789643E-02  0.17130000053E+03  0.17130000000E+03 0.  1.
      622    1    1    2    0    0  0.21653681845E-01  0.43991466775E-02  0.29950805080E+01  0.29968309068E+01  0.10000000000E+00 0.  0.
</event>
<event>
 5   0  0.6262544E+06  0.9118800E+02  0.7818608E-02  0.1180000E+00
       11   -1    0    0    0    0  0.00000000000E+00  0.00000000000E+00  0.39999999673E+01  0.40000000000E+01  0.51109989000E-03 0. -1.
     -623   -1    0    0    0    0  0.00000000000E+00  0.00000000000E+00  0.12525980253E-10  0.17130000000E+03  0.17130000000E+03 0.  1.
       11    1    1    2    0    0  0.44450106254E-01 -0.28803870657E-01  0.19920114373E+00  0.20612334122E+00  0.51109989000E-03 0. -1.
     -623    1    1    2    0    0 -0.78199818001E-02 -0.14856953757E-01  0.86695852203E-02  0.17130000104E+03  0.17130000000E+03 0.  1.
      622    1    1    2    0    0 -0.36630124454E-01  0.43660824414E-01  0.37921292384E+01  0.37938756166E+01  0.10000000000E+00 0. -1.
</event>
<event>
 5   0  0.6262544E+06  0.9118800E+02  0.7818608E-02  0.1180000E+00
       11   -1    0    0    0    0  0.00000000000E+00  0.00000000000E+00  0.39999999673E+01  0.40000000000E+01  0.51109989000E-03 0.  1.
     -623   -1    0    0    0    0  0.00000000000E+00  0.00000000000E+00  0.12525980253E-10  0.17130000000E+03  0.17130000000E+03 0. -1.
       11    1    1    2    0    0 -0.72622518227E-02  0.51251675753E-03  0.48903121488E-01  0.49444711440E-01  0.51109989000E-03 0.  1.
     -623    1    1    2    0    0  0.11518054445E-02 -0.20167407023E-02  0.18124439103E-02  0.17130000003E+03  0.17130000000E+03 0. -1.
      622    1    1    2    0    0  0.61104463781E-02  0.15042239449E-02  0.39492844022E+01  0.39505552635E+01  0.10000000000E+00 0.  1.
</event>
<event>
 5   0  0.6262544E+06  0.9118800E+02  0.7818608E-02  0.1180000E+00
       11   -1    0    0    0    0  0.00000000000E+00  0.00000000000E+00  0.39999999673E+01  0.40000000000E+01  0.51109989000E-03 0.  1.
     -623   -1    0    0    0    0  0.00000000000E+00  0.00000000000E+00  0.12525980253E-10  0.17130000000E+03  0.17130000000E+03 0. -1.
       11    1    1    2    0    0 -0.14732331636E-02 -0.75190320303E-03  0.40471269454E-02  0.44018443851E-02  0.51109989000E-03 0.  1.
     -623    1    1    2    0    0 -0.10590579782E-02  0.22637205861E-03  0.16071061455E-02  0.17130000001E+03  0.17130000000E+03 0. -1.
      622    1    1    2    0    0  0.25322911419E-02  0.52553114440E-03  0.39943457346E+01  0.39955981449E+01  0.10000000000E+00 0.  1.
</event>
<event>
 5   0  0.6262544E+06  0.9118800E+02  0.7818608E-02  0.1180000E+00
       11   -1    0    0    0    0  0.00000000000E+00  0.00000000000E+00  0.39999999673E+01  0.40000000000E+01  0.51109989000E-03 0. -1.
     -623   -1    0    0    0    0  0.00000000000E+00  0.00000000000E+00  0.12525980253E-10  0.17130000000E+03  0.17130000000E+03 0.  1.
       11    1    1    2    0    0  0.91222344305E-02  0.11252237828E-02  0.63870540905E-01  0.64530523849E-01  0.51109989000E-03 0. -1.
     -623    1    1    2    0    0 -0.11415550498E-01 -0.47598198926E-02  0.19334567706E-02  0.17130000046E+03  0.17130000000E+03 0.  1.
      622    1    1    2    0    0  0.22933160678E-02  0.36345961097E-02  0.39341959696E+01  0.39354690187E+01  0.10000000000E+00 0. -1.
</event>
<event>
 5   0  0.6262544E+06  0.9118800E+02  0.7818608E-02  0.1180000E+00
       11   -1    0    0    0    0  0.00000000000E+00  0.00000000000E+00  0.39999999673E+01  0.40000000000E+01  0.51109989000E-03 0. -1.
     -623   -1    0    0    0    0  0.00000000000E+00  0.00000000000E+00  0.12525980253E-10  0.17130000000E+03  0.17130000000E+03 0.  1.
       11    1    1    2    0    0 -0.15787755035E-02 -0.63905780410E-03  0.50881315881E-02  0.53899195841E-02  0.51109989000E-03 0. -1.
     -623    1    1    2    0    0  0.36312292102E-02 -0.14819609952E-02  0.15547808364E-02  0.17130000005E+03  0.17130000000E+03 0.  1.
      622    1    1    2    0    0 -0.20524537066E-02  0.21210187993E-02  0.39933570549E+01  0.39946100284E+01  0.10000000000E+00 0. -1.
</event>
<event>
 5   0  0.6262544E+06  0.9118800E+02  0.7818608E-02  0.1180000E+00
       11   -1    0    0    0    0  0.00000000000E+00  0.00000000000E+00  0.39999999673E+01  0.40000000000E+01  0.51109989000E-03 0.  1.
     -623   -1    0    0    0    0  0.00000000000E+00  0.00000000000E+00  0.12525980253E-10  0.17130000000E+03  0.17130000000E+03 0. -1.
       11    1    1    2    0    0  0.19522731542E-01 -0.86254322985E-02  0.43488264672E+00  0.43540637658E+00  0.51109989000E-03 0.  1.
     -623    1    1    2    0    0 -0.10067014647E-01 -0.44117221503E-02  0.19634188286E-02  0.17130000036E+03  0.17130000000E+03 0. -1.
      622    1    1    2    0    0 -0.94557168953E-02  0.13037154449E-01  0.35631539017E+01  0.35645932595E+01  0.10000000000E+00 0.  1.
</event>
<event>
 5   0  0.6262544E+06  0.9118800E+02  0.7818608E-02  0.1180000E+00
       11   -1    0    0    0    0  0.00000000000E+00  0.00000000000E+00  0.39999999673E+01  0.40000000000E+01  0.51109989000E-03 0. -1.
     -623   -1    0    0    0    0  0.00000000000E+00  0.00000000000E+00  0.12525980253E-10  0.17130000000E+03  0.17130000000E+03 0. -1.
       11    1    1    2    0    0 -0.50901112025E-02 -0.11044437422E-01  0.46388645484E-01  0.47958904088E-01  0.51109989000E-03 0. -1.
     -623    1    1    2    0    0 -0.42180269890E-02 -0.31094875692E-02  0.28720208194E-02  0.17130000010E+03  0.17130000000E+03 0. -1.
      622    1    1    2    0    0  0.93081381915E-02  0.14153924992E-01  0.39507393011E+01  0.39520409917E+01  0.10000000000E+00 0. -1.
</event>
<event>
 5   0  0.6262544E+06  0.9118800E+02  0.7818608E-02  0.1180000E+00
       11   -1    0    0    0    0  0.00000000000E+00  0.00000000000E+00  0.39999999673E+01  0.40000000000E+01  0.51109989000E-03 0.  1.
     -623   -1    0    0    0    0  0.00000000000E+00  0.00000000000E+00  0.12525980253E-10  0.17130000000E+03  0.17130000000E+03 0.  1.
       11    1    1    2    0    0  0.83442243538E-02 -0.15924598727E-01  0.16453217223E-01  0.24375982129E-01  0.51109989000E-03 0.  1.
     -623    1    1    2    0    0 -0.16410409812E-01  0.31321307276E-02  0.92104314188E-02  0.17130000106E+03  0.17130000000E+03 0.  1.
      622    1    1    2    0    0  0.80661854583E-02  0.12792467999E-01  0.39743363187E+01  0.39756229556E+01  0.10000000000E+00 0.  1.
</event>
<event>
 5   0  0.6262544E+06  0.9118800E+02  0.7818608E-02  0.1180000E+00
       11   -1    0    0    0    0  0.00000000000E+00  0.00000000000E+00  0.39999999673E+01  0.40000000000E+01  0.51109989000E-03 0. -1.
     -623   -1    0    0    0    0  0.00000000000E+00  0.00000000000E+00  0.12525980253E-10  0.17130000000E+03  0.17130000000E+03 0.  1.
       11    1    1    2    0    0  0.81251362315E-02  0.51960742590E-02  0.11485359251E+00  0.11525895176E+00  0.51109989000E-03 0. -1.
     -623    1    1    2    0    0 -0.25867689062E-02 -0.47672875355E-02  0.16966942028E-02  0.17130000009E+03  0.17130000000E+03 0.  1.
      622    1    1    2    0    0 -0.55383673252E-02 -0.42878672351E-03  0.38834496806E+01  0.38847409540E+01  0.10000000000E+00 0. -1.
</event>
<event>
 5   0  0.6262544E+06  0.9118800E+02  0.7818608E-02  0.1180000E+00
       11   -1    0    0    0    0  0.00000000000E+00  0.00000000000E+00  0.39999999673E+01  0.40000000000E+01  0.51109989000E-03 0.  1.
     -623   -1    0    0    0    0  0.00000000000E+00  0.00000000000E+00  0.12525980253E-10  0.17130000000E+03  0.17130000000E+03 0.  1.
       11    1    1    2    0    0 -0.65759113919E-02  0.10269650464E-01  0.42145077167E-01  0.43876839947E-01  0.51109989000E-03 0.  1.
     -623    1    1    2    0    0  0.58647046751E-02  0.34112763798E-02  0.30196837329E-02  0.17130000016E+03  0.17130000000E+03 0.  1.
      622    1    1    2    0    0  0.71120671659E-03 -0.13680926843E-01  0.39548352066E+01  0.39561229992E+01  0.10000000000E+00 0.  1.
</event>
<event>
 5   0  0.6262544E+06  0.9118800E+02  0.7818608E-02  0.1180000E+00
       11   -1    0    0    0    0  0.00000000000E+00  0.00000000000E+00  0.39999999673E+01  0.40000000000E+01  0.51109989000E-03 0.  1.
     -623   -1    0    0    0    0  0.00000000000E+00  0.00000000000E+00  0.12525980253E-10  0.17130000000E+03  0.17130000000E+03 0. -1.
       11    1    1    2    0    0 -0.27702386498E-01 -0.76783438342E-01  0.18526750594E+01  0.18544725007E+01  0.51109989000E-03 0.  1.
     -623    1    1    2    0    0 -0.42192474407E-01 -0.11629870620E-01  0.71002881276E-02  0.17130000574E+03  0.17130000000E+03 0. -1.
      622    1    1    2    0    0  0.69894860906E-01  0.88413308961E-01  0.21402246198E+01  0.21455217612E+01  0.10000000000E+00 0. -1.
</event>
<event>
 5   0  0.6262544E+06  0.9118800E+02  0.7818608E-02  0.1180000E+00
       11   -1    0    0    0    0  0.00000000000E+00  0.00000000000E+00  0.39999999673E+01  0.40000000000E+01  0.51109989000E-03 0. -1.
     -623   -1    0    0    0    0  0.00000000000E+00  0.00000000000E+00  0.12525980253E-10  0.17130000000E+03  0.17130000000E+03 0.  1.
       11    1    1    2    0    0  0.10603364824E-01 -0.50330569122E-03  0.22571844119E+00  0.22596849466E+00  0.51109989000E-03 0. -1.
     -623    1    1    2    0    0 -0.49461764339E-02 -0.89514258571E-02  0.15914981637E-02  0.17130000031E+03  0.17130000000E+03 0.  1.
      622    1    1    2    0    0 -0.56571883898E-02  0.94547315483E-02  0.37726900280E+01  0.37740311927E+01  0.10000000000E+00 0. -1.
</event>
<event>
 5   0  0.6262544E+06  0.9118800E+02  0.7818608E-02  0.1180000E+00
       11   -1    0    0    0    0  0.00000000000E+00  0.00000000000E+00  0.39999999673E+01  0.40000000000E+01  0.51109989000E-03 0.  1.
     -623   -1    0    0    0    0  0.00000000000E+00  0.00000000000E+00  0.12525980253E-10  0.17130000000E+03  0.17130000000E+03 0.  1.
       11    1    1    2    0    0 -0.50563591472E-01 -0.15374271034E-01  0.23740192173E+00  0.24321385374E+00  0.51109989000E-03 0.  1.
     -623    1    1    2    0    0 -0.31555461534E-01 -0.23870444171E-01  0.82508806558E-02  0.17130000477E+03  0.17130000000E+03 0.  1.
      622    1    1    2    0    0  0.82119053006E-01  0.39244715205E-01  0.37543471650E+01  0.37567813780E+01  0.10000000000E+00 0.  0.
</event>
<event>
 5   0  0.6262544E+06  0.9118800E+02  0.7818608E-02  0.1180000E+00
       11   -1    0    0    0    0  0.00000000000E+00  0.00000000000E+00  0.39999999673E+01  0.40000000000E+01  0.51109989000E-03 0. -1.
     -623   -1    0    0    0    0  0.00000000000E+00  0.00000000000E+00  0.12525980253E-10  0.17130000000E+03  0.17130000000E+03 0.  1.
       11    1    1    2    0    0 -0.37285899795E-02  0.61969375151E-03  0.16061373134E-03  0.38175153502E-02  0.51109989000E-03 0. -1.
     -623    1    1    2    0    0  0.43116207647E-02 -0.45351171616E-02  0.49104050524E-02  0.17130000018E+03  0.17130000000E+03 0.  1.
      622    1    1    2    0    0 -0.58303078520E-03  0.39154234102E-02  0.39949289486E+01  0.39961823000E+01  0.10000000000E+00 0. -1.
</event>
<event>
 5   0  0.6262544E+06  0.9118800E+02  0.7818608E-02  0.1180000E+00
       11   -1    0    0    0    0  0.00000000000E+00  0.00000000000E+00  0.39999999673E+01  0.40000000000E+01  0.51109989000E-03 0. -1.
     -623   -1    0    0    0    0  0.00000000000E+00  0.00000000000E+00  0.12525980253E-10  0.17130000000E+03  0.17130000000E+03 0.  1.
       11    1    1    2    0    0 -0.65549684221E-02  0.85936191187E-02  0.14815079909E-01  0.18345727434E-01  0.51109989000E-03 0. -1.
     -623    1    1    2    0    0  0.72197874469E-02  0.89917825642E-03  0.47981693607E-02  0.17130000022E+03  0.17130000000E+03 0.  1.
      622    1    1    2    0    0 -0.66481902477E-03 -0.94927973752E-02  0.39803867181E+01  0.39816540509E+01  0.10000000000E+00 0. -1.
</event>
<event>
 5   0  0.6262544E+06  0.9118800E+02  0.7818608E-02  0.1180000E+00
       11   -1    0    0    0    0  0.00000000000E+00  0.00000000000E+00  0.39999999673E+01  0.40000000000E+01  0.51109989000E-03 0.  1.
     -623   -1    0    0    0    0  0.00000000000E+00  0.00000000000E+00  0.12525980253E-10  0.17130000000E+03  0.17130000000E+03 0. -1.
       11    1    1    2    0    0  0.23041217941E-03 -0.52189547788E-02  0.49007221121E-01  0.49287518934E-01  0.51109989000E-03 0.  1.
     -623    1    1    2    0    0  0.19018855167E-02  0.10448787113E-02  0.15488645627E-02  0.17130000002E+03  0.17130000000E+03 0. -1.
      622    1    1    2    0    0 -0.21322976961E-02  0.41740760675E-02  0.39494438817E+01  0.39507124603E+01  0.10000000000E+00 0.  1.
</event>
<event>
 5   0  0.6262544E+06  0.9118800E+02  0.7818608E-02  0.1180000E+00
       11   -1    0    0    0    0  0.00000000000E+00  0.00000000000E+00  0.39999999673E+01  0.40000000000E+01  0.51109989000E-03 0.  1.
     -623   -1    0    0    0    0  0.00000000000E+00  0.00000000000E+00  0.12525980253E-10  0.17130000000E+03  0.17130000000E+03 0.  1.
       11    1    1    2    0    0 -0.35948942657E-02  0.22775092884E-02  0.26161380728E-01  0.26510174991E-01  0.51109989000E-03 0.  1.
     -623    1    1    2    0    0  0.23988902592E-02 -0.33189959916E-02  0.16076737350E-02  0.17130000006E+03  0.17130000000E+03 0.  1.
      622    1    1    2    0    0  0.11960040064E-02  0.10414867034E-02  0.39722309131E+01  0.39734897687E+01  0.10000000000E+00 0.  1.
</event>
<event>
 5   0  0.6262544E+06  0.9118800E+02  0.7818608E-02  0.1180000E+00
       11   -1    0    0    0    0  0.00000000000E+00  0.00000000000E+00  0.39999999673E+01  0.40000000000E+01  0.51109989000E-03 0. -1.
     -623   -1    0    0    0    0  0.00000000000E+00  0.00000000000E+00  0.12525980253E-10  0.17130000000E+03  0.17130000000E+03 0. -1.
       11    1    1    2    0    0  0.95210824594E-02 -0.13393158696E-01  0.11970045020E+00  0.12082419754E+00  0.51109989000E-03 0. -1.
     -623    1    1    2    0    0  0.40138282765E-02  0.10362059448E-01  0.24380454151E-02  0.17130000038E+03  0.17130000000E+03 0. -1.
      622    1    1    2    0    0 -0.13534910736E-01  0.30310992471E-02  0.38778614718E+01  0.38791754247E+01  0.10000000000E+00 0. -1.
</event>
<event>
 5   0  0.6262544E+06  0.9118800E+02  0.7818608E-02  0.1180000E+00
       11   -1    0    0    0    0  0.00000000000E+00  0.00000000000E+00  0.39999999673E+01  0.40000000000E+01  0.51109989000E-03 0. -1.
     -623   -1    0    0    0    0  0.00000000000E+00  0.00000000000E+00  0.12525980253E-10  0.17130000000E+03  0.17130000000E+03 0. -1.
       11    1    1    2    0    0  0.28338810278E-01  0.17909985256E-01  0.25889087687E+01  0.25891258621E+01  0.51109989000E-03 0. -1.
     -623    1    1    2    0    0 -0.62790688441E-02  0.14811682920E-01  0.43196436453E-02  0.17130000081E+03  0.17130000000E+03 0. -1.
      622    1    1    2    0    0 -0.22059741434E-01 -0.32721668176E-01  0.14067715550E+01  0.14108733280E+01  0.10000000000E+00 0.  0.
</event>
<event>
 5   0  0.6262544E+06  0.9118800E+02  0.7818608E-02  0.1180000E+00
       11   -1    0    0    0    0  0.00000000000E+00  0.00000000000E+00  0.39999999673E+01  0.40000000000E+01  0.51109989000E-03 0.  1.
     -623   -1    0    0    0    0  0.00000000000E+00  0.00000000000E+00  0.12525980253E-10  0.17130000000E+03  0.17130000000E+03 0.  1.
       11    1    1    2    0    0 -0.14265243071E-01  0.14238982103E-01  0.11170551627E+00  0.11351048128E+00  0.51109989000E-03 0.  1.
     -623    1    1    2    0    0  0.21133131866E-01 -0.49794463434E-03  0.31233563466E-02  0.17130000133E+03  0.17130000000E+03 0.  1.
      622    1    1    2    0    0 -0.68678887947E-02 -0.13741037469E-01  0.38851710949E+01  0.38864881861E+01  0.10000000000E+00 0.  1.
</event>
<event>
 5   0  0.6262544E+06  0.9118800E+02  0.7818608E-02  0.1180000E+00
       11   -1    0    0    0    0  0.00000000000E+00  0.00000000000E+00  0.39999999673E+01  0.40000000000E+01  0.51109989000E-03 0.  1.
     -623   -1    0    0    0    0  0.00000000000E+00  0.00000000000E+00  0.12525980253E-10  0.17130000000E+03  0.17130000000E+03 0. -1.
       11    1    1    2    0    0 -0.16163736594E-01  0.13409804672E+00  0.78747603567E+00  0.79897579469E+00  0.51109989000E-03 0.  1.
     -623    1    1    2    0    0  0.19459650331E-01 -0.38945669900E-01  0.14485191329E-01  0.17130000614E+03  0.17130000000E+03 0. -1.
      622    1    1    2    0    0 -0.32959137372E-02 -0.95152376823E-01  0.31980387404E+01  0.32010180604E+01  0.10000000000E+00 0.  1.
</event>
<event>
 5   0  0.6262544E+06  0.9118800E+02  0.7818608E-02  0.1180000E+00
       11   -1    0    0    0    0  0.00000000000E+00  0.00000000000E+00  0.39999999673E+01  0.40000000000E+01  0.51109989000E-03 0.  1.
     -623   -1    0    0    0    0  0.00000000000E+00  0.00000000000E+00  0.12525980253E-10  0.17130000000E+03  0.17130000000E+03 0. -1.
       11    1    1    2    0    0  0.71408921892E-02  0.19958703650E-02  0.24846790155E-01  0.25934533787E-01  0.51109989000E-03 0.  1.
     -623    1    1    2    0    0 -0.90243684829E-02  0.23629791015E-02  0.23491755223E-02  0.17130000027E+03  0.17130000000E+03 0. -1.
      622    1    1    2    0    0  0.18834762937E-02 -0.43588494666E-02  0.39728040017E+01  0.39740651961E+01  0.10000000000E+00 0.  1.
</event>
<event>
 5   0  0.6262544E+06  0.9118800E+02  0.7818608E-02  0.1180000E+00
       11   -1    0    0    0    0  0.00000000000E+00  0.00000000000E+00  0.39999999673E+01  0.40000000000E+01  0.51109989000E-03 0. -1.
     -623   -1    0    0    0    0  0.00000000000E+00  0.00000000000E+00  0.12525980253E-10  0.17130000000E+03  0.17130000000E+03 0. -1.
       11    1    1    2    0    0  0.60277173077E-03 -0.54182799184E-03  0.14752341634E+00  0.14752652813E+00  0.51109989000E-03 0. -1.
     -623    1    1    2    0    0 -0.63222545199E-03  0.79323244842E-03  0.13011815843E-02  0.17130000001E+03  0.17130000000E+03 0. -1.
      622    1    1    2    0    0  0.29453721192E-04 -0.25140445655E-03  0.38511753693E+01  0.38524734638E+01  0.10000000000E+00 0. -1.
</event>
<event>
 5   0  0.6262544E+06  0.9118800E+02  0.7818608E-02  0.1180000E+00
       11   -1    0    0    0    0  0.00000000000E+00  0.00000000000E+00  0.39999999673E+01  0.40000000000E+01  0.51109989000E-03 0. -1.
     -623   -1    0    0    0    0  0.00000000000E+00  0.00000000000E+00  0.12525980253E-10  0.17130000000E+03  0.17130000000E+03 0. -1.
       11    1    1    2    0    0  0.97810874049E-02 -0.29964524160E-01  0.28132629973E+01  0.28134396200E+01  0.51109989000E-03 0. -1.
     -623    1    1    2    0    0  0.44036823531E-02  0.22381669984E-01  0.45089536102E-02  0.17130000158E+03  0.17130000000E+03 0. -1.
      622    1    1    2    0    0 -0.14184769758E-01  0.75828541761E-02  0.11822280165E+01  0.11865588019E+01  0.10000000000E+00 0. -1.
</event>
<event>
 5   0  0.6262544E+06  0.9118800E+02  0.7818608E-02  0.1180000E+00
       11   -1    0    0    0    0  0.00000000000E+00  0.00000000000E+00  0.39999999673E+01  0.40000000000E+01  0.51109989000E-03 0.  1.
     -623   -1    0    0    0    0  0.00000000000E+00  0.00000000000E+00  0.12525980253E-10  0.17130000000E+03  0.17130000000E+03 0.  1.
       11    1    1    2    0    0 -0.10785258220E-01  0.56928726213E-02  0.16700533371E+00  0.16745080861E+00  0.51109989000E-03 0.  1.
     -623    1    1    2    0    0 -0.68518119022E-03 -0.18627536759E-02  0.17693850563E-02  0.17130000002E+03  0.17130000000E+03 0.  1.
      622    1    1    2    0    0  0.11470439410E-01 -0.38301189454E-02  0.38312252486E+01  0.38325491708E+01  0.10000000000E+00 0.  1.
</event>
<event>
 5   0  0.6262544E+06  0.9118800E+02  0.7818608E-02  0.1180000E+00
       11   -1    0    0    0    0  0.00000000000E+00  0.00000000000E+00  0.39999999673E+01  0.40000000000E+01  0.51109989000E-03 0. -1.
     -623   -1    0    0    0    0  0.00000000000E+00  0.00000000000E+00  0.12525980253E-10  0.17130000000E+03  0.17130000000E+03 0.  1.
       11    1    1    2    0    0  0.41121028731E-01  0.23268247385E-01  0.56645598246E+00  0.56842325043E+00  0.51109989000E-03 0. -1.
     -623    1    1    2    0    0  0.34866848984E-02  0.30640065484E-02  0.38158573074E-02  0.17130000011E+03  0.17130000000E+03 0.  1.
      622    1    1    2    0    0 -0.44607713629E-01 -0.26332253933E-01  0.34297281276E+01  0.34315766442E+01  0.10000000000E+00 0.  0.
</event>
<event>
 5   0  0.6262544E+06  0.9118800E+02  0.7818608E-02  0.1180000E+00
       11   -1    0    0    0    0  0.00000000000E+00  0.00000000000E+00  0.39999999673E+01  0.40000000000E+01  0.51109989000E-03 0.  1.
     -623   -1    0    0    0    0  0.00000000000E+00  0.00000000000E+00  0.12525980253E-10  0.17130000000E+03  0.17130000000E+03 0. -1.
       11    1    1    2    0    0 -0.90961562747E-02 -0.94769052236E-02  0.42123421212E+00  0.42143928919E+00  0.51109989000E-03 0.  1.
     -623    1    1    2    0    0  0.13260055968E-02 -0.87052716909E-02  0.16574095367E-02  0.17130000023E+03  0.17130000000E+03 0. -1.
      622    1    1    2    0    0  0.77701506779E-02  0.18182176915E-01  0.35771083457E+01  0.35785604765E+01  0.10000000000E+00 0.  1.
</event>
<event>
 5   0  0.6262544E+06  0.9118800E+02  0.7818608E-02  0.1180000E+00
       11   -1    0    0    0    0  0.00000000000E+00  0.00000000000E+00  0.39999999673E+01  0.40000000000E+01  0.51109989000E-03 0. -1.
     -623   -1    0    0    0    0  0.00000000000E+00  0.00000000000E+00  0.12525980253E-10  0.17130000000E+03  0.17130000000E+03 0. -1.
       11    1    1    2    0    0  0.36738017726E-01  0.29872095702E-01  0.26707650311E+01  0.26711847814E+01  0.51109989000E-03 0. -1.
     -623    1    1    2    0    0  0.74970452983E-02 -0.98626723743E-02  0.50780812599E-02  0.17130000052E+03  0.17130000000E+03 0. -1.
      622    1    1    2    0    0 -0.44235063024E-01 -0.20009423327E-01  0.13241568551E+01  0.13288146954E+01  0.10000000000E+00 0.  1.
</event>
<event>
 5   0  0.6262544E+06  0.9118800E+02  0.7818608E-02  0.1180000E+00
       11   -1    0    0    0    0  0.00000000000E+00  0.00000000000E+00  0.39999999673E+01  0.40000000000E+01  0.51109989000E-03 0. -1.
     -623   -1    0    0    0    0  0.00000000000E+00  0.00000000000E+00  0.12525980253E-10  0.17130000000E+03  0.17130000000E+03 0. -1.
       11    1    1    2    0    0  0.19399650851E-01 -0.50965892751E-02  0.54017022979E+00  0.54054274581E+00  0.51109989000E-03 0. -1.
     -623    1    1    2    0    0  0.69406047743E-03  0.17972691481E-02  0.18780744300E-02  0.17130000002E+03  0.17130000000E+03 0. -1.
      622    1    1    2    0    0 -0.20093711329E-01  0.32993201270E-02  0.34579516632E+01  0.34594572331E+01  0.10000000000E+00 0. -1.
</event>
<event>
 5   0  0.6262544E+06  0.9118800E+02  0.7818608E-02  0.1180000E+00
       11   -1    0    0    0    0  0.00000000000E+00  0.00000000000E+00  0.39999999673E+01  0.40000000000E+01  0.51109989000E-03 0.  1.
     -623   -1    0    0    0    0  0.00000000000E+00  0.00000000000E+00  0.12525980253E-10  0.17130000000E+03  0.17130000000E+03 0.  1.
       11    1    1    2    0    0  0.11795316300E-01  0.37572945555E-02  0.28662600330E+00  0.28689366277E+00  0.51109989000E-03 0.  1.
     -623    1    1    2    0    0 -0.22687784684E-04  0.21830827614E-02  0.16378975786E-02  0.17130000002E+03  0.17130000000E+03 0.  1.
      622    1    1    2    0    0 -0.11772628516E-01 -0.59403773170E-02  0.37117360667E+01  0.37131063157E+01  0.10000000000E+00 0.  1.
</event>
<event>
 5   0  0.6262544E+06  0.9118800E+02  0.7818608E-02  0.1180000E+00
       11   -1    0    0    0    0  0.00000000000E+00  0.00000000000E+00  0.39999999673E+01  0.40000000000E+01  0.51109989000E-03 0.  1.
     -623   -1    0    0    0    0  0.00000000000E+00  0.00000000000E+00  0.12525980253E-10  0.17130000000E+03  0.17130000000E+03 0.  1.
       11    1    1    2    0    0  0.11061561314E-02 -0.10873420565E-01  0.10525837632E+01  0.10526406294E+01  0.51109989000E-03 0.  1.
     -623    1    1    2    0    0  0.99426439110E-02 -0.16485874582E-02  0.18013991672E-02  0.17130000031E+03  0.17130000000E+03 0.  1.
      622    1    1    2    0    0 -0.11048800042E-01  0.12522008023E-01  0.29456148050E+01  0.29473590647E+01  0.10000000000E+00 0.  1.
</event>
<event>
 5   0  0.6262544E+06  0.9118800E+02  0.7818608E-02  0.1180000E+00
       11   -1    0    0    0    0  0.00000000000E+00  0.00000000000E+00  0.39999999673E+01  0.40000000000E+01  0.51109989000E-03 0.  1.
     -623   -1    0    0    0    0  0.00000000000E+00  0.00000000000E+00  0.12525980253E-10  0.17130000000E+03  0.17130000000E+03 0.  1.
       11    1    1    2    0    0  0.55236178329E-01 -0.28873835643E-01  0.96075333816E+00  0.96277306350E+00  0.51109989000E-03 0.  1.
     -623    1    1    2    0    0 -0.30712638901E-02 -0.12033546129E-01  0.43908179465E-02  0.17130000051E+03  0.17130000000E+03 0.  1.
      622    1    1    2    0    0 -0.52164914439E-01  0.40907381772E-01  0.30348558112E+01  0.30372264300E+01  0.10000000000E+00 0.  1.
</event>
<event>
 5   0  0.6262544E+06  0.9118800E+02  0.7818608E-02  0.1180000E+00
       11   -1    0    0    0    0  0.00000000000E+00  0.00000000000E+00  0.39999999673E+01  0.40000000000E+01  0.51109989000E-03 0.  1.
     -623   -1    0    0    0    0  0.00000000000E+00  0.00000000000E+00  0.12525980253E-10  0.17130000000E+03  0.17130000000E+03 0.  1.
       11    1    1    2    0    0  0.10385693389E-01  0.30950572834E-01  0.21706325140E+01  0.21708780649E+01  0.51109989000E-03 0.  1.
     -623    1    1    2    0    0  0.12174155620E-01  0.31748228343E-01  0.42004929722E-02  0.17130000343E+03  0.17130000000E+03 0.  1.
      622    1    1    2    0    0 -0.22559849009E-01 -0.62698801176E-01  0.18251669604E+01  0.18291185089E+01  0.10000000000E+00 0. -1.
</event>
<event>
 5   0  0.6262544E+06  0.9118800E+02  0.7818608E-02  0.1180000E+00
       11   -1    0    0    0    0  0.00000000000E+00  0.00000000000E+00  0.39999999673E+01  0.40000000000E+01  0.51109989000E-03 0. -1.
     -623   -1    0    0    0    0  0.00000000000E+00  0.00000000000E+00  0.12525980253E-10  0.17130000000E+03  0.17130000000E+03 0.  1.
       11    1    1    2    0    0  0.71465958906E-01  0.34085674964E-01  0.74593952784E+00  0.75013016000E+00  0.51109989000E-03 0. -1.
     -623    1    1    2    0    0 -0.68298904551E-02  0.94019367366E-02  0.66643166820E-02  0.17130000052E+03  0.17130000000E+03 0.  1.
      622    1    1    2    0    0 -0.64636068451E-01 -0.43487611700E-01  0.32473961228E+01  0.32498693162E+01  0.10000000000E+00 0. -1.
</event>
<event>
 5   0  0.6262544E+06  0.9118800E+02  0.7818608E-02  0.1180000E+00
       11   -1    0    0    0    0  0.00000000000E+00  0.00000000000E+00  0.39999999673E+01  0.40000000000E+01  0.51109989000E-03 0.  1.
     -623   -1    0    0    0    0  0.00000000000E+00  0.00000000000E+00  0.12525980253E-10  0.17130000000E+03  0.17130000000E+03 0.  1.
       11    1    1    2    0    0 -0.25839644744E-01 -0.14744119007E-01  0.65361467577E+00  0.65429158782E+00  0.51109989000E-03 0.  1.
     -623    1    1    2    0    0 -0.57542879761E-02  0.40481690669E-02  0.23381738232E-02  0.17130000016E+03  0.17130000000E+03 0.  1.
      622    1    1    2    0    0  0.31593932721E-01  0.10695949940E-01  0.33440471178E+01  0.33457082517E+01  0.10000000000E+00 0.  1.
</event>
<event>
 5   0  0.6262544E+06  0.9118800E+02  0.7818608E-02  0.1180000E+00
       11   -1    0    0    0    0  0.00000000000E+00  0.00000000000E+00  0.39999999673E+01  0.40000000000E+01  0.51109989000E-03 0.  1.
     -623   -1    0    0    0    0  0.00000000000E+00  0.00000000000E+00  0.12525980253E-10  0.17130000000E+03  0.17130000000E+03 0.  1.
       11    1    1    2    0    0 -0.78176193862E-03 -0.65982036510E-03  0.11971330129E-01  0.12025825559E-01  0.51109989000E-03 0.  1.
     -623    1    1    2    0    0  0.16134005823E-02  0.27628026494E-02  0.13091056292E-02  0.17130000003E+03  0.17130000000E+03 0.  1.
      622    1    1    2    0    0 -0.83163864369E-03 -0.21029822843E-02  0.39867195316E+01  0.39879741396E+01  0.10000000000E+00 0.  1.
</event>
<event>
 5   0  0.6262544E+06  0.9118800E+02  0.7818608E-02  0.1180000E+00
       11   -1    0    0    0    0  0.00000000000E+00  0.00000000000E+00  0.39999999673E+01  0.40000000000E+01  0.51109989000E-03 0. -1.
     -623   -1    0    0    0    0  0.00000000000E+00  0.00000000000E+00  0.12525980253E-10  0.17130000000E+03  0.17130000000E+03 0.  1.
       11    1    1    2    0    0  0.87094320475E-02 -0.56578675952E-01  0.69261910809E+00  0.69498092844E+00  0.51109989000E-03 0. -1.
     -623    1    1    2    0    0 -0.13687100506E-01 -0.31517673752E-01  0.50571250136E-02  0.17130000352E+03  0.17130000000E+03 0.  1.
      622    1    1    2    0    0  0.49776684589E-02  0.88096349704E-01  0.33023237343E+01  0.33050155506E+01  0.10000000000E+00 0.  0.
</event>
<event>
 5   0  0.6262544E+06  0.9118800E+02  0.7818608E-02  0.1180000E+00
       11   -1    0    0    0    0  0.00000000000E+00  0.00000000000E+00  0.39999999673E+01  0.40000000000E+01  0.51109989000E-03 0.  1.
     -623   -1    0    0    0    0  0.00000000000E+00  0.00000000000E+00  0.12525980253E-10  0.17130000000E+03  0.17130000000E+03 0. -1.
       11    1    1    2    0    0  0.13023841926E+00 -0.69302507920E-01  0.12764417888E+01  0.12849392145E+01  0.51109989000E-03 0.  1.
     -623    1    1    2    0    0 -0.46188445114E-02  0.29535893403E-01  0.13544094558E-01  0.17130000314E+03  0.17130000000E+03 0. -1.
      622    1    1    2    0    0 -0.12561957475E+00  0.39766614517E-01  0.27100140840E+01  0.27150576415E+01  0.10000000000E+00 0.  1.
</event>
<event>
 5   0  0.6262544E+06  0.9118800E+02  0.7818608E-02  0.1180000E+00
       11   -1    0    0    0    0  0.00000000000E+00  0.00000000000E+00  0.39999999673E+01  0.40000000000E+01  0.51109989000E-03 0.  1.
     -623   -1    0    0    0    0  0.00000000000E+00  0.00000000000E+00  0.12525980253E-10  0.17130000000E+03  0.17130000000E+03 0. -1.
       11    1    1    2    0    0  0.99532943988E-02 -0.14449098840E-01  0.43456317622E-01  0.46867443829E-01  0.51109989000E-03 0.  1.
     -623    1    1    2    0    0 -0.22935950792E-01  0.23350829305E-01  0.47106596796E-02  0.17130000319E+03  0.17130000000E+03 0. -1.
      622    1    1    2    0    0  0.12982656393E-01 -0.89017304649E-02  0.39518329900E+01  0.39531293643E+01  0.10000000000E+00 0.  1.
</event>
<event>
 5   0  0.6262544E+06  0.9118800E+02  0.7818608E-02  0.1180000E+00
       11   -1    0    0    0    0  0.00000000000E+00  0.00000000000E+00  0.39999999673E+01  0.40000000000E+01  0.51109989000E-03 0.  1.
     -623   -1    0    0    0    0  0.00000000000E+00  0.00000000000E+00  0.12525980253E-10  0.17130000000E+03  0.17130000000E+03 0. -1.
       11    1    1    2    0    0  0.71150801379E-02  0.23537586964E-02  0.39529250604E-01  0.40236642767E-01  0.51109989000E-03 0.  1.
     -623    1    1    2    0    0 -0.13821096621E-01  0.75142440644E-03  0.19777316255E-02  0.17130000057E+03  0.17130000000E+03 0. -1.
      622    1    1    2    0    0  0.67060164836E-02 -0.31051831029E-02  0.39584929851E+01  0.39597627866E+01  0.10000000000E+00 0.  1.
</event>
<event>
 5   0  0.6262544E+06  0.9118800E+02  0.7818608E-02  0.1180000E+00
       11   -1    0    0    0    0  0.00000000000E+00  0.00000000000E+00  0.39999999673E+01  0.40000000000E+01  0.51109989000E-03 0.  1.
     -623   -1    0    0    0    0  0.00000000000E+00  0.00000000000E+00  0.12525980253E-10  0.17130000000E+03  0.17130000000E+03 0. -1.
       11    1    1    2    0    0 -0.36329690056E-02 -0.11617733976E-02  0.17049193394E-01  0.17478112018E-01  0.51109989000E-03 0.  1.
     -623    1    1    2    0    0  0.81187362126E-02  0.32373476734E-02  0.16878693297E-02  0.17130000023E+03  0.17130000000E+03 0. -1.
      622    1    1    2    0    0 -0.44857672075E-02 -0.20755742760E-02  0.39812629049E+01  0.39825216569E+01  0.10000000000E+00 0.  1.
</event>
<event>
 5   0  0.6262544E+06  0.9118800E+02  0.7818608E-02  0.1180000E+00
       11   -1    0    0    0    0  0.00000000000E+00  0.00000000000E+00  0.39999999673E+01  0.40000000000E+01  0.51109989000E-03 0.  1.
     -623   -1    0    0    0    0  0.00000000000E+00  0.00000000000E+00  0.12525980253E-10  0.17130000000E+03  0.17130000000E+03 0.  1.
       11    1    1    2    0    0  0.16549746958E-02  0.38129469858E-03  0.21890767155E-02  0.28173758810E-02  0.51109989000E-03 0.  1.
     -623    1    1    2    0    0 -0.16683524049E-02 -0.16225172102E-02  0.18795622887E-02  0.17130000003E+03  0.17130000000E+03 0.  1.
      622    1    1    2    0    0  0.13377709154E-04  0.12412225116E-02  0.39959313284E+01  0.39971825981E+01  0.10000000000E+00 0.  1.
</event>
<event>
 5   0  0.6262544E+06  0.9118800E+02  0.7818608E-02  0.1180000E+00
       11   -1    0    0    0    0  0.00000000000E+00  0.00000000000E+00  0.39999999673E+01  0.40000000000E+01  0.51109989000E-03 0.  1.
     -623   -1    0    0    0    0  0.00000000000E+00  0.00000000000E+00  0.12525980253E-10  0.17130000000E+03  0.17130000000E+03 0.  1.
       11    1    1    2    0    0 -0.16019853073E-01  0.17373079662E-01  0.23721048493E+00  0.23838526584E+00  0.51109989000E-03 0.  1.
     -623    1    1    2    0    0  0.19146448327E-01 -0.40429749322E-01  0.25820503141E-02  0.17130000586E+03  0.17130000000E+03 0.  1.
      622    1    1    2    0    0 -0.31265952536E-02  0.23056669660E-01  0.37602074321E+01  0.37616088736E+01  0.10000000000E+00 0.  1.
</event>
<event>
 5   0  0.6262544E+06  0.9118800E+02  0.7818608E-02  0.1180000E+00
       11   -1    0    0    0    0  0.00000000000E+00  0.00000000000E+00  0.39999999673E+01  0.40000000000E+01  0.51109989000E-03 0. -1.
     -623   -1    0    0    0    0  0.00000000000E+00  0.00000000000E+00  0.12525980253E-10  0.17130000000E+03  0.17130000000E+03 0.  1.
       11    1    1    2    0    0 -0.29410043473E-01 -0.95748883568E-01  0.14509960674E+01  0.14544492594E+01  0.51109989000E-03 0. -1.
     -623    1    1    2    0    0 -0.23794508548E-01  0.27539225989E-01  0.68935755640E-02  0.17130000400E+03  0.17130000000E+03 0.  1.
      622    1    1    2    0    0  0.53204552021E-01  0.68209657579E-01  0.25421103244E+01  0.25455467356E+01  0.10000000000E+00 0. -1.
</event>
<event>
 5   0  0.6262544E+06  0.9118800E+02  0.7818608E-02  0.1180000E+00
       11   -1    0    0    0    0  0.00000000000E+00  0.00000000000E+00  0.39999999673E+01  0.40000000000E+01  0.51109989000E-03 0. -1.
     -623   -1    0    0    0    0  0.00000000000E+00  0.00000000000E+00  0.12525980253E-10  0.17130000000E+03  0.17130000000E+03 0.  1.
       11    1    1    2    0    0 -0.80168637102E-02 -0.66815847314E-02  0.86924346817E-01  0.87550082633E-01  0.51109989000E-03 0. -1.
     -623    1    1    2    0    0  0.79507010631E-03  0.28498091383E-02  0.19124641875E-02  0.17130000004E+03  0.17130000000E+03 0.  1.
      622    1    1    2    0    0  0.72217936039E-02  0.38317755932E-02  0.39111631564E+01  0.39124498811E+01  0.10000000000E+00 0. -1.
</event>
<event>
 5   0  0.6262544E+06  0.9118800E+02  0.7818608E-02  0.1180000E+00
       11   -1    0    0    0    0  0.00000000000E+00  0.00000000000E+00  0.39999999673E+01  0.40000000000E+01  0.51109989000E-03 0. -1.
     -623   -1    0    0    0    0  0.00000000000E+00  0.00000000000E+00  0.12525980253E-10  0.17130000000E+03  0.17130000000E+03 0.  1.
       11    1    1    2    0    0 -0.53087758540E-01  0.12916580882E-01  0.34670961826E+00  0.35098855934E+00  0.51109989000E-03 0. -1.
     -623    1    1    2    0    0  0.26128505665E-01  0.23460295270E-01  0.59341286933E-02  0.17130000370E+03  0.17130000000E+03 0.  1.
      622    1    1    2    0    0  0.26959252874E-01 -0.36376876152E-01  0.36473562204E+01  0.36490077387E+01  0.10000000000E+00 0. -1.
</event>
<event>
 5   0  0.6262544E+06  0.9118800E+02  0.7818608E-02  0.1180000E+00
       11   -1    0    0    0    0  0.00000000000E+00  0.00000000000E+00  0.39999999673E+01  0.40000000000E+01  0.51109989000E-03 0. -1.
     -623   -1    0    0    0    0  0.00000000000E+00  0.00000000000E+00  0.12525980253E-10  0.17130000000E+03  0.17130000000E+03 0. -1.
       11    1    1    2    0    0  0.13664953227E-02 -0.28599423654E-02  0.37559441691E-01  0.37696411806E-01  0.51109989000E-03 0. -1.
     -623    1    1    2    0    0 -0.40180844107E-03  0.23411103828E-02  0.13992043223E-02  0.17130000002E+03  0.17130000000E+03 0. -1.
      622    1    1    2    0    0 -0.96468688163E-03  0.51883198257E-03  0.39610413214E+01  0.39623035661E+01  0.10000000000E+00 0. -1.
</event>
<event>
 5   0  0.6262544E+06  0.9118800E+02  0.7818608E-02  0.1180000E+00
       11   -1    0    0    0    0  0.00000000000E+00  0.00000000000E+00  0.39999999673E+01  0.40000000000E+01  0.51109989000E-03 0. -1.
     -623   -1    0    0    0    0  0.00000000000E+00  0.00000000000E+00  0.12525980253E-10  0.17130000000E+03  0.17130000000E+03 0. -1.
       11    1    1    2    0    0  0.31171009089E-01  0.18485587295E-01  0.12211307690E+01  0.12216685168E+01  0.51109989000E-03 0. -1.
     -623    1    1    2    0    0 -0.16663598673E-02  0.12102935429E-01  0.26636741722E-02  0.17130000046E+03  0.17130000000E+03 0. -1.
      622    1    1    2    0    0 -0.29504649222E-01 -0.30588522724E-01  0.27762055242E+01  0.27783310268E+01  0.10000000000E+00 0. -1.
</event>
<event>
 5   0  0.6262544E+06  0.9118800E+02  0.7818608E-02  0.1180000E+00
       11   -1    0    0    0    0  0.00000000000E+00  0.00000000000E+00  0.39999999673E+01  0.40000000000E+01  0.51109989000E-03 0.  1.
     -623   -1    0    0    0    0  0.00000000000E+00  0.00000000000E+00  0.12525980253E-10  0.17130000000E+03  0.17130000000E+03 0.  1.
       11    1    1    2    0    0  0.66703149488E-02 -0.10566852946E-02  0.46436578126E-01  0.46927888260E-01  0.51109989000E-03 0.  1.
     -623    1    1    2    0    0 -0.96014604641E-03 -0.17931306941E-02  0.17614931282E-02  0.17130000002E+03  0.17130000000E+03 0.  1.
      622    1    1    2    0    0 -0.57101689023E-02  0.28498159887E-02  0.39518018962E+01  0.39530720907E+01  0.10000000000E+00 0.  1.
</event>
<event>
 5   0  0.6262544E+06  0.9118800E+02  0.7818608E-02  0.1180000E+00
       11   -1    0    0    0    0  0.00000000000E+00  0.00000000000E+00  0.39999999673E+01  0.40000000000E+01  0.51109989000E-03 0. -1.
     -623   -1    0    0    0    0  0.00000000000E+00  0.00000000000E+00  0.12525980253E-10  0.17130000000E+03  0.17130000000E+03 0. -1.
       11    1    1    2    0    0 -0.29045923040E-02  0.90375317667E-02  0.10982420194E+00  0.11023488646E+00  0.51109989000E-03 0. -1.
     -623    1    1    2    0    0 -0.13912140181E-02 -0.20313646549E-02  0.17049998667E-02  0.17130000003E+03  0.17130000000E+03 0. -1.
      622    1    1    2    0    0  0.42958063221E-02 -0.70061671118E-02  0.38884707656E+01  0.38897650874E+01  0.10000000000E+00 0. -1.
</event>
<event>
 5   0  0.6262544E+06  0.9118800E+02  0.7818608E-02  0.1180000E+00
       11   -1    0    0    0    0  0.00000000000E+00  0.00000000000E+00  0.39999999673E+01  0.40000000000E+01  0.51109989000E-03 0. -1.
     -623   -1    0    0    0    0  0.00000000000E+00  0.00000000000E+00  0.12525980253E-10  0.17130000000E+03  0.17130000000E+03 0. -1.
       11    1    1    2    0    0 -0.82703090794E-02 -0.48167254701E-02  0.12106910278E-01  0.15441416907E-01  0.51109989000E-03 0. -1.
     -623    1    1    2    0    0  0.13508699078E-02  0.30207770645E-02  0.45960242232E-02  0.17130000009E+03  0.17130000000E+03 0. -1.
      622    1    1    2    0    0  0.69194391716E-02  0.17959484056E-02  0.39832970330E+01  0.39845584896E+01  0.10000000000E+00 0. -1.
</event>
<event>
 5   0  0.6262544E+06  0.9118800E+02  0.7818608E-02  0.1180000E+00
       11   -1    0    0    0    0  0.00000000000E+00  0.00000000000E+00  0.39999999673E+01  0.40000000000E+01  0.51109989000E-03 0.  1.
     -623   -1    0    0    0    0  0.00000000000E+00  0.00000000000E+00  0.12525980253E-10  0.17130000000E+03  0.17130000000E+03 0. -1.
       11    1    1    2    0    0  0.21590374139E-01 -0.25495868562E-01  0.38654002938E+00  0.38798149325E+00  0.51109989000E-03 0.  1.
     -623    1    1    2    0    0  0.24697819133E-03 -0.10905905313E-01  0.30758828826E-02  0.17130000037E+03  0.17130000000E+03 0. -1.
      622    1    1    2    0    0 -0.21837352330E-01  0.36401773875E-01  0.36103840551E+01  0.36120181318E+01  0.10000000000E+00 0.  1.
</event>
<event>
 5   0  0.6262544E+06  0.9118800E+02  0.7818608E-02  0.1180000E+00
       11   -1    0    0    0    0  0.00000000000E+00  0.00000000000E+00  0.39999999673E+01  0.40000000000E+01  0.51109989000E-03 0. -1.
     -623   -1    0    0    0    0  0.00000000000E+00  0.00000000000E+00  0.12525980253E-10  0.17130000000E+03  0.17130000000E+03 0. -1.
       11    1    1    2    0    0  0.13265150961E-01  0.11920324824E-02  0.20774319875E+00  0.20817032214E+00  0.51109989000E-03 0. -1.
     -623    1    1    2    0    0 -0.42806748805E-02 -0.20394275234E-01  0.18065085037E-02  0.17130000128E+03  0.17130000000E+03 0. -1.
      622    1    1    2    0    0 -0.89844760802E-02  0.19202242752E-01  0.37904502601E+01  0.37918284008E+01  0.10000000000E+00 0. -1.
</event>
<event>
 5   0  0.6262544E+06  0.9118800E+02  0.7818608E-02  0.1180000E+00
       11   -1    0    0    0    0  0.00000000000E+00  0.00000000000E+00  0.39999999673E+01  0.40000000000E+01  0.51109989000E-03 0.  1.
     -623   -1    0    0    0    0  0.00000000000E+00  0.00000000000E+00  0.12525980253E-10  0.17130000000E+03  0.17130000000E+03 0. -1.
       11    1    1    2    0    0  0.41358550378E-02  0.48932835629E-02  0.58363950798E-01  0.58716790587E-01  0.51109989000E-03 0.  1.
     -623    1    1    2    0    0  0.27604269805E-02 -0.60442373417E-02  0.16279738596E-02  0.17130000014E+03  0.17130000000E+03 0. -1.
      622    1    1    2    0    0 -0.68962820184E-02  0.11509537793E-02  0.39400080430E+01  0.39412830731E+01  0.10000000000E+00 0.  1.
</event>
<event>
 5   0  0.6262544E+06  0.9118800E+02  0.7818608E-02  0.1180000E+00
       11   -1    0    0    0    0  0.00000000000E+00  0.00000000000E+00  0.39999999673E+01  0.40000000000E+01  0.51109989000E-03 0. -1.
     -623   -1    0    0    0    0  0.00000000000E+00  0.00000000000E+00  0.12525980253E-10  0.17130000000E+03  0.17130000000E+03 0. -1.
       11    1    1    2    0    0  0.10341914086E+00  0.61891820402E-01  0.22521180469E+01  0.22553407890E+01  0.51109989000E-03 0. -1.
     -623    1    1    2    0    0 -0.50917730491E-02 -0.70724261691E-01  0.89059390413E-02  0.17130001491E+03  0.17130000000E+03 0. -1.
      622    1    1    2    0    0 -0.98327367812E-01  0.88324412905E-02  0.17389759814E+01  0.17446443040E+01  0.10000000000E+00 0. -1.
</event>
<event>
 5   0  0.6262544E+06  0.9118800E+02  0.7818608E-02  0.1180000E+00
       11   -1    0    0    0    0  0.00000000000E+00  0.00000000000E+00  0.39999999673E+01  0.40000000000E+01  0.51109989000E-03 0.  1.
     -623   -1    0    0    0    0  0.00000000000E+00  0.00000000000E+00  0.12525980253E-10  0.17130000000E+03  0.17130000000E+03 0. -1.
       11    1    1    2    0    0 -0.67979567972E-03  0.38220257052E-02  0.96694983267E-02  0.10432182113E-01  0.51109989000E-03 0.  1.
     -623    1    1    2    0    0  0.68643067261E-03 -0.22369697415E-02  0.20164594728E-02  0.17130000003E+03  0.17130000000E+03 0. -1.
      622    1    1    2    0    0 -0.66349929230E-05 -0.15850559635E-02  0.39883140098E+01  0.39895677902E+01  0.10000000000E+00 0.  1.
</event>
<event>
 5   0  0.6262544E+06  0.9118800E+02  0.7818608E-02  0.1180000E+00
       11   -1    0    0    0    0  0.00000000000E+00  0.00000000000E+00  0.39999999673E+01  0.40000000000E+01  0.51109989000E-03 0. -1.
     -623   -1    0    0    0    0  0.00000000000E+00  0.00000000000E+00  0.12525980253E-10  0.17130000000E+03  0.17130000000E+03 0.  1.
       11    1    1    2    0    0 -0.74311250460E-02 -0.78870524832E-03  0.11311199647E+00  0.11335973114E+00  0.51109989000E-03 0. -1.
     -623    1    1    2    0    0 -0.16910858484E-02 -0.17953330271E-02  0.15459659519E-02  0.17130000002E+03  0.17130000000E+03 0.  1.
      622    1    1    2    0    0  0.91222108944E-02  0.25840382754E-02  0.38853420049E+01  0.38866402441E+01  0.10000000000E+00 0. -1.
</event>
<event>
 5   0  0.6262544E+06  0.9118800E+02  0.7818608E-02  0.1180000E+00
       11   -1    0    0    0    0  0.00000000000E+00  0.00000000000E+00  0.39999999673E+01  0.40000000000E+01  0.51109989000E-03 0. -1.
     -623   -1    0    0    0    0  0.00000000000E+00  0.00000000000E+00  0.12525980253E-10  0.17130000000E+03  0.17130000000E+03 0.  1.
       11    1    1    2    0    0  0.47692270478E-02 -0.50527007350E-03  0.67435504644E-02  0.82908093486E-02  0.51109989000E-03 0. -1.
     -623    1    1    2    0    0 -0.24885460184E-02 -0.48623836404E-02  0.28043909954E-02  0.17130000011E+03  0.17130000000E+03 0.  1.
      622    1    1    2    0    0 -0.22806810294E-02  0.53676537138E-02  0.39904520259E+01  0.39917090806E+01  0.10000000000E+00 0. -1.
</event>
<event>
 5   0  0.6262544E+06  0.9118800E+02  0.7818608E-02  0.1180000E+00
       11   -1    0    0    0    0  0.00000000000E+00  0.00000000000E+00  0.39999999673E+01  0.40000000000E+01  0.51109989000E-03 0.  1.
     -623   -1    0    0    0    0  0.00000000000E+00  0.00000000000E+00  0.12525980253E-10  0.17130000000E+03  0.17130000000E+03 0.  1.
       11    1    1    2    0    0  0.11179738535E+00 -0.79952552998E-02  0.94135876479E+00  0.94800799825E+00  0.51109989000E-03 0.  1.
     -623    1    1    2    0    0 -0.30817345484E-01  0.30040644936E-01  0.94483875615E-02  0.17130000567E+03  0.17130000000E+03 0.  1.
      622    1    1    2    0    0 -0.80980039862E-01 -0.22045389636E-01  0.30491928150E+01  0.30519863350E+01  0.10000000000E+00 0.  1.
</event>
<event>
 5   0  0.6262544E+06  0.9118800E+02  0.7818608E-02  0.1180000E+00
       11   -1    0    0    0    0  0.00000000000E+00  0.00000000000E+00  0.39999999673E+01  0.40000000000E+01  0.51109989000E-03 0.  1.
     -623   -1    0    0    0    0  0.00000000000E+00  0.00000000000E+00  0.12525980253E-10  0.17130000000E+03  0.17130000000E+03 0. -1.
       11    1    1    2    0    0 -0.26575930300E-01 -0.35546829398E-01  0.49919918519E+00  0.50116857929E+00  0.51109989000E-03 0.  1.
     -623    1    1    2    0    0  0.57190694264E-01  0.53576030941E-01  0.35971426398E-02  0.17130001796E+03  0.17130000000E+03 0. -1.
      622    1    1    2    0    0 -0.30614763964E-01 -0.18029201543E-01  0.34972036395E+01  0.34988134578E+01  0.10000000000E+00 0.  1.
</event>
<event>
 5   0  0.6262544E+06  0.9118800E+02  0.7818608E-02  0.1180000E+00
       11   -1    0    0    0    0  0.00000000000E+00  0.00000000000E+00  0.39999999673E+01  0.40000000000E+01  0.51109989000E-03 0.  1.
     -623   -1    0    0    0    0  0.00000000000E+00  0.00000000000E+00  0.12525980253E-10  0.17130000000E+03  0.17130000000E+03 0.  1.
       11    1    1    2    0    0 -0.46303634495E-01  0.57856102754E-01  0.18221452875E+01  0.18236515744E+01  0.51109989000E-03 0.  1.
     -623    1    1    2    0    0 -0.88258804160E-02 -0.55521079818E-02  0.51338552398E-02  0.17130000039E+03  0.17130000000E+03 0.  1.
      622    1    1    2    0    0  0.55129514911E-01 -0.52303994772E-01  0.21727208247E+01  0.21763480313E+01  0.10000000000E+00 0.  1.
</event>
<event>
 5   0  0.6262544E+06  0.9118800E+02  0.7818608E-02  0.1180000E+00
       11   -1    0    0    0    0  0.00000000000E+00  0.00000000000E+00  0.39999999673E+01  0.40000000000E+01  0.51109989000E-03 0. -1.
     -623   -1    0    0    0    0  0.00000000000E+00  0.00000000000E+00  0.12525980253E-10  0.17130000000E+03  0.17130000000E+03 0. -1.
       11    1    1    2    0    0  0.29687087111E-02 -0.83360067493E-03  0.56023535069E-03  0.31754067837E-02  0.51109989000E-03 0. -1.
     -623    1    1    2    0    0 -0.18047463207E-02  0.52545443625E-03  0.38665631242E-02  0.17130000005E+03  0.17130000000E+03 0. -1.
      622    1    1    2    0    0 -0.11639623903E-02  0.30814623868E-03  0.39955731690E+01  0.39968245393E+01  0.10000000000E+00 0. -1.
</event>
<event>
 5   0  0.6262544E+06  0.9118800E+02  0.7818608E-02  0.1180000E+00
       11   -1    0    0    0    0  0.00000000000E+00  0.00000000000E+00  0.39999999673E+01  0.40000000000E+01  0.51109989000E-03 0. -1.
     -623   -1    0    0    0    0  0.00000000000E+00  0.00000000000E+00  0.12525980253E-10  0.17130000000E+03  0.17130000000E+03 0.  1.
       11    1    1    2    0    0  0.31553537883E-01  0.42048170198E-02  0.24648635292E+00  0.24853388026E+00  0.51109989000E-03 0. -1.
     -623    1    1    2    0    0 -0.23133669118E-02 -0.65104424798E-02  0.34954236765E-02  0.17130000018E+03  0.17130000000E+03 0.  1.
      622    1    1    2    0    0 -0.29240170971E-01  0.23056254600E-02  0.37500181908E+01  0.37514659447E+01  0.10000000000E+00 0. -1.
</event>
<event>
 5   0  0.6262544E+06  0.9118800E+02  0.7818608E-02  0.1180000E+00
       11   -1    0    0    0    0  0.00000000000E+00  0.00000000000E+00  0.39999999673E+01  0.40000000000E+01  0.51109989000E-03 0. -1.
     -623   -1    0    0    0    0  0.00000000000E+00  0.00000000000E+00  0.12525980253E-10  0.17130000000E+03  0.17130000000E+03 0. -1.
       11    1    1    2    0    0 -0.10405712612E-02 -0.46093718020E-03  0.13678371458E-01  0.13735148982E-01  0.51109989000E-03 0. -1.
     -623    1    1    2    0    0 -0.90459432245E-02  0.97625912405E-02  0.13353926232E-02  0.17130000052E+03  0.17130000000E+03 0. -1.
      622    1    1    2    0    0  0.10086514486E-01 -0.93016540603E-02  0.39849862033E+01  0.39862643288E+01  0.10000000000E+00 0. -1.
</event>
<event>
 5   0  0.6262544E+06  0.9118800E+02  0.7818608E-02  0.1180000E+00
       11   -1    0    0    0    0  0.00000000000E+00  0.00000000000E+00  0.39999999673E+01  0.40000000000E+01  0.51109989000E-03 0. -1.
     -623   -1    0    0    0    0  0.00000000000E+00  0.00000000000E+00  0.12525980253E-10  0.17130000000E+03  0.17130000000E+03 0. -1.
       11    1    1    2    0    0  0.82006998429E-02 -0.42936694916E-02  0.98375949690E-02  0.13517639346E-01  0.51109989000E-03 0. -1.
     -623    1    1    2    0    0 -0.87084776436E-02  0.73974188183E-02  0.49361410076E-02  0.17130000045E+03  0.17130000000E+03 0. -1.
      622    1    1    2    0    0  0.50777780054E-03 -0.31037493267E-02  0.39852262313E+01  0.39864819084E+01  0.10000000000E+00 0. -1.
</event>
<event>
 5   0  0.6262544E+06  0.9118800E+02  0.7818608E-02  0.1180000E+00
       11   -1    0    0    0    0  0.00000000000E+00  0.00000000000E+00  0.39999999673E+01  0.40000000000E+01  0.51109989000E-03 0.  1.
     -623   -1    0    0    0    0  0.00000000000E+00  0.00000000000E+00  0.12525980253E-10  0.17130000000E+03  0.17130000000E+03 0.  1.
       11    1    1    2    0    0  0.66457948817E-01 -0.22238818400E-01  0.96198367094E+00  0.96453308309E+00  0.51109989000E-03 0.  1.
     -623    1    1    2    0    0 -0.47132373060E-04  0.30268572816E-01  0.49373552869E-02  0.17130000275E+03  0.17130000000E+03 0.  1.
      622    1    1    2    0    0 -0.66410816444E-01 -0.80297544164E-02  0.30330789411E+01  0.30354641715E+01  0.10000000000E+00 0.  1.
</event>
<event>
 5   0  0.6262544E+06  0.9118800E+02  0.7818608E-02  0.1180000E+00
       11   -1    0    0    0    0  0.00000000000E+00  0.00000000000E+00  0.39999999673E+01  0.40000000000E+01  0.51109989000E-03 0. -1.
     -623   -1    0    0    0    0  0.00000000000E+00  0.00000000000E+00  0.12525980253E-10  0.17130000000E+03  0.17130000000E+03 0.  1.
       11    1    1    2    0    0  0.11701152169E-01 -0.11076815267E-01  0.11258624575E+00  0.11373450116E+00  0.51109989000E-03 0. -1.
     -623    1    1    2    0    0 -0.60676311483E-02  0.20554572639E-01  0.24520221331E-02  0.17130000136E+03  0.17130000000E+03 0.  1.
      622    1    1    2    0    0 -0.56335210206E-02 -0.94777573730E-02  0.38849616995E+01  0.38862641407E+01  0.10000000000E+00 0. -1.
</event>
<event>
 5   0  0.6262544E+06  0.9118800E+02  0.7818608E-02  0.1180000E+00
       11   -1    0    0    0    0  0.00000000000E+00  0.00000000000E+00  0.39999999673E+01  0.40000000000E+01  0.51109989000E-03 0.  1.
     -623   -1    0    0    0    0  0.00000000000E+00  0.00000000000E+00  0.12525980253E-10  0.17130000000E+03  0.17130000000E+03 0.  1.
       11    1    1    2    0    0  0.17709114779E-02  0.18383201001E-02 -0.85032933497E-02  0.88928493263E-02  0.51109989000E-03 0.  1.
     -623    1    1    2    0    0 -0.10973856245E-01 -0.79173907974E-02  0.18665888726E-01  0.17130000155E+03  0.17130000000E+03 0.  1.
      622    1    1    2    0    0  0.92029447667E-02  0.60790706973E-02  0.39898373720E+01  0.39911055992E+01  0.10000000000E+00 0.  1.
</event>
<event>
 5   0  0.6262544E+06  0.9118800E+02  0.7818608E-02  0.1180000E+00
       11   -1    0    0    0    0  0.00000000000E+00  0.00000000000E+00  0.39999999673E+01  0.40000000000E+01  0.51109989000E-03 0. -1.
     -623   -1    0    0    0    0  0.00000000000E+00  0.00000000000E+00  0.12525980253E-10  0.17130000000E+03  0.17130000000E+03 0. -1.
       11    1    1    2    0    0 -0.17614956239E-02  0.44739746796E-02  0.42396636060E-01  0.42671480963E-01  0.51109989000E-03 0. -1.
     -623    1    1    2    0    0  0.10728011054E-02 -0.28845378092E-04  0.15410602230E-02  0.17130000001E+03  0.17130000000E+03 0. -1.
      622    1    1    2    0    0  0.68869451846E-03 -0.44451293015E-02  0.39560622711E+01  0.39573285087E+01  0.10000000000E+00 0. -1.
</event>
<event>
 5   0  0.6262544E+06  0.9118800E+02  0.7818608E-02  0.1180000E+00
       11   -1    0    0    0    0  0.00000000000E+00  0.00000000000E+00  0.39999999673E+01  0.40000000000E+01  0.51109989000E-03 0.  1.
     -623   -1    0    0    0    0  0.00000000000E+00  0.00000000000E+00  0.12525980253E-10  0.17130000000E+03  0.17130000000E+03 0.  1.
       11    1    1    2    0    0 -0.50091295958E-01  0.15837003220E-03  0.77811259175E+00  0.77972343153E+00  0.51109989000E-03 0.  1.
     -623    1    1    2    0    0  0.57482559246E-01 -0.57603976476E-01  0.37043796622E-02  0.17130001937E+03  0.17130000000E+03 0.  1.
      622    1    1    2    0    0 -0.73912632902E-02  0.57445606446E-01  0.32181829961E+01  0.32202571986E+01  0.10000000000E+00 0.  1.
</event>
<event>
 5   0  0.6262544E+06  0.9118800E+02  0.7818608E-02  0.1180000E+00
       11   -1    0    0    0    0  0.00000000000E+00  0.00000000000E+00  0.39999999673E+01  0.40000000000E+01  0.51109989000E-03 0.  1.
     -623   -1    0    0    0    0  0.00000000000E+00  0.00000000000E+00  0.12525980253E-10  0.17130000000E+03  0.17130000000E+03 0.  1.
       11    1    1    2    0    0 -0.36858085196E-03  0.17311284963E-02  0.18267576717E-03  0.18512836759E-02  0.51109989000E-03 0.  1.
     -623    1    1    2    0    0 -0.10938027554E-01 -0.16648436955E-02  0.29357251965E-02  0.17130000038E+03  0.17130000000E+03 0.  1.
      622    1    1    2    0    0  0.11306608407E-01 -0.66284800753E-04  0.39968815665E+01  0.39981483340E+01  0.10000000000E+00 0.  1.
</event>
<event>
 5   0  0.6262544E+06  0.9118800E+02  0.7818608E-02  0.1180000E+00
       11   -1    0    0    0    0  0.00000000000E+00  0.00000000000E+00  0.39999999673E+01  0.40000000000E+01  0.51109989000E-03 0. -1.
     -623   -1    0    0    0    0  0.00000000000E+00  0.00000000000E+00  0.12525980253E-10  0.17130000000E+03  0.17130000000E+03 0.  1.
       11    1    1    2    0    0  0.84015629508E-01 -0.41352378719E-01  0.54937710701E+00  0.55730073762E+00  0.51109989000E-03 0. -1.
     -623    1    1    2    0    0 -0.86683604414E-02  0.14137267870E-01  0.10309985799E-01  0.17130000111E+03  0.17130000000E+03 0.  1.
      622    1    1    2    0    0 -0.75347269066E-01  0.27215110849E-01  0.34403128746E+01  0.34426981494E+01  0.10000000000E+00 0.  0.
</event>
<event>
 5   0  0.6262544E+06  0.9118800E+02  0.7818608E-02  0.1180000E+00
       11   -1    0    0    0    0  0.00000000000E+00  0.00000000000E+00  0.39999999673E+01  0.40000000000E+01  0.51109989000E-03 0. -1.
     -623   -1    0    0    0    0  0.00000000000E+00  0.00000000000E+00  0.12525980253E-10  0.17130000000E+03  0.17130000000E+03 0. -1.
       11    1    1    2    0    0  0.73277296884E-02  0.28105830928E-02  0.25686764140E-01  0.26863843245E-01  0.51109989000E-03 0. -1.
     -623    1    1    2    0    0 -0.19255403069E-02  0.17969715567E-02  0.24420814832E-02  0.17130000004E+03  0.17130000000E+03 0. -1.
      622    1    1    2    0    0 -0.54021893815E-02 -0.46075546495E-02  0.39718711217E+01  0.39731361191E+01  0.10000000000E+00 0. -1.
</event>
<event>
 5   0  0.6262544E+06  0.9118800E+02  0.7818608E-02  0.1180000E+00
       11   -1    0    0    0    0  0.00000000000E+00  0.00000000000E+00  0.39999999673E+01  0.40000000000E+01  0.51109989000E-03 0.  1.
     -623   -1    0    0    0    0  0.00000000000E+00  0.00000000000E+00  0.12525980253E-10  0.17130000000E+03  0.17130000000E+03 0.  1.
       11    1    1    2    0    0 -0.16151072199E-01 -0.14729787006E-01  0.56470626396E+00  0.56512940954E+00  0.51109989000E-03 0.  1.
     -623    1    1    2    0    0 -0.14469919054E-01  0.46270795839E-02  0.20311802447E-02  0.17130000069E+03  0.17130000000E+03 0.  1.
      622    1    1    2    0    0  0.30620991253E-01  0.10102707422E-01  0.34332625232E+01  0.34348699048E+01  0.10000000000E+00 0.  1.
</event>
<event>
 5   0  0.6262544E+06  0.9118800E+02  0.7818608E-02  0.1180000E+00
       11   -1    0    0    0    0  0.00000000000E+00  0.00000000000E+00  0.39999999673E+01  0.40000000000E+01  0.51109989000E-03 0.  1.
     -623   -1    0    0    0    0  0.00000000000E+00  0.00000000000E+00  0.12525980253E-10  0.17130000000E+03  0.17130000000E+03 0. -1.
       11    1    1    2    0    0  0.68348270300E-01 -0.77441976862E-02  0.42550225560E+00  0.43102655300E+00  0.51109989000E-03 0.  1.
     -623    1    1    2    0    0 -0.64550547732E-02 -0.88462074188E-02  0.75015269129E-02  0.17130000051E+03  0.17130000000E+03 0. -1.
      622    1    1    2    0    0 -0.61893215526E-01  0.16590405105E-01  0.35669961849E+01  0.35689729327E+01  0.10000000000E+00 0.  1.
</event>
<event>
 5   0  0.6262544E+06  0.9118800E+02  0.7818608E-02  0.1180000E+00
       11   -1    0    0    0    0  0.00000000000E+00  0.00000000000E+00  0.39999999673E+01  0.40000000000E+01  0.51109989000E-03 0. -1.
     -623   -1    0    0    0    0  0.00000000000E+00  0.00000000000E+00  0.12525980253E-10  0.17130000000E+03  0.17130000000E+03 0. -1.
       11    1    1    2    0    0 -0.93304737731E-04  0.87143999107E-02  0.90531536667E-02  0.12576576879E-01  0.51109989000E-03 0. -1.
     -623    1    1    2    0    0  0.29433699890E-02 -0.13057593063E-01  0.47815052307E-02  0.17130000059E+03  0.17130000000E+03 0. -1.
      622    1    1    2    0    0 -0.28500652512E-02  0.43431931524E-02  0.39861653085E+01  0.39874228334E+01  0.10000000000E+00 0. -1.
</event>
<event>
 5   0  0.6262544E+06  0.9118800E+02  0.7818608E-02  0.1180000E+00
       11   -1    0    0    0    0  0.00000000000E+00  0.00000000000E+00  0.39999999673E+01  0.40000000000E+01  0.51109989000E-03 0. -1.
     -623   -1    0    0    0    0  0.00000000000E+00  0.00000000000E+00  0.12525980253E-10  0.17130000000E+03  0.17130000000E+03 0.  1.
       11    1    1    2    0    0  0.19914713578E-01  0.24018930232E-01  0.26926841115E+00  0.27107055039E+00  0.51109989000E-03 0. -1.
     -623    1    1    2    0    0 -0.27359381253E-01 -0.47337314949E-03  0.32272305541E-02  0.17130000222E+03  0.17130000000E+03 0.  1.
      622    1    1    2    0    0  0.74446676755E-02 -0.23545557082E-01  0.37275043257E+01  0.37289272337E+01  0.10000000000E+00 0. -1.
</event>
<event>
 5   0  0.6262544E+06  0.9118800E+02  0.7818608E-02  0.1180000E+00
       11   -1    0    0    0    0  0.00000000000E+00  0.00000000000E+00  0.39999999673E+01  0.40000000000E+01  0.51109989000E-03 0.  1.
     -623   -1    0    0    0    0  0.00000000000E+00  0.00000000000E+00  0.12525980253E-10  0.17130000000E+03  0.17130000000E+03 0.  1.
       11    1    1    2    0    0  0.47067170405E-03 -0.78555466192E-02  0.37063120317E-01  0.37892839076E-01  0.51109989000E-03 0.  1.
     -623    1    1    2    0    0  0.41502457755E-02  0.14481322015E-01  0.21007547626E-02  0.17130000068E+03  0.17130000000E+03 0.  1.
      622    1    1    2    0    0 -0.46209174795E-02 -0.66257753960E-02  0.39608360923E+01  0.39621064857E+01  0.10000000000E+00 0.  1.
</event>
<event>
 5   0  0.6262544E+06  0.9118800E+02  0.7818608E-02  0.1180000E+00
       11   -1    0    0    0    0  0.00000000000E+00  0.00000000000E+00  0.39999999673E+01  0.40000000000E+01  0.51109989000E-03 0.  1.
     -623   -1    0    0    0    0  0.00000000000E+00  0.00000000000E+00  0.12525980253E-10  0.17130000000E+03  0.17130000000E+03 0. -1.
       11    1    1    2    0    0  0.17065011216E-02 -0.28948618700E-02  0.48051283453E-02  0.58858179412E-02  0.51109989000E-03 0. -1.
     -623    1    1    2    0    0  0.42145624915E-02  0.16759991555E-01  0.23620470334E-02  0.17130000089E+03  0.17130000000E+03 0. -1.
      622    1    1    2    0    0 -0.59210636131E-02 -0.13865129685E-01  0.39928327919E+01  0.39941132939E+01  0.10000000000E+00 0.  1.
</event>
<event>
 5   0  0.6262544E+06  0.9118800E+02  0.7818608E-02  0.1180000E+00
       11   -1    0    0    0    0  0.00000000000E+00  0.00000000000E+00  0.39999999673E+01  0.40000000000E+01  0.51109989000E-03 0.  1.
     -623   -1    0    0    0    0  0.00000000000E+00  0.00000000000E+00  0.12525980253E-10  0.17130000000E+03  0.17130000000E+03 0. -1.
       11    1    1    2    0    0  0.89237520838E-02  0.48570072522E-01  0.39166131510E+00  0.39476262775E+00  0.51109989000E-03 0.  1.
     -623    1    1    2    0    0  0.13324501134E-01 -0.21771049927E-01  0.46587040667E-02  0.17130000197E+03  0.17130000000E+03 0. -1.
      622    1    1    2    0    0 -0.22248253218E-01 -0.26799022595E-01  0.36036799483E+01  0.36052354073E+01  0.10000000000E+00 0.  1.
</event>
<event>
 5   0  0.6262544E+06  0.9118800E+02  0.7818608E-02  0.1180000E+00
       11   -1    0    0    0    0  0.00000000000E+00  0.00000000000E+00  0.39999999673E+01  0.40000000000E+01  0.51109989000E-03 0. -1.
     -623   -1    0    0    0    0  0.00000000000E+00  0.00000000000E+00  0.12525980253E-10  0.17130000000E+03  0.17130000000E+03 0.  1.
       11    1    1    2    0    0 -0.62978843494E-02 -0.76868066556E-02  0.11857857515E+01  0.11858275001E+01  0.51109989000E-03 0. -1.
     -623    1    1    2    0    0  0.52522482806E-02  0.45238706967E-03  0.18285884175E-02  0.17130000009E+03  0.17130000000E+03 0.  1.
      622    1    1    2    0    0  0.10456360688E-02  0.72344195860E-02  0.28123856274E+01  0.28141724090E+01  0.10000000000E+00 0. -1.
</event>
<event>
 5   0  0.6262544E+06  0.9118800E+02  0.7818608E-02  0.1180000E+00
       11   -1    0    0    0    0  0.00000000000E+00  0.00000000000E+00  0.39999999673E+01  0.40000000000E+01  0.51109989000E-03 0. -1.
     -623   -1    0    0    0    0  0.00000000000E+00  0.00000000000E+00  0.12525980253E-10  0.17130000000E+03  0.17130000000E+03 0.  1.
       11    1    1    2    0    0 -0.18362733625E-02  0.79186817692E-03  0.10873486155E+00  0.10875444953E+00  0.51109989000E-03 0. -1.
     -623    1    1    2    0    0 -0.76548596577E-02  0.50726250451E-02  0.13209539060E-02  0.17130000025E+03  0.17130000000E+03 0.  1.
      622    1    1    2    0    0  0.94911330202E-02 -0.58644932221E-02  0.38899441519E+01  0.38912452992E+01  0.10000000000E+00 0. -1.
</event>
<event>
 5   0  0.6262544E+06  0.9118800E+02  0.7818608E-02  0.1180000E+00
       11   -1    0    0    0    0  0.00000000000E+00  0.00000000000E+00  0.39999999673E+01  0.40000000000E+01  0.51109989000E-03 0.  1.
     -623   -1    0    0    0    0  0.00000000000E+00  0.00000000000E+00  0.12525980253E-10  0.17130000000E+03  0.17130000000E+03 0.  1.
       11    1    1    2    0    0 -0.58457592958E-02  0.24446523672E-02  0.33803101049E-01  0.34395640536E-01  0.51109989000E-03 0.  1.
     -623    1    1    2    0    0 -0.46206024129E-02 -0.66693848051E-02  0.18698190321E-02  0.17130000020E+03  0.17130000000E+03 0.  1.
      622    1    1    2    0    0  0.10466361709E-01  0.42247324378E-02  0.39643270473E+01  0.39656041571E+01  0.10000000000E+00 0.  1.
</event>
<event>
 5   0  0.6262544E+06  0.9118800E+02  0.7818608E-02  0.1180000E+00
       11   -1    0    0    0    0  0.00000000000E+00  0.00000000000E+00  0.39999999673E+01  0.40000000000E+01  0.51109989000E-03 0.  1.
     -623   -1    0    0    0    0  0.00000000000E+00  0.00000000000E+00  0.12525980253E-10  0.17130000000E+03  0.17130000000E+03 0. -1.
       11    1    1    2    0    0 -0.34013737585E-01  0.23810853455E-01  0.21736357342E+01  0.21740323037E+01  0.51109989000E-03 0.  1.
     -623    1    1    2    0    0  0.68500228313E-02 -0.45270254927E-02  0.34414564550E-02  0.17130000023E+03  0.17130000000E+03 0. -1.
      622    1    1    2    0    0  0.27163714754E-01 -0.19283827962E-01  0.18229227766E+01  0.18259674649E+01  0.10000000000E+00 0.  0.
</event>
<event>
 5   0  0.6262544E+06  0.9118800E+02  0.7818608E-02  0.1180000E+00
       11   -1    0    0    0    0  0.00000000000E+00  0.00000000000E+00  0.39999999673E+01  0.40000000000E+01  0.51109989000E-03 0. -1.
     -623   -1    0    0    0    0  0.00000000000E+00  0.00000000000E+00  0.12525980253E-10  0.17130000000E+03  0.17130000000E+03 0. -1.
       11    1    1    2    0    0  0.28499615938E-01  0.11335566843E-01  0.75874046817E-01  0.81840426348E-01  0.51109989000E-03 0. -1.
     -623    1    1    2    0    0  0.46021048044E-02 -0.11903798526E-01  0.73832144955E-02  0.17130000063E+03  0.17130000000E+03 0. -1.
      622    1    1    2    0    0 -0.33101720743E-01  0.56823168338E-03  0.39167427060E+01  0.39181589391E+01  0.10000000000E+00 0. -1.
</event>
<event>
 5   0  0.6262544E+06  0.9118800E+02  0.7818608E-02  0.1180000E+00
       11   -1    0    0    0    0  0.00000000000E+00  0.00000000000E+00  0.39999999673E+01  0.40000000000E+01  0.51109989000E-03 0.  1.
     -623   -1    0    0    0    0  0.00000000000E+00  0.00000000000E+00  0.12525980253E-10  0.17130000000E+03  0.17130000000E+03 0. -1.
       11    1    1    2    0    0 -0.22476811043E-01 -0.11346894683E-01  0.12910175897E+00  0.13153510727E+00  0.51109989000E-03 0.  1.
     -623    1    1    2    0    0  0.43925695422E-01 -0.46827064667E-02  0.38244794630E-02  0.17130000574E+03  0.17130000000E+03 0. -1.
      622    1    1    2    0    0 -0.21448884379E-01  0.16029601150E-01  0.38670737289E+01  0.38684591542E+01  0.10000000000E+00 0.  1.
</event>
<event>
 5   0  0.6262544E+06  0.9118800E+02  0.7818608E-02  0.1180000E+00
       11   -1    0    0    0    0  0.00000000000E+00  0.00000000000E+00  0.39999999673E+01  0.40000000000E+01  0.51109989000E-03 0. -1.
     -623   -1    0    0    0    0  0.00000000000E+00  0.00000000000E+00  0.12525980253E-10  0.17130000000E+03  0.17130000000E+03 0.  1.
       11    1    1    2    0    0  0.69864553827E-02  0.42850936528E-02  0.27261681782E-01  0.28471619257E-01  0.51109989000E-03 0. -1.
     -623    1    1    2    0    0 -0.70212811229E-02 -0.14920266539E-02  0.24702164720E-02  0.17130000017E+03  0.17130000000E+03 0.  1.
      622    1    1    2    0    0  0.34825739950E-04 -0.27930669990E-02  0.39702680690E+01  0.39715282124E+01  0.10000000000E+00 0. -1.
</event>
<event>
 5   0  0.6262544E+06  0.9118800E+02  0.7818608E-02  0.1180000E+00
       11   -1    0    0    0    0  0.00000000000E+00  0.00000000000E+00  0.39999999673E+01  0.40000000000E+01  0.51109989000E-03 0.  1.
     -623   -1    0    0    0    0  0.00000000000E+00  0.00000000000E+00  0.12525980253E-10  0.17130000000E+03  0.17130000000E+03 0. -1.
       11    1    1    2    0    0  0.10973208924E-03  0.83933765490E-02  0.75174496465E-02  0.11279808656E-01  0.51109989000E-03 0.  1.
     -623    1    1    2    0    0  0.18560331612E-01 -0.39828944449E-03  0.50688636232E-02  0.17130000108E+03  0.17130000000E+03 0. -1.
      622    1    1    2    0    0 -0.18670063701E-01 -0.79950871045E-02  0.39874136541E+01  0.39887191104E+01  0.10000000000E+00 0.  1.
</event>
<event>
 5   0  0.6262544E+06  0.9118800E+02  0.7818608E-02  0.1180000E+00
       11   -1    0    0    0    0  0.00000000000E+00  0.00000000000E+00  0.39999999673E+01  0.40000000000E+01  0.51109989000E-03 0. -1.
     -623   -1    0    0    0    0  0.00000000000E+00  0.00000000000E+00  0.12525980253E-10  0.17130000000E+03  0.17130000000E+03 0.  1.
       11    1    1    2    0    0  0.16864240916E-01  0.57101091891E-01  0.62627436757E+00  0.62909838819E+00  0.51109989000E-03 0. -1.
     -623    1    1    2    0    0 -0.92335735067E-02  0.19963240063E-02  0.48348730494E-02  0.17130000033E+03  0.17130000000E+03 0.  1.
      622    1    1    2    0    0 -0.76306674088E-02 -0.59097415897E-01  0.33688907268E+01  0.33709012832E+01  0.10000000000E+00 0. -1.
</event>
<event>
 5   0  0.6262544E+06  0.9118800E+02  0.7818608E-02  0.1180000E+00
       11   -1    0    0    0    0  0.00000000000E+00  0.00000000000E+00  0.39999999673E+01  0.40000000000E+01  0.51109989000E-03 0. -1.
     -623   -1    0    0    0    0  0.00000000000E+00  0.00000000000E+00  0.12525980253E-10  0.17130000000E+03  0.17130000000E+03 0.  1.
       11    1    1    2    0    0 -0.11352953630E-01 -0.30532501167E-01  0.71831900719E+00  0.71905742504E+00  0.51109989000E-03 0. -1.
     -623    1    1    2    0    0  0.12125269471E-02 -0.11812658940E-01  0.25522018181E-02  0.17130000043E+03  0.17130000000E+03 0.  1.
      622    1    1    2    0    0  0.10140426682E-01  0.42345160108E-01  0.32791287584E+01  0.32809421444E+01  0.10000000000E+00 0.  0.
</event>
<event>
 5   0  0.6262544E+06  0.9118800E+02  0.7818608E-02  0.1180000E+00
       11   -1    0    0    0    0  0.00000000000E+00  0.00000000000E+00  0.39999999673E+01  0.40000000000E+01  0.51109989000E-03 0.  1.
     -623   -1    0    0    0    0  0.00000000000E+00  0.00000000000E+00  0.12525980253E-10  0.17130000000E+03  0.17130000000E+03 0.  1.
       11    1    1    2    0    0  0.34909657333E-01 -0.13783446365E-01  0.18908152360E+01  0.18911877711E+01  0.51109989000E-03 0.  1.
     -623    1    1    2    0    0 -0.58234707370E-02  0.68040763656E-02  0.29574872345E-02  0.17130000026E+03  0.17130000000E+03 0.  1.
      622    1    1    2    0    0 -0.29086186596E-01  0.69793699995E-02  0.21062272441E+01  0.21088119692E+01  0.10000000000E+00 0.  0.
</event>
<event>
 5   0  0.6262544E+06  0.9118800E+02  0.7818608E-02  0.1180000E+00
       11   -1    0    0    0    0  0.00000000000E+00  0.00000000000E+00  0.39999999673E+01  0.40000000000E+01  0.51109989000E-03 0.  1.
     -623   -1    0    0    0    0  0.00000000000E+00  0.00000000000E+00  0.12525980253E-10  0.17130000000E+03  0.17130000000E+03 0.  1.
       11    1    1    2    0    0 -0.56735659848E-02  0.80726901832E-01  0.22112897725E+00  0.23547252034E+00  0.51109989000E-03 0.  1.
     -623    1    1    2    0    0  0.67043671002E-02 -0.20846394094E-01  0.16150679353E-01  0.17130000216E+03  0.17130000000E+03 0.  1.
      622    1    1    2    0    0 -0.10308011154E-02 -0.59880507738E-01  0.37627203108E+01  0.37645253186E+01  0.10000000000E+00 0.  1.
</event>
<event>
 5   0  0.6262544E+06  0.9118800E+02  0.7818608E-02  0.1180000E+00
       11   -1    0    0    0    0  0.00000000000E+00  0.00000000000E+00  0.39999999673E+01  0.40000000000E+01  0.51109989000E-03 0.  1.
     -623   -1    0    0    0    0  0.00000000000E+00  0.00000000000E+00  0.12525980253E-10  0.17130000000E+03  0.17130000000E+03 0. -1.
       11    1    1    2    0    0 -0.23541501374E-01 -0.67147510857E-02  0.12916456956E+01  0.12918777629E+01  0.51109989000E-03 0.  1.
     -623    1    1    2    0    0 -0.30320161834E-02  0.59054474424E-02  0.22096950152E-02  0.17130000014E+03  0.17130000000E+03 0. -1.
      622    1    1    2    0    0  0.26573517557E-01  0.80930364332E-03  0.27061445767E+01  0.27081220942E+01  0.10000000000E+00 0.  1.
</event>
<event>
 5   0  0.6262544E+06  0.9118800E+02  0.7818608E-02  0.1180000E+00
       11   -1    0    0    0    0  0.00000000000E+00  0.00000000000E+00  0.39999999673E+01  0.40000000000E+01  0.51109989000E-03 0.  1.
     -623   -1    0    0    0    0  0.00000000000E+00  0.00000000000E+00  0.12525980253E-10  0.17130000000E+03  0.17130000000E+03 0. -1.
       11    1    1    2    0    0 -0.25578826030E-02  0.11703460270E-02  0.50339567706E-02  0.57891637652E-02  0.51109989000E-03 0.  1.
     -623    1    1    2    0    0  0.21000010725E-02 -0.24339948856E-02  0.20074504610E-02  0.17130000004E+03  0.17130000000E+03 0. -1.
      622    1    1    2    0    0  0.45788153048E-03  0.12636488586E-02  0.39929585602E+01  0.39942107943E+01  0.10000000000E+00 0.  1.
</event>
<event>
 5   0  0.6262544E+06  0.9118800E+02  0.7818608E-02  0.1180000E+00
       11   -1    0    0    0    0  0.00000000000E+00  0.00000000000E+00  0.39999999673E+01  0.40000000000E+01  0.51109989000E-03 0.  1.
     -623   -1    0    0    0    0  0.00000000000E+00  0.00000000000E+00  0.12525980253E-10  0.17130000000E+03  0.17130000000E+03 0.  1.
       11    1    1    2    0    0  0.76085494790E-02  0.48729152657E-02  0.67997172798E-01  0.68596735037E-01  0.51109989000E-03 0.  1.
     -623    1    1    2    0    0 -0.11471009857E-01  0.16219274084E-03  0.18770638155E-02  0.17130000039E+03  0.17130000000E+03 0.  1.
      622    1    1    2    0    0  0.38624603778E-02 -0.50351080065E-02  0.39301257307E+01  0.39314028705E+01  0.10000000000E+00 0.  1.
</event>
<event>
 5   0  0.6262544E+06  0.9118800E+02  0.7818608E-02  0.1180000E+00
       11   -1    0    0    0    0  0.00000000000E+00  0.00000000000E+00  0.39999999673E+01  0.40000000000E+01  0.51109989000E-03 0. -1.
     -623   -1    0    0    0    0  0.00000000000E+00  0.00000000000E+00  0.12525980253E-10  0.17130000000E+03  0.17130000000E+03 0.  1.
       11    1    1    2    0    0  0.15302989038E-01 -0.26114515482E-01  0.64330825791E+00  0.64402012803E+00  0.51109989000E-03 0. -1.
     -623    1    1    2    0    0  0.60484107865E-02  0.18075940587E-02  0.23581985006E-02  0.17130000013E+03  0.17130000000E+03 0.  1.
      622    1    1    2    0    0 -0.21351399825E-01  0.24306921423E-01  0.33543335111E+01  0.33559797396E+01  0.10000000000E+00 0. -1.
</event>
<event>
 5   0  0.6262544E+06  0.9118800E+02  0.7818608E-02  0.1180000E+00
       11   -1    0    0    0    0  0.00000000000E+00  0.00000000000E+00  0.39999999673E+01  0.40000000000E+01  0.51109989000E-03 0.  1.
     -623   -1    0    0    0    0  0.00000000000E+00  0.00000000000E+00  0.12525980253E-10  0.17130000000E+03  0.17130000000E+03 0. -1.
       11    1    1    2    0    0  0.14891197473E-01 -0.70456791012E-02  0.39838495948E-01  0.43113296532E-01  0.51109989000E-03 0.  1.
     -623    1    1    2    0    0 -0.12142985575E-01  0.22087846975E-01  0.45700609286E-02  0.17130000192E+03  0.17130000000E+03 0. -1.
      622    1    1    2    0    0 -0.27482118983E-02 -0.15042167874E-01  0.39555914105E+01  0.39568847881E+01  0.10000000000E+00 0.  1.
</event>
<event>
 5   0  0.6262544E+06  0.9118800E+02  0.7818608E-02  0.1180000E+00
       11   -1    0    0    0    0  0.00000000000E+00  0.00000000000E+00  0.39999999673E+01  0.40000000000E+01  0.51109989000E-03 0.  1.
     -623   -1    0    0    0    0  0.00000000000E+00  0.00000000000E+00  0.12525980253E-10  0.17130000000E+03  0.17130000000E+03 0. -1.
       11    1    1    2    0    0 -0.14365446405E-02  0.41780083912E-02  0.59849705013E-02  0.74565748639E-02  0.51109989000E-03 0.  1.
     -623    1    1    2    0    0  0.20473691698E-02 -0.99906683613E-02  0.27287074711E-02  0.17130000033E+03  0.17130000000E+03 0. -1.
      622    1    1    2    0    0 -0.61082452925E-03  0.58126599701E-02  0.39912862894E+01  0.39925430998E+01  0.10000000000E+00 0.  1.
</event>
<event>
 5   0  0.6262544E+06  0.9118800E+02  0.7818608E-02  0.1180000E+00
       11   -1    0    0    0    0  0.00000000000E+00  0.00000000000E+00  0.39999999673E+01  0.40000000000E+01  0.51109989000E-03 0. -1.
     -623   -1    0    0    0    0  0.00000000000E+00  0.00000000000E+00  0.12525980253E-10  0.17130000000E+03  0.17130000000E+03 0.  1.
       11    1    1    2    0    0 -0.53051771795E-02  0.89135462391E-03  0.57596417014E-02  0.78977283230E-02  0.51109989000E-03 0. -1.
     -623    1    1    2    0    0  0.86637688168E-02  0.36953531832E-02  0.33950651447E-02  0.17130000029E+03  0.17130000000E+03 0.  1.
      622    1    1    2    0    0 -0.33585916374E-02 -0.45867078071E-02  0.39908452605E+01  0.39921019791E+01  0.10000000000E+00 0. -1.
</event>
<event>
 5   0  0.6262544E+06  0.9118800E+02  0.7818608E-02  0.1180000E+00
       11   -1    0    0    0    0  0.00000000000E+00  0.00000000000E+00  0.39999999673E+01  0.40000000000E+01  0.51109989000E-03 0.  1.
     -623   -1    0    0    0    0  0.00000000000E+00  0.00000000000E+00  0.12525980253E-10  0.17130000000E+03  0.17130000000E+03 0. -1.
       11    1    1    2    0    0 -0.14049341819E-02 -0.14507331885E-02  0.14043283083E-02  0.25123351558E-02  0.51109989000E-03 0.  1.
     -623    1    1    2    0    0 -0.17723830427E-02  0.16853221608E-02  0.23602592705E-02  0.17130000003E+03  0.17130000000E+03 0. -1.
      622    1    1    2    0    0  0.31773172246E-02 -0.23458897224E-03  0.39962353797E+01  0.39974876311E+01  0.10000000000E+00 0.  1.
</event>
<event>
 5   0  0.6262544E+06  0.9118800E+02  0.7818608E-02  0.1180000E+00
       11   -1    0    0    0    0  0.00000000000E+00  0.00000000000E+00  0.39999999673E+01  0.40000000000E+01  0.51109989000E-03 0.  1.
     -623   -1    0    0    0    0  0.00000000000E+00  0.00000000000E+00  0.12525980253E-10  0.17130000000E+03  0.17130000000E+03 0. -1.
       11    1    1    2    0    0  0.29562492973E-02  0.24053004164E-02  0.63660772411E-01  0.63776798636E-01  0.51109989000E-03 0.  1.
     -623    1    1    2    0    0  0.50879825677E-03  0.27094909510E-02  0.13913294503E-02  0.17130000003E+03  0.17130000000E+03 0. -1.
      622    1    1    2    0    0 -0.34650475540E-02 -0.51147913675E-02  0.39349478655E+01  0.39362231735E+01  0.10000000000E+00 0.  1.
</event>
<event>
 5   0  0.6262544E+06  0.9118800E+02  0.7818608E-02  0.1180000E+00
       11   -1    0    0    0    0  0.00000000000E+00  0.00000000000E+00  0.39999999673E+01  0.40000000000E+01  0.51109989000E-03 0. -1.
     -623   -1    0    0    0    0  0.00000000000E+00  0.00000000000E+00  0.12525980253E-10  0.17130000000E+03  0.17130000000E+03 0.  1.
       11    1    1    2    0    0 -0.48880386035E-02  0.89733385867E-03  0.21290679694E-01  0.21868982473E-01  0.51109989000E-03 0. -1.
     -623    1    1    2    0    0  0.49682125208E-02 -0.18725024389E-02  0.18355528911E-02  0.17130000009E+03  0.17130000000E+03 0.  1.
      622    1    1    2    0    0 -0.80173917169E-04  0.97516858022E-03  0.39768737347E+01  0.39781309253E+01  0.10000000000E+00 0. -1.
</event>
<event>
 5   0  0.6262544E+06  0.9118800E+02  0.7818608E-02  0.1180000E+00
       11   -1    0    0    0    0  0.00000000000E+00  0.00000000000E+00  0.39999999673E+01  0.40000000000E+01  0.51109989000E-03 0. -1.
     -623   -1    0    0    0    0  0.00000000000E+00  0.00000000000E+00  0.12525980253E-10  0.17130000000E+03  0.17130000000E+03 0.  1.
       11    1    1    2    0    0  0.15031876016E-01  0.78410031515E-02  0.49498230915E+00  0.49527284018E+00  0.51109989000E-03 0. -1.
     -623    1    1    2    0    0  0.99954577791E-02 -0.26308189385E-01  0.18578295468E-02  0.17130000232E+03  0.17130000000E+03 0.  1.
      622    1    1    2    0    0 -0.25027333795E-01  0.18467186233E-01  0.35031598287E+01  0.35047248379E+01  0.10000000000E+00 0. -1.
</event>
<event>
 5   0  0.6262544E+06  0.9118800E+02  0.7818608E-02  0.1180000E+00
       11   -1    0    0    0    0  0.00000000000E+00  0.00000000000E+00  0.39999999673E+01  0.40000000000E+01  0.51109989000E-03 0.  1.
     -623   -1    0    0    0    0  0.00000000000E+00  0.00000000000E+00  0.12525980253E-10  0.17130000000E+03  0.17130000000E+03 0. -1.
       11    1    1    2    0    0 -0.10246309544E-01 -0.79478910414E-02  0.67356112874E-01  0.68594919591E-01  0.51109989000E-03 0.  1.
     -623    1    1    2    0    0  0.11473718667E-01 -0.27052534903E-02  0.25258442318E-02  0.17130000042E+03  0.17130000000E+03 0. -1.
      622    1    1    2    0    0 -0.12274091230E-02  0.10653144532E-01  0.39301180103E+01  0.39314046562E+01  0.10000000000E+00 0.  1.
</event>
<event>
 5   0  0.6262544E+06  0.9118800E+02  0.7818608E-02  0.1180000E+00
       11   -1    0    0    0    0  0.00000000000E+00  0.00000000000E+00  0.39999999673E+01  0.40000000000E+01  0.51109989000E-03 0.  1.
     -623   -1    0    0    0    0  0.00000000000E+00  0.00000000000E+00  0.12525980253E-10  0.17130000000E+03  0.17130000000E+03 0.  1.
       11    1    1    2    0    0 -0.50292398223E-02 -0.45180315317E-02  0.42339002933E+00  0.42344431041E+00  0.51109989000E-03 0.  1.
     -623    1    1    2    0    0  0.57218901420E-02  0.14838826775E-01  0.14682238827E-02  0.17130000074E+03  0.17130000000E+03 0.  1.
      622    1    1    2    0    0 -0.69265031969E-03 -0.10320795244E-01  0.35751417141E+01  0.35765549450E+01  0.10000000000E+00 0.  1.
</event>
<event>
 5   0  0.6262544E+06  0.9118800E+02  0.7818608E-02  0.1180000E+00
       11   -1    0    0    0    0  0.00000000000E+00  0.00000000000E+00  0.39999999673E+01  0.40000000000E+01  0.51109989000E-03 0.  1.
     -623   -1    0    0    0    0  0.00000000000E+00  0.00000000000E+00  0.12525980253E-10  0.17130000000E+03  0.17130000000E+03 0.  1.
       11    1    1    2    0    0 -0.50236763796E-03  0.91351893037E-03 -0.76368633194E-03  0.13897229907E-02  0.51109989000E-03 0.  1.
     -623    1    1    2    0    0 -0.39339607149E-02 -0.12628089202E-02  0.34065674373E-02  0.17130000008E+03  0.17130000000E+03 0.  1.
      622    1    1    2    0    0  0.44363283529E-02  0.34928998983E-03  0.39973570864E+01  0.39986101934E+01  0.10000000000E+00 0.  1.
</event>
<event>
 5   0  0.6262544E+06  0.9118800E+02  0.7818608E-02  0.1180000E+00
       11   -1    0    0    0    0  0.00000000000E+00  0.00000000000E+00  0.39999999673E+01  0.40000000000E+01  0.51109989000E-03 0.  1.
     -623   -1    0    0    0    0  0.00000000000E+00  0.00000000000E+00  0.12525980253E-10  0.17130000000E+03  0.17130000000E+03 0. -1.
       11    1    1    2    0    0 -0.27049916118E-02 -0.14968749365E-01  0.34128816924E-01  0.37368674103E-01  0.51109989000E-03 0.  1.
     -623    1    1    2    0    0  0.11978612311E-01 -0.18600681388E-01  0.46564006562E-02  0.17130000149E+03  0.17130000000E+03 0. -1.
      622    1    1    2    0    0 -0.92736206992E-02  0.33569430752E-01  0.39612147498E+01  0.39626298339E+01  0.10000000000E+00 0.  1.
</event>
<event>
 5   0  0.6262544E+06  0.9118800E+02  0.7818608E-02  0.1180000E+00
       11   -1    0    0    0    0  0.00000000000E+00  0.00000000000E+00  0.39999999673E+01  0.40000000000E+01  0.51109989000E-03 0.  1.
     -623   -1    0    0    0    0  0.00000000000E+00  0.00000000000E+00  0.12525980253E-10  0.17130000000E+03  0.17130000000E+03 0. -1.
       11    1    1    2    0    0 -0.21758974731E-01 -0.44562651172E-01  0.11336426458E+01  0.11347269242E+01  0.51109989000E-03 0.  1.
     -623    1    1    2    0    0 -0.86729335409E-02  0.32295874929E-01  0.30210913780E-02  0.17130000329E+03  0.17130000000E+03 0. -1.
      622    1    1    2    0    0  0.30431908272E-01  0.12266776242E-01  0.28633362302E+01  0.28652697852E+01  0.10000000000E+00 0.  1.
</event>
<event>
 5   0  0.6262544E+06  0.9118800E+02  0.7818608E-02  0.1180000E+00
       11   -1    0    0    0    0  0.00000000000E+00  0.00000000000E+00  0.39999999673E+01  0.40000000000E+01  0.51109989000E-03 0.  1.
     -623   -1    0    0    0    0  0.00000000000E+00  0.00000000000E+00  0.12525980253E-10  0.17130000000E+03  0.17130000000E+03 0. -1.
       11    1    1    2    0    0 -0.40246991064E-02  0.18041101889E-01  0.60600697574E-01  0.63359177130E-01  0.51109989000E-03 0.  1.
     -623    1    1    2    0    0  0.56666487051E-02 -0.55698972782E-02  0.40491057381E-02  0.17130000023E+03  0.17130000000E+03 0. -1.
      622    1    1    2    0    0 -0.16419495987E-02 -0.12471204611E-01  0.39353501640E+01  0.39366405907E+01  0.10000000000E+00 0.  1.
</event>
<event>
 5   0  0.6262544E+06  0.9118800E+02  0.7818608E-02  0.1180000E+00
       11   -1    0    0    0    0  0.00000000000E+00  0.00000000000E+00  0.39999999673E+01  0.40000000000E+01  0.51109989000E-03 0.  1.
     -623   -1    0    0    0    0  0.00000000000E+00  0.00000000000E+00  0.12525980253E-10  0.17130000000E+03  0.17130000000E+03 0. -1.
       11    1    1    2    0    0 -0.25477403568E-02  0.19664016343E-02  0.35785382566E-02  0.48399251507E-02  0.51109989000E-03 0.  1.
     -623    1    1    2    0    0  0.21784981438E-02  0.12332808503E-02  0.25144001712E-02  0.17130000004E+03  0.17130000000E+03 0. -1.
      622    1    1    2    0    0  0.36924221297E-03 -0.31996824847E-02  0.39939070291E+01  0.39951600382E+01  0.10000000000E+00 0.  1.
</event>
<event>
 5   0  0.6262544E+06  0.9118800E+02  0.7818608E-02  0.1180000E+00
       11   -1    0    0    0    0  0.00000000000E+00  0.00000000000E+00  0.39999999673E+01  0.40000000000E+01  0.51109989000E-03 0. -1.
     -623   -1    0    0    0    0  0.00000000000E+00  0.00000000000E+00  0.12525980253E-10  0.17130000000E+03  0.17130000000E+03 0.  1.
       11    1    1    2    0    0  0.65150014298E-02 -0.13366496237E-01  0.84348313569E-01  0.85650497315E-01  0.51109989000E-03 0. -1.
     -623    1    1    2    0    0 -0.11075072594E-01  0.65084970639E-02  0.25888790810E-02  0.17130000050E+03  0.17130000000E+03 0.  1.
      622    1    1    2    0    0  0.45600711644E-02  0.68579991735E-02  0.39130627747E+01  0.39143490015E+01  0.10000000000E+00 0. -1.
</event>
<event>
 5   0  0.6262544E+06  0.9118800E+02  0.7818608E-02  0.1180000E+00
       11   -1    0    0    0    0  0.00000000000E+00  0.00000000000E+00  0.39999999673E+01  0.40000000000E+01  0.51109989000E-03 0.  1.
     -623   -1    0    0    0    0  0.00000000000E+00  0.00000000000E+00  0.12525980253E-10  0.17130000000E+03  0.17130000000E+03 0.  1.
       11    1    1    2    0    0 -0.34924304064E-01  0.19403053067E-01  0.28081129012E+00  0.28363960824E+00  0.51109989000E-03 0.  1.
     -623    1    1    2    0    0 -0.38846914711E-01  0.19640160124E-01  0.51172832068E-02  0.17130000561E+03  0.17130000000E+03 0.  1.
      622    1    1    2    0    0  0.73771218775E-01 -0.39043213191E-01  0.37140713940E+01  0.37163547846E+01  0.10000000000E+00 0.  1.
</event>
<event>
 5   0  0.6262544E+06  0.9118800E+02  0.7818608E-02  0.1180000E+00
       11   -1    0    0    0    0  0.00000000000E+00  0.00000000000E+00  0.39999999673E+01  0.40000000000E+01  0.51109989000E-03 0. -1.
     -623   -1    0    0    0    0  0.00000000000E+00  0.00000000000E+00  0.12525980253E-10  0.17130000000E+03  0.17130000000E+03 0. -1.
       11    1    1    2    0    0  0.13667041578E-01 -0.12259089992E-03  0.17457656000E+01  0.17458191758E+01  0.51109989000E-03 0. -1.
     -623    1    1    2    0    0 -0.17689806640E-01  0.33566978288E-02  0.22796138718E-02  0.17130000096E+03  0.17130000000E+03 0. -1.
      622    1    1    2    0    0  0.40227650627E-02 -0.32341069289E-02  0.22519547535E+01  0.22541798628E+01  0.10000000000E+00 0. -1.
</event>
<event>
 5   0  0.6262544E+06  0.9118800E+02  0.7818608E-02  0.1180000E+00
       11   -1    0    0    0    0  0.00000000000E+00  0.00000000000E+00  0.39999999673E+01  0.40000000000E+01  0.51109989000E-03 0.  1.
     -623   -1    0    0    0    0  0.00000000000E+00  0.00000000000E+00  0.12525980253E-10  0.17130000000E+03  0.17130000000E+03 0.  1.
       11    1    1    2    0    0 -0.14021340128E-02  0.25756185540E-02  0.48503465163E-02  0.56909467711E-02  0.51109989000E-03 0.  1.
     -623    1    1    2    0    0  0.11966855786E-02  0.13496104919E-02  0.20945016501E-02  0.17130000002E+03  0.17130000000E+03 0.  1.
      622    1    1    2    0    0  0.20544843421E-03 -0.39252290459E-02  0.39930551192E+01  0.39943090309E+01  0.10000000000E+00 0.  1.
</event>
<event>
 5   0  0.6262544E+06  0.9118800E+02  0.7818608E-02  0.1180000E+00
       11   -1    0    0    0    0  0.00000000000E+00  0.00000000000E+00  0.39999999673E+01  0.40000000000E+01  0.51109989000E-03 0.  1.
     -623   -1    0    0    0    0  0.00000000000E+00  0.00000000000E+00  0.12525980253E-10  0.17130000000E+03  0.17130000000E+03 0.  1.
       11    1    1    2    0    0 -0.95177945794E-02 -0.93558403509E-02  0.31838758560E-01  0.34526626422E-01  0.51109989000E-03 0.  1.
     -623    1    1    2    0    0  0.63943381902E-02  0.15830233025E-01  0.39563335659E-02  0.17130000090E+03  0.17130000000E+03 0.  1.
      622    1    1    2    0    0  0.31234563893E-02 -0.64743926742E-02  0.39642048752E+01  0.39654724771E+01  0.10000000000E+00 0.  1.
</event>
<event>
 5   0  0.6262544E+06  0.9118800E+02  0.7818608E-02  0.1180000E+00
       11   -1    0    0    0    0  0.00000000000E+00  0.00000000000E+00  0.39999999673E+01  0.40000000000E+01  0.51109989000E-03 0.  1.
     -623   -1    0    0    0    0  0.00000000000E+00  0.00000000000E+00  0.12525980253E-10  0.17130000000E+03  0.17130000000E+03 0.  1.
       11    1    1    2    0    0 -0.17958060462E-02  0.47544553097E-02  0.26765560591E-01  0.27248600338E-01  0.51109989000E-03 0.  1.
     -623    1    1    2    0    0  0.92393786873E-02 -0.14775672302E-01  0.17622947053E-02  0.17130000090E+03  0.17130000000E+03 0.  1.
      622    1    1    2    0    0 -0.74435726410E-02  0.10021216992E-01  0.39714721121E+01  0.39727505042E+01  0.10000000000E+00 0.  1.
</event>
<event>
 5   0  0.6262544E+06  0.9118800E+02  0.7818608E-02  0.1180000E+00
       11   -1    0    0    0    0  0.00000000000E+00  0.00000000000E+00  0.39999999673E+01  0.40000000000E+01  0.51109989000E-03 0.  1.
     -623   -1    0    0    0    0  0.00000000000E+00  0.00000000000E+00  0.12525980253E-10  0.17130000000E+03  0.17130000000E+03 0. -1.
       11    1    1    2    0    0 -0.18621700303E-02  0.40103242046E-02  0.77508866974E-02  0.89379999685E-02  0.51109989000E-03 0.  1.
     -623    1    1    2    0    0  0.15577883006E-02 -0.86068846051E-02  0.24429769073E-02  0.17130000024E+03  0.17130000000E+03 0. -1.
      622    1    1    2    0    0  0.30438172968E-03  0.45965604006E-02  0.39898061038E+01  0.39910617593E+01  0.10000000000E+00 0.  1.
</event>
<event>
 5   0  0.6262544E+06  0.9118800E+02  0.7818608E-02  0.1180000E+00
       11   -1    0    0    0    0  0.00000000000E+00  0.00000000000E+00  0.39999999673E+01  0.40000000000E+01  0.51109989000E-03 0.  1.
     -623   -1    0    0    0    0  0.00000000000E+00  0.00000000000E+00  0.12525980253E-10  0.17130000000E+03  0.17130000000E+03 0.  1.
       11    1    1    2    0    0 -0.29693075240E-02 -0.51773174777E-02  0.29775323780E-01  0.30371903673E-01  0.51109989000E-03 0.  1.
     -623    1    1    2    0    0 -0.61046815743E-02  0.27227395856E-02  0.18675849616E-02  0.17130000014E+03  0.17130000000E+03 0.  1.
      622    1    1    2    0    0  0.90739890984E-02  0.24545778920E-02  0.39683570587E+01  0.39696279558E+01  0.10000000000E+00 0.  1.
</event>
<event>
 5   0  0.6262544E+06  0.9118800E+02  0.7818608E-02  0.1180000E+00
       11   -1    0    0    0    0  0.00000000000E+00  0.00000000000E+00  0.39999999673E+01  0.40000000000E+01  0.51109989000E-03 0.  1.
     -623   -1    0    0    0    0  0.00000000000E+00  0.00000000000E+00  0.12525980253E-10  0.17130000000E+03  0.17130000000E+03 0. -1.
       11    1    1    2    0    0  0.65036312529E-04 -0.34562974868E-03 -0.11100904351E-02  0.12716971010E-02  0.51109989000E-03 0.  1.
     -623    1    1    2    0    0  0.16273277658E-02 -0.11680588545E-01  0.36512414373E-02  0.17130000044E+03  0.17130000000E+03 0. -1.
      622    1    1    2    0    0 -0.16923640784E-02  0.12026218295E-01  0.39974588165E+01  0.39987278581E+01  0.10000000000E+00 0.  1.
</event>
<event>
 5   0  0.6262544E+06  0.9118800E+02  0.7818608E-02  0.1180000E+00
       11   -1    0    0    0    0  0.00000000000E+00  0.00000000000E+00  0.39999999673E+01  0.40000000000E+01  0.51109989000E-03 0. -1.
     -623   -1    0    0    0    0  0.00000000000E+00  0.00000000000E+00  0.12525980253E-10  0.17130000000E+03  0.17130000000E+03 0.  1.
       11    1    1    2    0    0  0.17502771372E-02 -0.37618901443E-01  0.14684463956E+00  0.15159767348E+00  0.51109989000E-03 0. -1.
     -623    1    1    2    0    0 -0.71575872482E-01  0.84975820375E-01  0.70139168795E-02  0.17130003617E+03  0.17130000000E+03 0.  1.
      622    1    1    2    0    0  0.69825595345E-01 -0.47356918933E-01  0.38461414110E+01  0.38483661526E+01  0.10000000000E+00 0. -1.
</event>
<event>
 5   0  0.6262544E+06  0.9118800E+02  0.7818608E-02  0.1180000E+00
       11   -1    0    0    0    0  0.00000000000E+00  0.00000000000E+00  0.39999999673E+01  0.40000000000E+01  0.51109989000E-03 0.  1.
     -623   -1    0    0    0    0  0.00000000000E+00  0.00000000000E+00  0.12525980253E-10  0.17130000000E+03  0.17130000000E+03 0. -1.
       11    1    1    2    0    0  0.30117107201E-01 -0.25554059879E-01  0.66355999018E+00  0.66473466279E+00  0.51109989000E-03 0.  1.
     -623    1    1    2    0    0 -0.16521322061E-01  0.13261798129E-01  0.27258261137E-02  0.17130000133E+03  0.17130000000E+03 0. -1.
      622    1    1    2    0    0 -0.13595785140E-01  0.12292261750E-01  0.33337141511E+01  0.33352640055E+01  0.10000000000E+00 0.  0.
</event>
<event>
 5   0  0.6262544E+06  0.9118800E+02  0.7818608E-02  0.1180000E+00
       11   -1    0    0    0    0  0.00000000000E+00  0.00000000000E+00  0.39999999673E+01  0.40000000000E+01  0.51109989000E-03 0. -1.
     -623   -1    0    0    0    0  0.00000000000E+00  0.00000000000E+00  0.12525980253E-10  0.17130000000E+03  0.17130000000E+03 0. -1.
       11    1    1    2    0    0 -0.23205622925E-01 -0.40877139634E-01  0.16817034311E+00  0.17461662866E+00  0.51109989000E-03 0. -1.
     -623    1    1    2    0    0 -0.83413683105E-02  0.15416585471E-01  0.79695057873E-02  0.17130000108E+03  0.17130000000E+03 0. -1.
      622    1    1    2    0    0  0.31546991235E-01  0.25460554163E-01  0.38238601185E+01  0.38253822892E+01  0.10000000000E+00 0. -1.
</event>
<event>
 5   0  0.6262544E+06  0.9118800E+02  0.7818608E-02  0.1180000E+00
       11   -1    0    0    0    0  0.00000000000E+00  0.00000000000E+00  0.39999999673E+01  0.40000000000E+01  0.51109989000E-03 0.  1.
     -623   -1    0    0    0    0  0.00000000000E+00  0.00000000000E+00  0.12525980253E-10  0.17130000000E+03  0.17130000000E+03 0.  1.
       11    1    1    2    0    0  0.10371698837E-01 -0.33415047773E-02  0.42100522521E-01  0.43490838213E-01  0.51109989000E-03 0.  1.
     -623    1    1    2    0    0 -0.79472179529E-02  0.89065634585E-02  0.26593200167E-02  0.17130000044E+03  0.17130000000E+03 0.  1.
      622    1    1    2    0    0 -0.24244808840E-02 -0.55650586811E-02  0.39552401248E+01  0.39565087253E+01  0.10000000000E+00 0.  1.
</event>
<event>
 5   0  0.6262544E+06  0.9118800E+02  0.7818608E-02  0.1180000E+00
       11   -1    0    0    0    0  0.00000000000E+00  0.00000000000E+00  0.39999999673E+01  0.40000000000E+01  0.51109989000E-03 0.  1.
     -623   -1    0    0    0    0  0.00000000000E+00  0.00000000000E+00  0.12525980253E-10  0.17130000000E+03  0.17130000000E+03 0. -1.
       11    1    1    2    0    0  0.10500435425E-01 -0.38585194657E-02  0.17717544285E+00  0.17752900069E+00  0.51109989000E-03 0.  1.
     -623    1    1    2    0    0 -0.45617512359E-02 -0.72973022703E-02  0.16829275049E-02  0.17130000022E+03  0.17130000000E+03 0. -1.
      622    1    1    2    0    0 -0.59386841895E-02  0.11155821736E-01  0.38211415970E+01  0.38224707748E+01  0.10000000000E+00 0.  1.
</event>
<event>
 5   0  0.6262544E+06  0.9118800E+02  0.7818608E-02  0.1180000E+00
       11   -1    0    0    0    0  0.00000000000E+00  0.00000000000E+00  0.39999999673E+01  0.40000000000E+01  0.51109989000E-03 0. -1.
     -623   -1    0    0    0    0  0.00000000000E+00  0.00000000000E+00  0.12525980253E-10  0.17130000000E+03  0.17130000000E+03 0.  1.
       11    1    1    2    0    0 -0.13136708298E+00  0.72276484925E-01  0.18484368927E+01  0.18545081311E+01  0.51109989000E-03 0. -1.
     -623    1    1    2    0    0 -0.59848698022E-02  0.57576309644E-02  0.14233648462E-01  0.17130000079E+03  0.17130000000E+03 0.  1.
      622    1    1    2    0    0  0.13735195278E+00 -0.78034115890E-01  0.21373294262E+01  0.21454910762E+01  0.10000000000E+00 0. -1.
</event>
<event>
 5   0  0.6262544E+06  0.9118800E+02  0.7818608E-02  0.1180000E+00
       11   -1    0    0    0    0  0.00000000000E+00  0.00000000000E+00  0.39999999673E+01  0.40000000000E+01  0.51109989000E-03 0. -1.
     -623   -1    0    0    0    0  0.00000000000E+00  0.00000000000E+00  0.12525980253E-10  0.17130000000E+03  0.17130000000E+03 0. -1.
       11    1    1    2    0    0 -0.11515393971E-02 -0.17828565115E-02  0.19815469307E-02  0.29482828324E-02  0.51109989000E-03 0. -1.
     -623    1    1    2    0    0  0.14212697520E-02  0.14353888444E-02  0.22178715732E-02  0.17130000003E+03  0.17130000000E+03 0. -1.
      622    1    1    2    0    0 -0.26973035493E-03  0.34746766702E-03  0.39958005488E+01  0.39970516909E+01  0.10000000000E+00 0. -1.
</event>
<event>
 5   0  0.6262544E+06  0.9118800E+02  0.7818608E-02  0.1180000E+00
       11   -1    0    0    0    0  0.00000000000E+00  0.00000000000E+00  0.39999999673E+01  0.40000000000E+01  0.51109989000E-03 0. -1.
     -623   -1    0    0    0    0  0.00000000000E+00  0.00000000000E+00  0.12525980253E-10  0.17130000000E+03  0.17130000000E+03 0. -1.
       11    1    1    2    0    0  0.15076106235E-02 -0.90313865037E-02  0.29323083855E-01  0.30723660248E-01  0.51109989000E-03 0. -1.
     -623    1    1    2    0    0 -0.92386181546E-02  0.74408638853E-02  0.26687008780E-02  0.17130000043E+03  0.17130000000E+03 0. -1.
      622    1    1    2    0    0  0.77310075311E-02  0.15905226185E-02  0.39680081826E+01  0.39692759082E+01  0.10000000000E+00 0. -1.
</event>
<event>
 5   0  0.6262544E+06  0.9118800E+02  0.7818608E-02  0.1180000E+00
       11   -1    0    0    0    0  0.00000000000E+00  0.00000000000E+00  0.39999999673E+01  0.40000000000E+01  0.51109989000E-03 0. -1.
     -623   -1    0    0    0    0  0.00000000000E+00  0.00000000000E+00  0.12525980253E-10  0.17130000000E+03  0.17130000000E+03 0.  1.
       11    1    1    2    0    0  0.84526068794E-02 -0.35211102480E-01  0.59601817073E+00  0.59711739999E+00  0.51109989000E-03 0. -1.
     -623    1    1    2    0    0 -0.38399685240E-02 -0.38146658022E-02  0.27959791268E-02  0.17130000011E+03  0.17130000000E+03 0.  1.
      622    1    1    2    0    0 -0.46126383552E-02  0.39025768282E-01  0.34011858176E+01  0.34028824918E+01  0.10000000000E+00 0.  0.
</event>
<event>
 5   0  0.6262544E+06  0.9118800E+02  0.7818608E-02  0.1180000E+00
       11   -1    0    0    0    0  0.00000000000E+00  0.00000000000E+00  0.39999999673E+01  0.40000000000E+01  0.51109989000E-03 0. -1.
     -623   -1    0    0    0    0  0.00000000000E+00  0.00000000000E+00  0.12525980253E-10  0.17130000000E+03  0.17130000000E+03 0. -1.
       11    1    1    2    0    0  0.48685937031E-01  0.45636938881E-01  0.71679354191E+00  0.71989325153E+00  0.51109989000E-03 0. -1.
     -623    1    1    2    0    0 -0.12952464576E-01  0.18553775005E-01  0.54491769868E-02  0.17130000158E+03  0.17130000000E+03 0. -1.
      622    1    1    2    0    0 -0.35733472455E-01 -0.64190713886E-01  0.32777572485E+01  0.32801051673E+01  0.10000000000E+00 0. -1.
</event>
<event>
 5   0  0.6262544E+06  0.9118800E+02  0.7818608E-02  0.1180000E+00
       11   -1    0    0    0    0  0.00000000000E+00  0.00000000000E+00  0.39999999673E+01  0.40000000000E+01  0.51109989000E-03 0.  1.
     -623   -1    0    0    0    0  0.00000000000E+00  0.00000000000E+00  0.12525980253E-10  0.17130000000E+03  0.17130000000E+03 0. -1.
       11    1    1    2    0    0  0.17307110043E-01  0.59885159715E-01  0.31628895604E+00  0.32237359282E+00  0.51109989000E-03 0.  1.
     -623    1    1    2    0    0 -0.58586006527E-02 -0.35536060876E-01  0.75468456462E-02  0.17130000395E+03  0.17130000000E+03 0. -1.
      622    1    1    2    0    0 -0.11448509391E-01 -0.24349098839E-01  0.36761641657E+01  0.36776224548E+01  0.10000000000E+00 0.  1.
</event>
<event>
 5   0  0.6262544E+06  0.9118800E+02  0.7818608E-02  0.1180000E+00
       11   -1    0    0    0    0  0.00000000000E+00  0.00000000000E+00  0.39999999673E+01  0.40000000000E+01  0.51109989000E-03 0.  1.
     -623   -1    0    0    0    0  0.00000000000E+00  0.00000000000E+00  0.12525980253E-10  0.17130000000E+03  0.17130000000E+03 0. -1.
       11    1    1    2    0    0  0.30111172004E-02  0.40553955637E-02  0.31570021950E-01  0.31975624607E-01  0.51109989000E-03 0.  1.
     -623    1    1    2    0    0 -0.35318149997E-02  0.60749479780E-03  0.16686634507E-02  0.17130000005E+03  0.17130000000E+03 0. -1.
      622    1    1    2    0    0  0.52069779935E-03 -0.46628903615E-02  0.39667612819E+01  0.39680243298E+01  0.10000000000E+00 0.  1.
</event>
<event>
 5   0  0.6262544E+06  0.9118800E+02  0.7818608E-02  0.1180000E+00
       11   -1    0    0    0    0  0.00000000000E+00  0.00000000000E+00  0.39999999673E+01  0.40000000000E+01  0.51109989000E-03 0.  1.
     -623   -1    0    0    0    0  0.00000000000E+00  0.00000000000E+00  0.12525980253E-10  0.17130000000E+03  0.17130000000E+03 0.  1.
       11    1    1    2    0    0  0.18415012269E-01 -0.12730703566E-01  0.28293342207E+00  0.28381819187E+00  0.51109989000E-03 0.  1.
     -623    1    1    2    0    0 -0.14359524990E-01  0.78011933601E-02  0.22367265769E-02  0.17130000079E+03  0.17130000000E+03 0.  1.
      622    1    1    2    0    0 -0.40554872785E-02  0.49295102063E-02  0.37148298187E+01  0.37161810140E+01  0.10000000000E+00 0.  1.
</event>
<event>
 5   0  0.6262544E+06  0.9118800E+02  0.7818608E-02  0.1180000E+00
       11   -1    0    0    0    0  0.00000000000E+00  0.00000000000E+00  0.39999999673E+01  0.40000000000E+01  0.51109989000E-03 0. -1.
     -623   -1    0    0    0    0  0.00000000000E+00  0.00000000000E+00  0.12525980253E-10  0.17130000000E+03  0.17130000000E+03 0.  1.
       11    1    1    2    0    0 -0.38682761806E-02 -0.37029015957E-02  0.26486543092E-01  0.27027268241E-01  0.51109989000E-03 0. -1.
     -623    1    1    2    0    0  0.72045265656E-02  0.12139513128E-01  0.18103484375E-02  0.17130000059E+03  0.17130000000E+03 0.  1.
      622    1    1    2    0    0 -0.33362503849E-02 -0.84366115321E-02  0.39717030758E+01  0.39729721405E+01  0.10000000000E+00 0. -1.
</event>
<event>
 5   0  0.6262544E+06  0.9118800E+02  0.7818608E-02  0.1180000E+00
       11   -1    0    0    0    0  0.00000000000E+00  0.00000000000E+00  0.39999999673E+01  0.40000000000E+01  0.51109989000E-03 0.  1.
     -623   -1    0    0    0    0  0.00000000000E+00  0.00000000000E+00  0.12525980253E-10  0.17130000000E+03  0.17130000000E+03 0.  1.
       11    1    1    2    0    0 -0.20400455286E-01  0.43757739113E-01  0.41348576142E+00  0.41629515302E+00  0.51109989000E-03 0.  1.
     -623    1    1    2    0    0 -0.33094647787E-02 -0.33627446563E-02  0.45111876663E-02  0.17130000012E+03  0.17130000000E+03 0.  1.
      622    1    1    2    0    0  0.23709920064E-01 -0.40394994456E-01  0.35820030183E+01  0.35837047226E+01  0.10000000000E+00 0.  1.
</event>
<event>
 5   0  0.6262544E+06  0.9118800E+02  0.7818608E-02  0.1180000E+00
       11   -1    0    0    0    0  0.00000000000E+00  0.00000000000E+00  0.39999999673E+01  0.40000000000E+01  0.51109989000E-03 0. -1.
     -623   -1    0    0    0    0  0.00000000000E+00  0.00000000000E+00  0.12525980253E-10  0.17130000000E+03  0.17130000000E+03 0.  1.
       11    1    1    2    0    0  0.14311936875E-01  0.24629304552E-01  0.54151085877E+00  0.54225981371E+00  0.51109989000E-03 0. -1.
     -623    1    1    2    0    0 -0.66777677411E-02 -0.12641551609E-02  0.22828144643E-02  0.17130000015E+03  0.17130000000E+03 0.  1.
      622    1    1    2    0    0 -0.76341691334E-02 -0.23365149391E-01  0.34562062942E+01  0.34577400363E+01  0.10000000000E+00 0. -1.
</event>
<event>
 5   0  0.6262544E+06  0.9118800E+02  0.7818608E-02  0.1180000E+00
       11   -1    0    0    0    0  0.00000000000E+00  0.00000000000E+00  0.39999999673E+01  0.40000000000E+01  0.51109989000E-03 0. -1.
     -623   -1    0    0    0    0  0.00000000000E+00  0.00000000000E+00  0.12525980253E-10  0.17130000000E+03  0.17130000000E+03 0.  1.
       11    1    1    2    0    0  0.19593021596E-01  0.38169176857E-01  0.48865321181E+00  0.49053337827E+00  0.51109989000E-03 0. -1.
     -623    1    1    2    0    0 -0.39110896125E-02 -0.12309585163E-02  0.35347574940E-02  0.17130000009E+03  0.17130000000E+03 0.  1.
      622    1    1    2    0    0 -0.15681931984E-01 -0.36938218341E-01  0.35078119981E+01  0.35094665362E+01  0.10000000000E+00 0. -1.
</event>
<event>
 5   0  0.6262544E+06  0.9118800E+02  0.7818608E-02  0.1180000E+00
       11   -1    0    0    0    0  0.00000000000E+00  0.00000000000E+00  0.39999999673E+01  0.40000000000E+01  0.51109989000E-03 0. -1.
     -623   -1    0    0    0    0  0.00000000000E+00  0.00000000000E+00  0.12525980253E-10  0.17130000000E+03  0.17130000000E+03 0. -1.
       11    1    1    2    0    0 -0.13017007454E-01 -0.50322834615E-01  0.12386459723E+01  0.12397362365E+01  0.51109989000E-03 0. -1.
     -623    1    1    2    0    0 -0.97266995967E-02  0.26223036834E-01  0.31036062354E-02  0.17130000231E+03  0.17130000000E+03 0. -1.
      622    1    1    2    0    0  0.22743707051E-01  0.24099797781E-01  0.27582503888E+01  0.27602614521E+01  0.10000000000E+00 0. -1.
</event>
<event>
 5   0  0.6262544E+06  0.9118800E+02  0.7818608E-02  0.1180000E+00
       11   -1    0    0    0    0  0.00000000000E+00  0.00000000000E+00  0.39999999673E+01  0.40000000000E+01  0.51109989000E-03 0.  1.
     -623   -1    0    0    0    0  0.00000000000E+00  0.00000000000E+00  0.12525980253E-10  0.17130000000E+03  0.17130000000E+03 0. -1.
       11    1    1    2    0    0  0.10830844105E-01 -0.10993192964E-01  0.26136351649E+00  0.26181922476E+00  0.51109989000E-03 0.  1.
     -623    1    1    2    0    0 -0.27994173584E-02  0.83058120746E-02  0.18032949535E-02  0.17130000023E+03  0.17130000000E+03 0. -1.
      622    1    1    2    0    0 -0.80314267470E-02  0.26873808892E-02  0.37368331559E+01  0.37381805415E+01  0.10000000000E+00 0.  1.
</event>
<event>
 5   0  0.6262544E+06  0.9118800E+02  0.7818608E-02  0.1180000E+00
       11   -1    0    0    0    0  0.00000000000E+00  0.00000000000E+00  0.39999999673E+01  0.40000000000E+01  0.51109989000E-03 0. -1.
     -623   -1    0    0    0    0  0.00000000000E+00  0.00000000000E+00  0.12525980253E-10  0.17130000000E+03  0.17130000000E+03 0. -1.
       11    1    1    2    0    0 -0.10043002279E-02  0.21811004062E-03  0.83705681796E-03  0.14205907755E-02  0.51109989000E-03 0. -1.
     -623    1    1    2    0    0  0.10435793345E-02  0.75630801565E-03  0.18342746238E-02  0.17130000001E+03  0.17130000000E+03 0. -1.
      622    1    1    2    0    0 -0.39279106661E-04 -0.97441805632E-03  0.39973286362E+01  0.39985793949E+01  0.10000000000E+00 0. -1.
</event>
<event>
 5   0  0.6262544E+06  0.9118800E+02  0.7818608E-02  0.1180000E+00
       11   -1    0    0    0    0  0.00000000000E+00  0.00000000000E+00  0.39999999673E+01  0.40000000000E+01  0.51109989000E-03 0.  1.
     -623   -1    0    0    0    0  0.00000000000E+00  0.00000000000E+00  0.12525980253E-10  0.17130000000E+03  0.17130000000E+03 0.  1.
       11    1    1    2    0    0  0.47611088454E-02 -0.26676439137E-02  0.60931187790E-02  0.81958404719E-02  0.51109989000E-03 0.  1.
     -623    1    1    2    0    0 -0.44704277614E-02 -0.19668837543E-02  0.33582564671E-02  0.17130000010E+03  0.17130000000E+03 0.  1.
      622    1    1    2    0    0 -0.29068108391E-03  0.46345276680E-02  0.39905485922E+01  0.39918040571E+01  0.10000000000E+00 0.  1.
</event>
<event>
 5   0  0.6262544E+06  0.9118800E+02  0.7818608E-02  0.1180000E+00
       11   -1    0    0    0    0  0.00000000000E+00  0.00000000000E+00  0.39999999673E+01  0.40000000000E+01  0.51109989000E-03 0.  1.
     -623   -1    0    0    0    0  0.00000000000E+00  0.00000000000E+00  0.12525980253E-10  0.17130000000E+03  0.17130000000E+03 0.  1.
       11    1    1    2    0    0 -0.61488599315E-02 -0.91307801856E-02  0.58848039004E-01  0.59870965762E-01  0.51109989000E-03 0.  1.
     -623    1    1    2    0    0  0.32524168094E-02  0.80684679672E-03  0.23020011539E-02  0.17130000005E+03  0.17130000000E+03 0.  1.
      622    1    1    2    0    0  0.28964431221E-02  0.83239333888E-02  0.39388499272E+01  0.39401289860E+01  0.10000000000E+00 0.  1.
</event>
<event>
 5   0  0.6262544E+06  0.9118800E+02  0.7818608E-02  0.1180000E+00
       11   -1    0    0    0    0  0.00000000000E+00  0.00000000000E+00  0.39999999673E+01  0.40000000000E+01  0.51109989000E-03 0. -1.
     -623   -1    0    0    0    0  0.00000000000E+00  0.00000000000E+00  0.12525980253E-10  0.17130000000E+03  0.17130000000E+03 0. -1.
       11    1    1    2    0    0 -0.24007137264E-01 -0.20320860244E-01  0.22904824269E+00  0.23119826709E+00  0.51109989000E-03 0. -1.
     -623    1    1    2    0    0  0.60717563276E-02  0.42779089366E-01  0.35920267024E-02  0.17130000549E+03  0.17130000000E+03 0. -1.
      622    1    1    2    0    0  0.17935380937E-01 -0.22458229124E-01  0.37673596981E+01  0.37687962461E+01  0.10000000000E+00 0. -1.
</event>
<event>
 5   0  0.6262544E+06  0.9118800E+02  0.7818608E-02  0.1180000E+00
       11   -1    0    0    0    0  0.00000000000E+00  0.00000000000E+00  0.39999999673E+01  0.40000000000E+01  0.51109989000E-03 0.  1.
     -623   -1    0    0    0    0  0.00000000000E+00  0.00000000000E+00  0.12525980253E-10  0.17130000000E+03  0.17130000000E+03 0.  1.
       11    1    1    2    0    0 -0.36371266290E-01  0.18482781330E-01  0.24395230534E+01  0.24398642322E+01  0.51109989000E-03 0.  1.
     -623    1    1    2    0    0 -0.23157222726E-02  0.11488502813E-02  0.41539038006E-02  0.17130000007E+03  0.17130000000E+03 0.  1.
      622    1    1    2    0    0  0.38686988563E-01 -0.19631631611E-01  0.15563230101E+01  0.15601356979E+01  0.10000000000E+00 0.  1.
</event>
<event>
 5   0  0.6262544E+06  0.9118800E+02  0.7818608E-02  0.1180000E+00
       11   -1    0    0    0    0  0.00000000000E+00  0.00000000000E+00  0.39999999673E+01  0.40000000000E+01  0.51109989000E-03 0.  1.
     -623   -1    0    0    0    0  0.00000000000E+00  0.00000000000E+00  0.12525980253E-10  0.17130000000E+03  0.17130000000E+03 0.  1.
       11    1    1    2    0    0  0.56060975899E-01 -0.63260717597E-01  0.88774099192E+00  0.89175617821E+00  0.51109989000E-03 0.  1.
     -623    1    1    2    0    0  0.30936285820E-01  0.27045186044E-02  0.74360212044E-02  0.17130000298E+03  0.17130000000E+03 0.  1.
      622    1    1    2    0    0 -0.86997261719E-01  0.60556198993E-01  0.31048229542E+01  0.31082408455E+01  0.10000000000E+00 0. -1.
</event>
<event>
 5   0  0.6262544E+06  0.9118800E+02  0.7818608E-02  0.1180000E+00
       11   -1    0    0    0    0  0.00000000000E+00  0.00000000000E+00  0.39999999673E+01  0.40000000000E+01  0.51109989000E-03 0. -1.
     -623   -1    0    0    0    0  0.00000000000E+00  0.00000000000E+00  0.12525980253E-10  0.17130000000E+03  0.17130000000E+03 0.  1.
       11    1    1    2    0    0 -0.17852677062E-02  0.26809820218E-02  0.18856124579E-02  0.37671743818E-02  0.51109989000E-03 0. -1.
     -623    1    1    2    0    0 -0.23980276078E-02  0.54520048538E-02  0.31435048210E-02  0.17130000013E+03  0.17130000000E+03 0.  1.
      622    1    1    2    0    0  0.41832953140E-02 -0.81329868756E-02  0.39949708500E+01  0.39962326932E+01  0.10000000000E+00 0. -1.
</event>
<event>
 5   0  0.6262544E+06  0.9118800E+02  0.7818608E-02  0.1180000E+00
       11   -1    0    0    0    0  0.00000000000E+00  0.00000000000E+00  0.39999999673E+01  0.40000000000E+01  0.51109989000E-03 0. -1.
     -623   -1    0    0    0    0  0.00000000000E+00  0.00000000000E+00  0.12525980253E-10  0.17130000000E+03  0.17130000000E+03 0. -1.
       11    1    1    2    0    0  0.18131418807E-01 -0.16461874207E-01  0.32092540591E+00  0.32185884955E+00  0.51109989000E-03 0. -1.
     -623    1    1    2    0    0 -0.13797102865E-01 -0.35284996810E-02  0.23505511457E-02  0.17130000061E+03  0.17130000000E+03 0. -1.
      622    1    1    2    0    0 -0.43343159419E-02  0.19990373888E-01  0.36767240103E+01  0.36781405424E+01  0.10000000000E+00 0. -1.
</event>
<event>
 5   0  0.6262544E+06  0.9118800E+02  0.7818608E-02  0.1180000E+00
       11   -1    0    0    0    0  0.00000000000E+00  0.00000000000E+00  0.39999999673E+01  0.40000000000E+01  0.51109989000E-03 0. -1.
     -623   -1    0    0    0    0  0.00000000000E+00  0.00000000000E+00  0.12525980253E-10  0.17130000000E+03  0.17130000000E+03 0.  1.
       11    1    1    2    0    0  0.28159837807E-01 -0.12651223148E-01  0.17998710670E+01  0.18001358695E+01  0.51109989000E-03 0. -1.
     -623    1    1    2    0    0 -0.68606515313E-03 -0.21100062896E-01  0.29711004051E-02  0.17130000133E+03  0.17130000000E+03 0.  1.
      622    1    1    2    0    0 -0.27473772654E-01  0.33751286044E-01  0.21971578000E+01  0.21998628038E+01  0.10000000000E+00 0.  0.
</event>
<event>
 5   0  0.6262544E+06  0.9118800E+02  0.7818608E-02  0.1180000E+00
       11   -1    0    0    0    0  0.00000000000E+00  0.00000000000E+00  0.39999999673E+01  0.40000000000E+01  0.51109989000E-03 0.  1.
     -623   -1    0    0    0    0  0.00000000000E+00  0.00000000000E+00  0.12525980253E-10  0.17130000000E+03  0.17130000000E+03 0.  1.
       11    1    1    2    0    0 -0.27725039808E-02 -0.79453295911E-03  0.29771647627E-02  0.41764571192E-02  0.51109989000E-03 0.  1.
     -623    1    1    2    0    0 -0.18092389010E-02  0.33306798348E-02  0.24542544556E-02  0.17130000006E+03  0.17130000000E+03 0.  1.
      622    1    1    2    0    0  0.45817428818E-02 -0.25361468758E-02  0.39945685482E+01  0.39958234834E+01  0.10000000000E+00 0.  1.
</event>
<event>
 5   0  0.6262544E+06  0.9118800E+02  0.7818608E-02  0.1180000E+00
       11   -1    0    0    0    0  0.00000000000E+00  0.00000000000E+00  0.39999999673E+01  0.40000000000E+01  0.51109989000E-03 0.  1.
     -623   -1    0    0    0    0  0.00000000000E+00  0.00000000000E+00  0.12525980253E-10  0.17130000000E+03  0.17130000000E+03 0. -1.
       11    1    1    2    0    0  0.19772287846E-01 -0.46362253034E-02  0.27753673710E+00  0.27827924754E+00  0.51109989000E-03 0.  1.
     -623    1    1    2    0    0  0.59209079170E-02 -0.20328828059E-01  0.22599947119E-02  0.17130000132E+03  0.17130000000E+03 0. -1.
      622    1    1    2    0    0 -0.25693195763E-01  0.24965053362E-01  0.37202032355E+01  0.37217194290E+01  0.10000000000E+00 0.  1.
</event>
<event>
 5   0  0.6262544E+06  0.9118800E+02  0.7818608E-02  0.1180000E+00
       11   -1    0    0    0    0  0.00000000000E+00  0.00000000000E+00  0.39999999673E+01  0.40000000000E+01  0.51109989000E-03 0. -1.
     -623   -1    0    0    0    0  0.00000000000E+00  0.00000000000E+00  0.12525980253E-10  0.17130000000E+03  0.17130000000E+03 0.  1.
       11    1    1    2    0    0 -0.50460773193E-03  0.94929759144E-02  0.90432989217E-01  0.90932711282E-01  0.51109989000E-03 0. -1.
     -623    1    1    2    0    0  0.97785751781E-03 -0.22465640767E-02  0.17857504489E-02  0.17130000003E+03  0.17130000000E+03 0.  1.
      622    1    1    2    0    0 -0.47324978588E-03 -0.72464118378E-02  0.39077812277E+01  0.39090672619E+01  0.10000000000E+00 0. -1.
</event>
<event>
 5   0  0.6262544E+06  0.9118800E+02  0.7818608E-02  0.1180000E+00
       11   -1    0    0    0    0  0.00000000000E+00  0.00000000000E+00  0.39999999673E+01  0.40000000000E+01  0.51109989000E-03 0.  1.
     -623   -1    0    0    0    0  0.00000000000E+00  0.00000000000E+00  0.12525980253E-10  0.17130000000E+03  0.17130000000E+03 0. -1.
       11    1    1    2    0    0 -0.37321929342E-02 -0.26449837458E-02  0.14162824565E-01  0.14892012052E-01  0.51109989000E-03 0.  1.
     -623    1    1    2    0    0 -0.35757870914E-02  0.41285248503E-02  0.19911013516E-02  0.17130000010E+03  0.17130000000E+03 0. -1.
      622    1    1    2    0    0  0.73079800256E-02 -0.14835411045E-02  0.39838460414E+01  0.39851078893E+01  0.10000000000E+00 0.  1.
</event>
<event>
 5   0  0.6262544E+06  0.9118800E+02  0.7818608E-02  0.1180000E+00
       11   -1    0    0    0    0  0.00000000000E+00  0.00000000000E+00  0.39999999673E+01  0.40000000000E+01  0.51109989000E-03 0.  1.
     -623   -1    0    0    0    0  0.00000000000E+00  0.00000000000E+00  0.12525980253E-10  0.17130000000E+03  0.17130000000E+03 0.  1.
       11    1    1    2    0    0  0.41742521917E-02  0.23052373337E-02  0.35382270160E+00  0.35385520187E+00  0.51109989000E-03 0.  1.
     -623    1    1    2    0    0 -0.31698086720E-02 -0.72968366380E-03  0.14045526188E-02  0.17130000004E+03  0.17130000000E+03 0.  1.
      622    1    1    2    0    0 -0.10044435196E-02 -0.15755536699E-02  0.36447727133E+01  0.36461447616E+01  0.10000000000E+00 0.  1.
</event>
<event>
 5   0  0.6262544E+06  0.9118800E+02  0.7818608E-02  0.1180000E+00
       11   -1    0    0    0    0  0.00000000000E+00  0.00000000000E+00  0.39999999673E+01  0.40000000000E+01  0.51109989000E-03 0.  1.
     -623   -1    0    0    0    0  0.00000000000E+00  0.00000000000E+00  0.12525980253E-10  0.17130000000E+03  0.17130000000E+03 0.  1.
       11    1    1    2    0    0  0.24722020090E-02  0.61304167885E-02  0.90879839656E-01  0.91121349147E-01  0.51109989000E-03 0.  1.
     -623    1    1    2    0    0  0.41757277659E-02 -0.11096990456E-02  0.15297672479E-02  0.17130000006E+03  0.17130000000E+03 0.  1.
      622    1    1    2    0    0 -0.66479297749E-02 -0.50207177429E-02  0.39075903605E+01  0.39088785895E+01  0.10000000000E+00 0.  1.
</event>
<event>
 5   0  0.6262544E+06  0.9118800E+02  0.7818608E-02  0.1180000E+00
       11   -1    0    0    0    0  0.00000000000E+00  0.00000000000E+00  0.39999999673E+01  0.40000000000E+01  0.51109989000E-03 0. -1.
     -623   -1    0    0    0    0  0.00000000000E+00  0.00000000000E+00  0.12525980253E-10  0.17130000000E+03  0.17130000000E+03 0.  1.
       11    1    1    2    0    0 -0.19263024711E-01 -0.17465820105E-01  0.82108176710E-01  0.86128583517E-01  0.51109989000E-03 0. -1.
     -623    1    1    2    0    0 -0.27526607810E-01  0.22844924822E-01  0.55853978635E-02  0.17130000383E+03  0.17130000000E+03 0.  1.
      622    1    1    2    0    0  0.46789632521E-01 -0.53791047173E-02  0.39123063928E+01  0.39138675905E+01  0.10000000000E+00 0. -1.
</event>
<event>
 5   0  0.6262544E+06  0.9118800E+02  0.7818608E-02  0.1180000E+00
       11   -1    0    0    0    0  0.00000000000E+00  0.00000000000E+00  0.39999999673E+01  0.40000000000E+01  0.51109989000E-03 0. -1.
     -623   -1    0    0    0    0  0.00000000000E+00  0.00000000000E+00  0.12525980253E-10  0.17130000000E+03  0.17130000000E+03 0.  1.
       11    1    1    2    0    0  0.26947667431E-02 -0.28933787312E-02  0.33622911413E-01  0.33858452426E-01  0.51109989000E-03 0. -1.
     -623    1    1    2    0    0 -0.81190497855E-02  0.44232523555E-02  0.15006416469E-02  0.17130000026E+03  0.17130000000E+03 0.  1.
      622    1    1    2    0    0  0.54242830424E-02 -0.15298736243E-02  0.39648764143E+01  0.39661412915E+01  0.10000000000E+00 0. -1.
</event>
<event>
 5   0  0.6262544E+06  0.9118800E+02  0.7818608E-02  0.1180000E+00
       11   -1    0    0    0    0  0.00000000000E+00  0.00000000000E+00  0.39999999673E+01  0.40000000000E+01  0.51109989000E-03 0. -1.
     -623   -1    0    0    0    0  0.00000000000E+00  0.00000000000E+00  0.12525980253E-10  0.17130000000E+03  0.17130000000E+03 0.  1.
       11    1    1    2    0    0 -0.32796784826E-02  0.50598562454E-02  0.21771363618E-01  0.22596723899E-01  0.51109989000E-03 0. -1.
     -623    1    1    2    0    0 -0.68915541117E-04 -0.26711893141E-02  0.20847890357E-02  0.17130000003E+03  0.17130000000E+03 0.  1.
      622    1    1    2    0    0  0.33485940237E-02 -0.23886669313E-02  0.39761438147E+01  0.39774032426E+01  0.10000000000E+00 0. -1.
</event>
<event>
 5   0  0.6262544E+06  0.9118800E+02  0.7818608E-02  0.1180000E+00
       11   -1    0    0    0    0  0.00000000000E+00  0.00000000000E+00  0.39999999673E+01  0.40000000000E+01  0.51109989000E-03 0.  1.
     -623   -1    0    0    0    0  0.00000000000E+00  0.00000000000E+00  0.12525980253E-10  0.17130000000E+03  0.17130000000E+03 0.  1.
       11    1    1    2    0    0 -0.13888222149E-02 -0.31377955787E-02  0.79142235473E+00  0.79142995861E+00  0.51109989000E-03 0.  1.
     -623    1    1    2    0    0  0.13911781505E-02  0.30187150730E-02  0.15663180658E-02  0.17130000004E+03  0.17130000000E+03 0.  1.
      622    1    1    2    0    0 -0.23559356978E-05  0.11908050559E-03  0.32070112948E+01  0.32085700022E+01  0.10000000000E+00 0.  1.
</event>
<event>
 5   0  0.6262544E+06  0.9118800E+02  0.7818608E-02  0.1180000E+00
       11   -1    0    0    0    0  0.00000000000E+00  0.00000000000E+00  0.39999999673E+01  0.40000000000E+01  0.51109989000E-03 0. -1.
     -623   -1    0    0    0    0  0.00000000000E+00  0.00000000000E+00  0.12525980253E-10  0.17130000000E+03  0.17130000000E+03 0. -1.
       11    1    1    2    0    0 -0.36981131599E-02  0.89897077462E-03  0.17857588749E-01  0.18265784543E-01  0.51109989000E-03 0. -1.
     -623    1    1    2    0    0  0.90108185352E-02 -0.22283046952E-02  0.16681225491E-02  0.17130000026E+03  0.17130000000E+03 0. -1.
      622    1    1    2    0    0 -0.53127053753E-02  0.13293339206E-02  0.39804742561E+01  0.39817339558E+01  0.10000000000E+00 0. -1.
</event>
<event>
 5   0  0.6262544E+06  0.9118800E+02  0.7818608E-02  0.1180000E+00
       11   -1    0    0    0    0  0.00000000000E+00  0.00000000000E+00  0.39999999673E+01  0.40000000000E+01  0.51109989000E-03 0.  1.
     -623   -1    0    0    0    0  0.00000000000E+00  0.00000000000E+00  0.12525980253E-10  0.17130000000E+03  0.17130000000E+03 0. -1.
       11    1    1    2    0    0  0.15148276582E-01  0.24095572261E-01  0.15809378770E+00  0.16063615352E+00  0.51109989000E-03 0.  1.
     -623    1    1    2    0    0 -0.16736163694E-01 -0.26474917367E-01  0.38488268762E-02  0.17130000291E+03  0.17130000000E+03 0. -1.
      622    1    1    2    0    0  0.15878871128E-02  0.23793451062E-02  0.38380573528E+01  0.38393609398E+01  0.10000000000E+00 0.  1.
</event>
<event>
 5   0  0.6262544E+06  0.9118800E+02  0.7818608E-02  0.1180000E+00
       11   -1    0    0    0    0  0.00000000000E+00  0.00000000000E+00  0.39999999673E+01  0.40000000000E+01  0.51109989000E-03 0. -1.
     -623   -1    0    0    0    0  0.00000000000E+00  0.00000000000E+00  0.12525980253E-10  0.17130000000E+03  0.17130000000E+03 0. -1.
       11    1    1    2    0    0 -0.16654728996E-02 -0.72302924470E-03  0.27303500964E+00  0.27304152484E+00  0.51109989000E-03 0. -1.
     -623    1    1    2    0    0 -0.69217452445E-05 -0.12856508353E-02  0.13492276229E-02  0.17130000001E+03  0.17130000000E+03 0. -1.
      622    1    1    2    0    0  0.16723946448E-02  0.20086800801E-02  0.37256157303E+01  0.37269584653E+01  0.10000000000E+00 0. -1.
</event>
<event>
 5   0  0.6262544E+06  0.9118800E+02  0.7818608E-02  0.1180000E+00
       11   -1    0    0    0    0  0.00000000000E+00  0.00000000000E+00  0.39999999673E+01  0.40000000000E+01  0.51109989000E-03 0.  1.
     -623   -1    0    0    0    0  0.00000000000E+00  0.00000000000E+00  0.12525980253E-10  0.17130000000E+03  0.17130000000E+03 0.  1.
       11    1    1    2    0    0 -0.16851737945E-01 -0.12984308088E-01  0.17207894831E+01  0.17209210556E+01  0.51109989000E-03 0.  1.
     -623    1    1    2    0    0 -0.23146279140E-02 -0.16050186107E-02  0.24539204204E-02  0.17130000004E+03  0.17130000000E+03 0.  1.
      622    1    1    2    0    0  0.19166365859E-01  0.14589326699E-01  0.22767565638E+01  0.22790789036E+01  0.10000000000E+00 0.  1.
</event>
<event>
 5   0  0.6262544E+06  0.9118800E+02  0.7818608E-02  0.1180000E+00
       11   -1    0    0    0    0  0.00000000000E+00  0.00000000000E+00  0.39999999673E+01  0.40000000000E+01  0.51109989000E-03 0.  1.
     -623   -1    0    0    0    0  0.00000000000E+00  0.00000000000E+00  0.12525980253E-10  0.17130000000E+03  0.17130000000E+03 0.  1.
       11    1    1    2    0    0 -0.10393775669E-01  0.92305279108E-02  0.25533954902E+00  0.25571816465E+00  0.51109989000E-03 0.  1.
     -623    1    1    2    0    0 -0.65287000646E-02 -0.31925314913E-03  0.17631876304E-02  0.17130000013E+03  0.17130000000E+03 0.  1.
      622    1    1    2    0    0  0.16922475734E-01 -0.89112747617E-02  0.37428972307E+01  0.37442817016E+01  0.10000000000E+00 0.  1.
</event>
<event>
 5   0  0.6262544E+06  0.9118800E+02  0.7818608E-02  0.1180000E+00
       11   -1    0    0    0    0  0.00000000000E+00  0.00000000000E+00  0.39999999673E+01  0.40000000000E+01  0.51109989000E-03 0.  1.
     -623   -1    0    0    0    0  0.00000000000E+00  0.00000000000E+00  0.12525980253E-10  0.17130000000E+03  0.17130000000E+03 0. -1.
       11    1    1    2    0    0 -0.16404699685E-01  0.67478235967E-02  0.10749992597E+01  0.10751457189E+01  0.51109989000E-03 0.  1.
     -623    1    1    2    0    0  0.30793626862E-01 -0.38102683806E-03  0.19015418239E-02  0.17130000278E+03  0.17130000000E+03 0. -1.
      622    1    1    2    0    0 -0.14388927177E-01 -0.63667967586E-02  0.29230991659E+01  0.29248515024E+01  0.10000000000E+00 0.  1.
</event>
<event>
 5   0  0.6262544E+06  0.9118800E+02  0.7818608E-02  0.1180000E+00
       11   -1    0    0    0    0  0.00000000000E+00  0.00000000000E+00  0.39999999673E+01  0.40000000000E+01  0.51109989000E-03 0.  1.
     -623   -1    0    0    0    0  0.00000000000E+00  0.00000000000E+00  0.12525980253E-10  0.17130000000E+03  0.17130000000E+03 0.  1.
       11    1    1    2    0    0 -0.72221493497E-02 -0.74716744545E-03  0.25030160746E-01  0.26066988097E-01  0.51109989000E-03 0.  1.
     -623    1    1    2    0    0  0.21846814452E-02 -0.34450678145E-02  0.23006631629E-02  0.17130000006E+03  0.17130000000E+03 0.  1.
      622    1    1    2    0    0  0.50374679045E-02  0.41922352599E-02  0.39726691435E+01  0.39739329479E+01  0.10000000000E+00 0.  1.
</event>
<event>
 5   0  0.6262544E+06  0.9118800E+02  0.7818608E-02  0.1180000E+00
       11   -1    0    0    0    0  0.00000000000E+00  0.00000000000E+00  0.39999999673E+01  0.40000000000E+01  0.51109989000E-03 0.  1.
     -623   -1    0    0    0    0  0.00000000000E+00  0.00000000000E+00  0.12525980253E-10  0.17130000000E+03  0.17130000000E+03 0.  1.
       11    1    1    2    0    0 -0.19714893754E-01  0.16288928065E-01  0.43057227465E+00  0.43133137045E+00  0.51109989000E-03 0.  1.
     -623    1    1    2    0    0 -0.10587798990E-01 -0.21166326354E-01  0.22941142039E-02  0.17130000165E+03  0.17130000000E+03 0.  1.
      622    1    1    2    0    0  0.30302692744E-01  0.48773982894E-02  0.35671335785E+01  0.35686669793E+01  0.10000000000E+00 0.  1.
</event>
<event>
 5   0  0.6262544E+06  0.9118800E+02  0.7818608E-02  0.1180000E+00
       11   -1    0    0    0    0  0.00000000000E+00  0.00000000000E+00  0.39999999673E+01  0.40000000000E+01  0.51109989000E-03 0.  1.
     -623   -1    0    0    0    0  0.00000000000E+00  0.00000000000E+00  0.12525980253E-10  0.17130000000E+03  0.17130000000E+03 0.  1.
       11    1    1    2    0    0 -0.14466832599E-01  0.17534546433E-01  0.45952660421E+00  0.46008880748E+00  0.51109989000E-03 0.  1.
     -623    1    1    2    0    0  0.30757519299E-02 -0.45736461592E-02  0.20170899342E-02  0.17130000010E+03  0.17130000000E+03 0.  1.
      622    1    1    2    0    0  0.11391080669E-01 -0.12960900274E-01  0.35384562734E+01  0.35399110922E+01  0.10000000000E+00 0.  1.
</event>
<event>
 5   0  0.6262544E+06  0.9118800E+02  0.7818608E-02  0.1180000E+00
       11   -1    0    0    0    0  0.00000000000E+00  0.00000000000E+00  0.39999999673E+01  0.40000000000E+01  0.51109989000E-03 0.  1.
     -623   -1    0    0    0    0  0.00000000000E+00  0.00000000000E+00  0.12525980253E-10  0.17130000000E+03  0.17130000000E+03 0. -1.
       11    1    1    2    0    0 -0.18828820887E-02  0.19593943016E-02  0.13163732175E-01  0.13451005125E-01  0.51109989000E-03 0.  1.
     -623    1    1    2    0    0  0.23115207608E-03 -0.24029057790E-02  0.15420462106E-02  0.17130000002E+03  0.17130000000E+03 0. -1.
      622    1    1    2    0    0  0.16517300126E-02  0.44351147748E-03  0.39852941891E+01  0.39865489711E+01  0.10000000000E+00 0.  1.
</event>
<event>
 5   0  0.6262544E+06  0.9118800E+02  0.7818608E-02  0.1180000E+00
       11   -1    0    0    0    0  0.00000000000E+00  0.00000000000E+00  0.39999999673E+01  0.40000000000E+01  0.51109989000E-03 0.  1.
     -623   -1    0    0    0    0  0.00000000000E+00  0.00000000000E+00  0.12525980253E-10  0.17130000000E+03  0.17130000000E+03 0. -1.
       11    1    1    2    0    0 -0.35949892490E-02  0.72755142817E-02  0.78389945210E-01  0.78810543640E-01  0.51109989000E-03 0.  1.
     -623    1    1    2    0    0  0.33003043973E-02  0.91266630050E-03  0.17045022901E-02  0.17130000004E+03  0.17130000000E+03 0. -1.
      622    1    1    2    0    0  0.29468485160E-03 -0.81881805823E-02  0.39199055199E+01  0.39211894137E+01  0.10000000000E+00 0.  1.
</event>
<event>
 5   0  0.6262544E+06  0.9118800E+02  0.7818608E-02  0.1180000E+00
       11   -1    0    0    0    0  0.00000000000E+00  0.00000000000E+00  0.39999999673E+01  0.40000000000E+01  0.51109989000E-03 0. -1.
     -623   -1    0    0    0    0  0.00000000000E+00  0.00000000000E+00  0.12525980253E-10  0.17130000000E+03  0.17130000000E+03 0. -1.
       11    1    1    2    0    0 -0.65428644659E-02 -0.23074115009E-01  0.24392275944E+00  0.24509956682E+00  0.51109989000E-03 0. -1.
     -623    1    1    2    0    0 -0.62790082219E-02  0.93279187873E-03  0.25959446807E-02  0.17130000014E+03  0.17130000000E+03 0. -1.
      622    1    1    2    0    0  0.12821872688E-01  0.22141323130E-01  0.37534812633E+01  0.37549002960E+01  0.10000000000E+00 0. -1.
</event>
<event>
 5   0  0.6262544E+06  0.9118800E+02  0.7818608E-02  0.1180000E+00
       11   -1    0    0    0    0  0.00000000000E+00  0.00000000000E+00  0.39999999673E+01  0.40000000000E+01  0.51109989000E-03 0.  1.
     -623   -1    0    0    0    0  0.00000000000E+00  0.00000000000E+00  0.12525980253E-10  0.17130000000E+03  0.17130000000E+03 0. -1.
       11    1    1    2    0    0 -0.99736100831E-02 -0.91207870260E-03  0.30781360448E+00  0.30797691652E+00  0.51109989000E-03 0.  1.
     -623    1    1    2    0    0  0.83319742006E-02 -0.17081102837E-02  0.15193121043E-02  0.17130000022E+03  0.17130000000E+03 0. -1.
      622    1    1    2    0    0  0.16416358823E-02  0.26201889864E-02  0.36906670509E+01  0.36920228657E+01  0.10000000000E+00 0.  1.
</event>
<event>
 5   0  0.6262544E+06  0.9118800E+02  0.7818608E-02  0.1180000E+00
       11   -1    0    0    0    0  0.00000000000E+00  0.00000000000E+00  0.39999999673E+01  0.40000000000E+01  0.51109989000E-03 0. -1.
     -623   -1    0    0    0    0  0.00000000000E+00  0.00000000000E+00  0.12525980253E-10  0.17130000000E+03  0.17130000000E+03 0.  1.
       11    1    1    2    0    0 -0.78704976495E-02 -0.80388655321E-03  0.14855710707E-01  0.16838774552E-01  0.51109989000E-03 0. -1.
     -623    1    1    2    0    0  0.80898879676E-02 -0.45496448091E-02  0.32424005138E-02  0.17130000028E+03  0.17130000000E+03 0.  1.
      622    1    1    2    0    0 -0.21939031803E-03  0.53535313624E-02  0.39819018561E+01  0.39831609433E+01  0.10000000000E+00 0. -1.
</event>
<event>
 5   0  0.6262544E+06  0.9118800E+02  0.7818608E-02  0.1180000E+00
       11   -1    0    0    0    0  0.00000000000E+00  0.00000000000E+00  0.39999999673E+01  0.40000000000E+01  0.51109989000E-03 0. -1.
     -623   -1    0    0    0    0  0.00000000000E+00  0.00000000000E+00  0.12525980253E-10  0.17130000000E+03  0.17130000000E+03 0. -1.
       11    1    1    2    0    0  0.21353263629E-01 -0.28707120153E-01  0.63435752057E+00  0.63536586762E+00  0.51109989000E-03 0. -1.
     -623    1    1    2    0    0 -0.88006840511E-02  0.35478396333E-02  0.26125055741E-02  0.17130000028E+03  0.17130000000E+03 0. -1.
      622    1    1    2    0    0 -0.12552579578E-01  0.25159280520E-01  0.33630299412E+01  0.33646338496E+01  0.10000000000E+00 0. -1.
</event>
<event>
 5   0  0.6262544E+06  0.9118800E+02  0.7818608E-02  0.1180000E+00
       11   -1    0    0    0    0  0.00000000000E+00  0.00000000000E+00  0.39999999673E+01  0.40000000000E+01  0.51109989000E-03 0.  1.
     -623   -1    0    0    0    0  0.00000000000E+00  0.00000000000E+00  0.12525980253E-10  0.17130000000E+03  0.17130000000E+03 0.  1.
       11    1    1    2    0    0 -0.87201787394E-04  0.12633236916E-01  0.10729340400E+00  0.10803583685E+00  0.51109989000E-03 0.  1.
     -623    1    1    2    0    0 -0.87720749139E-02 -0.15679576020E-01  0.20395444893E-02  0.17130000095E+03  0.17130000000E+03 0.  1.
      622    1    1    2    0    0  0.88592767015E-02  0.30463391043E-02  0.38906670190E+01  0.38919632089E+01  0.10000000000E+00 0.  1.
</event>
<event>
 5   0  0.6262544E+06  0.9118800E+02  0.7818608E-02  0.1180000E+00
       11   -1    0    0    0    0  0.00000000000E+00  0.00000000000E+00  0.39999999673E+01  0.40000000000E+01  0.51109989000E-03 0. -1.
     -623   -1    0    0    0    0  0.00000000000E+00  0.00000000000E+00  0.12525980253E-10  0.17130000000E+03  0.17130000000E+03 0. -1.
       11    1    1    2    0    0 -0.25876803405E-02  0.10021350639E-01  0.41347879426E-01  0.42626657320E-01  0.51109989000E-03 0. -1.
     -623    1    1    2    0    0  0.42453499749E-02 -0.60818507422E-03  0.25540302273E-02  0.17130000007E+03  0.17130000000E+03 0. -1.
      622    1    1    2    0    0 -0.16576696344E-02 -0.94131655643E-02  0.39560980577E+01  0.39573732700E+01  0.10000000000E+00 0. -1.
</event>
<event>
 5   0  0.6262544E+06  0.9118800E+02  0.7818608E-02  0.1180000E+00
       11   -1    0    0    0    0  0.00000000000E+00  0.00000000000E+00  0.39999999673E+01  0.40000000000E+01  0.51109989000E-03 0. -1.
     -623   -1    0    0    0    0  0.00000000000E+00  0.00000000000E+00  0.12525980253E-10  0.17130000000E+03  0.17130000000E+03 0. -1.
       11    1    1    2    0    0 -0.16643736521E-01  0.21773342776E-02  0.47194715029E+00  0.47224583496E+00  0.51109989000E-03 0. -1.
     -623    1    1    2    0    0  0.22601692938E-02 -0.52513128032E-02  0.17470480476E-02  0.17130000010E+03  0.17130000000E+03 0. -1.
      622    1    1    2    0    0  0.14383567227E-01  0.30739785256E-02  0.35263057690E+01  0.35277540607E+01  0.10000000000E+00 0. -1.
</event>
<event>
 5   0  0.6262544E+06  0.9118800E+02  0.7818608E-02  0.1180000E+00
       11   -1    0    0    0    0  0.00000000000E+00  0.00000000000E+00  0.39999999673E+01  0.40000000000E+01  0.51109989000E-03 0. -1.
     -623   -1    0    0    0    0  0.00000000000E+00  0.00000000000E+00  0.12525980253E-10  0.17130000000E+03  0.17130000000E+03 0.  1.
       11    1    1    2    0    0  0.21162764559E-01 -0.39428761353E-01  0.70602212755E+00  0.70743904023E+00  0.51109989000E-03 0. -1.
     -623    1    1    2    0    0 -0.21630562372E-01  0.17028539769E-01  0.30143116441E-02  0.17130000224E+03  0.17130000000E+03 0.  1.
      622    1    1    2    0    0  0.46779781375E-03  0.22400221583E-01  0.32909635283E+01  0.32925587213E+01  0.10000000000E+00 0. -1.
</event>
<event>
 5   0  0.6262544E+06  0.9118800E+02  0.7818608E-02  0.1180000E+00
       11   -1    0    0    0    0  0.00000000000E+00  0.00000000000E+00  0.39999999673E+01  0.40000000000E+01  0.51109989000E-03 0. -1.
     -623   -1    0    0    0    0  0.00000000000E+00  0.00000000000E+00  0.12525980253E-10  0.17130000000E+03  0.17130000000E+03 0. -1.
       11    1    1    2    0    0 -0.55990083004E-01 -0.86660375985E-02  0.10456577658E+01  0.10471916797E+01  0.51109989000E-03 0. -1.
     -623    1    1    2    0    0  0.28557506158E-01  0.16328413049E-01  0.33683167211E-02  0.17130000319E+03  0.17130000000E+03 0. -1.
      622    1    1    2    0    0  0.27432576846E-01 -0.76623754508E-02  0.29509738849E+01  0.29528051286E+01  0.10000000000E+00 0. -1.
</event>
<event>
 5   0  0.6262544E+06  0.9118800E+02  0.7818608E-02  0.1180000E+00
       11   -1    0    0    0    0  0.00000000000E+00  0.00000000000E+00  0.39999999673E+01  0.40000000000E+01  0.51109989000E-03 0. -1.
     -623   -1    0    0    0    0  0.00000000000E+00  0.00000000000E+00  0.12525980253E-10  0.17130000000E+03  0.17130000000E+03 0.  1.
       11    1    1    2    0    0 -0.31952761237E-02  0.48993157778E-02  0.39003750506E-01  0.39443210585E-01  0.51109989000E-03 0. -1.
     -623    1    1    2    0    0  0.34596516537E-02 -0.67419168283E-02  0.17026911807E-02  0.17130000018E+03  0.17130000000E+03 0.  1.
      622    1    1    2    0    0 -0.26437553027E-03  0.18426010510E-02  0.39592935260E+01  0.39605566137E+01  0.10000000000E+00 0. -1.
</event>
<event>
 5   0  0.6262544E+06  0.9118800E+02  0.7818608E-02  0.1180000E+00
       11   -1    0    0    0    0  0.00000000000E+00  0.00000000000E+00  0.39999999673E+01  0.40000000000E+01  0.51109989000E-03 0.  1.
     -623   -1    0    0    0    0  0.00000000000E+00  0.00000000000E+00  0.12525980253E-10  0.17130000000E+03  0.17130000000E+03 0. -1.
       11    1    1    2    0    0 -0.32486998522E-03 -0.11027295885E-01  0.21671287890E+00  0.21699410107E+00  0.51109989000E-03 0.  1.
     -623    1    1    2    0    0  0.69482208014E-02  0.34776110715E-02  0.16166409118E-02  0.17130000018E+03  0.17130000000E+03 0. -1.
      622    1    1    2    0    0 -0.66233508161E-02  0.75496848133E-02  0.37816704475E+01  0.37830057151E+01  0.10000000000E+00 0.  1.
</event>
<event>
 5   0  0.6262544E+06  0.9118800E+02  0.7818608E-02  0.1180000E+00
       11   -1    0    0    0    0  0.00000000000E+00  0.00000000000E+00  0.39999999673E+01  0.40000000000E+01  0.51109989000E-03 0.  1.
     -623   -1    0    0    0    0  0.00000000000E+00  0.00000000000E+00  0.12525980253E-10  0.17130000000E+03  0.17130000000E+03 0. -1.
       11    1    1    2    0    0 -0.63191186379E-02  0.52881884567E-01  0.41882155249E+00  0.42219448011E+00  0.51109989000E-03 0.  1.
     -623    1    1    2    0    0 -0.16253116932E-01 -0.38155101174E-02  0.51794017895E-02  0.17130000089E+03  0.17130000000E+03 0. -1.
      622    1    1    2    0    0  0.22572235570E-01 -0.49066374450E-01  0.35759990131E+01  0.35778046281E+01  0.10000000000E+00 0.  1.
</event>
<event>
 5   0  0.6262544E+06  0.9118800E+02  0.7818608E-02  0.1180000E+00
       11   -1    0    0    0    0  0.00000000000E+00  0.00000000000E+00  0.39999999673E+01  0.40000000000E+01  0.51109989000E-03 0.  1.
     -623   -1    0    0    0    0  0.00000000000E+00  0.00000000000E+00  0.12525980253E-10  0.17130000000E+03  0.17130000000E+03 0.  1.
       11    1    1    2    0    0 -0.44914142114E-01  0.37053615264E-01  0.69231330039E+00  0.69475766832E+00  0.51109989000E-03 0.  1.
     -623    1    1    2    0    0 -0.13311029464E-01  0.20768540231E-01  0.49785237494E-02  0.17130000185E+03  0.17130000000E+03 0.  1.
      622    1    1    2    0    0  0.58225171578E-01 -0.57822155495E-01  0.33027081432E+01  0.33052404832E+01  0.10000000000E+00 0.  1.
</event>
<event>
 5   0  0.6262544E+06  0.9118800E+02  0.7818608E-02  0.1180000E+00
       11   -1    0    0    0    0  0.00000000000E+00  0.00000000000E+00  0.39999999673E+01  0.40000000000E+01  0.51109989000E-03 0.  1.
     -623   -1    0    0    0    0  0.00000000000E+00  0.00000000000E+00  0.12525980253E-10  0.17130000000E+03  0.17130000000E+03 0. -1.
       11    1    1    2    0    0 -0.61868734544E-02 -0.12841734187E-01  0.28010743703E+00  0.28047036393E+00  0.51109989000E-03 0.  1.
     -623    1    1    2    0    0  0.66325313818E-02 -0.33507490146E-02  0.17428488914E-02  0.17130000017E+03  0.17130000000E+03 0. -1.
      622    1    1    2    0    0 -0.44565792738E-03  0.16192483202E-01  0.37181496814E+01  0.37195294660E+01  0.10000000000E+00 0.  1.
</event>
<event>
 5   0  0.6262544E+06  0.9118800E+02  0.7818608E-02  0.1180000E+00
       11   -1    0    0    0    0  0.00000000000E+00  0.00000000000E+00  0.39999999673E+01  0.40000000000E+01  0.51109989000E-03 0. -1.
     -623   -1    0    0    0    0  0.00000000000E+00  0.00000000000E+00  0.12525980253E-10  0.17130000000E+03  0.17130000000E+03 0. -1.
       11    1    1    2    0    0  0.57373777341E-02 -0.63588711232E-02  0.84673074296E+00  0.84677421136E+00  0.51109989000E-03 0. -1.
     -623    1    1    2    0    0  0.50059695591E-02  0.59360365507E-02  0.16480358874E-02  0.17130000018E+03  0.17130000000E+03 0. -1.
      622    1    1    2    0    0 -0.10743347293E-01  0.42283457256E-03  0.31516211885E+01  0.31532256047E+01  0.10000000000E+00 0.  1.
</event>
<event>
 5   0  0.6262544E+06  0.9118800E+02  0.7818608E-02  0.1180000E+00
       11   -1    0    0    0    0  0.00000000000E+00  0.00000000000E+00  0.39999999673E+01  0.40000000000E+01  0.51109989000E-03 0.  1.
     -623   -1    0    0    0    0  0.00000000000E+00  0.00000000000E+00  0.12525980253E-10  0.17130000000E+03  0.17130000000E+03 0.  1.
       11    1    1    2    0    0 -0.11188960101E-01 -0.22106635235E-01  0.13679307286E+00  0.13901979052E+00  0.51109989000E-03 0.  1.
     -623    1    1    2    0    0  0.34951702145E-03  0.35300871172E-02  0.35819096636E-02  0.17130000007E+03  0.17130000000E+03 0.  1.
      622    1    1    2    0    0  0.10839443080E-01  0.18576548118E-01  0.38596249848E+01  0.38609801353E+01  0.10000000000E+00 0.  1.
</event>
<event>
 5   0  0.6262544E+06  0.9118800E+02  0.7818608E-02  0.1180000E+00
       11   -1    0    0    0    0  0.00000000000E+00  0.00000000000E+00  0.39999999673E+01  0.40000000000E+01  0.51109989000E-03 0.  1.
     -623   -1    0    0    0    0  0.00000000000E+00  0.00000000000E+00  0.12525980253E-10  0.17130000000E+03  0.17130000000E+03 0. -1.
       11    1    1    2    0    0 -0.62039639173E-01  0.96670263184E-02  0.40174917991E+00  0.40662640471E+00  0.51109989000E-03 0.  1.
     -623    1    1    2    0    0  0.39123367245E-02 -0.11540078750E-01  0.67403202502E-02  0.17130000057E+03  0.17130000000E+03 0. -1.
      622    1    1    2    0    0  0.58127302449E-01  0.18730524317E-02  0.35915104672E+01  0.35933730293E+01  0.10000000000E+00 0.  1.
</event>
<event>
 5   0  0.6262544E+06  0.9118800E+02  0.7818608E-02  0.1180000E+00
       11   -1    0    0    0    0  0.00000000000E+00  0.00000000000E+00  0.39999999673E+01  0.40000000000E+01  0.51109989000E-03 0. -1.
     -623   -1    0    0    0    0  0.00000000000E+00  0.00000000000E+00  0.12525980253E-10  0.17130000000E+03  0.17130000000E+03 0. -1.
       11    1    1    2    0    0 -0.45050008011E-01 -0.71966031587E-01  0.25129719133E+01  0.25144058366E+01  0.51109989000E-03 0. -1.
     -623    1    1    2    0    0 -0.19198094537E-01  0.17199393057E-01  0.72116458451E-02  0.17130000209E+03  0.17130000000E+03 0. -1.
      622    1    1    2    0    0  0.64248102548E-01  0.54766638530E-01  0.14798164083E+01  0.14855920724E+01  0.10000000000E+00 0. -1.
</event>
<event>
 5   0  0.6262544E+06  0.9118800E+02  0.7818608E-02  0.1180000E+00
       11   -1    0    0    0    0  0.00000000000E+00  0.00000000000E+00  0.39999999673E+01  0.40000000000E+01  0.51109989000E-03 0. -1.
     -623   -1    0    0    0    0  0.00000000000E+00  0.00000000000E+00  0.12525980253E-10  0.17130000000E+03  0.17130000000E+03 0.  1.
       11    1    1    2    0    0  0.76456940484E-02 -0.85288875584E-02  0.10269399978E+00  0.10333207331E+00  0.51109989000E-03 0. -1.
     -623    1    1    2    0    0  0.24463658795E-01  0.27728522215E-02  0.20597746893E-02  0.17130000178E+03  0.17130000000E+03 0.  1.
      622    1    1    2    0    0 -0.32109352845E-01  0.57560353367E-02  0.38952461932E+01  0.38966661453E+01  0.10000000000E+00 0. -1.
</event>
<event>
 5   0  0.6262544E+06  0.9118800E+02  0.7818608E-02  0.1180000E+00
       11   -1    0    0    0    0  0.00000000000E+00  0.00000000000E+00  0.39999999673E+01  0.40000000000E+01  0.51109989000E-03 0. -1.
     -623   -1    0    0    0    0  0.00000000000E+00  0.00000000000E+00  0.12525980253E-10  0.17130000000E+03  0.17130000000E+03 0.  1.
       11    1    1    2    0    0  0.14471556019E-01 -0.29198524673E-01  0.27659179927E+00  0.27850541184E+00  0.51109989000E-03 0. -1.
     -623    1    1    2    0    0  0.35544473703E-02 -0.42432752546E-02  0.34514809102E-02  0.17130000012E+03  0.17130000000E+03 0.  1.
      622    1    1    2    0    0 -0.18026003389E-01  0.33441799928E-01  0.37199566872E+01  0.37214944640E+01  0.10000000000E+00 0.  0.
</event>
<event>
 5   0  0.6262544E+06  0.9118800E+02  0.7818608E-02  0.1180000E+00
       11   -1    0    0    0    0  0.00000000000E+00  0.00000000000E+00  0.39999999673E+01  0.40000000000E+01  0.51109989000E-03 0.  1.
     -623   -1    0    0    0    0  0.00000000000E+00  0.00000000000E+00  0.12525980253E-10  0.17130000000E+03  0.17130000000E+03 0. -1.
       11    1    1    2    0    0 -0.48732514370E-02  0.12301456604E-02  0.40630471173E-02  0.64831638025E-02  0.51109989000E-03 0.  1.
     -623    1    1    2    0    0  0.42437899899E-02  0.45750674246E-01  0.39550132393E-02  0.17130000621E+03  0.17130000000E+03 0. -1.
      622    1    1    2    0    0  0.62946144722E-03 -0.46980819906E-01  0.39919819069E+01  0.39935106284E+01  0.10000000000E+00 0.  1.
</event>
<event>
 5   0  0.6262544E+06  0.9118800E+02  0.7818608E-02  0.1180000E+00
       11   -1    0    0    0    0  0.00000000000E+00  0.00000000000E+00  0.39999999673E+01  0.40000000000E+01  0.51109989000E-03 0.  1.
     -623   -1    0    0    0    0  0.00000000000E+00  0.00000000000E+00  0.12525980253E-10  0.17130000000E+03  0.17130000000E+03 0. -1.
       11    1    1    2    0    0  0.58104064052E-03  0.33983338421E-02  0.14518745111E-01  0.14931224459E-01  0.51109989000E-03 0.  1.
     -623    1    1    2    0    0 -0.20905953705E-02 -0.36283317845E-02  0.16676797364E-02  0.17130000006E+03  0.17130000000E+03 0. -1.
      622    1    1    2    0    0  0.15095547301E-02  0.22999794245E-03  0.39838135426E+01  0.39850687164E+01  0.10000000000E+00 0.  1.
</event>
<event>
 5   0  0.6262544E+06  0.9118800E+02  0.7818608E-02  0.1180000E+00
       11   -1    0    0    0    0  0.00000000000E+00  0.00000000000E+00  0.39999999673E+01  0.40000000000E+01  0.51109989000E-03 0. -1.
     -623   -1    0    0    0    0  0.00000000000E+00  0.00000000000E+00  0.12525980253E-10  0.17130000000E+03  0.17130000000E+03 0. -1.
       11    1    1    2    0    0 -0.34052030262E-01  0.32652724905E-01  0.16332993876E+01  0.16339806890E+01  0.51109989000E-03 0. -1.
     -623    1    1    2    0    0  0.15437634744E-02 -0.15131810413E-03  0.32425046495E-02  0.17130000004E+03  0.17130000000E+03 0. -1.
      622    1    1    2    0    0  0.32508266788E-01 -0.32501406800E-01  0.23634580751E+01  0.23660192733E+01  0.10000000000E+00 0.  1.
</event>
<event>
 5   0  0.6262544E+06  0.9118800E+02  0.7818608E-02  0.1180000E+00
       11   -1    0    0    0    0  0.00000000000E+00  0.00000000000E+00  0.39999999673E+01  0.40000000000E+01  0.51109989000E-03 0. -1.
     -623   -1    0    0    0    0  0.00000000000E+00  0.00000000000E+00  0.12525980253E-10  0.17130000000E+03  0.17130000000E+03 0.  1.
       11    1    1    2    0    0  0.80368505318E-02 -0.31834439772E-01  0.63427555645E+00  0.63512499971E+00  0.51109989000E-03 0. -1.
     -623    1    1    2    0    0 -0.10655353100E-01  0.21836659289E-02  0.24677601126E-02  0.17130000036E+03  0.17130000000E+03 0.  1.
      622    1    1    2    0    0  0.26185025688E-02  0.29650773844E-01  0.33632566509E+01  0.33648746373E+01  0.10000000000E+00 0. -1.
</event>
<event>
 5   0  0.6262544E+06  0.9118800E+02  0.7818608E-02  0.1180000E+00
       11   -1    0    0    0    0  0.00000000000E+00  0.00000000000E+00  0.39999999673E+01  0.40000000000E+01  0.51109989000E-03 0.  1.
     -623   -1    0    0    0    0  0.00000000000E+00  0.00000000000E+00  0.12525980253E-10  0.17130000000E+03  0.17130000000E+03 0. -1.
       11    1    1    2    0    0  0.75815049909E-04 -0.94256485098E-03  0.44630381683E-03  0.11638670949E-02  0.51109989000E-03 0.  1.
     -623    1    1    2    0    0 -0.78912092796E-03  0.91462557756E-03  0.19681693041E-02  0.17130000002E+03  0.17130000000E+03 0. -1.
      622    1    1    2    0    0  0.71330587806E-03  0.27939273406E-04  0.39975854943E+01  0.39988361174E+01  0.10000000000E+00 0.  1.
</event>
<event>
 5   0  0.6262544E+06  0.9118800E+02  0.7818608E-02  0.1180000E+00
       11   -1    0    0    0    0  0.00000000000E+00  0.00000000000E+00  0.39999999673E+01  0.40000000000E+01  0.51109989000E-03 0.  1.
     -623   -1    0    0    0    0  0.00000000000E+00  0.00000000000E+00  0.12525980253E-10  0.17130000000E+03  0.17130000000E+03 0. -1.
       11    1    1    2    0    0 -0.54292035705E-02 -0.24968600815E-01  0.14228980545E+00  0.14456679160E+00  0.51109989000E-03 0.  1.
     -623    1    1    2    0    0 -0.50030912949E-02 -0.14779477100E-02  0.36790184847E-02  0.17130000012E+03  0.17130000000E+03 0. -1.
      622    1    1    2    0    0  0.10432294865E-01  0.26446548525E-01  0.38540311434E+01  0.38554330894E+01  0.10000000000E+00 0.  1.
</event>
<event>
 5   0  0.6262544E+06  0.9118800E+02  0.7818608E-02  0.1180000E+00
       11   -1    0    0    0    0  0.00000000000E+00  0.00000000000E+00  0.39999999673E+01  0.40000000000E+01  0.51109989000E-03 0. -1.
     -623   -1    0    0    0    0  0.00000000000E+00  0.00000000000E+00  0.12525980253E-10  0.17130000000E+03  0.17130000000E+03 0.  1.
       11    1    1    2    0    0 -0.73481912119E-02 -0.14952169306E-02  0.61682812121E-01  0.62139054718E-01  0.51109989000E-03 0. -1.
     -623    1    1    2    0    0 -0.86017785318E-02  0.82451880519E-02  0.17646628363E-02  0.17130000042E+03  0.17130000000E+03 0.  1.
      622    1    1    2    0    0  0.15949969744E-01 -0.67499711213E-02  0.39365524924E+01  0.39378605218E+01  0.10000000000E+00 0. -1.
</event>
<event>
 5   0  0.6262544E+06  0.9118800E+02  0.7818608E-02  0.1180000E+00
       11   -1    0    0    0    0  0.00000000000E+00  0.00000000000E+00  0.39999999673E+01  0.40000000000E+01  0.51109989000E-03 0.  1.
     -623   -1    0    0    0    0  0.00000000000E+00  0.00000000000E+00  0.12525980253E-10  0.17130000000E+03  0.17130000000E+03 0.  1.
       11    1    1    2    0    0 -0.88413255525E-03 -0.24579792380E-01  0.23606337783E+00  0.23734179459E+00  0.51109989000E-03 0.  1.
     -623    1    1    2    0    0  0.93303224286E-02  0.12720606152E-02  0.26894458762E-02  0.17130000028E+03  0.17130000000E+03 0.  1.
      622    1    1    2    0    0 -0.84461898735E-02  0.23307731765E-01  0.37612471437E+01  0.37626579255E+01  0.10000000000E+00 0.  1.
</event>
<event>
 5   0  0.6262544E+06  0.9118800E+02  0.7818608E-02  0.1180000E+00
       11   -1    0    0    0    0  0.00000000000E+00  0.00000000000E+00  0.39999999673E+01  0.40000000000E+01  0.51109989000E-03 0. -1.
     -623   -1    0    0    0    0  0.00000000000E+00  0.00000000000E+00  0.12525980253E-10  0.17130000000E+03  0.17130000000E+03 0.  1.
       11    1    1    2    0    0 -0.60911087158E-01  0.19668640708E-01  0.87786704068E+00  0.88019760185E+00  0.51109989000E-03 0. -1.
     -623    1    1    2    0    0  0.24546270686E-01 -0.15431372413E-01  0.41510432992E-02  0.17130000250E+03  0.17130000000E+03 0.  1.
      622    1    1    2    0    0  0.36364816472E-01 -0.42372682941E-02  0.31179818834E+01  0.31197998941E+01  0.10000000000E+00 0.  0.
</event>
<event>
 5   0  0.6262544E+06  0.9118800E+02  0.7818608E-02  0.1180000E+00
       11   -1    0    0    0    0  0.00000000000E+00  0.00000000000E+00  0.39999999673E+01  0.40000000000E+01  0.51109989000E-03 0.  1.
     -623   -1    0    0    0    0  0.00000000000E+00  0.00000000000E+00  0.12525980253E-10  0.17130000000E+03  0.17130000000E+03 0.  1.
       11    1    1    2    0    0  0.35916567891E-01  0.28833685638E-01  0.62995042716E+00  0.63163215812E+00  0.51109989000E-03 0.  1.
     -623    1    1    2    0    0 -0.40582213214E-01 -0.26633932579E-02  0.32762287072E-02  0.17130000486E+03  0.17130000000E+03 0.  1.
      622    1    1    2    0    0  0.46656453237E-02 -0.26170292380E-01  0.33667733115E+01  0.33683629827E+01  0.10000000000E+00 0.  1.
</event>
<event>
 5   0  0.6262544E+06  0.9118800E+02  0.7818608E-02  0.1180000E+00
       11   -1    0    0    0    0  0.00000000000E+00  0.00000000000E+00  0.39999999673E+01  0.40000000000E+01  0.51109989000E-03 0. -1.
     -623   -1    0    0    0    0  0.00000000000E+00  0.00000000000E+00  0.12525980253E-10  0.17130000000E+03  0.17130000000E+03 0.  1.
       11    1    1    2    0    0 -0.22927591736E-01 -0.94330232523E-02  0.12346551031E+00  0.12593113138E+00  0.51109989000E-03 0. -1.
     -623    1    1    2    0    0  0.32923776017E-01  0.92593031615E-03  0.37818898419E-02  0.17130000321E+03  0.17130000000E+03 0.  1.
      622    1    1    2    0    0 -0.99961842812E-02  0.85070929361E-02  0.38727525673E+01  0.38740656605E+01  0.10000000000E+00 0. -1.
</event>
<event>
 5   0  0.6262544E+06  0.9118800E+02  0.7818608E-02  0.1180000E+00
       11   -1    0    0    0    0  0.00000000000E+00  0.00000000000E+00  0.39999999673E+01  0.40000000000E+01  0.51109989000E-03 0. -1.
     -623   -1    0    0    0    0  0.00000000000E+00  0.00000000000E+00  0.12525980253E-10  0.17130000000E+03  0.17130000000E+03 0.  1.
       11    1    1    2    0    0 -0.16211267513E-01 -0.21405467234E-01  0.42831070803E+00  0.42915186479E+00  0.51109989000E-03 0. -1.
     -623    1    1    2    0    0  0.11921723878E-01 -0.36335974291E-02  0.23324967776E-02  0.17130000047E+03  0.17130000000E+03 0.  1.
      622    1    1    2    0    0  0.42895436345E-02  0.25039064664E-01  0.35693567626E+01  0.35708476660E+01  0.10000000000E+00 0. -1.
</event>
<event>
 5   0  0.6262544E+06  0.9118800E+02  0.7818608E-02  0.1180000E+00
       11   -1    0    0    0    0  0.00000000000E+00  0.00000000000E+00  0.39999999673E+01  0.40000000000E+01  0.51109989000E-03 0.  1.
     -623   -1    0    0    0    0  0.00000000000E+00  0.00000000000E+00  0.12525980253E-10  0.17130000000E+03  0.17130000000E+03 0.  1.
       11    1    1    2    0    0 -0.88271184996E-02 -0.16839956468E-01  0.23280228115E+00  0.23357796447E+00  0.51109989000E-03 0.  1.
     -623    1    1    2    0    0 -0.59170387020E-03  0.22860279229E-02  0.21433446294E-02  0.17130000003E+03  0.17130000000E+03 0.  1.
      622    1    1    2    0    0  0.94188223698E-02  0.14553928545E-01  0.37650543415E+01  0.37664220058E+01  0.10000000000E+00 0.  1.
</event>
<event>
 5   0  0.6262544E+06  0.9118800E+02  0.7818608E-02  0.1180000E+00
       11   -1    0    0    0    0  0.00000000000E+00  0.00000000000E+00  0.39999999673E+01  0.40000000000E+01  0.51109989000E-03 0. -1.
     -623   -1    0    0    0    0  0.00000000000E+00  0.00000000000E+00  0.12525980253E-10  0.17130000000E+03  0.17130000000E+03 0. -1.
       11    1    1    2    0    0 -0.31246142415E-02  0.15732308846E-02  0.26858693348E-02  0.44399759860E-02  0.51109989000E-03 0. -1.
     -623    1    1    2    0    0  0.39881157396E-03 -0.28860288695E-02  0.30068560633E-02  0.17130000005E+03  0.17130000000E+03 0. -1.
      622    1    1    2    0    0  0.27258026676E-02  0.13127979849E-02  0.39943072420E+01  0.39955599729E+01  0.10000000000E+00 0. -1.
</event>
<event>
 5   0  0.6262544E+06  0.9118800E+02  0.7818608E-02  0.1180000E+00
       11   -1    0    0    0    0  0.00000000000E+00  0.00000000000E+00  0.39999999673E+01  0.40000000000E+01  0.51109989000E-03 0. -1.
     -623   -1    0    0    0    0  0.00000000000E+00  0.00000000000E+00  0.12525980253E-10  0.17130000000E+03  0.17130000000E+03 0. -1.
       11    1    1    2    0    0 -0.55104690074E-01  0.68291967742E-02  0.30087570754E+01  0.30092694404E+01  0.51109989000E-03 0. -1.
     -623    1    1    2    0    0  0.71647955576E-02 -0.44635522788E-02  0.67417304497E-02  0.17130000034E+03  0.17130000000E+03 0. -1.
      622    1    1    2    0    0  0.47939894517E-01 -0.23656444954E-02  0.98450116149E+00  0.99073021894E+00  0.10000000000E+00 0. -1.
</event>
<event>
 5   0  0.6262544E+06  0.9118800E+02  0.7818608E-02  0.1180000E+00
       11   -1    0    0    0    0  0.00000000000E+00  0.00000000000E+00  0.39999999673E+01  0.40000000000E+01  0.51109989000E-03 0.  1.
     -623   -1    0    0    0    0  0.00000000000E+00  0.00000000000E+00  0.12525980253E-10  0.17130000000E+03  0.17130000000E+03 0.  1.
       11    1    1    2    0    0  0.64238843045E-02  0.11630691000E-01  0.43120614734E-01  0.45124138782E-01  0.51109989000E-03 0.  1.
     -623    1    1    2    0    0 -0.56870937855E-02 -0.92532354281E-02  0.32691148517E-02  0.17130000038E+03  0.17130000000E+03 0.  1.
      622    1    1    2    0    0 -0.73679051896E-03 -0.23774555722E-02  0.39536102378E+01  0.39548754858E+01  0.10000000000E+00 0.  1.
</event>
<event>
 5   0  0.6262544E+06  0.9118800E+02  0.7818608E-02  0.1180000E+00
       11   -1    0    0    0    0  0.00000000000E+00  0.00000000000E+00  0.39999999673E+01  0.40000000000E+01  0.51109989000E-03 0.  1.
     -623   -1    0    0    0    0  0.00000000000E+00  0.00000000000E+00  0.12525980253E-10  0.17130000000E+03  0.17130000000E+03 0. -1.
       11    1    1    2    0    0 -0.12599682299E-02  0.21300562372E-02  0.80586690663E-03  0.26524147645E-02  0.51109989000E-03 0.  1.
     -623    1    1    2    0    0  0.19868606703E-02 -0.12982376550E-03  0.30981467269E-02  0.17130000004E+03  0.17130000000E+03 0. -1.
      622    1    1    2    0    0 -0.72689244031E-03 -0.20002324717E-02  0.39960959537E+01  0.39973475456E+01  0.10000000000E+00 0.  1.
</event>
<event>
 5   0  0.6262544E+06  0.9118800E+02  0.7818608E-02  0.1180000E+00
       11   -1    0    0    0    0  0.00000000000E+00  0.00000000000E+00  0.39999999673E+01  0.40000000000E+01  0.51109989000E-03 0.  1.
     -623   -1    0    0    0    0  0.00000000000E+00  0.00000000000E+00  0.12525980253E-10  0.17130000000E+03  0.17130000000E+03 0.  1.
       11    1    1    2    0    0  0.90256785320E-02 -0.13143438747E-01  0.33342783732E+00  0.33380922213E+00  0.51109989000E-03 0.  1.
     -623    1    1    2    0    0 -0.31044024543E-02  0.24303661976E-01  0.17689575799E-02  0.17130000176E+03  0.17130000000E+03 0.  1.
      622    1    1    2    0    0 -0.59212760777E-02 -0.11160223229E-01  0.36648031725E+01  0.36661890165E+01  0.10000000000E+00 0.  1.
</event>
<event>
 5   0  0.6262544E+06  0.9118800E+02  0.7818608E-02  0.1180000E+00
       11   -1    0    0    0    0  0.00000000000E+00  0.00000000000E+00  0.39999999673E+01  0.40000000000E+01  0.51109989000E-03 0.  1.
     -623   -1    0    0    0    0  0.00000000000E+00  0.00000000000E+00  0.12525980253E-10  0.17130000000E+03  0.17130000000E+03 0. -1.
       11    1    1    2    0    0  0.25160460468E-01 -0.17232863232E-01  0.33669456533E+00  0.33807323451E+00  0.51109989000E-03 0.  1.
     -623    1    1    2    0    0 -0.21274363085E-01  0.18608946917E-01  0.27489688089E-02  0.17130000235E+03  0.17130000000E+03 0. -1.
      622    1    1    2    0    0 -0.38860973828E-02 -0.13760836849E-02  0.36605564332E+01  0.36619244116E+01  0.10000000000E+00 0.  1.
</event>
<event>
 5   0  0.6262544E+06  0.9118800E+02  0.7818608E-02  0.1180000E+00
       11   -1    0    0    0    0  0.00000000000E+00  0.00000000000E+00  0.39999999673E+01  0.40000000000E+01  0.51109989000E-03 0. -1.
     -623   -1    0    0    0    0  0.00000000000E+00  0.00000000000E+00  0.12525980253E-10  0.17130000000E+03  0.17130000000E+03 0. -1.
       11    1    1    2    0    0  0.36296062016E-01 -0.53998037165E-01  0.11900847679E+01  0.11918620760E+01  0.51109989000E-03 0. -1.
     -623    1    1    2    0    0 -0.22546680793E-01  0.70512181853E-02  0.39864508985E-02  0.17130000168E+03  0.17130000000E+03 0. -1.
      622    1    1    2    0    0 -0.13749381223E-01  0.46946818980E-01  0.28059287486E+01  0.28081362487E+01  0.10000000000E+00 0. -1.
</event>
<event>
 5   0  0.6262544E+06  0.9118800E+02  0.7818608E-02  0.1180000E+00
       11   -1    0    0    0    0  0.00000000000E+00  0.00000000000E+00  0.39999999673E+01  0.40000000000E+01  0.51109989000E-03 0.  1.
     -623   -1    0    0    0    0  0.00000000000E+00  0.00000000000E+00  0.12525980253E-10  0.17130000000E+03  0.17130000000E+03 0. -1.
       11    1    1    2    0    0  0.28395474093E-01  0.31811998262E-01  0.44686826215E+00  0.44889844188E+00  0.51109989000E-03 0.  1.
     -623    1    1    2    0    0  0.14703084602E-02 -0.53288974524E-02  0.36630062582E-02  0.17130000013E+03  0.17130000000E+03 0. -1.
      622    1    1    2    0    0 -0.29865782554E-01 -0.26483100810E-01  0.35494686991E+01  0.35511014299E+01  0.10000000000E+00 0.  1.
</event>
<event>
 5   0  0.6262544E+06  0.9118800E+02  0.7818608E-02  0.1180000E+00
       11   -1    0    0    0    0  0.00000000000E+00  0.00000000000E+00  0.39999999673E+01  0.40000000000E+01  0.51109989000E-03 0.  1.
     -623   -1    0    0    0    0  0.00000000000E+00  0.00000000000E+00  0.12525980253E-10  0.17130000000E+03  0.17130000000E+03 0.  1.
       11    1    1    2    0    0 -0.10626453326E-01 -0.36029943323E-02  0.28597545916E-01  0.30724321509E-01  0.51109989000E-03 0.  1.
     -623    1    1    2    0    0  0.10787497190E-01 -0.65018780014E-02  0.33999852566E-02  0.17130000050E+03  0.17130000000E+03 0.  1.
      622    1    1    2    0    0 -0.16104386334E-03  0.10104872334E-01  0.39680024362E+01  0.39692751817E+01  0.10000000000E+00 0.  1.
</event>
<event>
 5   0  0.6262544E+06  0.9118800E+02  0.7818608E-02  0.1180000E+00
       11   -1    0    0    0    0  0.00000000000E+00  0.00000000000E+00  0.39999999673E+01  0.40000000000E+01  0.51109989000E-03 0.  1.
     -623   -1    0    0    0    0  0.00000000000E+00  0.00000000000E+00  0.12525980253E-10  0.17130000000E+03  0.17130000000E+03 0. -1.
       11    1    1    2    0    0  0.57941271175E-01 -0.18578725714E+00  0.18375773661E+01  0.18478541429E+01  0.51109989000E-03 0.  1.
     -623    1    1    2    0    0 -0.20632216225E-01 -0.41152985659E-02  0.21332793364E-01  0.17130000262E+03  0.17130000000E+03 0. -1.
      622    1    1    2    0    0 -0.37309054951E-01  0.18990255571E+00  0.21410898079E+01  0.21521432368E+01  0.10000000000E+00 0. -1.
</event>
<event>
 5   0  0.6262544E+06  0.9118800E+02  0.7818608E-02  0.1180000E+00
       11   -1    0    0    0    0  0.00000000000E+00  0.00000000000E+00  0.39999999673E+01  0.40000000000E+01  0.51109989000E-03 0.  1.
     -623   -1    0    0    0    0  0.00000000000E+00  0.00000000000E+00  0.12525980253E-10  0.17130000000E+03  0.17130000000E+03 0. -1.
       11    1    1    2    0    0 -0.72949873304E-02 -0.14348743641E-01  0.23382955586E+00  0.23438350134E+00  0.51109989000E-03 0.  1.
     -623    1    1    2    0    0  0.20568361414E-02  0.74832387376E-03  0.19101893818E-02  0.17130000002E+03  0.17130000000E+03 0. -1.
      622    1    1    2    0    0  0.52381511890E-02  0.13600419767E-01  0.37642602221E+01  0.37656164740E+01  0.10000000000E+00 0.  1.
</event>
<event>
 5   0  0.6262544E+06  0.9118800E+02  0.7818608E-02  0.1180000E+00
       11   -1    0    0    0    0  0.00000000000E+00  0.00000000000E+00  0.39999999673E+01  0.40000000000E+01  0.51109989000E-03 0.  1.
     -623   -1    0    0    0    0  0.00000000000E+00  0.00000000000E+00  0.12525980253E-10  0.17130000000E+03  0.17130000000E+03 0.  1.
       11    1    1    2    0    0 -0.14803257536E-02 -0.14029189697E-02  0.24610285890E-01  0.24699938059E-01  0.51109989000E-03 0.  1.
     -623    1    1    2    0    0  0.41316386467E-02  0.46102046166E-02  0.13498811327E-02  0.17130000012E+03  0.17130000000E+03 0.  1.
      622    1    1    2    0    0 -0.26513128932E-02 -0.32072856469E-02  0.39740398003E+01  0.39752999448E+01  0.10000000000E+00 0.  1.
</event>
<event>
 5   0  0.6262544E+06  0.9118800E+02  0.7818608E-02  0.1180000E+00
       11   -1    0    0    0    0  0.00000000000E+00  0.00000000000E+00  0.39999999673E+01  0.40000000000E+01  0.51109989000E-03 0.  1.
     -623   -1    0    0    0    0  0.00000000000E+00  0.00000000000E+00  0.12525980253E-10  0.17130000000E+03  0.17130000000E+03 0.  1.
       11    1    1    2    0    0  0.29662342997E-01 -0.25595896208E-03  0.10157650323E+00  0.10582044859E+00  0.51109989000E-03 0.  1.
     -623    1    1    2    0    0  0.48800317981E-02 -0.26704680951E-02  0.56826300352E-02  0.17130000018E+03  0.17130000000E+03 0.  1.
      622    1    1    2    0    0 -0.34542374795E-01  0.29264270572E-02  0.38927408341E+01  0.38941793669E+01  0.10000000000E+00 0.  1.
</event>
<event>
 5   0  0.6262544E+06  0.9118800E+02  0.7818608E-02  0.1180000E+00
       11   -1    0    0    0    0  0.00000000000E+00  0.00000000000E+00  0.39999999673E+01  0.40000000000E+01  0.51109989000E-03 0.  1.
     -623   -1    0    0    0    0  0.00000000000E+00  0.00000000000E+00  0.12525980253E-10  0.17130000000E+03  0.17130000000E+03 0.  1.
       11    1    1    2    0    0  0.75229459912E-02  0.73144254514E-02  0.64144857303E-01  0.64999380581E-01  0.51109989000E-03 0.  1.
     -623    1    1    2    0    0  0.53354999084E-02  0.33624388212E-04  0.21533190104E-02  0.17130000010E+03  0.17130000000E+03 0.  1.
      622    1    1    2    0    0 -0.12858445900E-01 -0.73480498396E-02  0.39337017910E+01  0.39350005228E+01  0.10000000000E+00 0.  1.
</event>
<event>
 5   0  0.6262544E+06  0.9118800E+02  0.7818608E-02  0.1180000E+00
       11   -1    0    0    0    0  0.00000000000E+00  0.00000000000E+00  0.39999999673E+01  0.40000000000E+01  0.51109989000E-03 0.  1.
     -623   -1    0    0    0    0  0.00000000000E+00  0.00000000000E+00  0.12525980253E-10  0.17130000000E+03  0.17130000000E+03 0. -1.
       11    1    1    2    0    0  0.42860534558E-02  0.20615406755E-02  0.17021820578E-01  0.17681170862E-01  0.51109989000E-03 0.  1.
     -623    1    1    2    0    0 -0.15941419976E-01  0.15416580663E-01  0.19719421860E-02  0.17130000145E+03  0.17130000000E+03 0. -1.
      622    1    1    2    0    0  0.11655366520E-01 -0.17478121338E-01  0.39810062045E+01  0.39823173822E+01  0.10000000000E+00 0.  1.
</event>
<event>
 5   0  0.6262544E+06  0.9118800E+02  0.7818608E-02  0.1180000E+00
       11   -1    0    0    0    0  0.00000000000E+00  0.00000000000E+00  0.39999999673E+01  0.40000000000E+01  0.51109989000E-03 0.  1.
     -623   -1    0    0    0    0  0.00000000000E+00  0.00000000000E+00  0.12525980253E-10  0.17130000000E+03  0.17130000000E+03 0. -1.
       11    1    1    2    0    0  0.34702736730E-01 -0.50932925182E-01  0.13121246577E+00  0.14496694519E+00  0.51109989000E-03 0.  1.
     -623    1    1    2    0    0 -0.99639414093E-02  0.41053611993E-02  0.15416631478E-01  0.17130000103E+03  0.17130000000E+03 0. -1.
      622    1    1    2    0    0 -0.24738795321E-01  0.46827563982E-01  0.38533708701E+01  0.38550320221E+01  0.10000000000E+00 0.  0.
</event>
<event>
 5   0  0.6262544E+06  0.9118800E+02  0.7818608E-02  0.1180000E+00
       11   -1    0    0    0    0  0.00000000000E+00  0.00000000000E+00  0.39999999673E+01  0.40000000000E+01  0.51109989000E-03 0. -1.
     -623   -1    0    0    0    0  0.00000000000E+00  0.00000000000E+00  0.12525980253E-10  0.17130000000E+03  0.17130000000E+03 0.  1.
       11    1    1    2    0    0  0.14811229750E-01 -0.18971262889E-01  0.12165886102E+00  0.12401782545E+00  0.51109989000E-03 0. -1.
     -623    1    1    2    0    0 -0.63455676558E-02 -0.85701872561E-02  0.37566478197E-02  0.17130000037E+03  0.17130000000E+03 0.  1.
      622    1    1    2    0    0 -0.84656620940E-02  0.27541450146E-01  0.38745844585E+01  0.38759818014E+01  0.10000000000E+00 0. -1.
</event>
<event>
 5   0  0.6262544E+06  0.9118800E+02  0.7818608E-02  0.1180000E+00
       11   -1    0    0    0    0  0.00000000000E+00  0.00000000000E+00  0.39999999673E+01  0.40000000000E+01  0.51109989000E-03 0.  1.
     -623   -1    0    0    0    0  0.00000000000E+00  0.00000000000E+00  0.12525980253E-10  0.17130000000E+03  0.17130000000E+03 0. -1.
       11    1    1    2    0    0  0.52124787462E-03 -0.35204563077E-02  0.90201562175E-03  0.37067731574E-02  0.51109989000E-03 0.  1.
     -623    1    1    2    0    0  0.42315394928E-02 -0.17789140798E-01  0.41167663915E-02  0.17130000103E+03  0.17130000000E+03 0. -1.
      622    1    1    2    0    0 -0.47527873675E-02  0.21309597105E-01  0.39949811854E+01  0.39962922015E+01  0.10000000000E+00 0.  1.
</event>
<event>
 5   0  0.6262544E+06  0.9118800E+02  0.7818608E-02  0.1180000E+00
       11   -1    0    0    0    0  0.00000000000E+00  0.00000000000E+00  0.39999999673E+01  0.40000000000E+01  0.51109989000E-03 0. -1.
     -623   -1    0    0    0    0  0.00000000000E+00  0.00000000000E+00  0.12525980253E-10  0.17130000000E+03  0.17130000000E+03 0.  1.
       11    1    1    2    0    0 -0.15010176908E-02  0.93271545670E-02  0.55083042507E-01  0.55889638202E-01  0.51109989000E-03 0. -1.
     -623    1    1    2    0    0  0.45721278997E-02  0.13184128839E-02  0.20901261842E-02  0.17130000008E+03  0.17130000000E+03 0.  1.
      622    1    1    2    0    0 -0.30711102088E-02 -0.10645567451E-01  0.39428267987E+01  0.39441102830E+01  0.10000000000E+00 0. -1.
</event>
<event>
 5   0  0.6262544E+06  0.9118800E+02  0.7818608E-02  0.1180000E+00
       11   -1    0    0    0    0  0.00000000000E+00  0.00000000000E+00  0.39999999673E+01  0.40000000000E+01  0.51109989000E-03 0. -1.
     -623   -1    0    0    0    0  0.00000000000E+00  0.00000000000E+00  0.12525980253E-10  0.17130000000E+03  0.17130000000E+03 0. -1.
       11    1    1    2    0    0  0.45479149431E-02  0.44066551073E-02  0.34828040497E-02  0.72452249412E-02  0.51109989000E-03 0. -1.
     -623    1    1    2    0    0 -0.85646113794E-02 -0.19619777813E-02  0.50179215344E-02  0.17130000030E+03  0.17130000000E+03 0. -1.
      622    1    1    2    0    0  0.40166964363E-02 -0.24446773260E-02  0.39914992418E+01  0.39927544762E+01  0.10000000000E+00 0. -1.
</event>
<event>
 5   0  0.6262544E+06  0.9118800E+02  0.7818608E-02  0.1180000E+00
       11   -1    0    0    0    0  0.00000000000E+00  0.00000000000E+00  0.39999999673E+01  0.40000000000E+01  0.51109989000E-03 0.  1.
     -623   -1    0    0    0    0  0.00000000000E+00  0.00000000000E+00  0.12525980253E-10  0.17130000000E+03  0.17130000000E+03 0. -1.
       11    1    1    2    0    0  0.10295500321E-03 -0.32995943003E-02  0.24611673069E-01  0.24837342785E-01  0.51109989000E-03 0.  1.
     -623    1    1    2    0    0  0.25793468263E-02  0.52460648728E-02  0.14851344746E-02  0.17130000011E+03  0.17130000000E+03 0. -1.
      622    1    1    2    0    0 -0.26823018295E-02 -0.19464705724E-02  0.39739031597E+01  0.39751625510E+01  0.10000000000E+00 0.  1.
</event>
<event>
 5   0  0.6262544E+06  0.9118800E+02  0.7818608E-02  0.1180000E+00
       11   -1    0    0    0    0  0.00000000000E+00  0.00000000000E+00  0.39999999673E+01  0.40000000000E+01  0.51109989000E-03 0. -1.
     -623   -1    0    0    0    0  0.00000000000E+00  0.00000000000E+00  0.12525980253E-10  0.17130000000E+03  0.17130000000E+03 0. -1.
       11    1    1    2    0    0 -0.40430705456E-01  0.11687198906E-01  0.11539900082E+01  0.11547573047E+01  0.51109989000E-03 0. -1.
     -623    1    1    2    0    0  0.90882892106E-03  0.87565831574E-03  0.28275816690E-02  0.17130000003E+03  0.17130000000E+03 0. -1.
      622    1    1    2    0    0  0.39521876535E-01 -0.12562857222E-01  0.28431823775E+01  0.28452426673E+01  0.10000000000E+00 0. -1.
</event>
<event>
 5   0  0.6262544E+06  0.9118800E+02  0.7818608E-02  0.1180000E+00
       11   -1    0    0    0    0  0.00000000000E+00  0.00000000000E+00  0.39999999673E+01  0.40000000000E+01  0.51109989000E-03 0.  1.
     -623   -1    0    0    0    0  0.00000000000E+00  0.00000000000E+00  0.12525980253E-10  0.17130000000E+03  0.17130000000E+03 0. -1.
       11    1    1    2    0    0 -0.41262096803E-03  0.10498985926E-02 -0.93435102052E-03  0.15513794008E-02  0.51109989000E-03 0.  1.
     -623    1    1    2    0    0  0.42912218984E-02 -0.37180282356E-02  0.37392855805E-02  0.17130000013E+03  0.17130000000E+03 0. -1.
      622    1    1    2    0    0 -0.38786009304E-02  0.26681296431E-02  0.39971950329E+01  0.39984484858E+01  0.10000000000E+00 0.  1.
</event>
<event>
 5   0  0.6262544E+06  0.9118800E+02  0.7818608E-02  0.1180000E+00
       11   -1    0    0    0    0  0.00000000000E+00  0.00000000000E+00  0.39999999673E+01  0.40000000000E+01  0.51109989000E-03 0. -1.
     -623   -1    0    0    0    0  0.00000000000E+00  0.00000000000E+00  0.12525980253E-10  0.17130000000E+03  0.17130000000E+03 0.  1.
       11    1    1    2    0    0 -0.87363431767E-02  0.16492342360E-01  0.38161663716E+00  0.38207308205E+00  0.51109989000E-03 0. -1.
     -623    1    1    2    0    0  0.10190159467E-01 -0.49517458121E-03  0.18746701637E-02  0.17130000031E+03  0.17130000000E+03 0.  1.
      622    1    1    2    0    0 -0.14538162905E-02 -0.15997167779E-01  0.36165086600E+01  0.36179266039E+01  0.10000000000E+00 0. -1.
</event>
<event>
 5   0  0.6262544E+06  0.9118800E+02  0.7818608E-02  0.1180000E+00
       11   -1    0    0    0    0  0.00000000000E+00  0.00000000000E+00  0.39999999673E+01  0.40000000000E+01  0.51109989000E-03 0. -1.
     -623   -1    0    0    0    0  0.00000000000E+00  0.00000000000E+00  0.12525980253E-10  0.17130000000E+03  0.17130000000E+03 0.  1.
       11    1    1    2    0    0 -0.95702382164E-03  0.15050652354E-02  0.16741255921E-02  0.24990069135E-02  0.51109989000E-03 0. -1.
     -623    1    1    2    0    0  0.22254618511E-02 -0.18912086318E-02  0.20760832992E-02  0.17130000004E+03  0.17130000000E+03 0.  1.
      622    1    1    2    0    0 -0.12684380294E-02  0.38614339638E-03  0.39962497585E+01  0.39975009556E+01  0.10000000000E+00 0. -1.
</event>
<event>
 5   0  0.6262544E+06  0.9118800E+02  0.7818608E-02  0.1180000E+00
       11   -1    0    0    0    0  0.00000000000E+00  0.00000000000E+00  0.39999999673E+01  0.40000000000E+01  0.51109989000E-03 0. -1.
     -623   -1    0    0    0    0  0.00000000000E+00  0.00000000000E+00  0.12525980253E-10  0.17130000000E+03  0.17130000000E+03 0. -1.
       11    1    1    2    0    0  0.26337315835E-02 -0.87990053134E-02  0.10640574523E+00  0.10680263516E+00  0.51109989000E-03 0. -1.
     -623    1    1    2    0    0 -0.49700115310E-02  0.12002655415E-01  0.16838814384E-02  0.17130000050E+03  0.17130000000E+03 0. -1.
      622    1    1    2    0    0  0.23362799474E-02 -0.32036501013E-02  0.38919103406E+01  0.38931968639E+01  0.10000000000E+00 0. -1.
</event>
<event>
 5   0  0.6262544E+06  0.9118800E+02  0.7818608E-02  0.1180000E+00
       11   -1    0    0    0    0  0.00000000000E+00  0.00000000000E+00  0.39999999673E+01  0.40000000000E+01  0.51109989000E-03 0.  1.
     -623   -1    0    0    0    0  0.00000000000E+00  0.00000000000E+00  0.12525980253E-10  0.17130000000E+03  0.17130000000E+03 0. -1.
       11    1    1    2    0    0 -0.83034238554E-03 -0.31021426564E-04 -0.59654222672E-03  0.11434668915E-02  0.51109989000E-03 0.  1.
     -623    1    1    2    0    0  0.40181828131E-02  0.70373890341E-03  0.29919318339E-02  0.17130000007E+03  0.17130000000E+03 0. -1.
      622    1    1    2    0    0 -0.31878404276E-02 -0.67271747685E-03  0.39976045778E+01  0.39988564584E+01  0.10000000000E+00 0.  1.
</event>
<event>
 5   0  0.6262544E+06  0.9118800E+02  0.7818608E-02  0.1180000E+00
       11   -1    0    0    0    0  0.00000000000E+00  0.00000000000E+00  0.39999999673E+01  0.40000000000E+01  0.51109989000E-03 0. -1.
     -623   -1    0    0    0    0  0.00000000000E+00  0.00000000000E+00  0.12525980253E-10  0.17130000000E+03  0.17130000000E+03 0. -1.
       11    1    1    2    0    0  0.66124290483E-03  0.23835570293E-01  0.16972711965E+00  0.17139465575E+00  0.51109989000E-03 0. -1.
     -623    1    1    2    0    0 -0.77358446120E-03 -0.28446554392E-01  0.29788544915E-02  0.17130000239E+03  0.17130000000E+03 0. -1.
      622    1    1    2    0    0  0.11234155637E-03  0.46109840990E-02  0.38272939932E+01  0.38286029546E+01  0.10000000000E+00 0. -1.
</event>
<event>
 5   0  0.6262544E+06  0.9118800E+02  0.7818608E-02  0.1180000E+00
       11   -1    0    0    0    0  0.00000000000E+00  0.00000000000E+00  0.39999999673E+01  0.40000000000E+01  0.51109989000E-03 0.  1.
     -623   -1    0    0    0    0  0.00000000000E+00  0.00000000000E+00  0.12525980253E-10  0.17130000000E+03  0.17130000000E+03 0. -1.
       11    1    1    2    0    0  0.58302330500E-01  0.90250923843E-01  0.18498215735E+01  0.18529394232E+01  0.51109989000E-03 0.  1.
     -623    1    1    2    0    0 -0.43315983050E-01 -0.49559979572E-01  0.58990188337E-02  0.17130001275E+03  0.17130000000E+03 0. -1.
      622    1    1    2    0    0 -0.14986347451E-01 -0.40690944272E-01  0.21442793750E+01  0.21470478293E+01  0.10000000000E+00 0.  1.
</event>
<event>
 5   0  0.6262544E+06  0.9118800E+02  0.7818608E-02  0.1180000E+00
       11   -1    0    0    0    0  0.00000000000E+00  0.00000000000E+00  0.39999999673E+01  0.40000000000E+01  0.51109989000E-03 0. -1.
     -623   -1    0    0    0    0  0.00000000000E+00  0.00000000000E+00  0.12525980253E-10  0.17130000000E+03  0.17130000000E+03 0. -1.
       11    1    1    2    0    0  0.13750688047E-01  0.88028135984E-01  0.12352933603E+01  0.12385023138E+01  0.51109989000E-03 0. -1.
     -623    1    1    2    0    0 -0.13424894201E-01 -0.80806514433E-02  0.61792480014E-02  0.17130000083E+03  0.17130000000E+03 0. -1.
      622    1    1    2    0    0 -0.32579384498E-03 -0.79947484540E-01  0.27585273591E+01  0.27614968581E+01  0.10000000000E+00 0. -1.
</event>
<event>
 5   0  0.6262544E+06  0.9118800E+02  0.7818608E-02  0.1180000E+00
       11   -1    0    0    0    0  0.00000000000E+00  0.00000000000E+00  0.39999999673E+01  0.40000000000E+01  0.51109989000E-03 0.  1.
     -623   -1    0    0    0    0  0.00000000000E+00  0.00000000000E+00  0.12525980253E-10  0.17130000000E+03  0.17130000000E+03 0.  1.
       11    1    1    2    0    0 -0.25141529027E-02 -0.17633916508E-02  0.39591611995E-01  0.39713819701E-01  0.51109989000E-03 0.  1.
     -623    1    1    2    0    0 -0.14589567223E-02  0.51723737097E-02  0.13884626626E-02  0.17130000009E+03  0.17130000000E+03 0.  1.
      622    1    1    2    0    0  0.39731096250E-02 -0.34089820589E-02  0.39590198927E+01  0.39602860904E+01  0.10000000000E+00 0.  1.
</event>
<event>
 5   0  0.6262544E+06  0.9118800E+02  0.7818608E-02  0.1180000E+00
       11   -1    0    0    0    0  0.00000000000E+00  0.00000000000E+00  0.39999999673E+01  0.40000000000E+01  0.51109989000E-03 0. -1.
     -623   -1    0    0    0    0  0.00000000000E+00  0.00000000000E+00  0.12525980253E-10  0.17130000000E+03  0.17130000000E+03 0. -1.
       11    1    1    2    0    0  0.15947320566E-02  0.36501966719E-02  0.39479045433E-01  0.39682784117E-01  0.51109989000E-03 0. -1.
     -623    1    1    2    0    0  0.20801889295E-02  0.17789565459E-02  0.14718888408E-02  0.17130000003E+03  0.17130000000E+03 0. -1.
      622    1    1    2    0    0 -0.36749209861E-02 -0.54291532177E-02  0.39590490331E+01  0.39603171877E+01  0.10000000000E+00 0. -1.
</event>
<event>
 5   0  0.6262544E+06  0.9118800E+02  0.7818608E-02  0.1180000E+00
       11   -1    0    0    0    0  0.00000000000E+00  0.00000000000E+00  0.39999999673E+01  0.40000000000E+01  0.51109989000E-03 0. -1.
     -623   -1    0    0    0    0  0.00000000000E+00  0.00000000000E+00  0.12525980253E-10  0.17130000000E+03  0.17130000000E+03 0. -1.
       11    1    1    2    0    0  0.10279755958E-02  0.29682890295E-02  0.13299034074E-01  0.13674538530E-01  0.51109989000E-03 0. -1.
     -623    1    1    2    0    0  0.27722433540E-03 -0.88288985199E-03  0.16307268125E-02  0.17130000001E+03  0.17130000000E+03 0. -1.
      622    1    1    2    0    0 -0.13051999312E-02 -0.20853991775E-02  0.39850702065E+01  0.39863254512E+01  0.10000000000E+00 0. -1.
</event>
<event>
 5   0  0.6262544E+06  0.9118800E+02  0.7818608E-02  0.1180000E+00
       11   -1    0    0    0    0  0.00000000000E+00  0.00000000000E+00  0.39999999673E+01  0.40000000000E+01  0.51109989000E-03 0.  1.
     -623   -1    0    0    0    0  0.00000000000E+00  0.00000000000E+00  0.12525980253E-10  0.17130000000E+03  0.17130000000E+03 0. -1.
       11    1    1    2    0    0 -0.26293830343E-02 -0.34697189463E-02  0.18038402708E-01  0.18563345540E-01  0.51109989000E-03 0.  1.
     -623    1    1    2    0    0  0.10592906387E-02  0.13833679894E-02  0.17818110384E-02  0.17130000002E+03  0.17130000000E+03 0. -1.
      622    1    1    2    0    0  0.15700923956E-02  0.20863509569E-02  0.39801797536E+01  0.39814366363E+01  0.10000000000E+00 0.  1.
</event>
<event>
 5   0  0.6262544E+06  0.9118800E+02  0.7818608E-02  0.1180000E+00
       11   -1    0    0    0    0  0.00000000000E+00  0.00000000000E+00  0.39999999673E+01  0.40000000000E+01  0.51109989000E-03 0.  1.
     -623   -1    0    0    0    0  0.00000000000E+00  0.00000000000E+00  0.12525980253E-10  0.17130000000E+03  0.17130000000E+03 0. -1.
       11    1    1    2    0    0  0.16297557339E-02 -0.85670503112E-03  0.71910944588E-02  0.74406389325E-02  0.51109989000E-03 0.  1.
     -623    1    1    2    0    0 -0.21246031002E-02  0.45414604525E-02  0.15038493882E-02  0.17130000008E+03  0.17130000000E+03 0. -1.
      622    1    1    2    0    0  0.49484736624E-03 -0.36847554213E-02  0.39913050235E+01  0.39925592811E+01  0.10000000000E+00 0.  1.
</event>
<event>
 5   0  0.6262544E+06  0.9118800E+02  0.7818608E-02  0.1180000E+00
       11   -1    0    0    0    0  0.00000000000E+00  0.00000000000E+00  0.39999999673E+01  0.40000000000E+01  0.51109989000E-03 0.  1.
     -623   -1    0    0    0    0  0.00000000000E+00  0.00000000000E+00  0.12525980253E-10  0.17130000000E+03  0.17130000000E+03 0. -1.
       11    1    1    2    0    0 -0.48835762774E-01  0.60956230517E-01  0.41824790702E+00  0.42547875002E+00  0.51109989000E-03 0.  1.
     -623    1    1    2    0    0  0.23680524769E-02  0.91552037427E-02  0.96205526947E-02  0.17130000053E+03  0.17130000000E+03 0. -1.
      622    1    1    2    0    0  0.46467710297E-01 -0.70111434260E-01  0.35721315076E+01  0.35745207188E+01  0.10000000000E+00 0.  1.
</event>
<event>
 5   0  0.6262544E+06  0.9118800E+02  0.7818608E-02  0.1180000E+00
       11   -1    0    0    0    0  0.00000000000E+00  0.00000000000E+00  0.39999999673E+01  0.40000000000E+01  0.51109989000E-03 0.  1.
     -623   -1    0    0    0    0  0.00000000000E+00  0.00000000000E+00  0.12525980253E-10  0.17130000000E+03  0.17130000000E+03 0.  1.
       11    1    1    2    0    0  0.14223802388E-01  0.63438834333E-02  0.82626974274E-01  0.84083526996E-01  0.51109989000E-03 0.  1.
     -623    1    1    2    0    0 -0.13081997758E-01  0.43723863550E-02  0.27489805689E-02  0.17130000058E+03  0.17130000000E+03 0.  1.
      622    1    1    2    0    0 -0.11418046294E-02 -0.10716269788E-01  0.39146240127E+01  0.39159158957E+01  0.10000000000E+00 0.  1.
</event>
<event>
 5   0  0.6262544E+06  0.9118800E+02  0.7818608E-02  0.1180000E+00
       11   -1    0    0    0    0  0.00000000000E+00  0.00000000000E+00  0.39999999673E+01  0.40000000000E+01  0.51109989000E-03 0.  1.
     -623   -1    0    0    0    0  0.00000000000E+00  0.00000000000E+00  0.12525980253E-10  0.17130000000E+03  0.17130000000E+03 0.  1.
       11    1    1    2    0    0 -0.18825418643E-01  0.94618249096E-02  0.75917855791E+00  0.75947104391E+00  0.51109989000E-03 0.  1.
     -623    1    1    2    0    0 -0.23148035099E-02  0.23725407268E-03  0.19193173754E-02  0.17130000003E+03  0.17130000000E+03 0.  1.
      622    1    1    2    0    0  0.21140222153E-01 -0.96990789823E-02  0.32389020921E+01  0.32405289295E+01  0.10000000000E+00 0.  1.
</event>
<event>
 5   0  0.6262544E+06  0.9118800E+02  0.7818608E-02  0.1180000E+00
       11   -1    0    0    0    0  0.00000000000E+00  0.00000000000E+00  0.39999999673E+01  0.40000000000E+01  0.51109989000E-03 0. -1.
     -623   -1    0    0    0    0  0.00000000000E+00  0.00000000000E+00  0.12525980253E-10  0.17130000000E+03  0.17130000000E+03 0. -1.
       11    1    1    2    0    0 -0.27614532298E-02  0.28086191333E-02  0.20786313695E+00  0.20790107958E+00  0.51109989000E-03 0. -1.
     -623    1    1    2    0    0 -0.59447857590E-03 -0.56614296091E-02  0.13593292650E-02  0.17130000010E+03  0.17130000000E+03 0. -1.
      622    1    1    2    0    0  0.33559318057E-02  0.28528104758E-02  0.37907775011E+01  0.37920988204E+01  0.10000000000E+00 0. -1.
</event>
<event>
 5   0  0.6262544E+06  0.9118800E+02  0.7818608E-02  0.1180000E+00
       11   -1    0    0    0    0  0.00000000000E+00  0.00000000000E+00  0.39999999673E+01  0.40000000000E+01  0.51109989000E-03 0.  1.
     -623   -1    0    0    0    0  0.00000000000E+00  0.00000000000E+00  0.12525980253E-10  0.17130000000E+03  0.17130000000E+03 0. -1.
       11    1    1    2    0    0  0.47673157195E-01  0.22067437390E-01  0.98984204495E-01  0.11206174937E+00  0.51109989000E-03 0.  1.
     -623    1    1    2    0    0 -0.23889683328E-01 -0.15659778523E-03  0.14500565943E-01  0.17130000228E+03  0.17130000000E+03 0. -1.
      622    1    1    2    0    0 -0.23783473867E-01 -0.21910839605E-01  0.38865151969E+01  0.38879359710E+01  0.10000000000E+00 0.  1.
</event>
<event>
 5   0  0.6262544E+06  0.9118800E+02  0.7818608E-02  0.1180000E+00
       11   -1    0    0    0    0  0.00000000000E+00  0.00000000000E+00  0.39999999673E+01  0.40000000000E+01  0.51109989000E-03 0.  1.
     -623   -1    0    0    0    0  0.00000000000E+00  0.00000000000E+00  0.12525980253E-10  0.17130000000E+03  0.17130000000E+03 0. -1.
       11    1    1    2    0    0  0.42063608790E-02  0.17621836325E-01  0.39317033504E+00  0.39358785063E+00  0.51109989000E-03 0.  1.
     -623    1    1    2    0    0  0.21792057897E-02 -0.52544368122E-02  0.18311425485E-02  0.17130000010E+03  0.17130000000E+03 0. -1.
      622    1    1    2    0    0 -0.63855666688E-02 -0.12367399513E-01  0.36049984898E+01  0.36064120451E+01  0.10000000000E+00 0.  1.
</event>
<event>
 5   0  0.6262544E+06  0.9118800E+02  0.7818608E-02  0.1180000E+00
       11   -1    0    0    0    0  0.00000000000E+00  0.00000000000E+00  0.39999999673E+01  0.40000000000E+01  0.51109989000E-03 0.  1.
     -623   -1    0    0    0    0  0.00000000000E+00  0.00000000000E+00  0.12525980253E-10  0.17130000000E+03  0.17130000000E+03 0. -1.
       11    1    1    2    0    0 -0.20810102632E-02 -0.59060006203E-02  0.35977222477E+00  0.35982707845E+00  0.51109989000E-03 0.  1.
     -623    1    1    2    0    0 -0.38754954695E-02 -0.16722750854E-02  0.14414661193E-02  0.17130000006E+03  0.17130000000E+03 0. -1.
      622    1    1    2    0    0  0.59565057326E-02  0.75782757057E-02  0.36387862765E+01  0.36401728635E+01  0.10000000000E+00 0.  1.
</event>
<event>
 5   0  0.6262544E+06  0.9118800E+02  0.7818608E-02  0.1180000E+00
       11   -1    0    0    0    0  0.00000000000E+00  0.00000000000E+00  0.39999999673E+01  0.40000000000E+01  0.51109989000E-03 0.  1.
     -623   -1    0    0    0    0  0.00000000000E+00  0.00000000000E+00  0.12525980253E-10  0.17130000000E+03  0.17130000000E+03 0.  1.
       11    1    1    2    0    0  0.36113641711E-01  0.24502234641E-01  0.74482659482E+00  0.74610419661E+00  0.51109989000E-03 0.  1.
     -623    1    1    2    0    0 -0.10322927382E-01 -0.17689355450E-01  0.29251974373E-02  0.17130000125E+03  0.17130000000E+03 0.  1.
      622    1    1    2    0    0 -0.25790714328E-01 -0.68128791907E-02  0.32522481752E+01  0.32538945541E+01  0.10000000000E+00 0.  1.
</event>
<event>
 5   0  0.6262544E+06  0.9118800E+02  0.7818608E-02  0.1180000E+00
       11   -1    0    0    0    0  0.00000000000E+00  0.00000000000E+00  0.39999999673E+01  0.40000000000E+01  0.51109989000E-03 0. -1.
     -623   -1    0    0    0    0  0.00000000000E+00  0.00000000000E+00  0.12525980253E-10  0.17130000000E+03  0.17130000000E+03 0. -1.
       11    1    1    2    0    0  0.60849394456E-02 -0.15779828611E-01  0.12725227031E+01  0.12726351875E+01  0.51109989000E-03 0. -1.
     -623    1    1    2    0    0 -0.64087770309E-02 -0.13103158042E-02  0.20000771805E-02  0.17130000014E+03  0.17130000000E+03 0. -1.
      622    1    1    2    0    0  0.32383758539E-03  0.17090144415E-01  0.27254771871E+01  0.27273646759E+01  0.10000000000E+00 0. -1.
</event>
<event>
 5   0  0.6262544E+06  0.9118800E+02  0.7818608E-02  0.1180000E+00
       11   -1    0    0    0    0  0.00000000000E+00  0.00000000000E+00  0.39999999673E+01  0.40000000000E+01  0.51109989000E-03 0.  1.
     -623   -1    0    0    0    0  0.00000000000E+00  0.00000000000E+00  0.12525980253E-10  0.17130000000E+03  0.17130000000E+03 0.  1.
       11    1    1    2    0    0  0.30522873081E-01 -0.41584085134E-01  0.12456684203E+01  0.12467361214E+01  0.51109989000E-03 0.  1.
     -623    1    1    2    0    0  0.12102505425E-01  0.12857668435E-01  0.33654146302E-02  0.17130000094E+03  0.17130000000E+03 0.  1.
      622    1    1    2    0    0 -0.42625378506E-01  0.28726416699E-01  0.27509661324E+01  0.27532629354E+01  0.10000000000E+00 0.  1.
</event>
<event>
 5   0  0.6262544E+06  0.9118800E+02  0.7818608E-02  0.1180000E+00
       11   -1    0    0    0    0  0.00000000000E+00  0.00000000000E+00  0.39999999673E+01  0.40000000000E+01  0.51109989000E-03 0. -1.
     -623   -1    0    0    0    0  0.00000000000E+00  0.00000000000E+00  0.12525980253E-10  0.17130000000E+03  0.17130000000E+03 0. -1.
       11    1    1    2    0    0  0.63443761607E-02 -0.44325832591E-02  0.10684610658E+00  0.10712726364E+00  0.51109989000E-03 0. -1.
     -623    1    1    2    0    0  0.52461554437E-03  0.20000120904E-02  0.15725770747E-02  0.17130000002E+03  0.17130000000E+03 0. -1.
      622    1    1    2    0    0 -0.68689917050E-02  0.24325711686E-02  0.38915812837E+01  0.38928727167E+01  0.10000000000E+00 0. -1.
</event>
<event>
 5   0  0.6262544E+06  0.9118800E+02  0.7818608E-02  0.1180000E+00
       11   -1    0    0    0    0  0.00000000000E+00  0.00000000000E+00  0.39999999673E+01  0.40000000000E+01  0.51109989000E-03 0.  1.
     -623   -1    0    0    0    0  0.00000000000E+00  0.00000000000E+00  0.12525980253E-10  0.17130000000E+03  0.17130000000E+03 0.  1.
       11    1    1    2    0    0 -0.14841555563E-01 -0.11036687300E-01  0.41501195070E+00  0.41542419367E+00  0.51109989000E-03 0.  1.
     -623    1    1    2    0    0 -0.20552205864E-02  0.22597351153E-01  0.18673496328E-02  0.17130000151E+03  0.17130000000E+03 0.  1.
      622    1    1    2    0    0  0.16896776149E-01 -0.11560663854E-01  0.35831206673E+01  0.35845742936E+01  0.10000000000E+00 0.  1.
</event>
<event>
 5   0  0.6262544E+06  0.9118800E+02  0.7818608E-02  0.1180000E+00
       11   -1    0    0    0    0  0.00000000000E+00  0.00000000000E+00  0.39999999673E+01  0.40000000000E+01  0.51109989000E-03 0. -1.
     -623   -1    0    0    0    0  0.00000000000E+00  0.00000000000E+00  0.12525980253E-10  0.17130000000E+03  0.17130000000E+03 0. -1.
       11    1    1    2    0    0 -0.12943235708E-01  0.19876028712E-01  0.20860713887E+00  0.20995185990E+00  0.51109989000E-03 0. -1.
     -623    1    1    2    0    0 -0.25747277225E-01  0.15428019595E-02  0.29242364367E-02  0.17130000197E+03  0.17130000000E+03 0. -1.
      622    1    1    2    0    0  0.38690512933E-01 -0.21418830671E-01  0.37884685922E+01  0.37900461734E+01  0.10000000000E+00 0. -1.
</event>
<event>
 5   0  0.6262544E+06  0.9118800E+02  0.7818608E-02  0.1180000E+00
       11   -1    0    0    0    0  0.00000000000E+00  0.00000000000E+00  0.39999999673E+01  0.40000000000E+01  0.51109989000E-03 0. -1.
     -623   -1    0    0    0    0  0.00000000000E+00  0.00000000000E+00  0.12525980253E-10  0.17130000000E+03  0.17130000000E+03 0.  1.
       11    1    1    2    0    0  0.31433833452E-02 -0.11292998757E-01  0.11408705097E+00  0.11468883599E+00  0.51109989000E-03 0. -1.
     -623    1    1    2    0    0 -0.35580497545E-02  0.19426059130E-01  0.18985505052E-02  0.17130000115E+03  0.17130000000E+03 0.  1.
      622    1    1    2    0    0  0.41466640932E-03 -0.81330603728E-02  0.38840143659E+01  0.38853100150E+01  0.10000000000E+00 0. -1.
</event>
<event>
 5   0  0.6262544E+06  0.9118800E+02  0.7818608E-02  0.1180000E+00
       11   -1    0    0    0    0  0.00000000000E+00  0.00000000000E+00  0.39999999673E+01  0.40000000000E+01  0.51109989000E-03 0.  1.
     -623   -1    0    0    0    0  0.00000000000E+00  0.00000000000E+00  0.12525980253E-10  0.17130000000E+03  0.17130000000E+03 0.  1.
       11    1    1    2    0    0 -0.25796869672E-01  0.17179577965E-01  0.98414844676E+00  0.98463650291E+00  0.51109989000E-03 0.  1.
     -623    1    1    2    0    0  0.46377843406E-02 -0.41413217626E-02  0.22492663226E-02  0.17130000013E+03  0.17130000000E+03 0.  1.
      622    1    1    2    0    0  0.21159085331E-01 -0.13038256202E-01  0.30136022543E+01  0.30153633695E+01  0.10000000000E+00 0.  0.
</event>
<event>
 5   0  0.6262544E+06  0.9118800E+02  0.7818608E-02  0.1180000E+00
       11   -1    0    0    0    0  0.00000000000E+00  0.00000000000E+00  0.39999999673E+01  0.40000000000E+01  0.51109989000E-03 0.  1.
     -623   -1    0    0    0    0  0.00000000000E+00  0.00000000000E+00  0.12525980253E-10  0.17130000000E+03  0.17130000000E+03 0.  1.
       11    1    1    2    0    0 -0.47437136634E-01  0.51237202099E-01  0.18437183647E+01  0.18450401628E+01  0.51109989000E-03 0.  1.
     -623    1    1    2    0    0 -0.28390404211E-02  0.68731854629E-02  0.50153763002E-02  0.17130000023E+03  0.17130000000E+03 0.  1.
      622    1    1    2    0    0  0.50276177055E-01 -0.58110387562E-01  0.21512662264E+01  0.21549596024E+01  0.10000000000E+00 0.  0.
</event>
<event>
 5   0  0.6262544E+06  0.9118800E+02  0.7818608E-02  0.1180000E+00
       11   -1    0    0    0    0  0.00000000000E+00  0.00000000000E+00  0.39999999673E+01  0.40000000000E+01  0.51109989000E-03 0.  1.
     -623   -1    0    0    0    0  0.00000000000E+00  0.00000000000E+00  0.12525980253E-10  0.17130000000E+03  0.17130000000E+03 0. -1.
       11    1    1    2    0    0 -0.33756160947E-03 -0.76448822877E-02  0.28903271763E-01  0.29903486621E-01  0.51109989000E-03 0.  1.
     -623    1    1    2    0    0 -0.33581591912E-02  0.12196373833E-02  0.22667712374E-02  0.17130000005E+03  0.17130000000E+03 0. -1.
      622    1    1    2    0    0  0.36957208007E-02  0.64252449045E-02  0.39688299244E+01  0.39700964611E+01  0.10000000000E+00 0.  1.
</event>
<event>
 5   0  0.6262544E+06  0.9118800E+02  0.7818608E-02  0.1180000E+00
       11   -1    0    0    0    0  0.00000000000E+00  0.00000000000E+00  0.39999999673E+01  0.40000000000E+01  0.51109989000E-03 0. -1.
     -623   -1    0    0    0    0  0.00000000000E+00  0.00000000000E+00  0.12525980253E-10  0.17130000000E+03  0.17130000000E+03 0.  1.
       11    1    1    2    0    0  0.13428617043E-01  0.33969407383E-01  0.13759608748E+01  0.13764457268E+01  0.51109989000E-03 0. -1.
     -623    1    1    2    0    0 -0.45900867305E-02  0.23660400689E-01  0.30414442890E-02  0.17130000172E+03  0.17130000000E+03 0.  1.
      622    1    1    2    0    0 -0.88385303128E-02 -0.57629808072E-01  0.26209976482E+01  0.26235525507E+01  0.10000000000E+00 0.  0.
</event>
<event>
 5   0  0.6262544E+06  0.9118800E+02  0.7818608E-02  0.1180000E+00
       11   -1    0    0    0    0  0.00000000000E+00  0.00000000000E+00  0.39999999673E+01  0.40000000000E+01  0.51109989000E-03 0. -1.
     -623   -1    0    0    0    0  0.00000000000E+00  0.00000000000E+00  0.12525980253E-10  0.17130000000E+03  0.17130000000E+03 0.  1.
       11    1    1    2    0    0  0.21736921210E-01  0.40831978844E-02  0.78270867743E+00  0.78302126484E+00  0.51109989000E-03 0. -1.
     -623    1    1    2    0    0 -0.16824475496E-01 -0.28659333996E-01  0.19680946106E-02  0.17130000323E+03  0.17130000000E+03 0.  1.
      622    1    1    2    0    0 -0.49124457136E-02  0.24576136111E-01  0.32153231953E+01  0.32169755002E+01  0.10000000000E+00 0. -1.
</event>
<event>
 5   0  0.6262544E+06  0.9118800E+02  0.7818608E-02  0.1180000E+00
       11   -1    0    0    0    0  0.00000000000E+00  0.00000000000E+00  0.39999999673E+01  0.40000000000E+01  0.51109989000E-03 0.  1.
     -623   -1    0    0    0    0  0.00000000000E+00  0.00000000000E+00  0.12525980253E-10  0.17130000000E+03  0.17130000000E+03 0. -1.
       11    1    1    2    0    0 -0.74233264787E-01 -0.46706038432E-03  0.32701422532E+01  0.32709847773E+01  0.51109989000E-03 0.  1.
     -623    1    1    2    0    0 -0.19090786160E-01  0.19708604542E-01  0.14050802240E-01  0.17130000277E+03  0.17130000000E+03 0. -1.
      622    1    1    2    0    0  0.93324050947E-01 -0.19241544158E-01  0.71580691188E+00  0.72901244886E+00  0.10000000000E+00 0. -1.
</event>
<event>
 5   0  0.6262544E+06  0.9118800E+02  0.7818608E-02  0.1180000E+00
       11   -1    0    0    0    0  0.00000000000E+00  0.00000000000E+00  0.39999999673E+01  0.40000000000E+01  0.51109989000E-03 0.  1.
     -623   -1    0    0    0    0  0.00000000000E+00  0.00000000000E+00  0.12525980253E-10  0.17130000000E+03  0.17130000000E+03 0. -1.
       11    1    1    2    0    0 -0.41851120145E-02  0.56446720776E-02  0.24887330185E-01  0.25865380557E-01  0.51109989000E-03 0.  1.
     -623    1    1    2    0    0 -0.50946849303E-03 -0.65601558823E-02  0.22393727134E-02  0.17130000014E+03  0.17130000000E+03 0. -1.
      622    1    1    2    0    0  0.46945805075E-02  0.91548380462E-03  0.39728732645E+01  0.39741344784E+01  0.10000000000E+00 0.  1.
</event>
<event>
 5   0  0.6262544E+06  0.9118800E+02  0.7818608E-02  0.1180000E+00
       11   -1    0    0    0    0  0.00000000000E+00  0.00000000000E+00  0.39999999673E+01  0.40000000000E+01  0.51109989000E-03 0.  1.
     -623   -1    0    0    0    0  0.00000000000E+00  0.00000000000E+00  0.12525980253E-10  0.17130000000E+03  0.17130000000E+03 0.  1.
       11    1    1    2    0    0  0.22443675306E-01 -0.16036104240E-01  0.50716504927E+00  0.50791487832E+00  0.51109989000E-03 0.  1.
     -623    1    1    2    0    0 -0.41165795763E-01  0.16560766885E-01  0.22379111711E-02  0.17130000576E+03  0.17130000000E+03 0.  1.
      622    1    1    2    0    0  0.18722120457E-01 -0.52466264521E-03  0.34905970069E+01  0.34920793602E+01  0.10000000000E+00 0.  1.
</event>
<event>
 5   0  0.6262544E+06  0.9118800E+02  0.7818608E-02  0.1180000E+00
       11   -1    0    0    0    0  0.00000000000E+00  0.00000000000E+00  0.39999999673E+01  0.40000000000E+01  0.51109989000E-03 0.  1.
     -623   -1    0    0    0    0  0.00000000000E+00  0.00000000000E+00  0.12525980253E-10  0.17130000000E+03  0.17130000000E+03 0. -1.
       11    1    1    2    0    0 -0.42370854510E-01 -0.32558263322E-01  0.15632969377E+00  0.16521066611E+00  0.51109989000E-03 0.  1.
     -623    1    1    2    0    0 -0.45570215246E-02  0.29158588091E-01  0.10476631663E-01  0.17130000286E+03  0.17130000000E+03 0. -1.
      622    1    1    2    0    0  0.46927876034E-01  0.33996752314E-02  0.38331936419E+01  0.38347864712E+01  0.10000000000E+00 0.  1.
</event>
<event>
 5   0  0.6262544E+06  0.9118800E+02  0.7818608E-02  0.1180000E+00
       11   -1    0    0    0    0  0.00000000000E+00  0.00000000000E+00  0.39999999673E+01  0.40000000000E+01  0.51109989000E-03 0. -1.
     -623   -1    0    0    0    0  0.00000000000E+00  0.00000000000E+00  0.12525980253E-10  0.17130000000E+03  0.17130000000E+03 0. -1.
       11    1    1    2    0    0 -0.84030321932E-01  0.10157460428E-01  0.18687694277E+01  0.18706853568E+01  0.51109989000E-03 0. -1.
     -623    1    1    2    0    0 -0.83512650911E-02 -0.62031104230E-02  0.62766530282E-02  0.17130000043E+03  0.17130000000E+03 0. -1.
      622    1    1    2    0    0  0.92381587023E-01 -0.39543500051E-02  0.21249538866E+01  0.21293142123E+01  0.10000000000E+00 0.  0.
</event>
<event>
 5   0  0.6262544E+06  0.9118800E+02  0.7818608E-02  0.1180000E+00
       11   -1    0    0    0    0  0.00000000000E+00  0.00000000000E+00  0.39999999673E+01  0.40000000000E+01  0.51109989000E-03 0. -1.
     -623   -1    0    0    0    0  0.00000000000E+00  0.00000000000E+00  0.12525980253E-10  0.17130000000E+03  0.17130000000E+03 0. -1.
       11    1    1    2    0    0 -0.13830428611E-01  0.19202630116E-01  0.14179632856E+00  0.14375841463E+00  0.51109989000E-03 0. -1.
     -623    1    1    2    0    0 -0.43670616343E-01 -0.47669762214E-01  0.38051120228E-02  0.17130001224E+03  0.17130000000E+03 0. -1.
      622    1    1    2    0    0  0.57501044955E-01  0.28467132098E-01  0.38543985268E+01  0.38562293437E+01  0.10000000000E+00 0. -1.
</event>
<event>
 5   0  0.6262544E+06  0.9118800E+02  0.7818608E-02  0.1180000E+00
       11   -1    0    0    0    0  0.00000000000E+00  0.00000000000E+00  0.39999999673E+01  0.40000000000E+01  0.51109989000E-03 0. -1.
     -623   -1    0    0    0    0  0.00000000000E+00  0.00000000000E+00  0.12525980253E-10  0.17130000000E+03  0.17130000000E+03 0. -1.
       11    1    1    2    0    0  0.39198349487E-02  0.39267236810E-02  0.25881554785E+00  0.25887551699E+00  0.51109989000E-03 0. -1.
     -623    1    1    2    0    0 -0.74280107177E-03 -0.20894605823E-02  0.13984927242E-02  0.17130000002E+03  0.17130000000E+03 0. -1.
      622    1    1    2    0    0 -0.31770338770E-02 -0.18372630987E-02  0.37397859267E+01  0.37411244629E+01  0.10000000000E+00 0. -1.
</event>
<event>
 5   0  0.6262544E+06  0.9118800E+02  0.7818608E-02  0.1180000E+00
       11   -1    0    0    0    0  0.00000000000E+00  0.00000000000E+00  0.39999999673E+01  0.40000000000E+01  0.51109989000E-03 0.  1.
     -623   -1    0    0    0    0  0.00000000000E+00  0.00000000000E+00  0.12525980253E-10  0.17130000000E+03  0.17130000000E+03 0. -1.
       11    1    1    2    0    0  0.21400091589E-01  0.32402434856E-01  0.21847420232E+00  0.22189889591E+00  0.51109989000E-03 0.  1.
     -623    1    1    2    0    0 -0.20065186053E-01 -0.50307850908E-01  0.47996220267E-02  0.17130000863E+03  0.17130000000E+03 0. -1.
      622    1    1    2    0    0 -0.13349055365E-02  0.17905416052E-01  0.37767261430E+01  0.37780924744E+01  0.10000000000E+00 0.  1.
</event>
<event>
 5   0  0.6262544E+06  0.9118800E+02  0.7818608E-02  0.1180000E+00
       11   -1    0    0    0    0  0.00000000000E+00  0.00000000000E+00  0.39999999673E+01  0.40000000000E+01  0.51109989000E-03 0.  1.
     -623   -1    0    0    0    0  0.00000000000E+00  0.00000000000E+00  0.12525980253E-10  0.17130000000E+03  0.17130000000E+03 0. -1.
       11    1    1    2    0    0 -0.10678560350E-01 -0.20353379134E-01  0.72889860477E+00  0.72926108422E+00  0.51109989000E-03 0.  1.
     -623    1    1    2    0    0 -0.22604165996E-02  0.43621885886E-03  0.19778150707E-02  0.17130000003E+03  0.17130000000E+03 0. -1.
      622    1    1    2    0    0  0.12938976949E-01  0.19917160276E-01  0.32691235477E+01  0.32707388890E+01  0.10000000000E+00 0. -1.
</event>
<event>
 5   0  0.6262544E+06  0.9118800E+02  0.7818608E-02  0.1180000E+00
       11   -1    0    0    0    0  0.00000000000E+00  0.00000000000E+00  0.39999999673E+01  0.40000000000E+01  0.51109989000E-03 0. -1.
     -623   -1    0    0    0    0  0.00000000000E+00  0.00000000000E+00  0.12525980253E-10  0.17130000000E+03  0.17130000000E+03 0. -1.
       11    1    1    2    0    0 -0.79001505366E-02 -0.11113537312E-02  0.29960829404E-01  0.31009031060E-01  0.51109989000E-03 0. -1.
     -623    1    1    2    0    0 -0.63981462524E-02 -0.15571537532E-01  0.23698152031E-02  0.17130000084E+03  0.17130000000E+03 0. -1.
      622    1    1    2    0    0  0.14298296789E-01  0.16682891263E-01  0.39676693227E+01  0.39689901252E+01  0.10000000000E+00 0. -1.
</event>
<event>
 5   0  0.6262544E+06  0.9118800E+02  0.7818608E-02  0.1180000E+00
       11   -1    0    0    0    0  0.00000000000E+00  0.00000000000E+00  0.39999999673E+01  0.40000000000E+01  0.51109989000E-03 0. -1.
     -623   -1    0    0    0    0  0.00000000000E+00  0.00000000000E+00  0.12525980253E-10  0.17130000000E+03  0.17130000000E+03 0. -1.
       11    1    1    2    0    0 -0.39453536874E-02 -0.48271717083E-02  0.55283145272E-01  0.55635912639E-01  0.51109989000E-03 0. -1.
     -623    1    1    2    0    0  0.23851962715E-01  0.19865997204E-01  0.17023204315E-02  0.17130000282E+03  0.17130000000E+03 0. -1.
      622    1    1    2    0    0 -0.19906609027E-01 -0.15038825496E-01  0.39430145017E+01  0.39443612664E+01  0.10000000000E+00 0. -1.
</event>
<event>
 5   0  0.6262544E+06  0.9118800E+02  0.7818608E-02  0.1180000E+00
       11   -1    0    0    0    0  0.00000000000E+00  0.00000000000E+00  0.39999999673E+01  0.40000000000E+01  0.51109989000E-03 0. -1.
     -623   -1    0    0    0    0  0.00000000000E+00  0.00000000000E+00  0.12525980253E-10  0.17130000000E+03  0.17130000000E+03 0.  1.
       11    1    1    2    0    0  0.13753368521E-01  0.52101214569E-02  0.30160042385E+00  0.30195923135E+00  0.51109989000E-03 0. -1.
     -623    1    1    2    0    0 -0.76689193450E-02 -0.13959658218E-02  0.17182504041E-02  0.17130000019E+03  0.17130000000E+03 0.  1.
      622    1    1    2    0    0 -0.60844491766E-02 -0.38141556352E-02  0.36966812930E+01  0.36980405826E+01  0.10000000000E+00 0. -1.
</event>
<event>
 5   0  0.6262544E+06  0.9118800E+02  0.7818608E-02  0.1180000E+00
       11   -1    0    0    0    0  0.00000000000E+00  0.00000000000E+00  0.39999999673E+01  0.40000000000E+01  0.51109989000E-03 0.  1.
     -623   -1    0    0    0    0  0.00000000000E+00  0.00000000000E+00  0.12525980253E-10  0.17130000000E+03  0.17130000000E+03 0. -1.
       11    1    1    2    0    0  0.49015356465E-01  0.14855403147E-01  0.11953950301E+01  0.11964918417E+01  0.51109989000E-03 0.  1.
     -623    1    1    2    0    0 -0.89408979036E-01  0.29642581515E-02  0.32521101199E-02  0.17130002339E+03  0.17130000000E+03 0. -1.
      622    1    1    2    0    0  0.40393622571E-01 -0.17819661299E-01  0.28013528272E+01  0.28034847685E+01  0.10000000000E+00 0.  1.
</event>
<event>
 5   0  0.6262544E+06  0.9118800E+02  0.7818608E-02  0.1180000E+00
       11   -1    0    0    0    0  0.00000000000E+00  0.00000000000E+00  0.39999999673E+01  0.40000000000E+01  0.51109989000E-03 0. -1.
     -623   -1    0    0    0    0  0.00000000000E+00  0.00000000000E+00  0.12525980253E-10  0.17130000000E+03  0.17130000000E+03 0. -1.
       11    1    1    2    0    0 -0.44339525426E-02  0.45481544950E-02  0.40811975594E-02  0.75672346305E-02  0.51109989000E-03 0. -1.
     -623    1    1    2    0    0 -0.33056766532E-02 -0.25631545903E-02  0.47466849379E-02  0.17130000012E+03  0.17130000000E+03 0. -1.
      622    1    1    2    0    0  0.77396291958E-02 -0.19849999047E-02  0.39911720849E+01  0.39924326485E+01  0.10000000000E+00 0. -1.
</event>
<event>
 5   0  0.6262544E+06  0.9118800E+02  0.7818608E-02  0.1180000E+00
       11   -1    0    0    0    0  0.00000000000E+00  0.00000000000E+00  0.39999999673E+01  0.40000000000E+01  0.51109989000E-03 0.  1.
     -623   -1    0    0    0    0  0.00000000000E+00  0.00000000000E+00  0.12525980253E-10  0.17130000000E+03  0.17130000000E+03 0. -1.
       11    1    1    2    0    0  0.99637576946E-03  0.47894600417E-02  0.43084060247E-02  0.65387517640E-02  0.51109989000E-03 0.  1.
     -623    1    1    2    0    0 -0.50238442011E-02 -0.62377197201E-02  0.34850731145E-02  0.17130000022E+03  0.17130000000E+03 0. -1.
      622    1    1    2    0    0  0.40274684317E-02  0.14482596784E-02  0.39922064882E+01  0.39934610255E+01  0.10000000000E+00 0.  1.
</event>
<event>
 5   0  0.6262544E+06  0.9118800E+02  0.7818608E-02  0.1180000E+00
       11   -1    0    0    0    0  0.00000000000E+00  0.00000000000E+00  0.39999999673E+01  0.40000000000E+01  0.51109989000E-03 0. -1.
     -623   -1    0    0    0    0  0.00000000000E+00  0.00000000000E+00  0.12525980253E-10  0.17130000000E+03  0.17130000000E+03 0. -1.
       11    1    1    2    0    0  0.61734613749E-02 -0.26536305534E-01  0.27214317664E+00  0.27350403461E+00  0.51109989000E-03 0. -1.
     -623    1    1    2    0    0  0.35035121751E-02  0.11848977361E-02  0.28017073651E-02  0.17130000006E+03  0.17130000000E+03 0. -1.
      622    1    1    2    0    0 -0.96769735500E-02  0.25351407798E-01  0.37250550834E+01  0.37264959026E+01  0.10000000000E+00 0. -1.
</event>
<event>
 5   0  0.6262544E+06  0.9118800E+02  0.7818608E-02  0.1180000E+00
       11   -1    0    0    0    0  0.00000000000E+00  0.00000000000E+00  0.39999999673E+01  0.40000000000E+01  0.51109989000E-03 0. -1.
     -623   -1    0    0    0    0  0.00000000000E+00  0.00000000000E+00  0.12525980253E-10  0.17130000000E+03  0.17130000000E+03 0.  1.
       11    1    1    2    0    0 -0.78188489024E-02 -0.30987184868E-01  0.35826019352E+00  0.35968314877E+00  0.51109989000E-03 0. -1.
     -623    1    1    2    0    0 -0.10567200357E-01  0.84814988237E-02  0.29132950762E-02  0.17130000056E+03  0.17130000000E+03 0.  1.
      622    1    1    2    0    0  0.18386049259E-01  0.22505686045E-01  0.36388264788E+01  0.36403162905E+01  0.10000000000E+00 0. -1.
</event>
<event>
 5   0  0.6262544E+06  0.9118800E+02  0.7818608E-02  0.1180000E+00
       11   -1    0    0    0    0  0.00000000000E+00  0.00000000000E+00  0.39999999673E+01  0.40000000000E+01  0.51109989000E-03 0. -1.
     -623   -1    0    0    0    0  0.00000000000E+00  0.00000000000E+00  0.12525980253E-10  0.17130000000E+03  0.17130000000E+03 0.  1.
       11    1    1    2    0    0 -0.14541474930E-03  0.16964094106E-02  0.57630590263E-02  0.60310051216E-02  0.51109989000E-03 0. -1.
     -623    1    1    2    0    0 -0.17377476954E-02 -0.19435899432E-02  0.15204755943E-02  0.17130000003E+03  0.17130000000E+03 0.  1.
      622    1    1    2    0    0  0.18831624447E-02  0.24718053268E-03  0.39927164328E+01  0.39939689684E+01  0.10000000000E+00 0. -1.
</event>
<event>
 5   0  0.6262544E+06  0.9118800E+02  0.7818608E-02  0.1180000E+00
       11   -1    0    0    0    0  0.00000000000E+00  0.00000000000E+00  0.39999999673E+01  0.40000000000E+01  0.51109989000E-03 0. -1.
     -623   -1    0    0    0    0  0.00000000000E+00  0.00000000000E+00  0.12525980253E-10  0.17130000000E+03  0.17130000000E+03 0. -1.
       11    1    1    2    0    0  0.31750709350E-02 -0.12740549721E-01  0.18908538160E+00  0.18954140824E+00  0.51109989000E-03 0. -1.
     -623    1    1    2    0    0 -0.20075332224E-01 -0.30567588890E-01  0.20560136576E-02  0.17130000392E+03  0.17130000000E+03 0. -1.
      622    1    1    2    0    0  0.16900261289E-01  0.43308138611E-01  0.38088585721E+01  0.38104546758E+01  0.10000000000E+00 0.  0.
</event>
<event>
 5   0  0.6262544E+06  0.9118800E+02  0.7818608E-02  0.1180000E+00
       11   -1    0    0    0    0  0.00000000000E+00  0.00000000000E+00  0.39999999673E+01  0.40000000000E+01  0.51109989000E-03 0. -1.
     -623   -1    0    0    0    0  0.00000000000E+00  0.00000000000E+00  0.12525980253E-10  0.17130000000E+03  0.17130000000E+03 0. -1.
       11    1    1    2    0    0  0.28172279452E-01  0.37434898552E-01  0.20251842881E+01  0.20257262181E+01  0.51109989000E-03 0. -1.
     -623    1    1    2    0    0  0.68440410197E-02 -0.18317508263E-01  0.34809025745E-02  0.17130000115E+03  0.17130000000E+03 0. -1.
      622    1    1    2    0    0 -0.35016320471E-01 -0.19117390289E-01  0.19713347767E+01  0.19742726304E+01  0.10000000000E+00 0. -1.
</event>
<event>
 5   0  0.6262544E+06  0.9118800E+02  0.7818608E-02  0.1180000E+00
       11   -1    0    0    0    0  0.00000000000E+00  0.00000000000E+00  0.39999999673E+01  0.40000000000E+01  0.51109989000E-03 0.  1.
     -623   -1    0    0    0    0  0.00000000000E+00  0.00000000000E+00  0.12525980253E-10  0.17130000000E+03  0.17130000000E+03 0.  1.
       11    1    1    2    0    0  0.97286245905E-02  0.36516274330E-01  0.10801177400E+00  0.11443290162E+00  0.51109989000E-03 0.  1.
     -623    1    1    2    0    0 -0.15885258404E-01 -0.29336260035E-01  0.77230606307E-02  0.17130000342E+03  0.17130000000E+03 0.  1.
      622    1    1    2    0    0  0.61566338133E-02 -0.71800142945E-02  0.38842651327E+01  0.38855636757E+01  0.10000000000E+00 0.  0.
</event>
<event>
 5   0  0.6262544E+06  0.9118800E+02  0.7818608E-02  0.1180000E+00
       11   -1    0    0    0    0  0.00000000000E+00  0.00000000000E+00  0.39999999673E+01  0.40000000000E+01  0.51109989000E-03 0.  1.
     -623   -1    0    0    0    0  0.00000000000E+00  0.00000000000E+00  0.12525980253E-10  0.17130000000E+03  0.17130000000E+03 0. -1.
       11    1    1    2    0    0 -0.70664430459E-01  0.62594524391E-01  0.20477916458E+01  0.20499664441E+01  0.51109989000E-03 0.  1.
     -623    1    1    2    0    0  0.11078457223E-01  0.20223827034E-01  0.74166046425E-02  0.17130000171E+03  0.17130000000E+03 0. -1.
      622    1    1    2    0    0  0.59585973236E-01 -0.82818351425E-01  0.19447917169E+01  0.19500318433E+01  0.10000000000E+00 0.  1.
</event>
<event>
 5   0  0.6262544E+06  0.9118800E+02  0.7818608E-02  0.1180000E+00
       11   -1    0    0    0    0  0.00000000000E+00  0.00000000000E+00  0.39999999673E+01  0.40000000000E+01  0.51109989000E-03 0.  1.
     -623   -1    0    0    0    0  0.00000000000E+00  0.00000000000E+00  0.12525980253E-10  0.17130000000E+03  0.17130000000E+03 0.  1.
       11    1    1    2    0    0 -0.34415871611E-01 -0.63340264025E-02  0.76823814776E+00  0.76903490493E+00  0.51109989000E-03 0.  1.
     -623    1    1    2    0    0  0.15177334830E-01  0.17619678514E-01  0.24232422449E-02  0.17130000160E+03  0.17130000000E+03 0.  1.
      622    1    1    2    0    0  0.19238536781E-01 -0.11285652111E-01  0.32293385774E+01  0.32309634994E+01  0.10000000000E+00 0.  0.
</event>
<event>
 5   0  0.6262544E+06  0.9118800E+02  0.7818608E-02  0.1180000E+00
       11   -1    0    0    0    0  0.00000000000E+00  0.00000000000E+00  0.39999999673E+01  0.40000000000E+01  0.51109989000E-03 0. -1.
     -623   -1    0    0    0    0  0.00000000000E+00  0.00000000000E+00  0.12525980253E-10  0.17130000000E+03  0.17130000000E+03 0. -1.
       11    1    1    2    0    0 -0.54245995204E-02  0.62314466527E-02  0.12399930829E+00  0.12427528671E+00  0.51109989000E-03 0. -1.
     -623    1    1    2    0    0 -0.47119007757E-02 -0.79609037428E-02  0.15801448741E-02  0.17130000026E+03  0.17130000000E+03 0. -1.
      622    1    1    2    0    0  0.10136500296E-01  0.17294570900E-02  0.38744205142E+01  0.38757244562E+01  0.10000000000E+00 0. -1.
</event>
<event>
 5   0  0.6262544E+06  0.9118800E+02  0.7818608E-02  0.1180000E+00
       11   -1    0    0    0    0  0.00000000000E+00  0.00000000000E+00  0.39999999673E+01  0.40000000000E+01  0.51109989000E-03 0. -1.
     -623   -1    0    0    0    0  0.00000000000E+00  0.00000000000E+00  0.12525980253E-10  0.17130000000E+03  0.17130000000E+03 0. -1.
       11    1    1    2    0    0 -0.12776700363E-01  0.22086200694E-01  0.58107161074E+00  0.58163177558E+00  0.51109989000E-03 0. -1.
     -623    1    1    2    0    0  0.11813359730E-01  0.60674819527E-02  0.21397841522E-02  0.17130000053E+03  0.17130000000E+03 0. -1.
      622    1    1    2    0    0  0.96334063287E-03 -0.28153682647E-01  0.34167885726E+01  0.34183676964E+01  0.10000000000E+00 0. -1.
</event>
<event>
 5   0  0.6262544E+06  0.9118800E+02  0.7818608E-02  0.1180000E+00
       11   -1    0    0    0    0  0.00000000000E+00  0.00000000000E+00  0.39999999673E+01  0.40000000000E+01  0.51109989000E-03 0. -1.
     -623   -1    0    0    0    0  0.00000000000E+00  0.00000000000E+00  0.12525980253E-10  0.17130000000E+03  0.17130000000E+03 0.  1.
       11    1    1    2    0    0  0.11916673917E-01 -0.71551265027E-02  0.27814752472E-01  0.31098627452E-01  0.51109989000E-03 0. -1.
     -623    1    1    2    0    0 -0.20594411480E-01  0.91645180250E-02  0.45553794958E-02  0.17130000154E+03  0.17130000000E+03 0.  1.
      622    1    1    2    0    0  0.86777375632E-02 -0.20093915223E-02  0.39676298354E+01  0.39688998289E+01  0.10000000000E+00 0. -1.
</event>
<event>
 5   0  0.6262544E+06  0.9118800E+02  0.7818608E-02  0.1180000E+00
       11   -1    0    0    0    0  0.00000000000E+00  0.00000000000E+00  0.39999999673E+01  0.40000000000E+01  0.51109989000E-03 0.  1.
     -623   -1    0    0    0    0  0.00000000000E+00  0.00000000000E+00  0.12525980253E-10  0.17130000000E+03  0.17130000000E+03 0. -1.
       11    1    1    2    0    0  0.30861401944E-02 -0.30530343418E-02  0.15749659767E-01  0.16344977389E-01  0.51109989000E-03 0.  1.
     -623    1    1    2    0    0  0.40315026285E-02 -0.33981469532E-02  0.18622886492E-02  0.17130000009E+03  0.17130000000E+03 0. -1.
      622    1    1    2    0    0 -0.71176428229E-02  0.64511812949E-02  0.39823880189E+01  0.39836549313E+01  0.10000000000E+00 0.  1.
</event>
<event>
 5   0  0.6262544E+06  0.9118800E+02  0.7818608E-02  0.1180000E+00
       11   -1    0    0    0    0  0.00000000000E+00  0.00000000000E+00  0.39999999673E+01  0.40000000000E+01  0.51109989000E-03 0.  1.
     -623   -1    0    0    0    0  0.00000000000E+00  0.00000000000E+00  0.12525980253E-10  0.17130000000E+03  0.17130000000E+03 0.  1.
       11    1    1    2    0    0 -0.17381044139E-02  0.53235377565E-02  0.29570207169E-01  0.30100156749E-01  0.51109989000E-03 0.  1.
     -623    1    1    2    0    0 -0.49960949255E-02 -0.47688192548E-02  0.17954953505E-02  0.17130000015E+03  0.17130000000E+03 0.  1.
      622    1    1    2    0    0  0.67341993395E-02 -0.55471850165E-03  0.39686342649E+01  0.39698996946E+01  0.10000000000E+00 0.  1.
</event>
<event>
 5   0  0.6262544E+06  0.9118800E+02  0.7818608E-02  0.1180000E+00
       11   -1    0    0    0    0  0.00000000000E+00  0.00000000000E+00  0.39999999673E+01  0.40000000000E+01  0.51109989000E-03 0. -1.
     -623   -1    0    0    0    0  0.00000000000E+00  0.00000000000E+00  0.12525980253E-10  0.17130000000E+03  0.17130000000E+03 0.  1.
       11    1    1    2    0    0 -0.12010506001E+00 -0.70792807029E-01  0.16402735547E+01  0.16461878515E+01  0.51109989000E-03 0. -1.
     -623    1    1    2    0    0  0.32631873104E-02  0.18951221742E-01  0.11517488154E-01  0.17130000147E+03  0.17130000000E+03 0.  1.
      622    1    1    2    0    0  0.11684187270E+00  0.51841585288E-01  0.23482089245E+01  0.23538106820E+01  0.10000000000E+00 0. -1.
</event>
<event>
 5   0  0.6262544E+06  0.9118800E+02  0.7818608E-02  0.1180000E+00
       11   -1    0    0    0    0  0.00000000000E+00  0.00000000000E+00  0.39999999673E+01  0.40000000000E+01  0.51109989000E-03 0. -1.
     -623   -1    0    0    0    0  0.00000000000E+00  0.00000000000E+00  0.12525980253E-10  0.17130000000E+03  0.17130000000E+03 0. -1.
       11    1    1    2    0    0  0.13778111732E+00  0.38251863055E-01  0.21421124979E+01  0.21468798420E+01  0.51109989000E-03 0. -1.
     -623    1    1    2    0    0 -0.15463119725E-01 -0.43007197493E-02  0.11827977750E-01  0.17130000116E+03  0.17130000000E+03 0. -1.
      622    1    1    2    0    0 -0.12231799759E+00 -0.33951143306E-01  0.18460594917E+01  0.18531189977E+01  0.10000000000E+00 0.  0.
</event>
<event>
 5   0  0.6262544E+06  0.9118800E+02  0.7818608E-02  0.1180000E+00
       11   -1    0    0    0    0  0.00000000000E+00  0.00000000000E+00  0.39999999673E+01  0.40000000000E+01  0.51109989000E-03 0. -1.
     -623   -1    0    0    0    0  0.00000000000E+00  0.00000000000E+00  0.12525980253E-10  0.17130000000E+03  0.17130000000E+03 0.  1.
       11    1    1    2    0    0 -0.39575486725E-02 -0.33148388432E-01  0.56943677349E+00  0.57041474216E+00  0.51109989000E-03 0. -1.
     -623    1    1    2    0    0  0.21037706862E-01 -0.11225809344E-01  0.27675899511E-02  0.17130000168E+03  0.17130000000E+03 0.  1.
      622    1    1    2    0    0 -0.17080158190E-01  0.44374197776E-01  0.34277956039E+01  0.34295835758E+01  0.10000000000E+00 0. -1.
</event>
<event>
 5   0  0.6262544E+06  0.9118800E+02  0.7818608E-02  0.1180000E+00
       11   -1    0    0    0    0  0.00000000000E+00  0.00000000000E+00  0.39999999673E+01  0.40000000000E+01  0.51109989000E-03 0.  1.
     -623   -1    0    0    0    0  0.00000000000E+00  0.00000000000E+00  0.12525980253E-10  0.17130000000E+03  0.17130000000E+03 0.  1.
       11    1    1    2    0    0  0.52566121545E-01 -0.61635483191E-03  0.90888336299E+00  0.91040255150E+00  0.51109989000E-03 0.  1.
     -623    1    1    2    0    0 -0.43365858960E-01 -0.13893443579E-01  0.31917946090E-02  0.17130000608E+03  0.17130000000E+03 0.  1.
      622    1    1    2    0    0 -0.92002625847E-02  0.14509798411E-01  0.30879248098E+01  0.30895913662E+01  0.10000000000E+00 0.  0.
</event>
<event>
 5   0  0.6262544E+06  0.9118800E+02  0.7818608E-02  0.1180000E+00
       11   -1    0    0    0    0  0.00000000000E+00  0.00000000000E+00  0.39999999673E+01  0.40000000000E+01  0.51109989000E-03 0. -1.
     -623   -1    0    0    0    0  0.00000000000E+00  0.00000000000E+00  0.12525980253E-10  0.17130000000E+03  0.17130000000E+03 0.  1.
       11    1    1    2    0    0  0.23374927904E-02  0.16817294677E-02  0.13121436848E-02  0.32054688728E-02  0.51109989000E-03 0. -1.
     -623    1    1    2    0    0 -0.35515984873E-02 -0.46090234892E-02  0.31458754428E-02  0.17130000013E+03  0.17130000000E+03 0.  1.
      622    1    1    2    0    0  0.12141056970E-02  0.29272940216E-02  0.39955419483E+01  0.39967944035E+01  0.10000000000E+00 0. -1.
</event>
<event>
 5   0  0.6262544E+06  0.9118800E+02  0.7818608E-02  0.1180000E+00
       11   -1    0    0    0    0  0.00000000000E+00  0.00000000000E+00  0.39999999673E+01  0.40000000000E+01  0.51109989000E-03 0.  1.
     -623   -1    0    0    0    0  0.00000000000E+00  0.00000000000E+00  0.12525980253E-10  0.17130000000E+03  0.17130000000E+03 0.  1.
       11    1    1    2    0    0  0.22818756490E-02 -0.78027478214E-02  0.18028460793E+00  0.18046853163E+00  0.51109989000E-03 0.  1.
     -623    1    1    2    0    0 -0.65220497331E-03 -0.18987938496E-02  0.15058678336E-02  0.17130000002E+03  0.17130000000E+03 0.  1.
      622    1    1    2    0    0 -0.16296706757E-02  0.97015416711E-02  0.38182094916E+01  0.38195314500E+01  0.10000000000E+00 0.  1.
</event>
<event>
 5   0  0.6262544E+06  0.9118800E+02  0.7818608E-02  0.1180000E+00
       11   -1    0    0    0    0  0.00000000000E+00  0.00000000000E+00  0.39999999673E+01  0.40000000000E+01  0.51109989000E-03 0.  1.
     -623   -1    0    0    0    0  0.00000000000E+00  0.00000000000E+00  0.12525980253E-10  0.17130000000E+03  0.17130000000E+03 0.  1.
       11    1    1    2    0    0 -0.19224756537E-02  0.18014205917E-02  0.39859105865E-02  0.48051779456E-02  0.51109989000E-03 0.  1.
     -623    1    1    2    0    0  0.95383689449E-03  0.59262170864E-03  0.20717854136E-02  0.17130000002E+03  0.17130000000E+03 0.  1.
      622    1    1    2    0    0  0.96863875915E-03 -0.23940423004E-02  0.39939422716E+01  0.39951948061E+01  0.10000000000E+00 0.  1.
</event>
<event>
 5   0  0.6262544E+06  0.9118800E+02  0.7818608E-02  0.1180000E+00
       11   -1    0    0    0    0  0.00000000000E+00  0.00000000000E+00  0.39999999673E+01  0.40000000000E+01  0.51109989000E-03 0. -1.
     -623   -1    0    0    0    0  0.00000000000E+00  0.00000000000E+00  0.12525980253E-10  0.17130000000E+03  0.17130000000E+03 0.  1.
       11    1    1    2    0    0 -0.14414175168E-01 -0.54008277987E-02  0.11672922163E+00  0.11774085863E+00  0.51109989000E-03 0. -1.
     -623    1    1    2    0    0 -0.34374453703E-02  0.10741612833E-01  0.23448473132E-02  0.17130000039E+03  0.17130000000E+03 0.  1.
      622    1    1    2    0    0  0.17851620538E-01 -0.53407850342E-02  0.38809258986E+01  0.38822587542E+01  0.10000000000E+00 0. -1.
</event>
<event>
 5   0  0.6262544E+06  0.9118800E+02  0.7818608E-02  0.1180000E+00
       11   -1    0    0    0    0  0.00000000000E+00  0.00000000000E+00  0.39999999673E+01  0.40000000000E+01  0.51109989000E-03 0.  1.
     -623   -1    0    0    0    0  0.00000000000E+00  0.00000000000E+00  0.12525980253E-10  0.17130000000E+03  0.17130000000E+03 0.  1.
       11    1    1    2    0    0  0.23808116282E-02  0.50414242646E-02  0.29964947047E-01  0.30483495489E-01  0.51109989000E-03 0.  1.
     -623    1    1    2    0    0 -0.29271695084E-02  0.11769641310E-02  0.17832631307E-02  0.17130000004E+03  0.17130000000E+03 0.  1.
      622    1    1    2    0    0  0.54635788047E-03 -0.62183883957E-02  0.39682517575E+01  0.39695164664E+01  0.10000000000E+00 0.  1.
</event>
<event>
 5   0  0.6262544E+06  0.9118800E+02  0.7818608E-02  0.1180000E+00
       11   -1    0    0    0    0  0.00000000000E+00  0.00000000000E+00  0.39999999673E+01  0.40000000000E+01  0.51109989000E-03 0.  1.
     -623   -1    0    0    0    0  0.00000000000E+00  0.00000000000E+00  0.12525980253E-10  0.17130000000E+03  0.17130000000E+03 0. -1.
       11    1    1    2    0    0  0.38238445777E-02 -0.69982158240E-01  0.28302075739E+00  0.29157011952E+00  0.51109989000E-03 0.  1.
     -623    1    1    2    0    0 -0.38998090838E-01 -0.12658667824E-01  0.10991293659E-01  0.17130000526E+03  0.17130000000E+03 0. -1.
      622    1    1    2    0    0  0.35174246260E-01  0.82640826064E-01  0.37059879163E+01  0.37084246210E+01  0.10000000000E+00 0.  1.
</event>
<event>
 5   0  0.6262544E+06  0.9118800E+02  0.7818608E-02  0.1180000E+00
       11   -1    0    0    0    0  0.00000000000E+00  0.00000000000E+00  0.39999999673E+01  0.40000000000E+01  0.51109989000E-03 0.  1.
     -623   -1    0    0    0    0  0.00000000000E+00  0.00000000000E+00  0.12525980253E-10  0.17130000000E+03  0.17130000000E+03 0.  1.
       11    1    1    2    0    0  0.41448369681E-02 -0.11815864869E-03  0.55773228927E-02  0.69686001618E-02  0.51109989000E-03 0.  1.
     -623    1    1    2    0    0 -0.15193855518E-01 -0.45959365287E-02  0.26624540557E-02  0.17130000076E+03  0.17130000000E+03 0.  1.
      622    1    1    2    0    0  0.11049018549E-01  0.47140951774E-02  0.39917601904E+01  0.39930306437E+01  0.10000000000E+00 0.  1.
</event>
<event>
 5   0  0.6262544E+06  0.9118800E+02  0.7818608E-02  0.1180000E+00
       11   -1    0    0    0    0  0.00000000000E+00  0.00000000000E+00  0.39999999673E+01  0.40000000000E+01  0.51109989000E-03 0. -1.
     -623   -1    0    0    0    0  0.00000000000E+00  0.00000000000E+00  0.12525980253E-10  0.17130000000E+03  0.17130000000E+03 0.  1.
       11    1    1    2    0    0  0.29733322071E-01 -0.22276453051E-01  0.97236802965E+00  0.97307767270E+00  0.51109989000E-03 0. -1.
     -623    1    1    2    0    0 -0.15906263917E-02  0.18636792647E-01  0.24960358325E-02  0.17130000104E+03  0.17130000000E+03 0.  1.
      622    1    1    2    0    0 -0.28142695680E-01  0.36396604042E-02  0.30251359018E+01  0.30269212879E+01  0.10000000000E+00 0. -1.
</event>
<event>
 5   0  0.6262544E+06  0.9118800E+02  0.7818608E-02  0.1180000E+00
       11   -1    0    0    0    0  0.00000000000E+00  0.00000000000E+00  0.39999999673E+01  0.40000000000E+01  0.51109989000E-03 0. -1.
     -623   -1    0    0    0    0  0.00000000000E+00  0.00000000000E+00  0.12525980253E-10  0.17130000000E+03  0.17130000000E+03 0.  1.
       11    1    1    2    0    0 -0.30266876252E-01  0.11176992080E-01  0.48631751938E+00  0.48738690978E+00  0.51109989000E-03 0. -1.
     -623    1    1    2    0    0 -0.37890069479E-02 -0.29288213065E-02  0.26680262210E-02  0.17130000009E+03  0.17130000000E+03 0.  1.
      622    1    1    2    0    0  0.34055883200E-01 -0.82481707736E-02  0.35110144217E+01  0.35126130024E+01  0.10000000000E+00 0. -1.
</event>
<event>
 5   0  0.6262544E+06  0.9118800E+02  0.7818608E-02  0.1180000E+00
       11   -1    0    0    0    0  0.00000000000E+00  0.00000000000E+00  0.39999999673E+01  0.40000000000E+01  0.51109989000E-03 0. -1.
     -623   -1    0    0    0    0  0.00000000000E+00  0.00000000000E+00  0.12525980253E-10  0.17130000000E+03  0.17130000000E+03 0.  1.
       11    1    1    2    0    0  0.15534854990E-01  0.97858095125E-02  0.47404608934E+00  0.47440178101E+00  0.51109989000E-03 0. -1.
     -623    1    1    2    0    0 -0.16485283446E-01 -0.11136193881E-01  0.17756951992E-02  0.17130000116E+03  0.17130000000E+03 0.  1.
      622    1    1    2    0    0  0.95042845657E-03  0.13503843683E-02  0.35241781829E+01  0.35255970546E+01  0.10000000000E+00 0. -1.
</event>
<event>
 5   0  0.6262544E+06  0.9118800E+02  0.7818608E-02  0.1180000E+00
       11   -1    0    0    0    0  0.00000000000E+00  0.00000000000E+00  0.39999999673E+01  0.40000000000E+01  0.51109989000E-03 0. -1.
     -623   -1    0    0    0    0  0.00000000000E+00  0.00000000000E+00  0.12525980253E-10  0.17130000000E+03  0.17130000000E+03 0. -1.
       11    1    1    2    0    0  0.31239834006E-02  0.10492491961E-03  0.97538369415E-02  0.10255185991E-01  0.51109989000E-03 0. -1.
     -623    1    1    2    0    0 -0.20174290104E-02  0.61083141464E-03  0.17549659647E-02  0.17130000002E+03  0.17130000000E+03 0. -1.
      622    1    1    2    0    0 -0.11065543902E-02 -0.71575633426E-03  0.39884911645E+01  0.39897447921E+01  0.10000000000E+00 0. -1.
</event>
<event>
 5   0  0.6262544E+06  0.9118800E+02  0.7818608E-02  0.1180000E+00
       11   -1    0    0    0    0  0.00000000000E+00  0.00000000000E+00  0.39999999673E+01  0.40000000000E+01  0.51109989000E-03 0. -1.
     -623   -1    0    0    0    0  0.00000000000E+00  0.00000000000E+00  0.12525980253E-10  0.17130000000E+03  0.17130000000E+03 0. -1.
       11    1    1    2    0    0  0.99638257582E-02  0.63300919980E-02  0.81090505051E-01  0.81946806646E-01  0.51109989000E-03 0. -1.
     -623    1    1    2    0    0 -0.85783279275E-02  0.98003027994E-02  0.21665897931E-02  0.17130000051E+03  0.17130000000E+03 0. -1.
      622    1    1    2    0    0 -0.13854978307E-02 -0.16130394797E-01  0.39167428725E+01  0.39180526845E+01  0.10000000000E+00 0. -1.
</event>
<event>
 5   0  0.6262544E+06  0.9118800E+02  0.7818608E-02  0.1180000E+00
       11   -1    0    0    0    0  0.00000000000E+00  0.00000000000E+00  0.39999999673E+01  0.40000000000E+01  0.51109989000E-03 0.  1.
     -623   -1    0    0    0    0  0.00000000000E+00  0.00000000000E+00  0.12525980253E-10  0.17130000000E+03  0.17130000000E+03 0.  1.
       11    1    1    2    0    0  0.14702390512E-01  0.37685093713E-01  0.66491487596E+00  0.66614441382E+00  0.51109989000E-03 0.  1.
     -623    1    1    2    0    0 -0.30800265728E-01 -0.15281372100E-01  0.28472793945E-02  0.17130000347E+03  0.17130000000E+03 0.  1.
      622    1    1    2    0    0  0.16097875216E-01 -0.22403721613E-01  0.33322378120E+01  0.33338521119E+01  0.10000000000E+00 0.  1.
</event>
<event>
 5   0  0.6262544E+06  0.9118800E+02  0.7818608E-02  0.1180000E+00
       11   -1    0    0    0    0  0.00000000000E+00  0.00000000000E+00  0.39999999673E+01  0.40000000000E+01  0.51109989000E-03 0.  1.
     -623   -1    0    0    0    0  0.00000000000E+00  0.00000000000E+00  0.12525980253E-10  0.17130000000E+03  0.17130000000E+03 0. -1.
       11    1    1    2    0    0  0.23075445785E-01 -0.36603673802E-01  0.85154717350E+00  0.85264597287E+00  0.51109989000E-03 0.  1.
     -623    1    1    2    0    0 -0.53227494608E-01 -0.24963182897E-01  0.34449995985E-02  0.17130001012E+03  0.17130000000E+03 0. -1.
      622    1    1    2    0    0  0.30152048823E-01  0.61566856700E-01  0.31450077943E+01  0.31473439040E+01  0.10000000000E+00 0.  1.
</event>
<event>
 5   0  0.6262544E+06  0.9118800E+02  0.7818608E-02  0.1180000E+00
       11   -1    0    0    0    0  0.00000000000E+00  0.00000000000E+00  0.39999999673E+01  0.40000000000E+01  0.51109989000E-03 0.  1.
     -623   -1    0    0    0    0  0.00000000000E+00  0.00000000000E+00  0.12525980253E-10  0.17130000000E+03  0.17130000000E+03 0.  1.
       11    1    1    2    0    0 -0.12441941419E-02  0.16097721597E-02  0.49117886051E-02  0.53409993994E-02  0.51109989000E-03 0.  1.
     -623    1    1    2    0    0  0.90352929141E-02  0.42854486804E-02  0.16932975334E-02  0.17130000030E+03  0.17130000000E+03 0.  1.
      622    1    1    2    0    0 -0.77910987722E-02 -0.58952208400E-02  0.39933948812E+01  0.39946587003E+01  0.10000000000E+00 0.  1.
</event>
<event>
 5   0  0.6262544E+06  0.9118800E+02  0.7818608E-02  0.1180000E+00
       11   -1    0    0    0    0  0.00000000000E+00  0.00000000000E+00  0.39999999673E+01  0.40000000000E+01  0.51109989000E-03 0. -1.
     -623   -1    0    0    0    0  0.00000000000E+00  0.00000000000E+00  0.12525980253E-10  0.17130000000E+03  0.17130000000E+03 0. -1.
       11    1    1    2    0    0 -0.42224242047E-01 -0.20749158167E-01  0.79934982042E+00  0.80073329568E+00  0.51109989000E-03 0. -1.
     -623    1    1    2    0    0 -0.57183909164E-02  0.13074404724E-01  0.33159387484E-02  0.17130000063E+03  0.17130000000E+03 0. -1.
      622    1    1    2    0    0  0.47942632963E-01  0.76747534427E-02  0.31973342082E+01  0.31992660778E+01  0.10000000000E+00 0. -1.
</event>
<event>
 5   0  0.6262544E+06  0.9118800E+02  0.7818608E-02  0.1180000E+00
       11   -1    0    0    0    0  0.00000000000E+00  0.00000000000E+00  0.39999999673E+01  0.40000000000E+01  0.51109989000E-03 0. -1.
     -623   -1    0    0    0    0  0.00000000000E+00  0.00000000000E+00  0.12525980253E-10  0.17130000000E+03  0.17130000000E+03 0. -1.
       11    1    1    2    0    0  0.49557303421E-01  0.76594736237E-02  0.10285568464E+01  0.10297786371E+01  0.51109989000E-03 0. -1.
     -623    1    1    2    0    0  0.90751634971E-02  0.71201485873E-01  0.45477003022E-02  0.17130001510E+03  0.17130000000E+03 0. -1.
      622    1    1    2    0    0 -0.58632466919E-01 -0.78860959497E-01  0.29668954206E+01  0.29702062645E+01  0.10000000000E+00 0. -1.
</event>
<event>
 5   0  0.6262544E+06  0.9118800E+02  0.7818608E-02  0.1180000E+00
       11   -1    0    0    0    0  0.00000000000E+00  0.00000000000E+00  0.39999999673E+01  0.40000000000E+01  0.51109989000E-03 0.  1.
     -623   -1    0    0    0    0  0.00000000000E+00  0.00000000000E+00  0.12525980253E-10  0.17130000000E+03  0.17130000000E+03 0. -1.
       11    1    1    2    0    0  0.15707980213E-02 -0.27082254724E-01  0.98310626217E-01  0.10198605971E+00  0.51109989000E-03 0.  1.
     -623    1    1    2    0    0  0.24510982264E-02  0.74395914206E-03  0.50494979348E-02  0.17130000009E+03  0.17130000000E+03 0. -1.
      622    1    1    2    0    0 -0.40218962477E-02  0.26338295582E-01  0.38966398432E+01  0.38980138467E+01  0.10000000000E+00 0.  1.
</event>
<event>
 5   0  0.6262544E+06  0.9118800E+02  0.7818608E-02  0.1180000E+00
       11   -1    0    0    0    0  0.00000000000E+00  0.00000000000E+00  0.39999999673E+01  0.40000000000E+01  0.51109989000E-03 0.  1.
     -623   -1    0    0    0    0  0.00000000000E+00  0.00000000000E+00  0.12525980253E-10  0.17130000000E+03  0.17130000000E+03 0.  1.
       11    1    1    2    0    0 -0.41362224862E-02  0.69033597826E-02  0.64786275612E-01  0.65286196424E-01  0.51109989000E-03 0.  1.
     -623    1    1    2    0    0  0.42034583472E-02 -0.74677073948E-02  0.17710985232E-02  0.17130000022E+03  0.17130000000E+03 0.  1.
      622    1    1    2    0    0 -0.67235861133E-04  0.56434761251E-03  0.39334425934E+01  0.39347135802E+01  0.10000000000E+00 0.  1.
</event>
<event>
 5   0  0.6262544E+06  0.9118800E+02  0.7818608E-02  0.1180000E+00
       11   -1    0    0    0    0  0.00000000000E+00  0.00000000000E+00  0.39999999673E+01  0.40000000000E+01  0.51109989000E-03 0. -1.
     -623   -1    0    0    0    0  0.00000000000E+00  0.00000000000E+00  0.12525980253E-10  0.17130000000E+03  0.17130000000E+03 0. -1.
       11    1    1    2    0    0  0.13445794356E-01  0.53446376081E-02  0.20562925062E+00  0.20613831393E+00  0.51109989000E-03 0. -1.
     -623    1    1    2    0    0 -0.68866380101E-02  0.11130981029E-01  0.18691474983E-02  0.17130000051E+03  0.17130000000E+03 0. -1.
      622    1    1    2    0    0 -0.65591563457E-02 -0.16475618638E-01  0.37925015692E+01  0.37938611758E+01  0.10000000000E+00 0. -1.
</event>
<event>
 5   0  0.6262544E+06  0.9118800E+02  0.7818608E-02  0.1180000E+00
       11   -1    0    0    0    0  0.00000000000E+00  0.00000000000E+00  0.39999999673E+01  0.40000000000E+01  0.51109989000E-03 0.  1.
     -623   -1    0    0    0    0  0.00000000000E+00  0.00000000000E+00  0.12525980253E-10  0.17130000000E+03  0.17130000000E+03 0. -1.
       11    1    1    2    0    0  0.22608379967E-01  0.63182465549E-01  0.53710474287E+00  0.54128082252E+00  0.51109989000E-03 0.  1.
     -623    1    1    2    0    0 -0.33260172997E-01  0.91801888008E-02  0.63993587820E-02  0.17130000359E+03  0.17130000000E+03 0. -1.
      622    1    1    2    0    0  0.10651793030E-01 -0.72362654349E-01  0.34564958657E+01  0.34587155830E+01  0.10000000000E+00 0.  1.
</event>
<event>
 5   0  0.6262544E+06  0.9118800E+02  0.7818608E-02  0.1180000E+00
       11   -1    0    0    0    0  0.00000000000E+00  0.00000000000E+00  0.39999999673E+01  0.40000000000E+01  0.51109989000E-03 0. -1.
     -623   -1    0    0    0    0  0.00000000000E+00  0.00000000000E+00  0.12525980253E-10  0.17130000000E+03  0.17130000000E+03 0.  1.
       11    1    1    2    0    0  0.80955430554E-02  0.13806664378E-01  0.75558157209E+00  0.75575123891E+00  0.51109989000E-03 0. -1.
     -623    1    1    2    0    0 -0.54988783116E-02 -0.46355321398E-02  0.17253577577E-02  0.17130000016E+03  0.17130000000E+03 0.  1.
      622    1    1    2    0    0 -0.25966647439E-02 -0.91711322385E-02  0.32426930374E+01  0.32442486013E+01  0.10000000000E+00 0. -1.
</event>
<event>
 5   0  0.6262544E+06  0.9118800E+02  0.7818608E-02  0.1180000E+00
       11   -1    0    0    0    0  0.00000000000E+00  0.00000000000E+00  0.39999999673E+01  0.40000000000E+01  0.51109989000E-03 0. -1.
     -623   -1    0    0    0    0  0.00000000000E+00  0.00000000000E+00  0.12525980253E-10  0.17130000000E+03  0.17130000000E+03 0. -1.
       11    1    1    2    0    0  0.39651849029E-02  0.38918318220E-02  0.19772184797E+00  0.19780055469E+00  0.51109989000E-03 0. -1.
     -623    1    1    2    0    0  0.22086354787E-02 -0.43145558218E-02  0.13990418232E-02  0.17130000007E+03  0.17130000000E+03 0. -1.
      622    1    1    2    0    0 -0.61738203816E-02  0.42272399970E-03  0.38008790775E+01  0.38021993710E+01  0.10000000000E+00 0. -1.
</event>
<event>
 5   0  0.6262544E+06  0.9118800E+02  0.7818608E-02  0.1180000E+00
       11   -1    0    0    0    0  0.00000000000E+00  0.00000000000E+00  0.39999999673E+01  0.40000000000E+01  0.51109989000E-03 0.  1.
     -623   -1    0    0    0    0  0.00000000000E+00  0.00000000000E+00  0.12525980253E-10  0.17130000000E+03  0.17130000000E+03 0.  1.
       11    1    1    2    0    0 -0.70831496086E-01 -0.23766973335E-01  0.14018180072E+01  0.14038076636E+01  0.51109989000E-03 0.  1.
     -623    1    1    2    0    0  0.51331251492E-02 -0.10952412346E-01  0.49811691549E-02  0.17130000050E+03  0.17130000000E+03 0.  1.
      622    1    1    2    0    0  0.65698370936E-01  0.34719385681E-01  0.25932007910E+01  0.25961918370E+01  0.10000000000E+00 0.  1.
</event>
<event>
 5   0  0.6262544E+06  0.9118800E+02  0.7818608E-02  0.1180000E+00
       11   -1    0    0    0    0  0.00000000000E+00  0.00000000000E+00  0.39999999673E+01  0.40000000000E+01  0.51109989000E-03 0.  1.
     -623   -1    0    0    0    0  0.00000000000E+00  0.00000000000E+00  0.12525980253E-10  0.17130000000E+03  0.17130000000E+03 0.  1.
       11    1    1    2    0    0 -0.26568075021E-01  0.15877744074E-01  0.11269731156E+01  0.11273981683E+01  0.51109989000E-03 0.  1.
     -623    1    1    2    0    0  0.12823579711E-01 -0.93932032460E-03  0.22383957059E-02  0.17130000050E+03  0.17130000000E+03 0.  1.
      622    1    1    2    0    0  0.13744495310E-01 -0.14938423749E-01  0.28707884560E+01  0.28726013345E+01  0.10000000000E+00 0.  0.
</event>
<event>
 5   0  0.6262544E+06  0.9118800E+02  0.7818608E-02  0.1180000E+00
       11   -1    0    0    0    0  0.00000000000E+00  0.00000000000E+00  0.39999999673E+01  0.40000000000E+01  0.51109989000E-03 0.  1.
     -623   -1    0    0    0    0  0.00000000000E+00  0.00000000000E+00  0.12525980253E-10  0.17130000000E+03  0.17130000000E+03 0. -1.
       11    1    1    2    0    0  0.10464296759E-01 -0.57361505806E-02  0.15328277299E+00  0.15374743786E+00  0.51109989000E-03 0.  1.
     -623    1    1    2    0    0 -0.85350206133E-02 -0.11493317426E-01  0.18045139096E-02  0.17130000061E+03  0.17130000000E+03 0. -1.
      622    1    1    2    0    0 -0.19292761454E-02  0.17229468006E-01  0.38449126805E+01  0.38462519544E+01  0.10000000000E+00 0.  1.
</event>
<event>
 5   0  0.6262544E+06  0.9118800E+02  0.7818608E-02  0.1180000E+00
       11   -1    0    0    0    0  0.00000000000E+00  0.00000000000E+00  0.39999999673E+01  0.40000000000E+01  0.51109989000E-03 0.  1.
     -623   -1    0    0    0    0  0.00000000000E+00  0.00000000000E+00  0.12525980253E-10  0.17130000000E+03  0.17130000000E+03 0.  1.
       11    1    1    2    0    0 -0.20617625297E-01  0.13723844743E-01  0.27134972548E+00  0.27247819203E+00  0.51109989000E-03 0.  1.
     -623    1    1    2    0    0 -0.55179126658E-03 -0.12387151082E-01  0.25308915281E-02  0.17130000047E+03  0.17130000000E+03 0.  1.
      622    1    1    2    0    0  0.21169416564E-01 -0.13366936597E-02  0.37261193506E+01  0.37275213408E+01  0.10000000000E+00 0.  1.
</event>
<event>
 5   0  0.6262544E+06  0.9118800E+02  0.7818608E-02  0.1180000E+00
       11   -1    0    0    0    0  0.00000000000E+00  0.00000000000E+00  0.39999999673E+01  0.40000000000E+01  0.51109989000E-03 0. -1.
     -623   -1    0    0    0    0  0.00000000000E+00  0.00000000000E+00  0.12525980253E-10  0.17130000000E+03  0.17130000000E+03 0. -1.
       11    1    1    2    0    0 -0.11190762343E-01 -0.20257949558E-01  0.29325544450E+00  0.29416769815E+00  0.51109989000E-03 0. -1.
     -623    1    1    2    0    0 -0.18579588409E-01  0.34565834342E-01  0.24134606526E-02  0.17130000451E+03  0.17130000000E+03 0. -1.
      622    1    1    2    0    0  0.29770350752E-01 -0.14307884785E-01  0.37043310623E+01  0.37058277899E+01  0.10000000000E+00 0. -1.
</event>
<event>
 5   0  0.6262544E+06  0.9118800E+02  0.7818608E-02  0.1180000E+00
       11   -1    0    0    0    0  0.00000000000E+00  0.00000000000E+00  0.39999999673E+01  0.40000000000E+01  0.51109989000E-03 0. -1.
     -623   -1    0    0    0    0  0.00000000000E+00  0.00000000000E+00  0.12525980253E-10  0.17130000000E+03  0.17130000000E+03 0. -1.
       11    1    1    2    0    0 -0.28463657860E-02 -0.96022929198E-02  0.30581283785E+00  0.30597721949E+00  0.51109989000E-03 0. -1.
     -623    1    1    2    0    0  0.20976525559E-01 -0.97534506990E-02  0.16149421296E-02  0.17130000157E+03  0.17130000000E+03 0. -1.
      622    1    1    2    0    0 -0.18130159772E-01  0.19355743618E-01  0.36925721872E+01  0.36940212107E+01  0.10000000000E+00 0. -1.
</event>
<event>
 5   0  0.6262544E+06  0.9118800E+02  0.7818608E-02  0.1180000E+00
       11   -1    0    0    0    0  0.00000000000E+00  0.00000000000E+00  0.39999999673E+01  0.40000000000E+01  0.51109989000E-03 0. -1.
     -623   -1    0    0    0    0  0.00000000000E+00  0.00000000000E+00  0.12525980253E-10  0.17130000000E+03  0.17130000000E+03 0. -1.
       11    1    1    2    0    0  0.16376623197E-01  0.32955919193E-01  0.33560517307E+00  0.33761720900E+00  0.51109989000E-03 0. -1.
     -623    1    1    2    0    0 -0.17893328836E-02  0.18241084426E-02  0.35718190405E-02  0.17130000006E+03  0.17130000000E+03 0. -1.
      622    1    1    2    0    0 -0.14587290314E-01 -0.34780027636E-01  0.36608229754E+01  0.36623827349E+01  0.10000000000E+00 0. -1.
</event>
<event>
 5   0  0.6262544E+06  0.9118800E+02  0.7818608E-02  0.1180000E+00
       11   -1    0    0    0    0  0.00000000000E+00  0.00000000000E+00  0.39999999673E+01  0.40000000000E+01  0.51109989000E-03 0.  1.
     -623   -1    0    0    0    0  0.00000000000E+00  0.00000000000E+00  0.12525980253E-10  0.17130000000E+03  0.17130000000E+03 0.  1.
       11    1    1    2    0    0  0.24315368973E-01  0.34193521961E-02  0.43773129059E+00  0.43841974536E+00  0.51109989000E-03 0.  1.
     -623    1    1    2    0    0 -0.67567726612E-01  0.20946197000E-01  0.24533310817E-02  0.17130001462E+03  0.17130000000E+03 0.  1.
      622    1    1    2    0    0  0.43252357641E-01 -0.24365549196E-01  0.35598153458E+01  0.35615656308E+01  0.10000000000E+00 0.  0.
</event>
<event>
 5   0  0.6262544E+06  0.9118800E+02  0.7818608E-02  0.1180000E+00
       11   -1    0    0    0    0  0.00000000000E+00  0.00000000000E+00  0.39999999673E+01  0.40000000000E+01  0.51109989000E-03 0. -1.
     -623   -1    0    0    0    0  0.00000000000E+00  0.00000000000E+00  0.12525980253E-10  0.17130000000E+03  0.17130000000E+03 0.  1.
       11    1    1    2    0    0 -0.14187173015E-01  0.46032955205E-01  0.14771956471E+01  0.14779809031E+01  0.51109989000E-03 0. -1.
     -623    1    1    2    0    0  0.15366371609E-01 -0.33147574408E-01  0.28056828621E-02  0.17130000392E+03  0.17130000000E+03 0.  1.
      622    1    1    2    0    0 -0.11791985945E-02 -0.12885380795E-01  0.25199986376E+01  0.25220151778E+01  0.10000000000E+00 0. -1.
</event>
<event>
 5   0  0.6262544E+06  0.9118800E+02  0.7818608E-02  0.1180000E+00
       11   -1    0    0    0    0  0.00000000000E+00  0.00000000000E+00  0.39999999673E+01  0.40000000000E+01  0.51109989000E-03 0.  1.
     -623   -1    0    0    0    0  0.00000000000E+00  0.00000000000E+00  0.12525980253E-10  0.17130000000E+03  0.17130000000E+03 0. -1.
       11    1    1    2    0    0  0.63839226915E-02 -0.15933442240E-02  0.88564018295E-01  0.88809570273E-01  0.51109989000E-03 0.  1.
     -623    1    1    2    0    0  0.75144884607E-03  0.88280275663E-03  0.15306976546E-02  0.17130000001E+03  0.17130000000E+03 0. -1.
      622    1    1    2    0    0 -0.71353715376E-02  0.71054146739E-03  0.39099052514E+01  0.39111904190E+01  0.10000000000E+00 0.  1.
</event>
<event>
 5   0  0.6262544E+06  0.9118800E+02  0.7818608E-02  0.1180000E+00
       11   -1    0    0    0    0  0.00000000000E+00  0.00000000000E+00  0.39999999673E+01  0.40000000000E+01  0.51109989000E-03 0.  1.
     -623   -1    0    0    0    0  0.00000000000E+00  0.00000000000E+00  0.12525980253E-10  0.17130000000E+03  0.17130000000E+03 0. -1.
       11    1    1    2    0    0  0.44269695680E-01  0.31614563437E-01  0.60066107418E+00  0.60311961818E+00  0.51109989000E-03 0.  1.
     -623    1    1    2    0    0  0.43497479964E-02 -0.14188255967E-01  0.43243035223E-02  0.17130000070E+03  0.17130000000E+03 0. -1.
      622    1    1    2    0    0 -0.48619443676E-01 -0.17426307470E-01  0.33950145897E+01  0.33968796844E+01  0.10000000000E+00 0.  1.
</event>
<event>
 5   0  0.6262544E+06  0.9118800E+02  0.7818608E-02  0.1180000E+00
       11   -1    0    0    0    0  0.00000000000E+00  0.00000000000E+00  0.39999999673E+01  0.40000000000E+01  0.51109989000E-03 0.  1.
     -623   -1    0    0    0    0  0.00000000000E+00  0.00000000000E+00  0.12525980253E-10  0.17130000000E+03  0.17130000000E+03 0. -1.
       11    1    1    2    0    0 -0.17573564586E-02 -0.96237259056E-03  0.18382303958E-01  0.18498237260E-01  0.51109989000E-03 0.  1.
     -623    1    1    2    0    0  0.48009802356E-04  0.11726388877E-01  0.13872354078E-02  0.17130000041E+03  0.17130000000E+03 0. -1.
      622    1    1    2    0    0  0.17093466562E-02 -0.10764016286E-01  0.39802304280E+01  0.39815013557E+01  0.10000000000E+00 0.  1.
</event>
<event>
 5   0  0.6262544E+06  0.9118800E+02  0.7818608E-02  0.1180000E+00
       11   -1    0    0    0    0  0.00000000000E+00  0.00000000000E+00  0.39999999673E+01  0.40000000000E+01  0.51109989000E-03 0. -1.
     -623   -1    0    0    0    0  0.00000000000E+00  0.00000000000E+00  0.12525980253E-10  0.17130000000E+03  0.17130000000E+03 0.  1.
       11    1    1    2    0    0  0.56984220787E-01 -0.52610846693E-01  0.81163076506E+00  0.81532807054E+00  0.51109989000E-03 0. -1.
     -623    1    1    2    0    0  0.12910484578E-04  0.11088639433E-01  0.60493621049E-02  0.17130000047E+03  0.17130000000E+03 0.  1.
      622    1    1    2    0    0 -0.56997131271E-01  0.41522207260E-01  0.31823198402E+01  0.31846714637E+01  0.10000000000E+00 0. -1.
</event>
<event>
 5   0  0.6262544E+06  0.9118800E+02  0.7818608E-02  0.1180000E+00
       11   -1    0    0    0    0  0.00000000000E+00  0.00000000000E+00  0.39999999673E+01  0.40000000000E+01  0.51109989000E-03 0. -1.
     -623   -1    0    0    0    0  0.00000000000E+00  0.00000000000E+00  0.12525980253E-10  0.17130000000E+03  0.17130000000E+03 0.  1.
       11    1    1    2    0    0  0.30742739741E-02 -0.32952150318E-02 -0.24389895636E-02  0.51497083182E-02  0.51109989000E-03 0. -1.
     -623    1    1    2    0    0  0.40262378157E-02  0.18530367390E-02  0.88473313009E-02  0.17130000029E+03  0.17130000000E+03 0.  1.
      622    1    1    2    0    0 -0.71005117899E-02  0.14421782928E-02  0.39935916257E+01  0.39948500059E+01  0.10000000000E+00 0. -1.
</event>
<event>
 5   0  0.6262544E+06  0.9118800E+02  0.7818608E-02  0.1180000E+00
       11   -1    0    0    0    0  0.00000000000E+00  0.00000000000E+00  0.39999999673E+01  0.40000000000E+01  0.51109989000E-03 0.  1.
     -623   -1    0    0    0    0  0.00000000000E+00  0.00000000000E+00  0.12525980253E-10  0.17130000000E+03  0.17130000000E+03 0.  1.
       11    1    1    2    0    0  0.11413194809E-03 -0.25436973869E-02  0.27579639205E-02  0.37882727703E-02  0.51109989000E-03 0.  1.
     -623    1    1    2    0    0 -0.29288050539E-02  0.83964696762E-03  0.22830543987E-02  0.17130000004E+03  0.17130000000E+03 0.  1.
      622    1    1    2    0    0  0.28146731058E-02  0.17040504193E-02  0.39949589490E+01  0.39962116849E+01  0.10000000000E+00 0.  1.
</event>
<event>
 5   0  0.6262544E+06  0.9118800E+02  0.7818608E-02  0.1180000E+00
       11   -1    0    0    0    0  0.00000000000E+00  0.00000000000E+00  0.39999999673E+01  0.40000000000E+01  0.51109989000E-03 0.  1.
     -623   -1    0    0    0    0  0.00000000000E+00  0.00000000000E+00  0.12525980253E-10  0.17130000000E+03  0.17130000000E+03 0.  1.
       11    1    1    2    0    0  0.16124484911E-01 -0.35783173149E-02  0.42171473453E-01  0.45293462715E-01  0.51109989000E-03 0.  1.
     -623    1    1    2    0    0 -0.26254231206E-01 -0.10804621551E-01  0.44280266562E-02  0.17130000241E+03  0.17130000000E+03 0.  1.
      622    1    1    2    0    0  0.10129746295E-01  0.14382938866E-01  0.39534004672E+01  0.39547041273E+01  0.10000000000E+00 0.  1.
</event>
<event>
 5   0  0.6262544E+06  0.9118800E+02  0.7818608E-02  0.1180000E+00
       11   -1    0    0    0    0  0.00000000000E+00  0.00000000000E+00  0.39999999673E+01  0.40000000000E+01  0.51109989000E-03 0. -1.
     -623   -1    0    0    0    0  0.00000000000E+00  0.00000000000E+00  0.12525980253E-10  0.17130000000E+03  0.17130000000E+03 0.  1.
       11    1    1    2    0    0  0.11823174763E-02 -0.27265657750E-02  0.31118352198E-01  0.31264118445E-01  0.51109989000E-03 0. -1.
     -623    1    1    2    0    0  0.24564292531E-02 -0.33787583606E-03  0.14086564836E-02  0.17130000002E+03  0.17130000000E+03 0.  1.
      622    1    1    2    0    0 -0.36387467294E-02  0.30644416111E-02  0.39674729587E+01  0.39687358578E+01  0.10000000000E+00 0. -1.
</event>
<event>
 5   0  0.6262544E+06  0.9118800E+02  0.7818608E-02  0.1180000E+00
       11   -1    0    0    0    0  0.00000000000E+00  0.00000000000E+00  0.39999999673E+01  0.40000000000E+01  0.51109989000E-03 0.  1.
     -623   -1    0    0    0    0  0.00000000000E+00  0.00000000000E+00  0.12525980253E-10  0.17130000000E+03  0.17130000000E+03 0.  1.
       11    1    1    2    0    0 -0.59331781010E-02 -0.20802341718E-01  0.64885073017E-01  0.68397908936E-01  0.51109989000E-03 0.  1.
     -623    1    1    2    0    0  0.65692067156E-02  0.23016378731E-02  0.48285593899E-02  0.17130000021E+03  0.17130000000E+03 0.  1.
      622    1    1    2    0    0 -0.63602861476E-03  0.18500703845E-01  0.39302863350E+01  0.39316018817E+01  0.10000000000E+00 0.  1.
</event>
<event>
 5   0  0.6262544E+06  0.9118800E+02  0.7818608E-02  0.1180000E+00
       11   -1    0    0    0    0  0.00000000000E+00  0.00000000000E+00  0.39999999673E+01  0.40000000000E+01  0.51109989000E-03 0. -1.
     -623   -1    0    0    0    0  0.00000000000E+00  0.00000000000E+00  0.12525980253E-10  0.17130000000E+03  0.17130000000E+03 0.  1.
       11    1    1    2    0    0  0.24682497809E-02  0.59921798834E-02  0.22715128630E-01  0.23627034696E-01  0.51109989000E-03 0. -1.
     -623    1    1    2    0    0 -0.31741525693E-02  0.37935255422E-02  0.21816925892E-02  0.17130000009E+03  0.17130000000E+03 0.  1.
      622    1    1    2    0    0  0.70590278856E-03 -0.97857054258E-02  0.39751031463E+01  0.39763728802E+01  0.10000000000E+00 0. -1.
</event>
<event>
 5   0  0.6262544E+06  0.9118800E+02  0.7818608E-02  0.1180000E+00
       11   -1    0    0    0    0  0.00000000000E+00  0.00000000000E+00  0.39999999673E+01  0.40000000000E+01  0.51109989000E-03 0. -1.
     -623   -1    0    0    0    0  0.00000000000E+00  0.00000000000E+00  0.12525980253E-10  0.17130000000E+03  0.17130000000E+03 0. -1.
       11    1    1    2    0    0  0.55302667665E-02 -0.14464449164E-01  0.26412474448E+00  0.26457880869E+00  0.51109989000E-03 0. -1.
     -623    1    1    2    0    0  0.13090595180E-01  0.37376747308E-01  0.19141242583E-02  0.17130000459E+03  0.17130000000E+03 0. -1.
      622    1    1    2    0    0 -0.18620861946E-01 -0.22912298144E-01  0.37339610986E+01  0.37354166027E+01  0.10000000000E+00 0. -1.
</event>
<event>
 5   0  0.6262544E+06  0.9118800E+02  0.7818608E-02  0.1180000E+00
       11   -1    0    0    0    0  0.00000000000E+00  0.00000000000E+00  0.39999999673E+01  0.40000000000E+01  0.51109989000E-03 0. -1.
     -623   -1    0    0    0    0  0.00000000000E+00  0.00000000000E+00  0.12525980253E-10  0.17130000000E+03  0.17130000000E+03 0. -1.
       11    1    1    2    0    0  0.19216312639E-03  0.24480616401E-02  0.61698592119E-02  0.66602040700E-02  0.51109989000E-03 0. -1.
     -623    1    1    2    0    0  0.79407952197E-02 -0.10266844318E-01  0.17590356319E-02  0.17130000050E+03  0.17130000000E+03 0. -1.
      622    1    1    2    0    0 -0.81329583465E-02  0.78187826779E-02  0.39920710727E+01  0.39933392954E+01  0.10000000000E+00 0. -1.
</event>
<event>
 5   0  0.6262544E+06  0.9118800E+02  0.7818608E-02  0.1180000E+00
       11   -1    0    0    0    0  0.00000000000E+00  0.00000000000E+00  0.39999999673E+01  0.40000000000E+01  0.51109989000E-03 0.  1.
     -623   -1    0    0    0    0  0.00000000000E+00  0.00000000000E+00  0.12525980253E-10  0.17130000000E+03  0.17130000000E+03 0. -1.
       11    1    1    2    0    0  0.19185743431E-01  0.72298094303E-02  0.38123482613E-02  0.20860443810E-01  0.51109989000E-03 0.  1.
     -623    1    1    2    0    0 -0.32457015218E-01 -0.34357363940E-01  0.18426967900E-01  0.17130000751E+03  0.17130000000E+03 0. -1.
      622    1    1    2    0    0  0.13271271787E-01  0.27127554510E-01  0.39777606512E+01  0.39791320447E+01  0.10000000000E+00 0.  1.
</event>
<event>
 5   0  0.6262544E+06  0.9118800E+02  0.7818608E-02  0.1180000E+00
       11   -1    0    0    0    0  0.00000000000E+00  0.00000000000E+00  0.39999999673E+01  0.40000000000E+01  0.51109989000E-03 0.  1.
     -623   -1    0    0    0    0  0.00000000000E+00  0.00000000000E+00  0.12525980253E-10  0.17130000000E+03  0.17130000000E+03 0.  1.
       11    1    1    2    0    0  0.24532767130E-03  0.27756321294E-02  0.32202372616E-01  0.32326743449E-01  0.51109989000E-03 0.  1.
     -623    1    1    2    0    0  0.22791854014E-02 -0.79847558283E-03  0.13860416071E-02  0.17130000002E+03  0.17130000000E+03 0.  1.
      622    1    1    2    0    0 -0.25245130727E-02 -0.19771565466E-02  0.39664115531E+01  0.39676732339E+01  0.10000000000E+00 0.  1.
</event>
<event>
 5   0  0.6262544E+06  0.9118800E+02  0.7818608E-02  0.1180000E+00
       11   -1    0    0    0    0  0.00000000000E+00  0.00000000000E+00  0.39999999673E+01  0.40000000000E+01  0.51109989000E-03 0. -1.
     -623   -1    0    0    0    0  0.00000000000E+00  0.00000000000E+00  0.12525980253E-10  0.17130000000E+03  0.17130000000E+03 0. -1.
       11    1    1    2    0    0 -0.16220370687E-02 -0.17264079384E-02  0.45815590071E+00  0.45816230974E+00  0.51109989000E-03 0. -1.
     -623    1    1    2    0    0 -0.67602309521E-02 -0.18268693386E-01  0.14858550420E-02  0.17130000111E+03  0.17130000000E+03 0. -1.
      622    1    1    2    0    0  0.83822680208E-02  0.19995101324E-01  0.35403582116E+01  0.35418365763E+01  0.10000000000E+00 0.  0.
</event>
<event>
 5   0  0.6262544E+06  0.9118800E+02  0.7818608E-02  0.1180000E+00
       11   -1    0    0    0    0  0.00000000000E+00  0.00000000000E+00  0.39999999673E+01  0.40000000000E+01  0.51109989000E-03 0. -1.
     -623   -1    0    0    0    0  0.00000000000E+00  0.00000000000E+00  0.12525980253E-10  0.17130000000E+03  0.17130000000E+03 0. -1.
       11    1    1    2    0    0  0.99587532600E-02  0.95006663893E-02  0.21754142599E+00  0.21797700033E+00  0.51109989000E-03 0. -1.
     -623    1    1    2    0    0  0.63192547559E-02 -0.23243346613E-01  0.18195408051E-02  0.17130000170E+03  0.17130000000E+03 0. -1.
      622    1    1    2    0    0 -0.16278008016E-01  0.13742680224E-01  0.37806390006E+01  0.37820212965E+01  0.10000000000E+00 0. -1.
</event>
<event>
 5   0  0.6262544E+06  0.9118800E+02  0.7818608E-02  0.1180000E+00
       11   -1    0    0    0    0  0.00000000000E+00  0.00000000000E+00  0.39999999673E+01  0.40000000000E+01  0.51109989000E-03 0.  1.
     -623   -1    0    0    0    0  0.00000000000E+00  0.00000000000E+00  0.12525980253E-10  0.17130000000E+03  0.17130000000E+03 0.  1.
       11    1    1    2    0    0  0.98055779165E-02 -0.25445643200E-01  0.50377821038E+00  0.50451598249E+00  0.51109989000E-03 0.  1.
     -623    1    1    2    0    0 -0.28740878025E-02  0.15671415960E-03  0.22668821664E-02  0.17130000004E+03  0.17130000000E+03 0.  1.
      622    1    1    2    0    0 -0.69314901140E-02  0.25288929041E-01  0.34939548748E+01  0.34954839783E+01  0.10000000000E+00 0.  1.
</event>
<event>
 5   0  0.6262544E+06  0.9118800E+02  0.7818608E-02  0.1180000E+00
       11   -1    0    0    0    0  0.00000000000E+00  0.00000000000E+00  0.39999999673E+01  0.40000000000E+01  0.51109989000E-03 0.  1.
     -623   -1    0    0    0    0  0.00000000000E+00  0.00000000000E+00  0.12525980253E-10  0.17130000000E+03  0.17130000000E+03 0. -1.
       11    1    1    2    0    0  0.18498258994E-02  0.22326017401E-01  0.58271144998E+00  0.58314215082E+00  0.51109989000E-03 0.  1.
     -623    1    1    2    0    0  0.88775862711E-03 -0.62477141422E-02  0.19333841057E-02  0.17130000013E+03  0.17130000000E+03 0. -1.
      622    1    1    2    0    0 -0.27375845265E-02 -0.16078303259E-01  0.34153551332E+01  0.34168577220E+01  0.10000000000E+00 0.  0.
</event>
<event>
 5   0  0.6262544E+06  0.9118800E+02  0.7818608E-02  0.1180000E+00
       11   -1    0    0    0    0  0.00000000000E+00  0.00000000000E+00  0.39999999673E+01  0.40000000000E+01  0.51109989000E-03 0.  1.
     -623   -1    0    0    0    0  0.00000000000E+00  0.00000000000E+00  0.12525980253E-10  0.17130000000E+03  0.17130000000E+03 0. -1.
       11    1    1    2    0    0 -0.69712429108E-02 -0.21438075270E-01  0.11689824955E+00  0.11905314472E+00  0.51109989000E-03 0.  1.
     -623    1    1    2    0    0  0.27953662037E-02 -0.87370372837E-04  0.35054430574E-02  0.17130000006E+03  0.17130000000E+03 0. -1.
      622    1    1    2    0    0  0.41758767071E-02  0.21525445642E-01  0.38795962748E+01  0.38809467966E+01  0.10000000000E+00 0.  1.
</event>
<event>
 5   0  0.6262544E+06  0.9118800E+02  0.7818608E-02  0.1180000E+00
       11   -1    0    0    0    0  0.00000000000E+00  0.00000000000E+00  0.39999999673E+01  0.40000000000E+01  0.51109989000E-03 0.  1.
     -623   -1    0    0    0    0  0.00000000000E+00  0.00000000000E+00  0.12525980253E-10  0.17130000000E+03  0.17130000000E+03 0. -1.
       11    1    1    2    0    0  0.73909876231E-02  0.13591993546E-01  0.13852473357E+00  0.13938698655E+00  0.51109989000E-03 0.  1.
     -623    1    1    2    0    0  0.14144101266E-01 -0.94317023068E-02  0.22207530814E-02  0.17130000086E+03  0.17130000000E+03 0. -1.
      622    1    1    2    0    0 -0.21535088889E-01 -0.41602912390E-02  0.38592544807E+01  0.38606121555E+01  0.10000000000E+00 0.  1.
</event>
<event>
 5   0  0.6262544E+06  0.9118800E+02  0.7818608E-02  0.1180000E+00
       11   -1    0    0    0    0  0.00000000000E+00  0.00000000000E+00  0.39999999673E+01  0.40000000000E+01  0.51109989000E-03 0. -1.
     -623   -1    0    0    0    0  0.00000000000E+00  0.00000000000E+00  0.12525980253E-10  0.17130000000E+03  0.17130000000E+03 0.  1.
       11    1    1    2    0    0 -0.81651176298E-02  0.26816803716E-01  0.53602148435E-01  0.60491831240E-01  0.51109989000E-03 0. -1.
     -623    1    1    2    0    0 -0.14535308432E-01 -0.10161650091E-01  0.82608094634E-02  0.17130000112E+03  0.17130000000E+03 0.  1.
      622    1    1    2    0    0  0.22700426062E-01 -0.16655153625E-01  0.39381370095E+01  0.39395070515E+01  0.10000000000E+00 0. -1.
</event>
<event>
 5   0  0.6262544E+06  0.9118800E+02  0.7818608E-02  0.1180000E+00
       11   -1    0    0    0    0  0.00000000000E+00  0.00000000000E+00  0.39999999673E+01  0.40000000000E+01  0.51109989000E-03 0.  1.
     -623   -1    0    0    0    0  0.00000000000E+00  0.00000000000E+00  0.12525980253E-10  0.17130000000E+03  0.17130000000E+03 0.  1.
       11    1    1    2    0    0  0.58018700202E-02 -0.14376826768E-02  0.29701969273E-01  0.30301762803E-01  0.51109989000E-03 0.  1.
     -623    1    1    2    0    0 -0.20668524745E-02  0.34154612019E-02  0.18618095133E-02  0.17130000006E+03  0.17130000000E+03 0.  1.
      622    1    1    2    0    0 -0.37350175455E-02 -0.19777785253E-02  0.39684361888E+01  0.39696981808E+01  0.10000000000E+00 0.  1.
</event>
<event>
 5   0  0.6262544E+06  0.9118800E+02  0.7818608E-02  0.1180000E+00
       11   -1    0    0    0    0  0.00000000000E+00  0.00000000000E+00  0.39999999673E+01  0.40000000000E+01  0.51109989000E-03 0.  1.
     -623   -1    0    0    0    0  0.00000000000E+00  0.00000000000E+00  0.12525980253E-10  0.17130000000E+03  0.17130000000E+03 0.  1.
       11    1    1    2    0    0 -0.23314046279E-02  0.16437638445E-03  0.81573519517E-04  0.23938137921E-02  0.51109989000E-03 0.  1.
     -623    1    1    2    0    0  0.11697001442E-02  0.76205732654E-03  0.35634708700E-02  0.17130000004E+03  0.17130000000E+03 0.  1.
      622    1    1    2    0    0  0.11617044837E-02 -0.92643371099E-03  0.39963549230E+01  0.39976061434E+01  0.10000000000E+00 0.  1.
</event>
<event>
 5   0  0.6262544E+06  0.9118800E+02  0.7818608E-02  0.1180000E+00
       11   -1    0    0    0    0  0.00000000000E+00  0.00000000000E+00  0.39999999673E+01  0.40000000000E+01  0.51109989000E-03 0. -1.
     -623   -1    0    0    0    0  0.00000000000E+00  0.00000000000E+00  0.12525980253E-10  0.17130000000E+03  0.17130000000E+03 0.  1.
       11    1    1    2    0    0  0.20161784435E-02  0.77486028495E-04  0.52222285206E-03  0.21459075948E-02  0.51109989000E-03 0. -1.
     -623    1    1    2    0    0 -0.52172052053E-02  0.25742838332E-02  0.28768033773E-02  0.17130000012E+03  0.17130000000E+03 0.  1.
      622    1    1    2    0    0  0.32010267620E-02 -0.26517698617E-02  0.39966009412E+01  0.39978539695E+01  0.10000000000E+00 0. -1.
</event>
<event>
 5   0  0.6262544E+06  0.9118800E+02  0.7818608E-02  0.1180000E+00
       11   -1    0    0    0    0  0.00000000000E+00  0.00000000000E+00  0.39999999673E+01  0.40000000000E+01  0.51109989000E-03 0.  1.
     -623   -1    0    0    0    0  0.00000000000E+00  0.00000000000E+00  0.12525980253E-10  0.17130000000E+03  0.17130000000E+03 0. -1.
       11    1    1    2    0    0 -0.12054340366E-02 -0.27809933617E-02  0.68777617820E+00  0.68778304683E+00  0.51109989000E-03 0.  1.
     -623    1    1    2    0    0  0.21340021497E-02 -0.82587000349E-04  0.15181317897E-02  0.17130000002E+03  0.17130000000E+03 0. -1.
      622    1    1    2    0    0 -0.92856811309E-03  0.28635803620E-02  0.33107056574E+01  0.33122169331E+01  0.10000000000E+00 0.  1.
</event>
<event>
 5   0  0.6262544E+06  0.9118800E+02  0.7818608E-02  0.1180000E+00
       11   -1    0    0    0    0  0.00000000000E+00  0.00000000000E+00  0.39999999673E+01  0.40000000000E+01  0.51109989000E-03 0. -1.
     -623   -1    0    0    0    0  0.00000000000E+00  0.00000000000E+00  0.12525980253E-10  0.17130000000E+03  0.17130000000E+03 0.  1.
       11    1    1    2    0    0  0.76845721145E-02  0.57957096911E-02  0.28062990489E+01  0.28063156017E+01  0.51109989000E-03 0. -1.
     -623    1    1    2    0    0  0.47794694478E-02 -0.47904931984E-02  0.42785235762E-02  0.17130000019E+03  0.17130000000E+03 0.  1.
      622    1    1    2    0    0 -0.12464041562E-01 -0.10052164927E-02  0.11894223949E+01  0.11936842113E+01  0.10000000000E+00 0. -1.
</event>
<event>
 5   0  0.6262544E+06  0.9118800E+02  0.7818608E-02  0.1180000E+00
       11   -1    0    0    0    0  0.00000000000E+00  0.00000000000E+00  0.39999999673E+01  0.40000000000E+01  0.51109989000E-03 0.  1.
     -623   -1    0    0    0    0  0.00000000000E+00  0.00000000000E+00  0.12525980253E-10  0.17130000000E+03  0.17130000000E+03 0.  1.
       11    1    1    2    0    0 -0.24638114708E-01  0.40010174953E-02  0.21271486996E+00  0.21417497978E+00  0.51109989000E-03 0.  1.
     -623    1    1    2    0    0  0.30431913914E-02  0.55205037565E-02  0.28547538262E-02  0.17130000014E+03  0.17130000000E+03 0.  1.
      622    1    1    2    0    0  0.21594923317E-01 -0.95215212518E-02  0.37844303436E+01  0.37858248804E+01  0.10000000000E+00 0.  1.
</event>
<event>
 5   0  0.6262544E+06  0.9118800E+02  0.7818608E-02  0.1180000E+00
       11   -1    0    0    0    0  0.00000000000E+00  0.00000000000E+00  0.39999999673E+01  0.40000000000E+01  0.51109989000E-03 0. -1.
     -623   -1    0    0    0    0  0.00000000000E+00  0.00000000000E+00  0.12525980253E-10  0.17130000000E+03  0.17130000000E+03 0. -1.
       11    1    1    2    0    0 -0.35703547001E-01 -0.15005896415E-01  0.11263084375E+01  0.11269742135E+01  0.51109989000E-03 0. -1.
     -623    1    1    2    0    0 -0.13322441941E-01 -0.25859576877E-02  0.28796375253E-02  0.17130000056E+03  0.17130000000E+03 0. -1.
      622    1    1    2    0    0  0.49025988943E-01  0.17591854103E-01  0.28708118924E+01  0.28730252248E+01  0.10000000000E+00 0.  0.
</event>
<event>
 5   0  0.6262544E+06  0.9118800E+02  0.7818608E-02  0.1180000E+00
       11   -1    0    0    0    0  0.00000000000E+00  0.00000000000E+00  0.39999999673E+01  0.40000000000E+01  0.51109989000E-03 0. -1.
     -623   -1    0    0    0    0  0.00000000000E+00  0.00000000000E+00  0.12525980253E-10  0.17130000000E+03  0.17130000000E+03 0.  1.
       11    1    1    2    0    0 -0.41918277842E-02 -0.38820320210E-02  0.61765211302E+00  0.61767874784E+00  0.51109989000E-03 0. -1.
     -623    1    1    2    0    0 -0.10136893412E-02  0.70868315906E-02  0.15108828715E-02  0.17130000016E+03  0.17130000000E+03 0.  1.
      622    1    1    2    0    0  0.52055171254E-02 -0.32047995697E-02  0.33808369715E+01  0.33823210959E+01  0.10000000000E+00 0. -1.
</event>
<event>
 5   0  0.6262544E+06  0.9118800E+02  0.7818608E-02  0.1180000E+00
       11   -1    0    0    0    0  0.00000000000E+00  0.00000000000E+00  0.39999999673E+01  0.40000000000E+01  0.51109989000E-03 0.  1.
     -623   -1    0    0    0    0  0.00000000000E+00  0.00000000000E+00  0.12525980253E-10  0.17130000000E+03  0.17130000000E+03 0.  1.
       11    1    1    2    0    0  0.35827571117E-01  0.54089859438E-01  0.77586590714E+00  0.77857401371E+00  0.51109989000E-03 0.  1.
     -623    1    1    2    0    0  0.46071940946E-02 -0.26791526083E-02  0.49250946843E-02  0.17130000015E+03  0.17130000000E+03 0.  1.
      622    1    1    2    0    0 -0.40434765212E-01 -0.51410706830E-01  0.32192089655E+01  0.32214258326E+01  0.10000000000E+00 0.  1.
</event>
<event>
 5   0  0.6262544E+06  0.9118800E+02  0.7818608E-02  0.1180000E+00
       11   -1    0    0    0    0  0.00000000000E+00  0.00000000000E+00  0.39999999673E+01  0.40000000000E+01  0.51109989000E-03 0. -1.
     -623   -1    0    0    0    0  0.00000000000E+00  0.00000000000E+00  0.12525980253E-10  0.17130000000E+03  0.17130000000E+03 0.  1.
       11    1    1    2    0    0  0.10210615224E+00  0.15582838300E-01  0.15016437925E+01  0.15051919585E+01  0.51109989000E-03 0. -1.
     -623    1    1    2    0    0 -0.50505090496E-01  0.36023699550E-02  0.61686759487E-02  0.17130000759E+03  0.17130000000E+03 0.  1.
      622    1    1    2    0    0 -0.51601061746E-01 -0.19185208255E-01  0.24921874989E+01  0.24948004472E+01  0.10000000000E+00 0.  0.
</event>
<event>
 5   0  0.6262544E+06  0.9118800E+02  0.7818608E-02  0.1180000E+00
       11   -1    0    0    0    0  0.00000000000E+00  0.00000000000E+00  0.39999999673E+01  0.40000000000E+01  0.51109989000E-03 0. -1.
     -623   -1    0    0    0    0  0.00000000000E+00  0.00000000000E+00  0.12525980253E-10  0.17130000000E+03  0.17130000000E+03 0. -1.
       11    1    1    2    0    0  0.14068202123E-01 -0.76094207134E-02  0.53090093208E+00  0.53114205115E+00  0.51109989000E-03 0. -1.
     -623    1    1    2    0    0  0.60991655230E-03  0.97528377929E-03  0.17202091873E-02  0.17130000001E+03  0.17130000000E+03 0. -1.
      622    1    1    2    0    0 -0.14678118675E-01  0.66341369340E-02  0.34673788263E+01  0.34688579366E+01  0.10000000000E+00 0. -1.
</event>
<event>
 5   0  0.6262544E+06  0.9118800E+02  0.7818608E-02  0.1180000E+00
       11   -1    0    0    0    0  0.00000000000E+00  0.00000000000E+00  0.39999999673E+01  0.40000000000E+01  0.51109989000E-03 0.  1.
     -623   -1    0    0    0    0  0.00000000000E+00  0.00000000000E+00  0.12525980253E-10  0.17130000000E+03  0.17130000000E+03 0.  1.
       11    1    1    2    0    0 -0.39329900891E-01 -0.28676578686E-01  0.14430416844E+01  0.14438624420E+01  0.51109989000E-03 0.  1.
     -623    1    1    2    0    0 -0.58749447243E-02  0.41360823364E-01  0.32142372856E-02  0.17130000512E+03  0.17130000000E+03 0.  1.
      622    1    1    2    0    0  0.45204845615E-01 -0.12684244678E-01  0.25537440457E+01  0.25561324338E+01  0.10000000000E+00 0. -1.
</event>
<event>
 5   0  0.6262544E+06  0.9118800E+02  0.7818608E-02  0.1180000E+00
       11   -1    0    0    0    0  0.00000000000E+00  0.00000000000E+00  0.39999999673E+01  0.40000000000E+01  0.51109989000E-03 0.  1.
     -623   -1    0    0    0    0  0.00000000000E+00  0.00000000000E+00  0.12525980253E-10  0.17130000000E+03  0.17130000000E+03 0. -1.
       11    1    1    2    0    0  0.54512025245E-02 -0.48984036175E-01  0.55413238410E-01  0.74162252009E-01  0.51109989000E-03 0.  1.
     -623    1    1    2    0    0  0.18977623128E-01  0.13827955349E-01  0.20259109637E-01  0.17130000281E+03  0.17130000000E+03 0. -1.
      622    1    1    2    0    0 -0.24428825653E-01  0.35156080826E-01  0.39243276193E+01  0.39258349407E+01  0.10000000000E+00 0.  1.
</event>
<event>
 5   0  0.6262544E+06  0.9118800E+02  0.7818608E-02  0.1180000E+00
       11   -1    0    0    0    0  0.00000000000E+00  0.00000000000E+00  0.39999999673E+01  0.40000000000E+01  0.51109989000E-03 0. -1.
     -623   -1    0    0    0    0  0.00000000000E+00  0.00000000000E+00  0.12525980253E-10  0.17130000000E+03  0.17130000000E+03 0.  1.
       11    1    1    2    0    0  0.20023431465E-02  0.75237188834E-02  0.10067768246E-01  0.12737225148E-01  0.51109989000E-03 0. -1.
     -623    1    1    2    0    0  0.38768572670E-02 -0.55077159288E-02  0.39286377424E-02  0.17130000018E+03  0.17130000000E+03 0.  1.
      622    1    1    2    0    0 -0.58792004135E-02 -0.20160029546E-02  0.39860035614E+01  0.39872625974E+01  0.10000000000E+00 0. -1.
</event>
<event>
 5   0  0.6262544E+06  0.9118800E+02  0.7818608E-02  0.1180000E+00
       11   -1    0    0    0    0  0.00000000000E+00  0.00000000000E+00  0.39999999673E+01  0.40000000000E+01  0.51109989000E-03 0. -1.
     -623   -1    0    0    0    0  0.00000000000E+00  0.00000000000E+00  0.12525980253E-10  0.17130000000E+03  0.17130000000E+03 0.  1.
       11    1    1    2    0    0 -0.12655124963E-01  0.19954509068E-02  0.43706787126E-01  0.45548638576E-01  0.51109989000E-03 0. -1.
     -623    1    1    2    0    0  0.26383562971E-02 -0.41142758899E-02  0.31197754043E-02  0.17130000010E+03  0.17130000000E+03 0.  1.
      622    1    1    2    0    0  0.10016768666E-01  0.21188249831E-02  0.39531734049E+01  0.39544512633E+01  0.10000000000E+00 0. -1.
</event>
<event>
 5   0  0.6262544E+06  0.9118800E+02  0.7818608E-02  0.1180000E+00
       11   -1    0    0    0    0  0.00000000000E+00  0.00000000000E+00  0.39999999673E+01  0.40000000000E+01  0.51109989000E-03 0. -1.
     -623   -1    0    0    0    0  0.00000000000E+00  0.00000000000E+00  0.12525980253E-10  0.17130000000E+03  0.17130000000E+03 0. -1.
       11    1    1    2    0    0  0.17186004790E-01  0.88936533866E-02  0.27537080301E+00  0.27605035085E+00  0.51109989000E-03 0. -1.
     -623    1    1    2    0    0  0.15223324335E-02 -0.69049917604E-02  0.20701181164E-02  0.17130000016E+03  0.17130000000E+03 0. -1.
      622    1    1    2    0    0 -0.18708337223E-01 -0.19886616260E-02  0.37225590464E+01  0.37239494908E+01  0.10000000000E+00 0. -1.
</event>
<event>
 5   0  0.6262544E+06  0.9118800E+02  0.7818608E-02  0.1180000E+00
       11   -1    0    0    0    0  0.00000000000E+00  0.00000000000E+00  0.39999999673E+01  0.40000000000E+01  0.51109989000E-03 0. -1.
     -623   -1    0    0    0    0  0.00000000000E+00  0.00000000000E+00  0.12525980253E-10  0.17130000000E+03  0.17130000000E+03 0. -1.
       11    1    1    2    0    0 -0.13819744002E-01  0.89449969121E-02  0.33680221920E+00  0.33720467727E+00  0.51109989000E-03 0. -1.
     -623    1    1    2    0    0 -0.23275478282E-03  0.13515499363E-02  0.18092172346E-02  0.17130000002E+03  0.17130000000E+03 0. -1.
      622    1    1    2    0    0  0.14052498785E-01 -0.10296546848E-01  0.36613885309E+01  0.36627953077E+01  0.10000000000E+00 0. -1.
</event>
<event>
 5   0  0.6262544E+06  0.9118800E+02  0.7818608E-02  0.1180000E+00
       11   -1    0    0    0    0  0.00000000000E+00  0.00000000000E+00  0.39999999673E+01  0.40000000000E+01  0.51109989000E-03 0.  1.
     -623   -1    0    0    0    0  0.00000000000E+00  0.00000000000E+00  0.12525980253E-10  0.17130000000E+03  0.17130000000E+03 0.  1.
       11    1    1    2    0    0 -0.38973234658E-02  0.15943931494E-02  0.33701798856E-01  0.33967685940E-01  0.51109989000E-03 0.  1.
     -623    1    1    2    0    0  0.10094846446E-01 -0.51011106567E-03  0.15320579424E-02  0.17130000031E+03  0.17130000000E+03 0.  1.
      622    1    1    2    0    0 -0.61975229804E-02 -0.10842820837E-02  0.39647661106E+01  0.39660320090E+01  0.10000000000E+00 0.  1.
</event>
<event>
 5   0  0.6262544E+06  0.9118800E+02  0.7818608E-02  0.1180000E+00
       11   -1    0    0    0    0  0.00000000000E+00  0.00000000000E+00  0.39999999673E+01  0.40000000000E+01  0.51109989000E-03 0. -1.
     -623   -1    0    0    0    0  0.00000000000E+00  0.00000000000E+00  0.12525980253E-10  0.17130000000E+03  0.17130000000E+03 0.  1.
       11    1    1    2    0    0 -0.37499506797E-02 -0.18309883539E-01  0.58523407396E-01  0.61437483686E-01  0.51109989000E-03 0. -1.
     -623    1    1    2    0    0  0.56531523656E-02 -0.22492830244E-02  0.42380442865E-02  0.17130000016E+03  0.17130000000E+03 0.  1.
      622    1    1    2    0    0 -0.19032016859E-02  0.20559166564E-01  0.39372385157E+01  0.39385623559E+01  0.10000000000E+00 0. -1.
</event>
<event>
 5   0  0.6262544E+06  0.9118800E+02  0.7818608E-02  0.1180000E+00
       11   -1    0    0    0    0  0.00000000000E+00  0.00000000000E+00  0.39999999673E+01  0.40000000000E+01  0.51109989000E-03 0.  1.
     -623   -1    0    0    0    0  0.00000000000E+00  0.00000000000E+00  0.12525980253E-10  0.17130000000E+03  0.17130000000E+03 0.  1.
       11    1    1    2    0    0  0.32192296853E-02 -0.13974577129E-01  0.14580117872E+01  0.14580823999E+01  0.51109989000E-03 0.  1.
     -623    1    1    2    0    0 -0.30046311515E-02  0.18301924599E-02  0.20674518393E-02  0.17130000005E+03  0.17130000000E+03 0.  1.
      622    1    1    2    0    0 -0.21459853383E-03  0.12144384669E-01  0.25399207284E+01  0.25419175515E+01  0.10000000000E+00 0. -1.
</event>
<event>
 5   0  0.6262544E+06  0.9118800E+02  0.7818608E-02  0.1180000E+00
       11   -1    0    0    0    0  0.00000000000E+00  0.00000000000E+00  0.39999999673E+01  0.40000000000E+01  0.51109989000E-03 0.  1.
     -623   -1    0    0    0    0  0.00000000000E+00  0.00000000000E+00  0.12525980253E-10  0.17130000000E+03  0.17130000000E+03 0.  1.
       11    1    1    2    0    0 -0.25827814597E-01  0.24746115297E-01  0.46088858156E+00  0.46227480146E+00  0.51109989000E-03 0.  1.
     -623    1    1    2    0    0  0.13802147646E-01  0.54146658012E-03  0.29112519555E-02  0.17130000058E+03  0.17130000000E+03 0.  1.
      622    1    1    2    0    0  0.12025666951E-01 -0.25287581877E-01  0.35362001339E+01  0.35377246170E+01  0.10000000000E+00 0.  1.
</event>
<event>
 5   0  0.6262544E+06  0.9118800E+02  0.7818608E-02  0.1180000E+00
       11   -1    0    0    0    0  0.00000000000E+00  0.00000000000E+00  0.39999999673E+01  0.40000000000E+01  0.51109989000E-03 0. -1.
     -623   -1    0    0    0    0  0.00000000000E+00  0.00000000000E+00  0.12525980253E-10  0.17130000000E+03  0.17130000000E+03 0.  1.
       11    1    1    2    0    0 -0.47837583307E-02  0.24899624219E-02  0.87585484311E-01  0.87752849194E-01  0.51109989000E-03 0. -1.
     -623    1    1    2    0    0  0.30798412995E-02 -0.50059634868E-02  0.14468663812E-02  0.17130000011E+03  0.17130000000E+03 0.  1.
      622    1    1    2    0    0  0.17039170309E-02  0.25160010654E-02  0.39109676171E+01  0.39122470443E+01  0.10000000000E+00 0. -1.
</event>
<event>
 5   0  0.6262544E+06  0.9118800E+02  0.7818608E-02  0.1180000E+00
       11   -1    0    0    0    0  0.00000000000E+00  0.00000000000E+00  0.39999999673E+01  0.40000000000E+01  0.51109989000E-03 0.  1.
     -623   -1    0    0    0    0  0.00000000000E+00  0.00000000000E+00  0.12525980253E-10  0.17130000000E+03  0.17130000000E+03 0.  1.
       11    1    1    2    0    0 -0.83469231131E-03 -0.29832701992E-02  0.15898275691E-01  0.16205338793E-01  0.51109989000E-03 0.  1.
     -623    1    1    2    0    0 -0.40113354652E-03  0.16344014140E-02  0.15627485709E-02  0.17130000002E+03  0.17130000000E+03 0.  1.
      622    1    1    2    0    0  0.12358258579E-02  0.13488687851E-02  0.39825389434E+01  0.39837946461E+01  0.10000000000E+00 0.  1.
</event>
<event>
 5   0  0.6262544E+06  0.9118800E+02  0.7818608E-02  0.1180000E+00
       11   -1    0    0    0    0  0.00000000000E+00  0.00000000000E+00  0.39999999673E+01  0.40000000000E+01  0.51109989000E-03 0. -1.
     -623   -1    0    0    0    0  0.00000000000E+00  0.00000000000E+00  0.12525980253E-10  0.17130000000E+03  0.17130000000E+03 0.  1.
       11    1    1    2    0    0  0.68342177057E-02 -0.32098139227E-01  0.81954141381E+00  0.82019838286E+00  0.51109989000E-03 0. -1.
     -623    1    1    2    0    0  0.62485369891E-02  0.55140871114E-02  0.23680795700E-02  0.17130000022E+03  0.17130000000E+03 0.  1.
      622    1    1    2    0    0 -0.13082754695E-01  0.26584052116E-01  0.31780904740E+01  0.31798013981E+01  0.10000000000E+00 0. -1.
</event>
<event>
 5   0  0.6262544E+06  0.9118800E+02  0.7818608E-02  0.1180000E+00
       11   -1    0    0    0    0  0.00000000000E+00  0.00000000000E+00  0.39999999673E+01  0.40000000000E+01  0.51109989000E-03 0. -1.
     -623   -1    0    0    0    0  0.00000000000E+00  0.00000000000E+00  0.12525980253E-10  0.17130000000E+03  0.17130000000E+03 0.  1.
       11    1    1    2    0    0 -0.13599186067E-02  0.12579998701E-02  0.58273160327E-01  0.58304840107E-01  0.51109989000E-03 0. -1.
     -623    1    1    2    0    0 -0.72341786216E-03 -0.50201304815E-03  0.13009715512E-02  0.17130000001E+03  0.17130000000E+03 0.  1.
      622    1    1    2    0    0  0.20833364689E-02 -0.75598682195E-03  0.39404258355E+01  0.39416951527E+01  0.10000000000E+00 0. -1.
</event>
<event>
 5   0  0.6262544E+06  0.9118800E+02  0.7818608E-02  0.1180000E+00
       11   -1    0    0    0    0  0.00000000000E+00  0.00000000000E+00  0.39999999673E+01  0.40000000000E+01  0.51109989000E-03 0. -1.
     -623   -1    0    0    0    0  0.00000000000E+00  0.00000000000E+00  0.12525980253E-10  0.17130000000E+03  0.17130000000E+03 0. -1.
       11    1    1    2    0    0  0.64765229466E-02 -0.10724029492E-01  0.11059339011E-01  0.16718862416E-01  0.51109989000E-03 0. -1.
     -623    1    1    2    0    0 -0.93177165481E-02 -0.48122693636E-02  0.69467191874E-02  0.17130000046E+03  0.17130000000E+03 0. -1.
      622    1    1    2    0    0  0.28411936015E-02  0.15536298856E-01  0.39819939092E+01  0.39832806757E+01  0.10000000000E+00 0. -1.
</event>
<event>
 5   0  0.6262544E+06  0.9118800E+02  0.7818608E-02  0.1180000E+00
       11   -1    0    0    0    0  0.00000000000E+00  0.00000000000E+00  0.39999999673E+01  0.40000000000E+01  0.51109989000E-03 0. -1.
     -623   -1    0    0    0    0  0.00000000000E+00  0.00000000000E+00  0.12525980253E-10  0.17130000000E+03  0.17130000000E+03 0. -1.
       11    1    1    2    0    0 -0.16785742231E-01  0.21729142415E-02  0.10373615643E-01  0.19858394274E-01  0.51109989000E-03 0. -1.
     -623    1    1    2    0    0  0.85842763083E-02  0.10653907672E-01  0.10771194128E-01  0.17130000089E+03  0.17130000000E+03 0. -1.
      622    1    1    2    0    0  0.82014659226E-02 -0.12826821913E-01  0.39788551576E+01  0.39801407207E+01  0.10000000000E+00 0. -1.
</event>
<event>
 5   0  0.6262544E+06  0.9118800E+02  0.7818608E-02  0.1180000E+00
       11   -1    0    0    0    0  0.00000000000E+00  0.00000000000E+00  0.39999999673E+01  0.40000000000E+01  0.51109989000E-03 0. -1.
     -623   -1    0    0    0    0  0.00000000000E+00  0.00000000000E+00  0.12525980253E-10  0.17130000000E+03  0.17130000000E+03 0. -1.
       11    1    1    2    0    0 -0.16057275244E-01 -0.80233961975E-01  0.17073362298E+01  0.17092959333E+01  0.51109989000E-03 0. -1.
     -623    1    1    2    0    0 -0.19415887921E-01 -0.85457047880E-02  0.61427067251E-02  0.17130000142E+03  0.17130000000E+03 0. -1.
      622    1    1    2    0    0  0.35473163164E-01  0.88779666764E-01  0.22865210309E+01  0.22907026431E+01  0.10000000000E+00 0. -1.
</event>
<event>
 5   0  0.6262544E+06  0.9118800E+02  0.7818608E-02  0.1180000E+00
       11   -1    0    0    0    0  0.00000000000E+00  0.00000000000E+00  0.39999999673E+01  0.40000000000E+01  0.51109989000E-03 0. -1.
     -623   -1    0    0    0    0  0.00000000000E+00  0.00000000000E+00  0.12525980253E-10  0.17130000000E+03  0.17130000000E+03 0. -1.
       11    1    1    2    0    0  0.30378422721E-02  0.32061345479E-02  0.61707966420E-02  0.76057700928E-02  0.51109989000E-03 0. -1.
     -623    1    1    2    0    0 -0.10903390383E-02 -0.52803869468E-02  0.26886387797E-02  0.17130000011E+03  0.17130000000E+03 0. -1.
      622    1    1    2    0    0 -0.19475032338E-02  0.20742523991E-02  0.39911405321E+01  0.39923941241E+01  0.10000000000E+00 0. -1.
</event>
<event>
 5   0  0.6262544E+06  0.9118800E+02  0.7818608E-02  0.1180000E+00
       11   -1    0    0    0    0  0.00000000000E+00  0.00000000000E+00  0.39999999673E+01  0.40000000000E+01  0.51109989000E-03 0. -1.
     -623   -1    0    0    0    0  0.00000000000E+00  0.00000000000E+00  0.12525980253E-10  0.17130000000E+03  0.17130000000E+03 0. -1.
       11    1    1    2    0    0 -0.24371749093E-01  0.18472699830E-01  0.14626585093E+00  0.14942952575E+00  0.51109989000E-03 0. -1.
     -623    1    1    2    0    0 -0.11189646779E-01 -0.73446836855E-02  0.46433121123E-02  0.17130000059E+03  0.17130000000E+03 0. -1.
      622    1    1    2    0    0  0.35561395872E-01 -0.11128016145E-01  0.38490908043E+01  0.38505698884E+01  0.10000000000E+00 0. -1.
</event>
<event>
 5   0  0.6262544E+06  0.9118800E+02  0.7818608E-02  0.1180000E+00
       11   -1    0    0    0    0  0.00000000000E+00  0.00000000000E+00  0.39999999673E+01  0.40000000000E+01  0.51109989000E-03 0. -1.
     -623   -1    0    0    0    0  0.00000000000E+00  0.00000000000E+00  0.12525980253E-10  0.17130000000E+03  0.17130000000E+03 0.  1.
       11    1    1    2    0    0  0.17855224408E-02 -0.49099835054E-02  0.67033785070E-01  0.67239018377E-01  0.51109989000E-03 0. -1.
     -623    1    1    2    0    0 -0.17679211492E-02 -0.41620540531E-02  0.14873109034E-02  0.17130000007E+03  0.17130000000E+03 0.  1.
      622    1    1    2    0    0 -0.17601291468E-04  0.90720375587E-02  0.39314788716E+01  0.39327609157E+01  0.10000000000E+00 0. -1.
</event>
<event>
 5   0  0.6262544E+06  0.9118800E+02  0.7818608E-02  0.1180000E+00
       11   -1    0    0    0    0  0.00000000000E+00  0.00000000000E+00  0.39999999673E+01  0.40000000000E+01  0.51109989000E-03 0.  1.
     -623   -1    0    0    0    0  0.00000000000E+00  0.00000000000E+00  0.12525980253E-10  0.17130000000E+03  0.17130000000E+03 0. -1.
       11    1    1    2    0    0 -0.35891457888E-01 -0.31481347810E-02 -0.30772623479E-02  0.36164046629E-01  0.51109989000E-03 0.  1.
     -623    1    1    2    0    0  0.38798229198E-01 -0.17133726126E-01  0.40565910070E-01  0.17130001005E+03  0.17130000000E+03 0. -1.
      622    1    1    2    0    0 -0.29067713107E-02  0.20281860908E-01  0.39625113196E+01  0.39638258995E+01  0.10000000000E+00 0.  1.
</event>
<event>
 5   0  0.6262544E+06  0.9118800E+02  0.7818608E-02  0.1180000E+00
       11   -1    0    0    0    0  0.00000000000E+00  0.00000000000E+00  0.39999999673E+01  0.40000000000E+01  0.51109989000E-03 0. -1.
     -623   -1    0    0    0    0  0.00000000000E+00  0.00000000000E+00  0.12525980253E-10  0.17130000000E+03  0.17130000000E+03 0. -1.
       11    1    1    2    0    0 -0.26275353027E-02 -0.15346716467E-02  0.38299931611E-03  0.31091912781E-02  0.51109989000E-03 0. -1.
     -623    1    1    2    0    0  0.30905028488E-02 -0.20624982132E-02  0.39790601073E-02  0.17130000009E+03  0.17130000000E+03 0. -1.
      622    1    1    2    0    0 -0.46296754600E-03  0.35971698599E-02  0.39956379078E+01  0.39968907221E+01  0.10000000000E+00 0. -1.
</event>
<event>
 5   0  0.6262544E+06  0.9118800E+02  0.7818608E-02  0.1180000E+00
       11   -1    0    0    0    0  0.00000000000E+00  0.00000000000E+00  0.39999999673E+01  0.40000000000E+01  0.51109989000E-03 0. -1.
     -623   -1    0    0    0    0  0.00000000000E+00  0.00000000000E+00  0.12525980253E-10  0.17130000000E+03  0.17130000000E+03 0. -1.
       11    1    1    2    0    0  0.74965101330E-03 -0.16827125426E-02  0.31457155938E-02  0.36810661278E-02  0.51109989000E-03 0. -1.
     -623    1    1    2    0    0  0.28784979174E-02  0.51090849706E-02  0.17898917426E-02  0.17130000011E+03  0.17130000000E+03 0. -1.
      622    1    1    2    0    0 -0.36281489306E-02 -0.34263724279E-02  0.39950643600E+01  0.39963188241E+01  0.10000000000E+00 0. -1.
</event>
<event>
 5   0  0.6262544E+06  0.9118800E+02  0.7818608E-02  0.1180000E+00
       11   -1    0    0    0    0  0.00000000000E+00  0.00000000000E+00  0.39999999673E+01  0.40000000000E+01  0.51109989000E-03 0.  1.
     -623   -1    0    0    0    0  0.00000000000E+00  0.00000000000E+00  0.12525980253E-10  0.17130000000E+03  0.17130000000E+03 0. -1.
       11    1    1    2    0    0  0.97505554673E-02 -0.21754410437E-01  0.31142206894E+00  0.31233362604E+00  0.51109989000E-03 0.  1.
     -623    1    1    2    0    0 -0.21567331385E-01  0.87570105142E-02  0.23110961207E-02  0.17130000160E+03  0.17130000000E+03 0. -1.
      622    1    1    2    0    0  0.11816775917E-01  0.12997399923E-01  0.36862668023E+01  0.36876647768E+01  0.10000000000E+00 0.  1.
</event>
<event>
 5   0  0.6262544E+06  0.9118800E+02  0.7818608E-02  0.1180000E+00
       11   -1    0    0    0    0  0.00000000000E+00  0.00000000000E+00  0.39999999673E+01  0.40000000000E+01  0.51109989000E-03 0.  1.
     -623   -1    0    0    0    0  0.00000000000E+00  0.00000000000E+00  0.12525980253E-10  0.17130000000E+03  0.17130000000E+03 0.  1.
       11    1    1    2    0    0 -0.13855937075E-02 -0.17932541262E-02  0.33116904257E-01  0.33198286112E-01  0.51109989000E-03 0.  1.
     -623    1    1    2    0    0  0.19331191328E-02  0.42182197027E-02  0.13428581966E-02  0.17130000007E+03  0.17130000000E+03 0.  1.
      622    1    1    2    0    0 -0.54752542530E-03 -0.24249655765E-02  0.39655402049E+01  0.39668016458E+01  0.10000000000E+00 0.  1.
</event>
<event>
 5   0  0.6262544E+06  0.9118800E+02  0.7818608E-02  0.1180000E+00
       11   -1    0    0    0    0  0.00000000000E+00  0.00000000000E+00  0.39999999673E+01  0.40000000000E+01  0.51109989000E-03 0. -1.
     -623   -1    0    0    0    0  0.00000000000E+00  0.00000000000E+00  0.12525980253E-10  0.17130000000E+03  0.17130000000E+03 0. -1.
       11    1    1    2    0    0  0.27534099842E-01  0.13027042927E-01  0.27758920138E+00  0.27925589778E+00  0.51109989000E-03 0. -1.
     -623    1    1    2    0    0 -0.28735536972E-01 -0.78730219090E-02  0.30171074207E-02  0.17130000262E+03  0.17130000000E+03 0. -1.
      622    1    1    2    0    0  0.12014371295E-02 -0.51540210182E-02  0.37193936584E+01  0.37207414844E+01  0.10000000000E+00 0. -1.
</event>
<event>
 5   0  0.6262544E+06  0.9118800E+02  0.7818608E-02  0.1180000E+00
       11   -1    0    0    0    0  0.00000000000E+00  0.00000000000E+00  0.39999999673E+01  0.40000000000E+01  0.51109989000E-03 0.  1.
     -623   -1    0    0    0    0  0.00000000000E+00  0.00000000000E+00  0.12525980253E-10  0.17130000000E+03  0.17130000000E+03 0.  1.
       11    1    1    2    0    0  0.70649250806E-01 -0.62960646849E-01  0.35613419131E+01  0.35625990292E+01  0.51109989000E-03 0.  1.
     -623    1    1    2    0    0  0.62639504801E-02 -0.93869767664E-02  0.26144151959E-01  0.17130000237E+03  0.17130000000E+03 0.  1.
      622    1    1    2    0    0 -0.76913201286E-01  0.72347623615E-01  0.41251390233E+00  0.43739860401E+00  0.10000000000E+00 0.  0.
</event>
<event>
 5   0  0.6262544E+06  0.9118800E+02  0.7818608E-02  0.1180000E+00
       11   -1    0    0    0    0  0.00000000000E+00  0.00000000000E+00  0.39999999673E+01  0.40000000000E+01  0.51109989000E-03 0. -1.
     -623   -1    0    0    0    0  0.00000000000E+00  0.00000000000E+00  0.12525980253E-10  0.17130000000E+03  0.17130000000E+03 0. -1.
       11    1    1    2    0    0  0.36636605695E-01  0.32167886467E-02  0.25485029217E+00  0.25749081779E+00  0.51109989000E-03 0. -1.
     -623    1    1    2    0    0  0.95701438841E-02  0.11358925576E-01  0.42911852769E-02  0.17130000070E+03  0.17130000000E+03 0. -1.
      622    1    1    2    0    0 -0.46206749579E-01 -0.14575714222E-01  0.37408584899E+01  0.37425084845E+01  0.10000000000E+00 0. -1.
</event>
<event>
 5   0  0.6262544E+06  0.9118800E+02  0.7818608E-02  0.1180000E+00
       11   -1    0    0    0    0  0.00000000000E+00  0.00000000000E+00  0.39999999673E+01  0.40000000000E+01  0.51109989000E-03 0. -1.
     -623   -1    0    0    0    0  0.00000000000E+00  0.00000000000E+00  0.12525980253E-10  0.17130000000E+03  0.17130000000E+03 0. -1.
       11    1    1    2    0    0  0.27179977167E-01 -0.31571014006E-01  0.52131308692E+00  0.52297521538E+00  0.51109989000E-03 0. -1.
     -623    1    1    2    0    0 -0.57330621774E-01 -0.32542469561E-01  0.38353377715E-02  0.17130001273E+03  0.17130000000E+03 0. -1.
      622    1    1    2    0    0  0.30150644607E-01  0.64113483567E-01  0.34748515427E+01  0.34770120569E+01  0.10000000000E+00 0. -1.
</event>
<event>
 5   0  0.6262544E+06  0.9118800E+02  0.7818608E-02  0.1180000E+00
       11   -1    0    0    0    0  0.00000000000E+00  0.00000000000E+00  0.39999999673E+01  0.40000000000E+01  0.51109989000E-03 0.  1.
     -623   -1    0    0    0    0  0.00000000000E+00  0.00000000000E+00  0.12525980253E-10  0.17130000000E+03  0.17130000000E+03 0. -1.
       11    1    1    2    0    0 -0.10320553126E-01 -0.25936397636E-01  0.97559792619E+00  0.97599732856E+00  0.51109989000E-03 0.  1.
     -623    1    1    2    0    0 -0.95375293733E-02  0.24431861379E-02  0.22101073162E-02  0.17130000030E+03  0.17130000000E+03 0. -1.
      622    1    1    2    0    0  0.19858082499E-01  0.23493211498E-01  0.30221919338E+01  0.30240023742E+01  0.10000000000E+00 0.  1.
</event>
<event>
 5   0  0.6262544E+06  0.9118800E+02  0.7818608E-02  0.1180000E+00
       11   -1    0    0    0    0  0.00000000000E+00  0.00000000000E+00  0.39999999673E+01  0.40000000000E+01  0.51109989000E-03 0. -1.
     -623   -1    0    0    0    0  0.00000000000E+00  0.00000000000E+00  0.12525980253E-10  0.17130000000E+03  0.17130000000E+03 0.  1.
       11    1    1    2    0    0  0.22302537709E-01  0.24195707148E-02  0.17413955862E+00  0.17557933993E+00  0.51109989000E-03 0. -1.
     -623    1    1    2    0    0  0.17987776465E-01  0.18264880089E-01  0.30175720328E-02  0.17130000194E+03  0.17130000000E+03 0.  1.
      622    1    1    2    0    0 -0.40290314174E-01 -0.20684450804E-01  0.38228428367E+01  0.38244187153E+01  0.10000000000E+00 0. -1.
</event>
<event>
 5   0  0.6262544E+06  0.9118800E+02  0.7818608E-02  0.1180000E+00
       11   -1    0    0    0    0  0.00000000000E+00  0.00000000000E+00  0.39999999673E+01  0.40000000000E+01  0.51109989000E-03 0. -1.
     -623   -1    0    0    0    0  0.00000000000E+00  0.00000000000E+00  0.12525980253E-10  0.17130000000E+03  0.17130000000E+03 0. -1.
       11    1    1    2    0    0  0.14255422014E-02  0.95888600376E-03  0.45052971807E-01  0.45088614127E-01  0.51109989000E-03 0. -1.
     -623    1    1    2    0    0 -0.45331987894E-02 -0.46756425492E-02  0.13031598094E-02  0.17130000013E+03  0.17130000000E+03 0. -1.
      622    1    1    2    0    0  0.31076565880E-02  0.37167565454E-02  0.39536438357E+01  0.39549112571E+01  0.10000000000E+00 0. -1.
</event>
<event>
 5   0  0.6262544E+06  0.9118800E+02  0.7818608E-02  0.1180000E+00
       11   -1    0    0    0    0  0.00000000000E+00  0.00000000000E+00  0.39999999673E+01  0.40000000000E+01  0.51109989000E-03 0. -1.
     -623   -1    0    0    0    0  0.00000000000E+00  0.00000000000E+00  0.12525980253E-10  0.17130000000E+03  0.17130000000E+03 0.  1.
       11    1    1    2    0    0  0.94037738428E-04  0.76216279597E-02  0.27021137523E-02  0.81031288821E-02  0.51109989000E-03 0. -1.
     -623    1    1    2    0    0 -0.12788889252E-02 -0.17025746525E-01  0.66659538228E-02  0.17130000098E+03  0.17130000000E+03 0.  1.
      622    1    1    2    0    0  0.11848511868E-02  0.94041185657E-02  0.39906318998E+01  0.39918958906E+01  0.10000000000E+00 0. -1.
</event>
<event>
 5   0  0.6262544E+06  0.9118800E+02  0.7818608E-02  0.1180000E+00
       11   -1    0    0    0    0  0.00000000000E+00  0.00000000000E+00  0.39999999673E+01  0.40000000000E+01  0.51109989000E-03 0. -1.
     -623   -1    0    0    0    0  0.00000000000E+00  0.00000000000E+00  0.12525980253E-10  0.17130000000E+03  0.17130000000E+03 0.  1.
       11    1    1    2    0    0  0.16261242394E-01  0.39855772824E-02  0.10380123254E+00  0.10514404371E+00  0.51109989000E-03 0. -1.
     -623    1    1    2    0    0  0.46576786667E-02 -0.11495015694E-01  0.26906424828E-02  0.17130000047E+03  0.17130000000E+03 0.  1.
      622    1    1    2    0    0 -0.20918921061E-01  0.75094384117E-02  0.38935080923E+01  0.38948554861E+01  0.10000000000E+00 0.  0.
</event>
<event>
 5   0  0.6262544E+06  0.9118800E+02  0.7818608E-02  0.1180000E+00
       11   -1    0    0    0    0  0.00000000000E+00  0.00000000000E+00  0.39999999673E+01  0.40000000000E+01  0.51109989000E-03 0.  1.
     -623   -1    0    0    0    0  0.00000000000E+00  0.00000000000E+00  0.12525980253E-10  0.17130000000E+03  0.17130000000E+03 0. -1.
       11    1    1    2    0    0 -0.14231647381E-01 -0.34699940153E-01  0.86158093690E-01  0.93968632880E-01  0.51109989000E-03 0.  1.
     -623    1    1    2    0    0 -0.12233653382E-01 -0.21651416918E-02  0.93552135138E-02  0.17130000071E+03  0.17130000000E+03 0. -1.
      622    1    1    2    0    0  0.26465300763E-01  0.36865081845E-01  0.39044866602E+01  0.39060306611E+01  0.10000000000E+00 0.  1.
</event>
<event>
 5   0  0.6262544E+06  0.9118800E+02  0.7818608E-02  0.1180000E+00
       11   -1    0    0    0    0  0.00000000000E+00  0.00000000000E+00  0.39999999673E+01  0.40000000000E+01  0.51109989000E-03 0. -1.
     -623   -1    0    0    0    0  0.00000000000E+00  0.00000000000E+00  0.12525980253E-10  0.17130000000E+03  0.17130000000E+03 0.  1.
       11    1    1    2    0    0  0.38806194940E-03 -0.83602993992E-02  0.50086995491E-01  0.50783988989E-01  0.51109989000E-03 0. -1.
     -623    1    1    2    0    0 -0.89745792663E-03 -0.20041242567E-02  0.19769010083E-02  0.17130000003E+03  0.17130000000E+03 0.  1.
      622    1    1    2    0    0  0.50939597722E-03  0.10364423656E-01  0.39479360709E+01  0.39492159855E+01  0.10000000000E+00 0. -1.
</event>
<event>
 5   0  0.6262544E+06  0.9118800E+02  0.7818608E-02  0.1180000E+00
       11   -1    0    0    0    0  0.00000000000E+00  0.00000000000E+00  0.39999999673E+01  0.40000000000E+01  0.51109989000E-03 0.  1.
     -623   -1    0    0    0    0  0.00000000000E+00  0.00000000000E+00  0.12525980253E-10  0.17130000000E+03  0.17130000000E+03 0.  1.
       11    1    1    2    0    0  0.53279568810E-02 -0.19528353367E-01  0.12430173540E+00  0.12594016975E+00  0.51109989000E-03 0.  1.
     -623    1    1    2    0    0 -0.12164135285E-01  0.53209123177E-01  0.30904737630E-02  0.17130000872E+03  0.17130000000E+03 0.  1.
      622    1    1    2    0    0  0.68361784041E-02 -0.33680769811E-01  0.38726077583E+01  0.38740511067E+01  0.10000000000E+00 0.  1.
</event>
<event>
 5   0  0.6262544E+06  0.9118800E+02  0.7818608E-02  0.1180000E+00
       11   -1    0    0    0    0  0.00000000000E+00  0.00000000000E+00  0.39999999673E+01  0.40000000000E+01  0.51109989000E-03 0.  1.
     -623   -1    0    0    0    0  0.00000000000E+00  0.00000000000E+00  0.12525980253E-10  0.17130000000E+03  0.17130000000E+03 0.  1.
       11    1    1    2    0    0  0.93750590351E-03 -0.18971072182E-03  0.25669197813E-02  0.27866122332E-02  0.51109989000E-03 0.  1.
     -623    1    1    2    0    0 -0.43896969578E-02 -0.42538323055E-03  0.14723286867E-02  0.17130000006E+03  0.17130000000E+03 0.  1.
      622    1    1    2    0    0  0.34521910541E-02  0.61509395235E-03  0.39959607187E+01  0.39972133245E+01  0.10000000000E+00 0.  1.
</event>
<event>
 5   0  0.6262544E+06  0.9118800E+02  0.7818608E-02  0.1180000E+00
       11   -1    0    0    0    0  0.00000000000E+00  0.00000000000E+00  0.39999999673E+01  0.40000000000E+01  0.51109989000E-03 0.  1.
     -623   -1    0    0    0    0  0.00000000000E+00  0.00000000000E+00  0.12525980253E-10  0.17130000000E+03  0.17130000000E+03 0.  1.
       11    1    1    2    0    0  0.11625503501E-01  0.12942439362E-01  0.10616702678E+00  0.10758418965E+00  0.51109989000E-03 0.  1.
     -623    1    1    2    0    0 -0.26382149251E-01 -0.91867374904E-02  0.27339860831E-02  0.17130000230E+03  0.17130000000E+03 0.  1.
      622    1    1    2    0    0  0.14756645750E-01 -0.37557018713E-02  0.38910989545E+01  0.38924135106E+01  0.10000000000E+00 0.  1.
</event>
<event>
 5   0  0.6262544E+06  0.9118800E+02  0.7818608E-02  0.1180000E+00
       11   -1    0    0    0    0  0.00000000000E+00  0.00000000000E+00  0.39999999673E+01  0.40000000000E+01  0.51109989000E-03 0.  1.
     -623   -1    0    0    0    0  0.00000000000E+00  0.00000000000E+00  0.12525980253E-10  0.17130000000E+03  0.17130000000E+03 0. -1.
       11    1    1    2    0    0  0.46372388913E-01  0.30561454565E-02  0.18803968561E+00  0.19369802029E+00  0.51109989000E-03 0.  1.
     -623    1    1    2    0    0 -0.12737872904E-02  0.77969233515E-03  0.72415078545E-02  0.17130000016E+03  0.17130000000E+03 0. -1.
      622    1    1    2    0    0 -0.45098601623E-01 -0.38358377916E-02  0.38047187739E+01  0.38063018201E+01  0.10000000000E+00 0.  0.
</event>
<event>
 5   0  0.6262544E+06  0.9118800E+02  0.7818608E-02  0.1180000E+00
       11   -1    0    0    0    0  0.00000000000E+00  0.00000000000E+00  0.39999999673E+01  0.40000000000E+01  0.51109989000E-03 0. -1.
     -623   -1    0    0    0    0  0.00000000000E+00  0.00000000000E+00  0.12525980253E-10  0.17130000000E+03  0.17130000000E+03 0. -1.
       11    1    1    2    0    0 -0.26268178420E-02 -0.69608429936E-02  0.11478814173E-01  0.13688604935E-01  0.51109989000E-03 0. -1.
     -623    1    1    2    0    0 -0.20558031067E-01 -0.22212131686E-02  0.35435561394E-02  0.17130000128E+03  0.17130000000E+03 0. -1.
      622    1    1    2    0    0  0.23184848909E-01  0.91820561622E-02  0.39849775970E+01  0.39863101103E+01  0.10000000000E+00 0. -1.
</event>
<event>
 5   0  0.6262544E+06  0.9118800E+02  0.7818608E-02  0.1180000E+00
       11   -1    0    0    0    0  0.00000000000E+00  0.00000000000E+00  0.39999999673E+01  0.40000000000E+01  0.51109989000E-03 0. -1.
     -623   -1    0    0    0    0  0.00000000000E+00  0.00000000000E+00  0.12525980253E-10  0.17130000000E+03  0.17130000000E+03 0. -1.
       11    1    1    2    0    0  0.47118796101E-01 -0.35624064881E-02  0.51310010256E+00  0.51527162561E+00  0.51109989000E-03 0. -1.
     -623    1    1    2    0    0  0.10866261732E-02  0.17833434531E-01  0.39704075829E-02  0.17130000098E+03  0.17130000000E+03 0. -1.
      622    1    1    2    0    0 -0.48205422274E-01 -0.14271028043E-01  0.34829294571E+01  0.34847273966E+01  0.10000000000E+00 0. -1.
</event>
<event>
 5   0  0.6262544E+06  0.9118800E+02  0.7818608E-02  0.1180000E+00
       11   -1    0    0    0    0  0.00000000000E+00  0.00000000000E+00  0.39999999673E+01  0.40000000000E+01  0.51109989000E-03 0. -1.
     -623   -1    0    0    0    0  0.00000000000E+00  0.00000000000E+00  0.12525980253E-10  0.17130000000E+03  0.17130000000E+03 0.  1.
       11    1    1    2    0    0 -0.24228003975E-01  0.10778073504E+00  0.74799492250E+00  0.75610868818E+00  0.51109989000E-03 0. -1.
     -623    1    1    2    0    0  0.94769360167E-01  0.20015593857E-01  0.12970928058E-01  0.17130002788E+03  0.17130000000E+03 0.  1.
      622    1    1    2    0    0 -0.70541356194E-01 -0.12779632889E+00  0.32390341168E+01  0.32438634365E+01  0.10000000000E+00 0. -1.
</event>
<event>
 5   0  0.6262544E+06  0.9118800E+02  0.7818608E-02  0.1180000E+00
       11   -1    0    0    0    0  0.00000000000E+00  0.00000000000E+00  0.39999999673E+01  0.40000000000E+01  0.51109989000E-03 0.  1.
     -623   -1    0    0    0    0  0.00000000000E+00  0.00000000000E+00  0.12525980253E-10  0.17130000000E+03  0.17130000000E+03 0.  1.
       11    1    1    2    0    0 -0.59121690641E-01  0.58494131255E-01  0.44844319202E+00  0.45609044650E+00  0.51109989000E-03 0.  1.
     -623    1    1    2    0    0 -0.24530056926E-02 -0.38565755621E-01  0.96542474308E-02  0.17130000463E+03  0.17130000000E+03 0.  1.
      622    1    1    2    0    0  0.61574696333E-01 -0.19928375634E-01  0.35419025279E+01  0.35439049226E+01  0.10000000000E+00 0.  1.
</event>
<event>
 5   0  0.6262544E+06  0.9118800E+02  0.7818608E-02  0.1180000E+00
       11   -1    0    0    0    0  0.00000000000E+00  0.00000000000E+00  0.39999999673E+01  0.40000000000E+01  0.51109989000E-03 0.  1.
     -623   -1    0    0    0    0  0.00000000000E+00  0.00000000000E+00  0.12525980253E-10  0.17130000000E+03  0.17130000000E+03 0.  1.
       11    1    1    2    0    0  0.66675477109E-02 -0.23893529628E-02  0.38683550667E-02  0.80864450828E-02  0.51109989000E-03 0.  1.
     -623    1    1    2    0    0  0.74777295341E-02 -0.12069406494E-03  0.54968967134E-02  0.17130000025E+03  0.17130000000E+03 0.  1.
      622    1    1    2    0    0 -0.14145277245E-01  0.25100470278E-02  0.39906347156E+01  0.39919133034E+01  0.10000000000E+00 0.  1.
</event>
<event>
 5   0  0.6262544E+06  0.9118800E+02  0.7818608E-02  0.1180000E+00
       11   -1    0    0    0    0  0.00000000000E+00  0.00000000000E+00  0.39999999673E+01  0.40000000000E+01  0.51109989000E-03 0.  1.
     -623   -1    0    0    0    0  0.00000000000E+00  0.00000000000E+00  0.12525980253E-10  0.17130000000E+03  0.17130000000E+03 0. -1.
       11    1    1    2    0    0 -0.62382085941E-01  0.31808072021E-01  0.29812605482E+01  0.29820828284E+01  0.51109989000E-03 0.  1.
     -623    1    1    2    0    0 -0.19137451127E-01  0.11438212815E-01  0.99598848332E-02  0.17130000174E+03  0.17130000000E+03 0. -1.
      622    1    1    2    0    0  0.81519537068E-01 -0.43246284836E-01  0.10087795343E+01  0.10179154311E+01  0.10000000000E+00 0.  0.
</event>
<event>
 5   0  0.6262544E+06  0.9118800E+02  0.7818608E-02  0.1180000E+00
       11   -1    0    0    0    0  0.00000000000E+00  0.00000000000E+00  0.39999999673E+01  0.40000000000E+01  0.51109989000E-03 0. -1.
     -623   -1    0    0    0    0  0.00000000000E+00  0.00000000000E+00  0.12525980253E-10  0.17130000000E+03  0.17130000000E+03 0. -1.
       11    1    1    2    0    0 -0.13880521849E-02 -0.44622528241E-02  0.28230732072E-01  0.28619466174E-01  0.51109989000E-03 0. -1.
     -623    1    1    2    0    0 -0.12574186134E-02  0.10914244608E-01  0.16543936290E-02  0.17130000036E+03  0.17130000000E+03 0. -1.
      622    1    1    2    0    0  0.26454707983E-02 -0.64519917838E-02  0.39701148417E+01  0.39713801735E+01  0.10000000000E+00 0. -1.
</event>
<event>
 5   0  0.6262544E+06  0.9118800E+02  0.7818608E-02  0.1180000E+00
       11   -1    0    0    0    0  0.00000000000E+00  0.00000000000E+00  0.39999999673E+01  0.40000000000E+01  0.51109989000E-03 0. -1.
     -623   -1    0    0    0    0  0.00000000000E+00  0.00000000000E+00  0.12525980253E-10  0.17130000000E+03  0.17130000000E+03 0. -1.
       11    1    1    2    0    0  0.33137289025E-01 -0.45152319755E-01  0.22101495205E+01  0.22108591036E+01  0.51109989000E-03 0. -1.
     -623    1    1    2    0    0 -0.13164893397E-02  0.95106412727E-02  0.41457926156E-02  0.17130000032E+03  0.17130000000E+03 0. -1.
      622    1    1    2    0    0 -0.31820799686E-01  0.35641678482E-01  0.17857046543E+01  0.17891405771E+01  0.10000000000E+00 0.  1.
</event>
<event>
 5   0  0.6262544E+06  0.9118800E+02  0.7818608E-02  0.1180000E+00
       11   -1    0    0    0    0  0.00000000000E+00  0.00000000000E+00  0.39999999673E+01  0.40000000000E+01  0.51109989000E-03 0.  1.
     -623   -1    0    0    0    0  0.00000000000E+00  0.00000000000E+00  0.12525980253E-10  0.17130000000E+03  0.17130000000E+03 0.  1.
       11    1    1    2    0    0  0.12813207627E-02 -0.19971365760E-04 -0.39413965835E-02  0.41758845624E-02  0.51109989000E-03 0.  1.
     -623    1    1    2    0    0 -0.48555932456E-02 -0.30279844140E-02  0.93718648094E-02  0.17130000035E+03  0.17130000000E+03 0.  1.
      622    1    1    2    0    0  0.35742724829E-02  0.30479557798E-02  0.39945694992E+01  0.39958237635E+01  0.10000000000E+00 0.  1.
</event>
<event>
 5   0  0.6262544E+06  0.9118800E+02  0.7818608E-02  0.1180000E+00
       11   -1    0    0    0    0  0.00000000000E+00  0.00000000000E+00  0.39999999673E+01  0.40000000000E+01  0.51109989000E-03 0.  1.
     -623   -1    0    0    0    0  0.00000000000E+00  0.00000000000E+00  0.12525980253E-10  0.17130000000E+03  0.17130000000E+03 0. -1.
       11    1    1    2    0    0 -0.14858574307E-02  0.43250885302E-02  0.33176147753E-01  0.33493763050E-01  0.51109989000E-03 0.  1.
     -623    1    1    2    0    0 -0.58068974553E-03 -0.15870034423E-02  0.15798376911E-02  0.17130000002E+03  0.17130000000E+03 0. -1.
      622    1    1    2    0    0  0.20665471763E-02 -0.27380850879E-02  0.39652439819E+01  0.39665062213E+01  0.10000000000E+00 0.  1.
</event>
<event>
 5   0  0.6262544E+06  0.9118800E+02  0.7818608E-02  0.1180000E+00
       11   -1    0    0    0    0  0.00000000000E+00  0.00000000000E+00  0.39999999673E+01  0.40000000000E+01  0.51109989000E-03 0. -1.
     -623   -1    0    0    0    0  0.00000000000E+00  0.00000000000E+00  0.12525980253E-10  0.17130000000E+03  0.17130000000E+03 0. -1.
       11    1    1    2    0    0  0.30536627948E-02 -0.14397419151E-02  0.66651233252E-02  0.74888453906E-02  0.51109989000E-03 0. -1.
     -623    1    1    2    0    0 -0.31607316570E-02  0.19421806834E-02  0.20763163853E-02  0.17130000005E+03  0.17130000000E+03 0. -1.
      622    1    1    2    0    0  0.10706886232E-03 -0.50243876835E-03  0.39912585277E+01  0.39925111019E+01  0.10000000000E+00 0. -1.
</event>
<event>
 5   0  0.6262544E+06  0.9118800E+02  0.7818608E-02  0.1180000E+00
       11   -1    0    0    0    0  0.00000000000E+00  0.00000000000E+00  0.39999999673E+01  0.40000000000E+01  0.51109989000E-03 0.  1.
     -623   -1    0    0    0    0  0.00000000000E+00  0.00000000000E+00  0.12525980253E-10  0.17130000000E+03  0.17130000000E+03 0.  1.
       11    1    1    2    0    0 -0.13142451067E-01 -0.13426024934E-02  0.17005932120E-01  0.21540416706E-01  0.51109989000E-03 0.  1.
     -623    1    1    2    0    0 -0.37143751598E-02  0.35359313099E-02  0.58279219143E-02  0.17130000018E+03  0.17130000000E+03 0.  1.
      622    1    1    2    0    0  0.16856826227E-01 -0.21933288166E-02  0.39771661134E+01  0.39784594074E+01  0.10000000000E+00 0.  1.
</event>
<event>
 5   0  0.6262544E+06  0.9118800E+02  0.7818608E-02  0.1180000E+00
       11   -1    0    0    0    0  0.00000000000E+00  0.00000000000E+00  0.39999999673E+01  0.40000000000E+01  0.51109989000E-03 0.  1.
     -623   -1    0    0    0    0  0.00000000000E+00  0.00000000000E+00  0.12525980253E-10  0.17130000000E+03  0.17130000000E+03 0.  1.
       11    1    1    2    0    0  0.34605955636E-03 -0.10300240340E-02  0.55529891170E-03  0.13229840158E-02  0.51109989000E-03 0.  1.
     -623    1    1    2    0    0  0.17390744830E-02  0.18702377885E-02  0.20189246699E-02  0.17130000003E+03  0.17130000000E+03 0.  1.
      622    1    1    2    0    0 -0.20851340393E-02 -0.84021375449E-03  0.39974257438E+01  0.39986769850E+01  0.10000000000E+00 0.  1.
</event>
<event>
 5   0  0.6262544E+06  0.9118800E+02  0.7818608E-02  0.1180000E+00
       11   -1    0    0    0    0  0.00000000000E+00  0.00000000000E+00  0.39999999673E+01  0.40000000000E+01  0.51109989000E-03 0.  1.
     -623   -1    0    0    0    0  0.00000000000E+00  0.00000000000E+00  0.12525980253E-10  0.17130000000E+03  0.17130000000E+03 0.  1.
       11    1    1    2    0    0  0.18297266307E-02  0.53936509372E-02  0.47019423816E-02  0.74033001076E-02  0.51109989000E-03 0.  1.
     -623    1    1    2    0    0 -0.26759665375E-02  0.61807195930E-03  0.39585242565E-02  0.17130000007E+03  0.17130000000E+03 0.  1.
      622    1    1    2    0    0  0.84623990674E-03 -0.60117228965E-02  0.39913395007E+01  0.39925966321E+01  0.10000000000E+00 0.  1.
</event>
<event>
 5   0  0.6262544E+06  0.9118800E+02  0.7818608E-02  0.1180000E+00
       11   -1    0    0    0    0  0.00000000000E+00  0.00000000000E+00  0.39999999673E+01  0.40000000000E+01  0.51109989000E-03 0. -1.
     -623   -1    0    0    0    0  0.00000000000E+00  0.00000000000E+00  0.12525980253E-10  0.17130000000E+03  0.17130000000E+03 0. -1.
       11    1    1    2    0    0  0.13639435552E-01  0.30912931015E-01  0.74449960847E-01  0.81760023222E-01  0.51109989000E-03 0. -1.
     -623    1    1    2    0    0 -0.25444912561E-01 -0.23215595493E-01  0.86153552523E-02  0.17130000368E+03  0.17130000000E+03 0. -1.
      622    1    1    2    0    0  0.11805477009E-01 -0.76973355217E-02  0.39169346513E+01  0.39182362972E+01  0.10000000000E+00 0. -1.
</event>
<event>
 5   0  0.6262544E+06  0.9118800E+02  0.7818608E-02  0.1180000E+00
       11   -1    0    0    0    0  0.00000000000E+00  0.00000000000E+00  0.39999999673E+01  0.40000000000E+01  0.51109989000E-03 0.  1.
     -623   -1    0    0    0    0  0.00000000000E+00  0.00000000000E+00  0.12525980253E-10  0.17130000000E+03  0.17130000000E+03 0. -1.
       11    1    1    2    0    0  0.90423351223E-03  0.63873375163E-02  0.16552424411E+00  0.16565069372E+00  0.51109989000E-03 0.  1.
     -623    1    1    2    0    0 -0.33811825980E-03  0.28869136550E-02  0.14419333266E-02  0.17130000003E+03  0.17130000000E+03 0. -1.
      622    1    1    2    0    0 -0.56611525242E-03 -0.92742511713E-02  0.38330337900E+01  0.38343492757E+01  0.10000000000E+00 0.  1.
</event>
<event>
 5   0  0.6262544E+06  0.9118800E+02  0.7818608E-02  0.1180000E+00
       11   -1    0    0    0    0  0.00000000000E+00  0.00000000000E+00  0.39999999673E+01  0.40000000000E+01  0.51109989000E-03 0. -1.
     -623   -1    0    0    0    0  0.00000000000E+00  0.00000000000E+00  0.12525980253E-10  0.17130000000E+03  0.17130000000E+03 0.  1.
       11    1    1    2    0    0  0.72211045336E-01  0.34561110955E-01  0.64974499347E+00  0.65465847831E+00  0.51109989000E-03 0. -1.
     -623    1    1    2    0    0 -0.92846232125E-03 -0.66308596575E-02  0.72852343951E-02  0.17130000029E+03  0.17130000000E+03 0.  1.
      622    1    1    2    0    0 -0.71282583015E-01 -0.27930251298E-01  0.33429697395E+01  0.33453412359E+01  0.10000000000E+00 0. -1.
</event>
<event>
 5   0  0.6262544E+06  0.9118800E+02  0.7818608E-02  0.1180000E+00
       11   -1    0    0    0    0  0.00000000000E+00  0.00000000000E+00  0.39999999673E+01  0.40000000000E+01  0.51109989000E-03 0.  1.
     -623   -1    0    0    0    0  0.00000000000E+00  0.00000000000E+00  0.12525980253E-10  0.17130000000E+03  0.17130000000E+03 0.  1.
       11    1    1    2    0    0  0.13240806704E-02  0.91528097003E-02  0.72563040366E-01  0.73151781682E-01  0.51109989000E-03 0.  1.
     -623    1    1    2    0    0  0.52600330924E-02 -0.54091289997E-02  0.18696840473E-02  0.17130000018E+03  0.17130000000E+03 0.  1.
      622    1    1    2    0    0 -0.65841137627E-02 -0.37436807007E-02  0.39255672429E+01  0.39268480420E+01  0.10000000000E+00 0.  1.
</event>
<event>
 5   0  0.6262544E+06  0.9118800E+02  0.7818608E-02  0.1180000E+00
       11   -1    0    0    0    0  0.00000000000E+00  0.00000000000E+00  0.39999999673E+01  0.40000000000E+01  0.51109989000E-03 0. -1.
     -623   -1    0    0    0    0  0.00000000000E+00  0.00000000000E+00  0.12525980253E-10  0.17130000000E+03  0.17130000000E+03 0.  1.
       11    1    1    2    0    0  0.71987337772E-02 -0.27789354085E-01  0.43607724447E+00  0.43702138887E+00  0.51109989000E-03 0. -1.
     -623    1    1    2    0    0 -0.26891414171E-01 -0.64424885066E-02  0.25689183878E-02  0.17130000225E+03  0.17130000000E+03 0.  1.
      622    1    1    2    0    0  0.19692680394E-01  0.34231842592E-01  0.35613538045E+01  0.35629763599E+01  0.10000000000E+00 0. -1.
</event>
<event>
 5   0  0.6262544E+06  0.9118800E+02  0.7818608E-02  0.1180000E+00
       11   -1    0    0    0    0  0.00000000000E+00  0.00000000000E+00  0.39999999673E+01  0.40000000000E+01  0.51109989000E-03 0. -1.
     -623   -1    0    0    0    0  0.00000000000E+00  0.00000000000E+00  0.12525980253E-10  0.17130000000E+03  0.17130000000E+03 0. -1.
       11    1    1    2    0    0 -0.37264114732E-01  0.13261416300E-01  0.20157426075E+01  0.20161307002E+01  0.51109989000E-03 0. -1.
     -623    1    1    2    0    0  0.26281354920E-01  0.79002177179E-02  0.30556708223E-02  0.17130000223E+03  0.17130000000E+03 0. -1.
      622    1    1    2    0    0  0.10982759813E-01 -0.21161634018E-01  0.19812016890E+01  0.19838670742E+01  0.10000000000E+00 0. -1.
</event>
<event>
 5   0  0.6262544E+06  0.9118800E+02  0.7818608E-02  0.1180000E+00
       11   -1    0    0    0    0  0.00000000000E+00  0.00000000000E+00  0.39999999673E+01  0.40000000000E+01  0.51109989000E-03 0. -1.
     -623   -1    0    0    0    0  0.00000000000E+00  0.00000000000E+00  0.12525980253E-10  0.17130000000E+03  0.17130000000E+03 0.  1.
       11    1    1    2    0    0 -0.12364588412E+00  0.58245585959E-02  0.10323117464E+01  0.10397067054E+01  0.51109989000E-03 0. -1.
     -623    1    1    2    0    0 -0.32680723219E-01  0.10703913080E+00  0.15411199554E-01  0.17130003725E+03  0.17130000000E+03 0.  1.
      622    1    1    2    0    0  0.15632660734E+00 -0.11286368939E+00  0.29522770214E+01  0.29602560416E+01  0.10000000000E+00 0. -1.
</event>
<event>
 5   0  0.6262544E+06  0.9118800E+02  0.7818608E-02  0.1180000E+00
       11   -1    0    0    0    0  0.00000000000E+00  0.00000000000E+00  0.39999999673E+01  0.40000000000E+01  0.51109989000E-03 0.  1.
     -623   -1    0    0    0    0  0.00000000000E+00  0.00000000000E+00  0.12525980253E-10  0.17130000000E+03  0.17130000000E+03 0.  1.
       11    1    1    2    0    0 -0.25295984109E-02  0.33712193097E-03  0.16637484086E-01  0.16839822336E-01  0.51109989000E-03 0.  1.
     -623    1    1    2    0    0  0.72911336801E-02  0.49071902709E-02  0.14643203383E-02  0.17130000023E+03  0.17130000000E+03 0.  1.
      622    1    1    2    0    0 -0.47615352692E-02 -0.52443122019E-02  0.39818981629E+01  0.39831599459E+01  0.10000000000E+00 0.  1.
</event>
<event>
 5   0  0.6262544E+06  0.9118800E+02  0.7818608E-02  0.1180000E+00
       11   -1    0    0    0    0  0.00000000000E+00  0.00000000000E+00  0.39999999673E+01  0.40000000000E+01  0.51109989000E-03 0.  1.
     -623   -1    0    0    0    0  0.00000000000E+00  0.00000000000E+00  0.12525980253E-10  0.17130000000E+03  0.17130000000E+03 0. -1.
       11    1    1    2    0    0 -0.55759456032E-01  0.33604946731E-01  0.15346479962E+01  0.15360283666E+01  0.51109989000E-03 0.  1.
     -623    1    1    2    0    0  0.14509066354E-01  0.58297432955E-02  0.40726766505E-02  0.17130000076E+03  0.17130000000E+03 0. -1.
      622    1    1    2    0    0  0.41250389677E-01 -0.39434690027E-01  0.24612792945E+01  0.24639708714E+01  0.10000000000E+00 0.  0.
</event>
<event>
 5   0  0.6262544E+06  0.9118800E+02  0.7818608E-02  0.1180000E+00
       11   -1    0    0    0    0  0.00000000000E+00  0.00000000000E+00  0.39999999673E+01  0.40000000000E+01  0.51109989000E-03 0. -1.
     -623   -1    0    0    0    0  0.00000000000E+00  0.00000000000E+00  0.12525980253E-10  0.17130000000E+03  0.17130000000E+03 0.  1.
       11    1    1    2    0    0  0.13114872751E-01 -0.19885153128E-01  0.16850451073E+01  0.16852135455E+01  0.51109989000E-03 0. -1.
     -623    1    1    2    0    0 -0.15041859024E-01 -0.62127051635E-02  0.24782966580E-02  0.17130000079E+03  0.17130000000E+03 0.  1.
      622    1    1    2    0    0  0.19269862725E-02  0.26097858291E-01  0.23124765634E+01  0.23147856634E+01  0.10000000000E+00 0.  1.
</event>
<event>
 5   0  0.6262544E+06  0.9118800E+02  0.7818608E-02  0.1180000E+00
       11   -1    0    0    0    0  0.00000000000E+00  0.00000000000E+00  0.39999999673E+01  0.40000000000E+01  0.51109989000E-03 0.  1.
     -623   -1    0    0    0    0  0.00000000000E+00  0.00000000000E+00  0.12525980253E-10  0.17130000000E+03  0.17130000000E+03 0.  1.
       11    1    1    2    0    0 -0.90305033728E-02 -0.22832023562E-01  0.44927706492E+00  0.44994776761E+00  0.51109989000E-03 0.  1.
     -623    1    1    2    0    0 -0.21273829764E-02  0.13806935507E-02  0.21617905863E-02  0.17130000003E+03  0.17130000000E+03 0.  1.
      622    1    1    2    0    0  0.11157886349E-01  0.21451330011E-01  0.35485611120E+01  0.35500522001E+01  0.10000000000E+00 0.  1.
</event>
<event>
 5   0  0.6262544E+06  0.9118800E+02  0.7818608E-02  0.1180000E+00
       11   -1    0    0    0    0  0.00000000000E+00  0.00000000000E+00  0.39999999673E+01  0.40000000000E+01  0.51109989000E-03 0.  1.
     -623   -1    0    0    0    0  0.00000000000E+00  0.00000000000E+00  0.12525980253E-10  0.17130000000E+03  0.17130000000E+03 0. -1.
       11    1    1    2    0    0 -0.57697327070E-02  0.49848352252E-02  0.75227049104E-01  0.75614208571E-01  0.51109989000E-03 0.  1.
     -623    1    1    2    0    0  0.44487496834E-02 -0.41346689304E-02  0.16618487257E-02  0.17130000012E+03  0.17130000000E+03 0. -1.
      622    1    1    2    0    0  0.13209830233E-02 -0.85016629444E-03  0.39231110698E+01  0.39243856760E+01  0.10000000000E+00 0.  1.
</event>
<event>
 5   0  0.6262544E+06  0.9118800E+02  0.7818608E-02  0.1180000E+00
       11   -1    0    0    0    0  0.00000000000E+00  0.00000000000E+00  0.39999999673E+01  0.40000000000E+01  0.51109989000E-03 0. -1.
     -623   -1    0    0    0    0  0.00000000000E+00  0.00000000000E+00  0.12525980253E-10  0.17130000000E+03  0.17130000000E+03 0. -1.
       11    1    1    2    0    0 -0.33880387704E-01 -0.34952594398E-01  0.73987656703E+00  0.74147633825E+00  0.51109989000E-03 0. -1.
     -623    1    1    2    0    0 -0.35472622579E-02 -0.26752831926E-02  0.35670672577E-02  0.17130000009E+03  0.17130000000E+03 0. -1.
      622    1    1    2    0    0  0.37427649962E-01  0.37627877590E-01  0.32565563331E+01  0.32585235670E+01  0.10000000000E+00 0.  0.
</event>
<event>
 5   0  0.6262544E+06  0.9118800E+02  0.7818608E-02  0.1180000E+00
       11   -1    0    0    0    0  0.00000000000E+00  0.00000000000E+00  0.39999999673E+01  0.40000000000E+01  0.51109989000E-03 0.  1.
     -623   -1    0    0    0    0  0.00000000000E+00  0.00000000000E+00  0.12525980253E-10  0.17130000000E+03  0.17130000000E+03 0. -1.
       11    1    1    2    0    0  0.61951768485E-01  0.61526993284E-01  0.25646924855E+01  0.25661783646E+01  0.51109989000E-03 0.  1.
     -623    1    1    2    0    0 -0.27786271422E-02 -0.64382361449E-02  0.72642762611E-02  0.17130000030E+03  0.17130000000E+03 0. -1.
      622    1    1    2    0    0 -0.59173141343E-01 -0.55088757140E-01  0.14280432056E+01  0.14338213378E+01  0.10000000000E+00 0.  0.
</event>
<event>
 5   0  0.6262544E+06  0.9118800E+02  0.7818608E-02  0.1180000E+00
       11   -1    0    0    0    0  0.00000000000E+00  0.00000000000E+00  0.39999999673E+01  0.40000000000E+01  0.51109989000E-03 0. -1.
     -623   -1    0    0    0    0  0.00000000000E+00  0.00000000000E+00  0.12525980253E-10  0.17130000000E+03  0.17130000000E+03 0. -1.
       11    1    1    2    0    0  0.64665206577E-03  0.14787431567E-02 -0.43976309039E-04  0.16935162329E-02  0.51109989000E-03 0. -1.
     -623    1    1    2    0    0 -0.48675550597E-03 -0.33002456530E-02  0.29886617818E-02  0.17130000006E+03  0.17130000000E+03 0. -1.
      622    1    1    2    0    0 -0.15989655977E-03  0.18215024964E-02  0.39970552820E+01  0.39983064254E+01  0.10000000000E+00 0. -1.
</event>
<event>
 5   0  0.6262544E+06  0.9118800E+02  0.7818608E-02  0.1180000E+00
       11   -1    0    0    0    0  0.00000000000E+00  0.00000000000E+00  0.39999999673E+01  0.40000000000E+01  0.51109989000E-03 0.  1.
     -623   -1    0    0    0    0  0.00000000000E+00  0.00000000000E+00  0.12525980253E-10  0.17130000000E+03  0.17130000000E+03 0. -1.
       11    1    1    2    0    0  0.48018167128E-02 -0.61631352048E-02  0.38307427088E-01  0.39099384554E-01  0.51109989000E-03 0.  1.
     -623    1    1    2    0    0 -0.84278030077E-03 -0.10509501486E-01  0.20918832399E-02  0.17130000034E+03  0.17130000000E+03 0. -1.
      622    1    1    2    0    0 -0.39590364120E-02  0.16672636691E-01  0.39596006570E+01  0.39609002782E+01  0.10000000000E+00 0.  1.
</event>
<event>
 5   0  0.6262544E+06  0.9118800E+02  0.7818608E-02  0.1180000E+00
       11   -1    0    0    0    0  0.00000000000E+00  0.00000000000E+00  0.39999999673E+01  0.40000000000E+01  0.51109989000E-03 0.  1.
     -623   -1    0    0    0    0  0.00000000000E+00  0.00000000000E+00  0.12525980253E-10  0.17130000000E+03  0.17130000000E+03 0.  1.
       11    1    1    2    0    0  0.18014259129E-01 -0.16297526002E-02  0.14358084877E+00  0.14471658848E+00  0.51109989000E-03 0.  1.
     -623    1    1    2    0    0 -0.53085387279E-02  0.30258028101E-02  0.24541702483E-02  0.17130000013E+03  0.17130000000E+03 0.  1.
      622    1    1    2    0    0 -0.12705720401E-01 -0.13960502100E-02  0.38539649483E+01  0.38552832850E+01  0.10000000000E+00 0.  1.
</event>
<event>
 5   0  0.6262544E+06  0.9118800E+02  0.7818608E-02  0.1180000E+00
       11   -1    0    0    0    0  0.00000000000E+00  0.00000000000E+00  0.39999999673E+01  0.40000000000E+01  0.51109989000E-03 0.  1.
     -623   -1    0    0    0    0  0.00000000000E+00  0.00000000000E+00  0.12525980253E-10  0.17130000000E+03  0.17130000000E+03 0. -1.
       11    1    1    2    0    0  0.17541868492E-02 -0.40331409735E-03  0.60530855911E-01  0.60559768587E-01  0.51109989000E-03 0.  1.
     -623    1    1    2    0    0  0.96977771697E-02 -0.83254065799E-03  0.13154268528E-02  0.17130000028E+03  0.17130000000E+03 0. -1.
      622    1    1    2    0    0 -0.11451964019E-01  0.12358547553E-02  0.39381536846E+01  0.39394399498E+01  0.10000000000E+00 0.  1.
</event>
<event>
 5   0  0.6262544E+06  0.9118800E+02  0.7818608E-02  0.1180000E+00
       11   -1    0    0    0    0  0.00000000000E+00  0.00000000000E+00  0.39999999673E+01  0.40000000000E+01  0.51109989000E-03 0.  1.
     -623   -1    0    0    0    0  0.00000000000E+00  0.00000000000E+00  0.12525980253E-10  0.17130000000E+03  0.17130000000E+03 0. -1.
       11    1    1    2    0    0 -0.62398658903E-03  0.20275592098E-01  0.91891327379E-01  0.94105080972E-01  0.51109989000E-03 0.  1.
     -623    1    1    2    0    0 -0.66073825248E-02 -0.61919243411E-02  0.35264186826E-02  0.17130000028E+03  0.17130000000E+03 0. -1.
      622    1    1    2    0    0  0.72313691140E-02 -0.14083667756E-01  0.39045822214E+01  0.39058946435E+01  0.10000000000E+00 0.  1.
</event>
<event>
 5   0  0.6262544E+06  0.9118800E+02  0.7818608E-02  0.1180000E+00
       11   -1    0    0    0    0  0.00000000000E+00  0.00000000000E+00  0.39999999673E+01  0.40000000000E+01  0.51109989000E-03 0.  1.
     -623   -1    0    0    0    0  0.00000000000E+00  0.00000000000E+00  0.12525980253E-10  0.17130000000E+03  0.17130000000E+03 0. -1.
       11    1    1    2    0    0 -0.11956023433E-01  0.19413935624E-01  0.61608397921E+00  0.61650594324E+00  0.51109989000E-03 0.  1.
     -623    1    1    2    0    0  0.96274687344E-02 -0.11947251984E-01  0.19097586363E-02  0.17130000070E+03  0.17130000000E+03 0. -1.
      622    1    1    2    0    0  0.23285546982E-02 -0.74666836400E-02  0.33820062295E+01  0.33834933589E+01  0.10000000000E+00 0.  0.
</event>
<event>
 5   0  0.6262544E+06  0.9118800E+02  0.7818608E-02  0.1180000E+00
       11   -1    0    0    0    0  0.00000000000E+00  0.00000000000E+00  0.39999999673E+01  0.40000000000E+01  0.51109989000E-03 0. -1.
     -623   -1    0    0    0    0  0.00000000000E+00  0.00000000000E+00  0.12525980253E-10  0.17130000000E+03  0.17130000000E+03 0. -1.
       11    1    1    2    0    0  0.18750246079E-01 -0.57551137562E-01  0.62750313313E+00  0.63041585360E+00  0.51109989000E-03 0. -1.
     -623    1    1    2    0    0 -0.22212513904E-01 -0.26658762617E-01  0.54551423944E-02  0.17130000360E+03  0.17130000000E+03 0. -1.
      622    1    1    2    0    0  0.34622678244E-02  0.84209900179E-01  0.33670416918E+01  0.33695805450E+01  0.10000000000E+00 0.  0.
</event>
<event>
 5   0  0.6262544E+06  0.9118800E+02  0.7818608E-02  0.1180000E+00
       11   -1    0    0    0    0  0.00000000000E+00  0.00000000000E+00  0.39999999673E+01  0.40000000000E+01  0.51109989000E-03 0. -1.
     -623   -1    0    0    0    0  0.00000000000E+00  0.00000000000E+00  0.12525980253E-10  0.17130000000E+03  0.17130000000E+03 0. -1.
       11    1    1    2    0    0  0.48032529670E-01  0.37626728039E-01  0.28235197002E+01  0.28241789344E+01  0.51109989000E-03 0. -1.
     -623    1    1    2    0    0 -0.35800024546E-01  0.12910241569E-01  0.60780439893E-02  0.17130000434E+03  0.17130000000E+03 0. -1.
      622    1    1    2    0    0 -0.12232505123E-01 -0.50536969609E-01  0.11704022232E+01  0.11758167304E+01  0.10000000000E+00 0.  1.
</event>
<event>
 5   0  0.6262544E+06  0.9118800E+02  0.7818608E-02  0.1180000E+00
       11   -1    0    0    0    0  0.00000000000E+00  0.00000000000E+00  0.39999999673E+01  0.40000000000E+01  0.51109989000E-03 0.  1.
     -623   -1    0    0    0    0  0.00000000000E+00  0.00000000000E+00  0.12525980253E-10  0.17130000000E+03  0.17130000000E+03 0. -1.
       11    1    1    2    0    0 -0.28489651552E-02 -0.86955472873E-02  0.15673896505E-01  0.18156580063E-01  0.51109989000E-03 0.  1.
     -623    1    1    2    0    0  0.18909153100E-02 -0.27453037312E-02  0.37551791516E-02  0.17130000007E+03  0.17130000000E+03 0. -1.
      622    1    1    2    0    0  0.95804984526E-03  0.11440851018E-01  0.39805708917E+01  0.39818433463E+01  0.10000000000E+00 0.  1.
</event>
<event>
 5   0  0.6262544E+06  0.9118800E+02  0.7818608E-02  0.1180000E+00
       11   -1    0    0    0    0  0.00000000000E+00  0.00000000000E+00  0.39999999673E+01  0.40000000000E+01  0.51109989000E-03 0.  1.
     -623   -1    0    0    0    0  0.00000000000E+00  0.00000000000E+00  0.12525980253E-10  0.17130000000E+03  0.17130000000E+03 0.  1.
       11    1    1    2    0    0  0.49905964639E-02 -0.20494099093E-03  0.28674783049E-01  0.29111036719E-01  0.51109989000E-03 0.  1.
     -623    1    1    2    0    0 -0.46137831901E-02 -0.25872691989E-02  0.16966746226E-02  0.17130000009E+03  0.17130000000E+03 0.  1.
      622    1    1    2    0    0 -0.37681327382E-03  0.27922101899E-02  0.39696285097E+01  0.39708888732E+01  0.10000000000E+00 0.  1.
</event>
<event>
 5   0  0.6262544E+06  0.9118800E+02  0.7818608E-02  0.1180000E+00
       11   -1    0    0    0    0  0.00000000000E+00  0.00000000000E+00  0.39999999673E+01  0.40000000000E+01  0.51109989000E-03 0. -1.
     -623   -1    0    0    0    0  0.00000000000E+00  0.00000000000E+00  0.12525980253E-10  0.17130000000E+03  0.17130000000E+03 0.  1.
       11    1    1    2    0    0  0.42503497941E-02  0.42647106566E-01  0.98215165373E+00  0.98308645262E+00  0.51109989000E-03 0. -1.
     -623    1    1    2    0    0 -0.17725319209E-01  0.59890029341E-02  0.30159831164E-02  0.17130000105E+03  0.17130000000E+03 0.  1.
      622    1    1    2    0    0  0.13474969415E-01 -0.48636109500E-01  0.30148323305E+01  0.30169124990E+01  0.10000000000E+00 0. -1.
</event>
<event>
 5   0  0.6262544E+06  0.9118800E+02  0.7818608E-02  0.1180000E+00
       11   -1    0    0    0    0  0.00000000000E+00  0.00000000000E+00  0.39999999673E+01  0.40000000000E+01  0.51109989000E-03 0.  1.
     -623   -1    0    0    0    0  0.00000000000E+00  0.00000000000E+00  0.12525980253E-10  0.17130000000E+03  0.17130000000E+03 0.  1.
       11    1    1    2    0    0  0.69924785622E-02 -0.15936835564E-01  0.10013623336E+00  0.10163859472E+00  0.51109989000E-03 0.  1.
     -623    1    1    2    0    0  0.32835624353E-02 -0.12826831724E-01  0.29053663909E-02  0.17130000054E+03  0.17130000000E+03 0.  1.
      622    1    1    2    0    0 -0.10276040997E-01  0.28763667289E-01  0.38969583676E+01  0.38983608689E+01  0.10000000000E+00 0.  0.
</event>
<event>
 5   0  0.6262544E+06  0.9118800E+02  0.7818608E-02  0.1180000E+00
       11   -1    0    0    0    0  0.00000000000E+00  0.00000000000E+00  0.39999999673E+01  0.40000000000E+01  0.51109989000E-03 0. -1.
     -623   -1    0    0    0    0  0.00000000000E+00  0.00000000000E+00  0.12525980253E-10  0.17130000000E+03  0.17130000000E+03 0.  1.
       11    1    1    2    0    0 -0.43821581165E-02 -0.13191347818E-01  0.16709643297E-01  0.21741397567E-01  0.51109989000E-03 0. -1.
     -623    1    1    2    0    0 -0.42226138978E-02  0.16338618413E-01  0.63002530600E-02  0.17130000095E+03  0.17130000000E+03 0.  1.
      622    1    1    2    0    0  0.86047720143E-02 -0.31472705949E-02  0.39769900710E+01  0.39782576553E+01  0.10000000000E+00 0. -1.
</event>
<event>
 5   0  0.6262544E+06  0.9118800E+02  0.7818608E-02  0.1180000E+00
       11   -1    0    0    0    0  0.00000000000E+00  0.00000000000E+00  0.39999999673E+01  0.40000000000E+01  0.51109989000E-03 0. -1.
     -623   -1    0    0    0    0  0.00000000000E+00  0.00000000000E+00  0.12525980253E-10  0.17130000000E+03  0.17130000000E+03 0. -1.
       11    1    1    2    0    0  0.25064004762E-02 -0.92292688524E-02  0.66181037313E-01  0.66870414748E-01  0.51109989000E-03 0. -1.
     -623    1    1    2    0    0 -0.15499831826E-02  0.14365716880E-01  0.19648948238E-02  0.17130000062E+03  0.17130000000E+03 0. -1.
      622    1    1    2    0    0 -0.95641729359E-03 -0.51364480271E-02  0.39318540352E+01  0.39331289646E+01  0.10000000000E+00 0. -1.
</event>
<event>
 5   0  0.6262544E+06  0.9118800E+02  0.7818608E-02  0.1180000E+00
       11   -1    0    0    0    0  0.00000000000E+00  0.00000000000E+00  0.39999999673E+01  0.40000000000E+01  0.51109989000E-03 0.  1.
     -623   -1    0    0    0    0  0.00000000000E+00  0.00000000000E+00  0.12525980253E-10  0.17130000000E+03  0.17130000000E+03 0. -1.
       11    1    1    2    0    0  0.10923565607E-01  0.65473319059E-02  0.22961025646E+00  0.22996374266E+00  0.51109989000E-03 0.  1.
     -623    1    1    2    0    0 -0.82080975381E-02 -0.13442430576E-02  0.16847143788E-02  0.17130000021E+03  0.17130000000E+03 0. -1.
      622    1    1    2    0    0 -0.27154680682E-02 -0.52030888481E-02  0.37687049968E+01  0.37700360474E+01  0.10000000000E+00 0.  1.
</event>
<event>
 5   0  0.6262544E+06  0.9118800E+02  0.7818608E-02  0.1180000E+00
       11   -1    0    0    0    0  0.00000000000E+00  0.00000000000E+00  0.39999999673E+01  0.40000000000E+01  0.51109989000E-03 0. -1.
     -623   -1    0    0    0    0  0.00000000000E+00  0.00000000000E+00  0.12525980253E-10  0.17130000000E+03  0.17130000000E+03 0. -1.
       11    1    1    2    0    0 -0.53302136857E-02 -0.20362678738E-02  0.16783557874E-01  0.17734333998E-01  0.51109989000E-03 0. -1.
     -623    1    1    2    0    0  0.30440497209E-02  0.86954481404E-02  0.22129962275E-02  0.17130000026E+03  0.17130000000E+03 0. -1.
      622    1    1    2    0    0  0.22861639648E-02 -0.66591802667E-02  0.39810034133E+01  0.39822654040E+01  0.10000000000E+00 0. -1.
</event>
<event>
 5   0  0.6262544E+06  0.9118800E+02  0.7818608E-02  0.1180000E+00
       11   -1    0    0    0    0  0.00000000000E+00  0.00000000000E+00  0.39999999673E+01  0.40000000000E+01  0.51109989000E-03 0. -1.
     -623   -1    0    0    0    0  0.00000000000E+00  0.00000000000E+00  0.12525980253E-10  0.17130000000E+03  0.17130000000E+03 0. -1.
       11    1    1    2    0    0  0.28804257232E-01  0.63276991700E-02  0.44252344538E+00  0.44350533925E+00  0.51109989000E-03 0. -1.
     -623    1    1    2    0    0 -0.37386362599E-02 -0.40039457195E-02  0.24772482375E-02  0.17130000011E+03  0.17130000000E+03 0. -1.
      622    1    1    2    0    0 -0.25065620972E-01 -0.23237534505E-02  0.35549992737E+01  0.35564945552E+01  0.10000000000E+00 0. -1.
</event>
<event>
 5   0  0.6262544E+06  0.9118800E+02  0.7818608E-02  0.1180000E+00
       11   -1    0    0    0    0  0.00000000000E+00  0.00000000000E+00  0.39999999673E+01  0.40000000000E+01  0.51109989000E-03 0.  1.
     -623   -1    0    0    0    0  0.00000000000E+00  0.00000000000E+00  0.12525980253E-10  0.17130000000E+03  0.17130000000E+03 0.  1.
       11    1    1    2    0    0  0.44013845770E-02 -0.57796094127E-03  0.14190940369E+00  0.14197973905E+00  0.51109989000E-03 0.  1.
     -623    1    1    2    0    0 -0.14346138571E-02  0.23265318865E-03  0.13676901361E-02  0.17130000001E+03  0.17130000000E+03 0.  1.
      622    1    1    2    0    0 -0.29667707198E-02  0.34530775262E-03  0.38567228735E+01  0.38580202493E+01  0.10000000000E+00 0.  1.
</event>
<event>
 5   0  0.6262544E+06  0.9118800E+02  0.7818608E-02  0.1180000E+00
       11   -1    0    0    0    0  0.00000000000E+00  0.00000000000E+00  0.39999999673E+01  0.40000000000E+01  0.51109989000E-03 0. -1.
     -623   -1    0    0    0    0  0.00000000000E+00  0.00000000000E+00  0.12525980253E-10  0.17130000000E+03  0.17130000000E+03 0. -1.
       11    1    1    2    0    0 -0.25103979767E-02 -0.52976704731E-02  0.56842598980E-02  0.81816528970E-02  0.51109989000E-03 0. -1.
     -623    1    1    2    0    0  0.97692006729E-02  0.35208186143E-02  0.37574724537E-02  0.17130000036E+03  0.17130000000E+03 0. -1.
      622    1    1    2    0    0 -0.72588026967E-02  0.17768518586E-02  0.39905582352E+01  0.39918179913E+01  0.10000000000E+00 0. -1.
</event>
<event>
 5   0  0.6262544E+06  0.9118800E+02  0.7818608E-02  0.1180000E+00
       11   -1    0    0    0    0  0.00000000000E+00  0.00000000000E+00  0.39999999673E+01  0.40000000000E+01  0.51109989000E-03 0.  1.
     -623   -1    0    0    0    0  0.00000000000E+00  0.00000000000E+00  0.12525980253E-10  0.17130000000E+03  0.17130000000E+03 0. -1.
       11    1    1    2    0    0 -0.21450292180E-01  0.31365413544E-01  0.34246888573E+00  0.34457089708E+00  0.51109989000E-03 0.  1.
     -623    1    1    2    0    0 -0.47705082823E-02 -0.83448078638E-02  0.36369679624E-02  0.17130000031E+03  0.17130000000E+03 0. -1.
      622    1    1    2    0    0  0.26220800462E-01 -0.23020605680E-01  0.36538941136E+01  0.36554287946E+01  0.10000000000E+00 0.  1.
</event>
<event>
 5   0  0.6262544E+06  0.9118800E+02  0.7818608E-02  0.1180000E+00
       11   -1    0    0    0    0  0.00000000000E+00  0.00000000000E+00  0.39999999673E+01  0.40000000000E+01  0.51109989000E-03 0. -1.
     -623   -1    0    0    0    0  0.00000000000E+00  0.00000000000E+00  0.12525980253E-10  0.17130000000E+03  0.17130000000E+03 0. -1.
       11    1    1    2    0    0  0.23689474836E-02 -0.12347731374E-01  0.53343780219E+00  0.53358619586E+00  0.51109989000E-03 0. -1.
     -623    1    1    2    0    0  0.17324469887E-02 -0.26644391192E-02  0.16260594179E-02  0.17130000004E+03  0.17130000000E+03 0. -1.
      622    1    1    2    0    0 -0.41013944723E-02  0.15012170493E-01  0.34649361058E+01  0.34664137670E+01  0.10000000000E+00 0. -1.
</event>
<event>
 5   0  0.6262544E+06  0.9118800E+02  0.7818608E-02  0.1180000E+00
       11   -1    0    0    0    0  0.00000000000E+00  0.00000000000E+00  0.39999999673E+01  0.40000000000E+01  0.51109989000E-03 0. -1.
     -623   -1    0    0    0    0  0.00000000000E+00  0.00000000000E+00  0.12525980253E-10  0.17130000000E+03  0.17130000000E+03 0. -1.
       11    1    1    2    0    0  0.55036953126E-02  0.40481885294E-02  0.19658308652E-01  0.20817992569E-01  0.51109989000E-03 0. -1.
     -623    1    1    2    0    0 -0.54439000928E-02 -0.38481637101E-02  0.24165416890E-02  0.17130000015E+03  0.17130000000E+03 0. -1.
      622    1    1    2    0    0 -0.59795219841E-04 -0.20002481929E-03  0.39779251171E+01  0.39791818607E+01  0.10000000000E+00 0. -1.
</event>
<event>
 5   0  0.6262544E+06  0.9118800E+02  0.7818608E-02  0.1180000E+00
       11   -1    0    0    0    0  0.00000000000E+00  0.00000000000E+00  0.39999999673E+01  0.40000000000E+01  0.51109989000E-03 0. -1.
     -623   -1    0    0    0    0  0.00000000000E+00  0.00000000000E+00  0.12525980253E-10  0.17130000000E+03  0.17130000000E+03 0. -1.
       11    1    1    2    0    0 -0.17681783106E-01 -0.51749515363E-02  0.22710875887E+00  0.22785538211E+00  0.51109989000E-03 0. -1.
     -623    1    1    2    0    0 -0.15978538078E-02 -0.24778504730E-02  0.21294210981E-02  0.17130000004E+03  0.17130000000E+03 0. -1.
      622    1    1    2    0    0  0.19279636914E-01  0.76528020094E-02  0.37707617874E+01  0.37721445793E+01  0.10000000000E+00 0. -1.
</event>
<event>
 5   0  0.6262544E+06  0.9118800E+02  0.7818608E-02  0.1180000E+00
       11   -1    0    0    0    0  0.00000000000E+00  0.00000000000E+00  0.39999999673E+01  0.40000000000E+01  0.51109989000E-03 0.  1.
     -623   -1    0    0    0    0  0.00000000000E+00  0.00000000000E+00  0.12525980253E-10  0.17130000000E+03  0.17130000000E+03 0. -1.
       11    1    1    2    0    0 -0.11100618443E-01  0.12498325020E-01  0.77368529519E+00  0.77386602786E+00  0.51109989000E-03 0.  1.
     -623    1    1    2    0    0  0.96286227840E-02 -0.38409745174E-02  0.17431954291E-02  0.17130000032E+03  0.17130000000E+03 0. -1.
      622    1    1    2    0    0  0.14719956589E-02 -0.86573505026E-02  0.32245714767E+01  0.32261336496E+01  0.10000000000E+00 0.  1.
</event>
<event>
 5   0  0.6262544E+06  0.9118800E+02  0.7818608E-02  0.1180000E+00
       11   -1    0    0    0    0  0.00000000000E+00  0.00000000000E+00  0.39999999673E+01  0.40000000000E+01  0.51109989000E-03 0.  1.
     -623   -1    0    0    0    0  0.00000000000E+00  0.00000000000E+00  0.12525980253E-10  0.17130000000E+03  0.17130000000E+03 0.  1.
       11    1    1    2    0    0 -0.61695882680E-02 -0.46628922890E-02  0.35648972418E+00  0.35657396295E+00  0.51109989000E-03 0.  1.
     -623    1    1    2    0    0  0.96228233663E-02 -0.17651261401E-02  0.14643947831E-02  0.17130000029E+03  0.17130000000E+03 0.  1.
      622    1    1    2    0    0 -0.34532350987E-02  0.64280184292E-02  0.36420458486E+01  0.36434257516E+01  0.10000000000E+00 0.  1.
</event>
<event>
 5   0  0.6262544E+06  0.9118800E+02  0.7818608E-02  0.1180000E+00
       11   -1    0    0    0    0  0.00000000000E+00  0.00000000000E+00  0.39999999673E+01  0.40000000000E+01  0.51109989000E-03 0.  1.
     -623   -1    0    0    0    0  0.00000000000E+00  0.00000000000E+00  0.12525980253E-10  0.17130000000E+03  0.17130000000E+03 0. -1.
       11    1    1    2    0    0  0.26499766789E-01 -0.38582960716E-01  0.48769178426E+00  0.48993307722E+00  0.51109989000E-03 0.  1.
     -623    1    1    2    0    0 -0.11954594877E-01  0.14024385695E-01  0.37831561246E-02  0.17130000103E+03  0.17130000000E+03 0. -1.
      622    1    1    2    0    0 -0.14545171912E-01  0.24558575021E-01  0.35085250270E+01  0.35100658898E+01  0.10000000000E+00 0.  0.
</event>
<event>
 5   0  0.6262544E+06  0.9118800E+02  0.7818608E-02  0.1180000E+00
       11   -1    0    0    0    0  0.00000000000E+00  0.00000000000E+00  0.39999999673E+01  0.40000000000E+01  0.51109989000E-03 0.  1.
     -623   -1    0    0    0    0  0.00000000000E+00  0.00000000000E+00  0.12525980253E-10  0.17130000000E+03  0.17130000000E+03 0. -1.
       11    1    1    2    0    0 -0.15107372610E-01 -0.40284693839E-02  0.18451520155E+01  0.18452183293E+01  0.51109989000E-03 0.  1.
     -623    1    1    2    0    0  0.15204194513E-01 -0.43837097740E-02  0.24051414966E-02  0.17130000075E+03  0.17130000000E+03 0. -1.
      622    1    1    2    0    0 -0.96821902505E-04  0.84121791579E-02  0.21524428103E+01  0.21547809229E+01  0.10000000000E+00 0.  1.
</event>
<event>
 5   0  0.6262544E+06  0.9118800E+02  0.7818608E-02  0.1180000E+00
       11   -1    0    0    0    0  0.00000000000E+00  0.00000000000E+00  0.39999999673E+01  0.40000000000E+01  0.51109989000E-03 0. -1.
     -623   -1    0    0    0    0  0.00000000000E+00  0.00000000000E+00  0.12525980253E-10  0.17130000000E+03  0.17130000000E+03 0.  1.
       11    1    1    2    0    0 -0.38529395958E-01 -0.32076428517E-01  0.16770668522E+01  0.16778161102E+01  0.51109989000E-03 0. -1.
     -623    1    1    2    0    0  0.10226131077E-01  0.11145893225E-01  0.31711407407E-02  0.17130000070E+03  0.17130000000E+03 0.  1.
      622    1    1    2    0    0  0.28303264881E-01  0.20930535291E-01  0.23197619746E+01  0.23221831927E+01  0.10000000000E+00 0. -1.
</event>
<event>
 5   0  0.6262544E+06  0.9118800E+02  0.7818608E-02  0.1180000E+00
       11   -1    0    0    0    0  0.00000000000E+00  0.00000000000E+00  0.39999999673E+01  0.40000000000E+01  0.51109989000E-03 0. -1.
     -623   -1    0    0    0    0  0.00000000000E+00  0.00000000000E+00  0.12525980253E-10  0.17130000000E+03  0.17130000000E+03 0. -1.
       11    1    1    2    0    0  0.12356791993E-02  0.76835622169E-02  0.15624734845E-01  0.17463034975E-01  0.51109989000E-03 0. -1.
     -623    1    1    2    0    0 -0.48975574378E-02 -0.81590202486E-02  0.30959514016E-02  0.17130000029E+03  0.17130000000E+03 0. -1.
      622    1    1    2    0    0  0.36618782385E-02  0.47545803170E-03  0.39812792811E+01  0.39825366727E+01  0.10000000000E+00 0. -1.
</event>
<event>
 5   0  0.6262544E+06  0.9118800E+02  0.7818608E-02  0.1180000E+00
       11   -1    0    0    0    0  0.00000000000E+00  0.00000000000E+00  0.39999999673E+01  0.40000000000E+01  0.51109989000E-03 0.  1.
     -623   -1    0    0    0    0  0.00000000000E+00  0.00000000000E+00  0.12525980253E-10  0.17130000000E+03  0.17130000000E+03 0. -1.
       11    1    1    2    0    0 -0.11123122264E-01  0.58962270156E-02  0.18222475984E-02  0.12730716843E-01  0.51109989000E-03 0.  1.
     -623    1    1    2    0    0 -0.70453732861E-02  0.12290399771E-01  0.12246545440E-01  0.17130000102E+03  0.17130000000E+03 0. -1.
      622    1    1    2    0    0  0.18168495550E-01 -0.18186626787E-01  0.39859311743E+01  0.39872682596E+01  0.10000000000E+00 0.  1.
</event>
<event>
 5   0  0.6262544E+06  0.9118800E+02  0.7818608E-02  0.1180000E+00
       11   -1    0    0    0    0  0.00000000000E+00  0.00000000000E+00  0.39999999673E+01  0.40000000000E+01  0.51109989000E-03 0. -1.
     -623   -1    0    0    0    0  0.00000000000E+00  0.00000000000E+00  0.12525980253E-10  0.17130000000E+03  0.17130000000E+03 0. -1.
       11    1    1    2    0    0  0.15750398688E-01 -0.62577689524E-01  0.24873803630E+01  0.24882173084E+01  0.51109989000E-03 0. -1.
     -623    1    1    2    0    0 -0.11195339457E-01  0.32023939256E-01  0.44676579397E-02  0.17130000342E+03  0.17130000000E+03 0. -1.
      622    1    1    2    0    0 -0.45550592309E-02  0.30553750268E-01  0.15081519464E+01  0.15117792741E+01  0.10000000000E+00 0.  1.
</event>
<event>
 5   0  0.6262544E+06  0.9118800E+02  0.7818608E-02  0.1180000E+00
       11   -1    0    0    0    0  0.00000000000E+00  0.00000000000E+00  0.39999999673E+01  0.40000000000E+01  0.51109989000E-03 0. -1.
     -623   -1    0    0    0    0  0.00000000000E+00  0.00000000000E+00  0.12525980253E-10  0.17130000000E+03  0.17130000000E+03 0.  1.
       11    1    1    2    0    0  0.11185318803E-01  0.32597560585E-02  0.11813935849E+00  0.11871354857E+00  0.51109989000E-03 0. -1.
     -623    1    1    2    0    0  0.31272420962E-02 -0.68672424284E-02  0.18908559480E-02  0.17130000018E+03  0.17130000000E+03 0.  1.
      622    1    1    2    0    0 -0.14312560899E-01  0.36074863696E-02  0.38799697528E+01  0.38812862747E+01  0.10000000000E+00 0. -1.
</event>
<event>
 5   0  0.6262544E+06  0.9118800E+02  0.7818608E-02  0.1180000E+00
       11   -1    0    0    0    0  0.00000000000E+00  0.00000000000E+00  0.39999999673E+01  0.40000000000E+01  0.51109989000E-03 0.  1.
     -623   -1    0    0    0    0  0.00000000000E+00  0.00000000000E+00  0.12525980253E-10  0.17130000000E+03  0.17130000000E+03 0.  1.
       11    1    1    2    0    0  0.20860076208E-02  0.15325460821E-01  0.20567894621E+00  0.20626029990E+00  0.51109989000E-03 0.  1.
     -623    1    1    2    0    0 -0.77181104414E-02 -0.51274943777E-02  0.19176657443E-02  0.17130000026E+03  0.17130000000E+03 0.  1.
      622    1    1    2    0    0  0.56321028207E-02 -0.10197966443E-01  0.37924033554E+01  0.37937394388E+01  0.10000000000E+00 0.  1.
</event>
<event>
 5   0  0.6262544E+06  0.9118800E+02  0.7818608E-02  0.1180000E+00
       11   -1    0    0    0    0  0.00000000000E+00  0.00000000000E+00  0.39999999673E+01  0.40000000000E+01  0.51109989000E-03 0.  1.
     -623   -1    0    0    0    0  0.00000000000E+00  0.00000000000E+00  0.12525980253E-10  0.17130000000E+03  0.17130000000E+03 0.  1.
       11    1    1    2    0    0  0.28083358418E-01  0.21243968103E-01  0.26981032722E+01  0.26983330984E+01  0.51109989000E-03 0.  1.
     -623    1    1    2    0    0 -0.62969070839E-01  0.88884368182E-01  0.92634737025E-02  0.17130003488E+03  0.17130000000E+03 0.  1.
      622    1    1    2    0    0  0.34885712420E-01 -0.11012833628E+00  0.12926332215E+01  0.13016320174E+01  0.10000000000E+00 0.  0.
</event>
<event>
 5   0  0.6262544E+06  0.9118800E+02  0.7818608E-02  0.1180000E+00
       11   -1    0    0    0    0  0.00000000000E+00  0.00000000000E+00  0.39999999673E+01  0.40000000000E+01  0.51109989000E-03 0. -1.
     -623   -1    0    0    0    0  0.00000000000E+00  0.00000000000E+00  0.12525980253E-10  0.17130000000E+03  0.17130000000E+03 0.  1.
       11    1    1    2    0    0  0.73004283478E-02 -0.30137176759E-03  0.41252966137E-01  0.41898156490E-01  0.51109989000E-03 0. -1.
     -623    1    1    2    0    0 -0.35261784020E-03 -0.31349849853E-02  0.19162229136E-02  0.17130000004E+03  0.17130000000E+03 0.  1.
      622    1    1    2    0    0 -0.69478105076E-02  0.34363567529E-02  0.39568307783E+01  0.39581018037E+01  0.10000000000E+00 0. -1.
</event>
<event>
 5   0  0.6262544E+06  0.9118800E+02  0.7818608E-02  0.1180000E+00
       11   -1    0    0    0    0  0.00000000000E+00  0.00000000000E+00  0.39999999673E+01  0.40000000000E+01  0.51109989000E-03 0.  1.
     -623   -1    0    0    0    0  0.00000000000E+00  0.00000000000E+00  0.12525980253E-10  0.17130000000E+03  0.17130000000E+03 0. -1.
       11    1    1    2    0    0 -0.25175465312E-02 -0.29632815724E-02  0.23761434242E+00  0.23764670421E+00  0.51109989000E-03 0.  1.
     -623    1    1    2    0    0 -0.86128568134E-03  0.15135587688E-01  0.13834113113E-02  0.17130000068E+03  0.17130000000E+03 0. -1.
      622    1    1    2    0    0  0.33788322125E-02 -0.12172306116E-01  0.37610022136E+01  0.37623526194E+01  0.10000000000E+00 0.  1.
</event>
<event>
 5   0  0.6262544E+06  0.9118800E+02  0.7818608E-02  0.1180000E+00
       11   -1    0    0    0    0  0.00000000000E+00  0.00000000000E+00  0.39999999673E+01  0.40000000000E+01  0.51109989000E-03 0. -1.
     -623   -1    0    0    0    0  0.00000000000E+00  0.00000000000E+00  0.12525980253E-10  0.17130000000E+03  0.17130000000E+03 0. -1.
       11    1    1    2    0    0  0.19966621757E-02  0.26861390402E-01  0.11457131397E+00  0.11769608388E+00  0.51109989000E-03 0. -1.
     -623    1    1    2    0    0  0.55379689435E-02 -0.21192577813E-02  0.44991902739E-02  0.17130000016E+03  0.17130000000E+03 0. -1.
      622    1    1    2    0    0 -0.75346311192E-02 -0.24742132621E-01  0.38809294631E+01  0.38823037544E+01  0.10000000000E+00 0. -1.
</event>
<event>
 5   0  0.6262544E+06  0.9118800E+02  0.7818608E-02  0.1180000E+00
       11   -1    0    0    0    0  0.00000000000E+00  0.00000000000E+00  0.39999999673E+01  0.40000000000E+01  0.51109989000E-03 0. -1.
     -623   -1    0    0    0    0  0.00000000000E+00  0.00000000000E+00  0.12525980253E-10  0.17130000000E+03  0.17130000000E+03 0. -1.
       11    1    1    2    0    0  0.36767951390E-02 -0.65644599182E-02  0.92579863499E-01  0.92886507659E-01  0.51109989000E-03 0. -1.
     -623    1    1    2    0    0  0.55272185616E-02  0.49042820225E-02  0.15979025391E-02  0.17130000017E+03  0.17130000000E+03 0. -1.
      622    1    1    2    0    0 -0.92040137006E-02  0.16601778957E-02  0.39058222013E+01  0.39071133255E+01  0.10000000000E+00 0. -1.
</event>
<event>
 5   0  0.6262544E+06  0.9118800E+02  0.7818608E-02  0.1180000E+00
       11   -1    0    0    0    0  0.00000000000E+00  0.00000000000E+00  0.39999999673E+01  0.40000000000E+01  0.51109989000E-03 0.  1.
     -623   -1    0    0    0    0  0.00000000000E+00  0.00000000000E+00  0.12525980253E-10  0.17130000000E+03  0.17130000000E+03 0.  1.
       11    1    1    2    0    0 -0.59081819225E-01 -0.38388933208E-02  0.12109374035E+01  0.12123840377E+01  0.51109989000E-03 0.  1.
     -623    1    1    2    0    0 -0.41587498808E-01  0.47009390413E-02  0.50656571895E-02  0.17130000519E+03  0.17130000000E+03 0.  1.
      622    1    1    2    0    0  0.10066931803E+00 -0.86204572053E-03  0.27839969067E+01  0.27876107747E+01  0.10000000000E+00 0.  0.
</event>
<event>
 5   0  0.6262544E+06  0.9118800E+02  0.7818608E-02  0.1180000E+00
       11   -1    0    0    0    0  0.00000000000E+00  0.00000000000E+00  0.39999999673E+01  0.40000000000E+01  0.51109989000E-03 0. -1.
     -623   -1    0    0    0    0  0.00000000000E+00  0.00000000000E+00  0.12525980253E-10  0.17130000000E+03  0.17130000000E+03 0. -1.
       11    1    1    2    0    0 -0.62986898288E-02  0.35429650093E-02  0.27980008822E-02  0.77663456068E-02  0.51109989000E-03 0. -1.
     -623    1    1    2    0    0  0.58381626506E-03 -0.50081378337E-02  0.62254883417E-02  0.17130000019E+03  0.17130000000E+03 0. -1.
      622    1    1    2    0    0  0.57148735638E-02  0.14651728244E-02  0.39909764781E+01  0.39922334671E+01  0.10000000000E+00 0. -1.
</event>
<event>
 5   0  0.6262544E+06  0.9118800E+02  0.7818608E-02  0.1180000E+00
       11   -1    0    0    0    0  0.00000000000E+00  0.00000000000E+00  0.39999999673E+01  0.40000000000E+01  0.51109989000E-03 0.  1.
     -623   -1    0    0    0    0  0.00000000000E+00  0.00000000000E+00  0.12525980253E-10  0.17130000000E+03  0.17130000000E+03 0.  1.
       11    1    1    2    0    0 -0.72902222984E-03 -0.11672962736E-02  0.67246623283E+00  0.67246783534E+00  0.51109989000E-03 0.  1.
     -623    1    1    2    0    0 -0.71194675830E-02  0.56221742375E-02  0.15170149718E-02  0.17130000025E+03  0.17130000000E+03 0.  1.
      622    1    1    2    0    0  0.78484898129E-02 -0.44548779639E-02  0.33260167196E+01  0.33275319177E+01  0.10000000000E+00 0.  1.
</event>
<event>
 5   0  0.6262544E+06  0.9118800E+02  0.7818608E-02  0.1180000E+00
       11   -1    0    0    0    0  0.00000000000E+00  0.00000000000E+00  0.39999999673E+01  0.40000000000E+01  0.51109989000E-03 0. -1.
     -623   -1    0    0    0    0  0.00000000000E+00  0.00000000000E+00  0.12525980253E-10  0.17130000000E+03  0.17130000000E+03 0. -1.
       11    1    1    2    0    0 -0.17412344409E-04 -0.85567060702E-03 -0.43762903555E-03  0.10886770172E-02  0.51109989000E-03 0. -1.
     -623    1    1    2    0    0 -0.22272817935E-02  0.24940802472E-02  0.27778303712E-02  0.17130000006E+03  0.17130000000E+03 0. -1.
      622    1    1    2    0    0  0.22446941379E-02 -0.16384096402E-02  0.39976597661E+01  0.39989112679E+01  0.10000000000E+00 0. -1.
</event>
<event>
 5   0  0.6262544E+06  0.9118800E+02  0.7818608E-02  0.1180000E+00
       11   -1    0    0    0    0  0.00000000000E+00  0.00000000000E+00  0.39999999673E+01  0.40000000000E+01  0.51109989000E-03 0.  1.
     -623   -1    0    0    0    0  0.00000000000E+00  0.00000000000E+00  0.12525980253E-10  0.17130000000E+03  0.17130000000E+03 0. -1.
       11    1    1    2    0    0  0.14211989109E-03 -0.34383746626E-02  0.22417753709E-02  0.41387677266E-02  0.51109989000E-03 0. -1.
     -623    1    1    2    0    0  0.34711131599E-03 -0.25455801710E-02  0.31530106657E-02  0.17130000005E+03  0.17130000000E+03 0. -1.
      622    1    1    2    0    0 -0.48923120709E-03  0.59839548336E-02  0.39946051814E+01  0.39958611841E+01  0.10000000000E+00 0.  1.
</event>
<event>
 5   0  0.6262544E+06  0.9118800E+02  0.7818608E-02  0.1180000E+00
       11   -1    0    0    0    0  0.00000000000E+00  0.00000000000E+00  0.39999999673E+01  0.40000000000E+01  0.51109989000E-03 0.  1.
     -623   -1    0    0    0    0  0.00000000000E+00  0.00000000000E+00  0.12525980253E-10  0.17130000000E+03  0.17130000000E+03 0. -1.
       11    1    1    2    0    0 -0.15520979951E-02 -0.18147840461E-02  0.12714734981E-01  0.12947129302E-01  0.51109989000E-03 0.  1.
     -623    1    1    2    0    0 -0.26570407362E-02  0.93580150202E-02  0.14962613145E-02  0.17130000028E+03  0.17130000000E+03 0. -1.
      622    1    1    2    0    0  0.42091387314E-02 -0.75432309741E-02  0.39857889711E+01  0.39870525879E+01  0.10000000000E+00 0.  1.
</event>
<event>
 5   0  0.6262544E+06  0.9118800E+02  0.7818608E-02  0.1180000E+00
       11   -1    0    0    0    0  0.00000000000E+00  0.00000000000E+00  0.39999999673E+01  0.40000000000E+01  0.51109989000E-03 0. -1.
     -623   -1    0    0    0    0  0.00000000000E+00  0.00000000000E+00  0.12525980253E-10  0.17130000000E+03  0.17130000000E+03 0.  1.
       11    1    1    2    0    0  0.47489580870E-01  0.46044134542E-01  0.19839158437E+01  0.19850183019E+01  0.51109989000E-03 0. -1.
     -623    1    1    2    0    0 -0.77976781856E-01 -0.24118042110E-01  0.39552827961E-02  0.17130001949E+03  0.17130000000E+03 0.  1.
      622    1    1    2    0    0  0.30487200986E-01 -0.21926092432E-01  0.20121288408E+01  0.20149622069E+01  0.10000000000E+00 0.  1.
</event>
<event>
 5   0  0.6262544E+06  0.9118800E+02  0.7818608E-02  0.1180000E+00
       11   -1    0    0    0    0  0.00000000000E+00  0.00000000000E+00  0.39999999673E+01  0.40000000000E+01  0.51109989000E-03 0.  1.
     -623   -1    0    0    0    0  0.00000000000E+00  0.00000000000E+00  0.12525980253E-10  0.17130000000E+03  0.17130000000E+03 0.  1.
       11    1    1    2    0    0  0.16917225259E-02 -0.54411893839E-02  0.14265166508E-01  0.15369602000E-01  0.51109989000E-03 0.  1.
     -623    1    1    2    0    0  0.50146259786E-02 -0.22106924840E-02  0.23725209786E-02  0.17130000010E+03  0.17130000000E+03 0.  1.
      622    1    1    2    0    0 -0.67063485046E-02  0.76518818680E-02  0.39833622800E+01  0.39846302941E+01  0.10000000000E+00 0.  1.
</event>
<event>
 5   0  0.6262544E+06  0.9118800E+02  0.7818608E-02  0.1180000E+00
       11   -1    0    0    0    0  0.00000000000E+00  0.00000000000E+00  0.39999999673E+01  0.40000000000E+01  0.51109989000E-03 0.  1.
     -623   -1    0    0    0    0  0.00000000000E+00  0.00000000000E+00  0.12525980253E-10  0.17130000000E+03  0.17130000000E+03 0.  1.
       11    1    1    2    0    0  0.13231915334E-01 -0.30853867590E-01  0.59652124256E-01  0.68452040718E-01  0.51109989000E-03 0.  1.
     -623    1    1    2    0    0  0.91544103319E-02 -0.58906996714E-02  0.10308035820E-01  0.17130000066E+03  0.17130000000E+03 0.  1.
      622    1    1    2    0    0 -0.22386325666E-01  0.36744567262E-01  0.39300398073E+01  0.39315473032E+01  0.10000000000E+00 0.  1.
</event>
<event>
 5   0  0.6262544E+06  0.9118800E+02  0.7818608E-02  0.1180000E+00
       11   -1    0    0    0    0  0.00000000000E+00  0.00000000000E+00  0.39999999673E+01  0.40000000000E+01  0.51109989000E-03 0.  1.
     -623   -1    0    0    0    0  0.00000000000E+00  0.00000000000E+00  0.12525980253E-10  0.17130000000E+03  0.17130000000E+03 0. -1.
       11    1    1    2    0    0 -0.76504493534E-01  0.16349923633E-01  0.94112324407E+00  0.94436935533E+00  0.51109989000E-03 0.  1.
     -623    1    1    2    0    0  0.22046966632E-01  0.55368715257E-02  0.54484474352E-02  0.17130000159E+03  0.17130000000E+03 0. -1.
      622    1    1    2    0    0  0.54457526901E-01 -0.21886795159E-01  0.30534282759E+01  0.30556290498E+01  0.10000000000E+00 0.  0.
</event>
<event>
 5   0  0.6262544E+06  0.9118800E+02  0.7818608E-02  0.1180000E+00
       11   -1    0    0    0    0  0.00000000000E+00  0.00000000000E+00  0.39999999673E+01  0.40000000000E+01  0.51109989000E-03 0.  1.
     -623   -1    0    0    0    0  0.00000000000E+00  0.00000000000E+00  0.12525980253E-10  0.17130000000E+03  0.17130000000E+03 0. -1.
       11    1    1    2    0    0 -0.59431166957E-02  0.12658049356E-01  0.23977640950E-01  0.27762120550E-01  0.51109989000E-03 0.  1.
     -623    1    1    2    0    0 -0.56335568991E-03 -0.98701030270E-02  0.50500517217E-02  0.17130000036E+03  0.17130000000E+03 0. -1.
      622    1    1    2    0    0  0.65064723856E-02 -0.27879463290E-02  0.39709722747E+01  0.39722375197E+01  0.10000000000E+00 0.  1.
</event>
<event>
 5   0  0.6262544E+06  0.9118800E+02  0.7818608E-02  0.1180000E+00
       11   -1    0    0    0    0  0.00000000000E+00  0.00000000000E+00  0.39999999673E+01  0.40000000000E+01  0.51109989000E-03 0.  1.
     -623   -1    0    0    0    0  0.00000000000E+00  0.00000000000E+00  0.12525980253E-10  0.17130000000E+03  0.17130000000E+03 0. -1.
       11    1    1    2    0    0 -0.18708805317E-01  0.71896696832E-02  0.66356561974E+00  0.66386843852E+00  0.51109989000E-03 0.  1.
     -623    1    1    2    0    0 -0.42815059800E-02 -0.25183868517E-02  0.18844723772E-02  0.17130000008E+03  0.17130000000E+03 0. -1.
      622    1    1    2    0    0  0.22990311297E-01 -0.46712828313E-02  0.33345498754E+01  0.33361314793E+01  0.10000000000E+00 0.  1.
</event>
<event>
 5   0  0.6262544E+06  0.9118800E+02  0.7818608E-02  0.1180000E+00
       11   -1    0    0    0    0  0.00000000000E+00  0.00000000000E+00  0.39999999673E+01  0.40000000000E+01  0.51109989000E-03 0. -1.
     -623   -1    0    0    0    0  0.00000000000E+00  0.00000000000E+00  0.12525980253E-10  0.17130000000E+03  0.17130000000E+03 0.  1.
       11    1    1    2    0    0  0.22528448823E-01  0.18920474784E-01  0.58034769867E-01  0.65067742444E-01  0.51109989000E-03 0. -1.
     -623    1    1    2    0    0 -0.26824974739E-01 -0.56085889379E-03  0.83513123807E-02  0.17130000230E+03  0.17130000000E+03 0.  1.
      622    1    1    2    0    0  0.42965259155E-02 -0.18359615890E-01  0.39336138851E+01  0.39349299527E+01  0.10000000000E+00 0. -1.
</event>
<event>
 5   0  0.6262544E+06  0.9118800E+02  0.7818608E-02  0.1180000E+00
       11   -1    0    0    0    0  0.00000000000E+00  0.00000000000E+00  0.39999999673E+01  0.40000000000E+01  0.51109989000E-03 0. -1.
     -623   -1    0    0    0    0  0.00000000000E+00  0.00000000000E+00  0.12525980253E-10  0.17130000000E+03  0.17130000000E+03 0.  1.
       11    1    1    2    0    0  0.46536202305E-01 -0.17202020911E-01  0.12986249011E+01  0.12995723999E+01  0.51109989000E-03 0. -1.
     -623    1    1    2    0    0 -0.97665002097E-03 -0.18286443441E-02  0.32514312391E-02  0.17130000004E+03  0.17130000000E+03 0.  1.
      622    1    1    2    0    0 -0.45559552284E-01  0.19030665255E-01  0.26981236350E+01  0.27004275567E+01  0.10000000000E+00 0. -1.
</event>
<event>
 5   0  0.6262544E+06  0.9118800E+02  0.7818608E-02  0.1180000E+00
       11   -1    0    0    0    0  0.00000000000E+00  0.00000000000E+00  0.39999999673E+01  0.40000000000E+01  0.51109989000E-03 0.  1.
     -623   -1    0    0    0    0  0.00000000000E+00  0.00000000000E+00  0.12525980253E-10  0.17130000000E+03  0.17130000000E+03 0. -1.
       11    1    1    2    0    0  0.10981767120E-01  0.48887683458E-02  0.87939372580E-01  0.88758626258E-01  0.51109989000E-03 0.  1.
     -623    1    1    2    0    0 -0.15320804580E-02  0.81550755769E-03  0.21133985171E-02  0.17130000002E+03  0.17130000000E+03 0. -1.
      622    1    1    2    0    0 -0.94496866618E-02 -0.57042759035E-02  0.39099471963E+01  0.39112413519E+01  0.10000000000E+00 0.  1.
</event>
<event>
 5   0  0.6262544E+06  0.9118800E+02  0.7818608E-02  0.1180000E+00
       11   -1    0    0    0    0  0.00000000000E+00  0.00000000000E+00  0.39999999673E+01  0.40000000000E+01  0.51109989000E-03 0.  1.
     -623   -1    0    0    0    0  0.00000000000E+00  0.00000000000E+00  0.12525980253E-10  0.17130000000E+03  0.17130000000E+03 0.  1.
       11    1    1    2    0    0  0.52979741030E-02 -0.63089126470E-01  0.32383491636E+01  0.32389680259E+01  0.51109989000E-03 0.  1.
     -623    1    1    2    0    0 -0.54702843489E-02  0.30554302583E-01  0.79223634143E-02  0.17130000300E+03  0.17130000000E+03 0.  1.
      622    1    1    2    0    0  0.17231024593E-03  0.32534823887E-01  0.75372844037E+00  0.76102897861E+00  0.10000000000E+00 0.  1.
</event>
<event>
 5   0  0.6262544E+06  0.9118800E+02  0.7818608E-02  0.1180000E+00
       11   -1    0    0    0    0  0.00000000000E+00  0.00000000000E+00  0.39999999673E+01  0.40000000000E+01  0.51109989000E-03 0. -1.
     -623   -1    0    0    0    0  0.00000000000E+00  0.00000000000E+00  0.12525980253E-10  0.17130000000E+03  0.17130000000E+03 0. -1.
       11    1    1    2    0    0  0.16161135775E-01 -0.68016311453E-02  0.16050933889E+01  0.16051892390E+01  0.51109989000E-03 0. -1.
     -623    1    1    2    0    0 -0.74991855411E-02 -0.26021614197E-02  0.22189325523E-02  0.17130000020E+03  0.17130000000E+03 0. -1.
      622    1    1    2    0    0 -0.86619502337E-02  0.94037925650E-02  0.23926876459E+01  0.23948105628E+01  0.10000000000E+00 0. -1.
</event>
<event>
 5   0  0.6262544E+06  0.9118800E+02  0.7818608E-02  0.1180000E+00
       11   -1    0    0    0    0  0.00000000000E+00  0.00000000000E+00  0.39999999673E+01  0.40000000000E+01  0.51109989000E-03 0. -1.
     -623   -1    0    0    0    0  0.00000000000E+00  0.00000000000E+00  0.12525980253E-10  0.17130000000E+03  0.17130000000E+03 0.  1.
       11    1    1    2    0    0  0.39256186900E-01  0.30066345938E-02  0.10960251177E+01  0.10967321496E+01  0.51109989000E-03 0. -1.
     -623    1    1    2    0    0 -0.23485958435E-01 -0.32912984884E-01  0.26314891046E-02  0.17130000479E+03  0.17130000000E+03 0.  1.
      622    1    1    2    0    0 -0.15770228465E-01  0.29906350290E-01  0.29013433605E+01  0.29032630583E+01  0.10000000000E+00 0. -1.
</event>
<event>
 5   0  0.6262544E+06  0.9118800E+02  0.7818608E-02  0.1180000E+00
       11   -1    0    0    0    0  0.00000000000E+00  0.00000000000E+00  0.39999999673E+01  0.40000000000E+01  0.51109989000E-03 0. -1.
     -623   -1    0    0    0    0  0.00000000000E+00  0.00000000000E+00  0.12525980253E-10  0.17130000000E+03  0.17130000000E+03 0. -1.
       11    1    1    2    0    0  0.35770544176E-03 -0.54408646594E-03  0.57243149003E-02  0.57838557590E-02  0.51109989000E-03 0. -1.
     -623    1    1    2    0    0  0.31246049502E-02 -0.90298239916E-03  0.13133311318E-02  0.17130000004E+03  0.17130000000E+03 0. -1.
      622    1    1    2    0    0 -0.34823103921E-02  0.14470688651E-02  0.39929623215E+01  0.39942161085E+01  0.10000000000E+00 0. -1.
</event>
<event>
 5   0  0.6262544E+06  0.9118800E+02  0.7818608E-02  0.1180000E+00
       11   -1    0    0    0    0  0.00000000000E+00  0.00000000000E+00  0.39999999673E+01  0.40000000000E+01  0.51109989000E-03 0.  1.
     -623   -1    0    0    0    0  0.00000000000E+00  0.00000000000E+00  0.12525980253E-10  0.17130000000E+03  0.17130000000E+03 0. -1.
       11    1    1    2    0    0 -0.37774464350E-02 -0.47068063031E-02  0.16105266028E-01  0.17206508700E-01  0.51109989000E-03 0.  1.
     -623    1    1    2    0    0  0.30698376086E-02  0.16713717511E-02  0.23580800734E-02  0.17130000005E+03  0.17130000000E+03 0. -1.
      622    1    1    2    0    0  0.70760882639E-03  0.30354345520E-02  0.39815366213E+01  0.39827934394E+01  0.10000000000E+00 0.  1.
</event>
<event>
 5   0  0.6262544E+06  0.9118800E+02  0.7818608E-02  0.1180000E+00
       11   -1    0    0    0    0  0.00000000000E+00  0.00000000000E+00  0.39999999673E+01  0.40000000000E+01  0.51109989000E-03 0.  1.
     -623   -1    0    0    0    0  0.00000000000E+00  0.00000000000E+00  0.12525980253E-10  0.17130000000E+03  0.17130000000E+03 0.  1.
       11    1    1    2    0    0 -0.86462275802E-02  0.28254875935E-02  0.51052796555E+00  0.51060924930E+00  0.51109989000E-03 0.  1.
     -623    1    1    2    0    0 -0.88671715474E-04  0.19267949512E-02  0.15286529174E-02  0.17130000002E+03  0.17130000000E+03 0.  1.
      622    1    1    2    0    0  0.87348992957E-02 -0.47522825449E-02  0.34879433491E+01  0.34893907333E+01  0.10000000000E+00 0.  1.
</event>
<event>
 5   0  0.6262544E+06  0.9118800E+02  0.7818608E-02  0.1180000E+00
       11   -1    0    0    0    0  0.00000000000E+00  0.00000000000E+00  0.39999999673E+01  0.40000000000E+01  0.51109989000E-03 0. -1.
     -623   -1    0    0    0    0  0.00000000000E+00  0.00000000000E+00  0.12525980253E-10  0.17130000000E+03  0.17130000000E+03 0. -1.
       11    1    1    2    0    0  0.10852709387E-01 -0.71460212354E-02  0.12423426575E+01  0.12424107158E+01  0.51109989000E-03 0. -1.
     -623    1    1    2    0    0  0.99050483006E-02  0.26059903143E-01  0.20271708885E-02  0.17130000228E+03  0.17130000000E+03 0. -1.
      622    1    1    2    0    0 -0.20757757688E-01 -0.18913881907E-01  0.27556301390E+01  0.27575870036E+01  0.10000000000E+00 0. -1.
</event>
<event>
 5   0  0.6262544E+06  0.9118800E+02  0.7818608E-02  0.1180000E+00
       11   -1    0    0    0    0  0.00000000000E+00  0.00000000000E+00  0.39999999673E+01  0.40000000000E+01  0.51109989000E-03 0. -1.
     -623   -1    0    0    0    0  0.00000000000E+00  0.00000000000E+00  0.12525980253E-10  0.17130000000E+03  0.17130000000E+03 0.  1.
       11    1    1    2    0    0 -0.48646075273E-01  0.16827247934E-01  0.10394989793E+00  0.11599758366E+00  0.51109989000E-03 0. -1.
     -623    1    1    2    0    0  0.24234982250E-01 -0.26374442654E-01  0.13427947415E-01  0.17130000427E+03  0.17130000000E+03 0.  1.
      622    1    1    2    0    0  0.24411093023E-01  0.95471947197E-02  0.38826221220E+01  0.38839981453E+01  0.10000000000E+00 0. -1.
</event>
<event>
 5   0  0.6262544E+06  0.9118800E+02  0.7818608E-02  0.1180000E+00
       11   -1    0    0    0    0  0.00000000000E+00  0.00000000000E+00  0.39999999673E+01  0.40000000000E+01  0.51109989000E-03 0. -1.
     -623   -1    0    0    0    0  0.00000000000E+00  0.00000000000E+00  0.12525980253E-10  0.17130000000E+03  0.17130000000E+03 0.  1.
       11    1    1    2    0    0 -0.16598516827E-01 -0.27752686937E-01  0.21596452218E+01  0.21598873738E+01  0.51109989000E-03 0. -1.
     -623    1    1    2    0    0 -0.11640092857E-01  0.13319028358E-02  0.33687892619E-02  0.17130000043E+03  0.17130000000E+03 0.  1.
      622    1    1    2    0    0  0.28238609684E-01  0.26420784102E-01  0.18369859563E+01  0.18401121924E+01  0.10000000000E+00 0.  1.
</event>
<event>
 5   0  0.6262544E+06  0.9118800E+02  0.7818608E-02  0.1180000E+00
       11   -1    0    0    0    0  0.00000000000E+00  0.00000000000E+00  0.39999999673E+01  0.40000000000E+01  0.51109989000E-03 0. -1.
     -623   -1    0    0    0    0  0.00000000000E+00  0.00000000000E+00  0.12525980253E-10  0.17130000000E+03  0.17130000000E+03 0.  1.
       11    1    1    2    0    0 -0.19175424694E-01 -0.31996145232E-02  0.10188159870E+01  0.10190015756E+01  0.51109989000E-03 0. -1.
     -623    1    1    2    0    0  0.50813664664E-03 -0.76077987823E-02  0.19415831626E-02  0.17130000018E+03  0.17130000000E+03 0.  1.
      622    1    1    2    0    0  0.18667288047E-01  0.10807413306E-01  0.29792423973E+01  0.29809982439E+01  0.10000000000E+00 0. -1.
</event>
<event>
 5   0  0.6262544E+06  0.9118800E+02  0.7818608E-02  0.1180000E+00
       11   -1    0    0    0    0  0.00000000000E+00  0.00000000000E+00  0.39999999673E+01  0.40000000000E+01  0.51109989000E-03 0. -1.
     -623   -1    0    0    0    0  0.00000000000E+00  0.00000000000E+00  0.12525980253E-10  0.17130000000E+03  0.17130000000E+03 0.  1.
       11    1    1    2    0    0 -0.14120718269E-01  0.23082421446E-01  0.83732312045E+00  0.83776038468E+00  0.51109989000E-03 0. -1.
     -623    1    1    2    0    0  0.84342420344E-02  0.13455302881E-02  0.21185268600E-02  0.17130000023E+03  0.17130000000E+03 0.  1.
      622    1    1    2    0    0  0.56864762345E-02 -0.24427951735E-01  0.31605583202E+01  0.31622393895E+01  0.10000000000E+00 0. -1.
</event>
<event>
 5   0  0.6262544E+06  0.9118800E+02  0.7818608E-02  0.1180000E+00
       11   -1    0    0    0    0  0.00000000000E+00  0.00000000000E+00  0.39999999673E+01  0.40000000000E+01  0.51109989000E-03 0.  1.
     -623   -1    0    0    0    0  0.00000000000E+00  0.00000000000E+00  0.12525980253E-10  0.17130000000E+03  0.17130000000E+03 0. -1.
       11    1    1    2    0    0 -0.22810921361E-02  0.84536472236E-02  0.22874543314E+00  0.22891352502E+00  0.51109989000E-03 0.  1.
     -623    1    1    2    0    0 -0.68150078366E-02 -0.50351042111E-02  0.15069106023E-02  0.17130000022E+03  0.17130000000E+03 0. -1.
      622    1    1    2    0    0  0.90960999726E-02 -0.34185430125E-02  0.37697476236E+01  0.37710862588E+01  0.10000000000E+00 0.  1.
</event>
<event>
 5   0  0.6262544E+06  0.9118800E+02  0.7818608E-02  0.1180000E+00
       11   -1    0    0    0    0  0.00000000000E+00  0.00000000000E+00  0.39999999673E+01  0.40000000000E+01  0.51109989000E-03 0. -1.
     -623   -1    0    0    0    0  0.00000000000E+00  0.00000000000E+00  0.12525980253E-10  0.17130000000E+03  0.17130000000E+03 0. -1.
       11    1    1    2    0    0 -0.32892927072E-02  0.70559569875E-03  0.92429597801E-02  0.98494081242E-02  0.51109989000E-03 0. -1.
     -623    1    1    2    0    0 -0.36364848006E-02  0.18275394290E-01  0.19118954517E-02  0.17130000102E+03  0.17130000000E+03 0. -1.
      622    1    1    2    0    0  0.69257775076E-02 -0.18980989987E-01  0.39888451119E+01  0.39901495676E+01  0.10000000000E+00 0. -1.
</event>
<event>
 5   0  0.6262544E+06  0.9118800E+02  0.7818608E-02  0.1180000E+00
       11   -1    0    0    0    0  0.00000000000E+00  0.00000000000E+00  0.39999999673E+01  0.40000000000E+01  0.51109989000E-03 0.  1.
     -623   -1    0    0    0    0  0.00000000000E+00  0.00000000000E+00  0.12525980253E-10  0.17130000000E+03  0.17130000000E+03 0. -1.
       11    1    1    2    0    0 -0.55623110990E-02 -0.71068441739E-02  0.22450952473E+00  0.22469142052E+00  0.51109989000E-03 0.  1.
     -623    1    1    2    0    0  0.12779236199E-01  0.28333133559E-02  0.15163175912E-02  0.17130000051E+03  0.17130000000E+03 0. -1.
      622    1    1    2    0    0 -0.72169250999E-02  0.42735308180E-02  0.37739741250E+01  0.37753080727E+01  0.10000000000E+00 0.  1.
</event>
<event>
 5   0  0.6262544E+06  0.9118800E+02  0.7818608E-02  0.1180000E+00
       11   -1    0    0    0    0  0.00000000000E+00  0.00000000000E+00  0.39999999673E+01  0.40000000000E+01  0.51109989000E-03 0.  1.
     -623   -1    0    0    0    0  0.00000000000E+00  0.00000000000E+00  0.12525980253E-10  0.17130000000E+03  0.17130000000E+03 0. -1.
       11    1    1    2    0    0 -0.23858633759E-01 -0.33675535814E-04  0.25566510384E+01  0.25567624115E+01  0.51109989000E-03 0.  1.
     -623    1    1    2    0    0  0.37029164918E-01  0.96862160133E-02  0.36768670852E-02  0.17130000432E+03  0.17130000000E+03 0. -1.
      622    1    1    2    0    0 -0.13170531159E-01 -0.96525404775E-02  0.14396720619E+01  0.14432332729E+01  0.10000000000E+00 0. -1.
</event>
<event>
 5   0  0.6262544E+06  0.9118800E+02  0.7818608E-02  0.1180000E+00
       11   -1    0    0    0    0  0.00000000000E+00  0.00000000000E+00  0.39999999673E+01  0.40000000000E+01  0.51109989000E-03 0. -1.
     -623   -1    0    0    0    0  0.00000000000E+00  0.00000000000E+00  0.12525980253E-10  0.17130000000E+03  0.17130000000E+03 0. -1.
       11    1    1    2    0    0  0.11494457410E-01  0.17982134928E-01  0.31052105058E+00  0.31125401813E+00  0.51109989000E-03 0. -1.
     -623    1    1    2    0    0 -0.71733080869E-02  0.22919761807E-02  0.21471055131E-02  0.17130000018E+03  0.17130000000E+03 0. -1.
      622    1    1    2    0    0 -0.43211493234E-02 -0.20274111109E-01  0.36873318113E+01  0.36887458029E+01  0.10000000000E+00 0. -1.
</event>
<event>
 5   0  0.6262544E+06  0.9118800E+02  0.7818608E-02  0.1180000E+00
       11   -1    0    0    0    0  0.00000000000E+00  0.00000000000E+00  0.39999999673E+01  0.40000000000E+01  0.51109989000E-03 0. -1.
     -623   -1    0    0    0    0  0.00000000000E+00  0.00000000000E+00  0.12525980253E-10  0.17130000000E+03  0.17130000000E+03 0. -1.
       11    1    1    2    0    0 -0.27157453953E-01 -0.21673529667E-01  0.78893569967E-01  0.86207457903E-01  0.51109989000E-03 0. -1.
     -623    1    1    2    0    0  0.75836346765E-02  0.36967541716E-02  0.86822875624E-02  0.17130000043E+03  0.17130000000E+03 0. -1.
      622    1    1    2    0    0  0.19573819276E-01  0.17976775495E-01  0.39124241098E+01  0.39137921143E+01  0.10000000000E+00 0. -1.
</event>
<event>
 5   0  0.6262544E+06  0.9118800E+02  0.7818608E-02  0.1180000E+00
       11   -1    0    0    0    0  0.00000000000E+00  0.00000000000E+00  0.39999999673E+01  0.40000000000E+01  0.51109989000E-03 0.  1.
     -623   -1    0    0    0    0  0.00000000000E+00  0.00000000000E+00  0.12525980253E-10  0.17130000000E+03  0.17130000000E+03 0. -1.
       11    1    1    2    0    0  0.22110657422E-01 -0.40732157824E-01  0.86477470121E+00  0.86601589762E+00  0.51109989000E-03 0.  1.
     -623    1    1    2    0    0 -0.17108254434E-01  0.27271219732E-01  0.28729518930E-02  0.17130000305E+03  0.17130000000E+03 0. -1.
      622    1    1    2    0    0 -0.50024029880E-02  0.13460938093E-01  0.31323523142E+01  0.31339810531E+01  0.10000000000E+00 0.  1.
</event>
<event>
 5   0  0.6262544E+06  0.9118800E+02  0.7818608E-02  0.1180000E+00
       11   -1    0    0    0    0  0.00000000000E+00  0.00000000000E+00  0.39999999673E+01  0.40000000000E+01  0.51109989000E-03 0.  1.
     -623   -1    0    0    0    0  0.00000000000E+00  0.00000000000E+00  0.12525980253E-10  0.17130000000E+03  0.17130000000E+03 0. -1.
       11    1    1    2    0    0 -0.97804069806E-03 -0.16948941534E-01  0.22691371426E-01  0.28344007153E-01  0.51109989000E-03 0.  1.
     -623    1    1    2    0    0  0.37035420461E-02  0.41185190439E-01  0.69917669532E-02  0.17130000513E+03  0.17130000000E+03 0. -1.
      622    1    1    2    0    0 -0.27255013481E-02 -0.24236248904E-01  0.39703168290E+01  0.39716508591E+01  0.10000000000E+00 0.  1.
</event>
<event>
 5   0  0.6262544E+06  0.9118800E+02  0.7818608E-02  0.1180000E+00
       11   -1    0    0    0    0  0.00000000000E+00  0.00000000000E+00  0.39999999673E+01  0.40000000000E+01  0.51109989000E-03 0.  1.
     -623   -1    0    0    0    0  0.00000000000E+00  0.00000000000E+00  0.12525980253E-10  0.17130000000E+03  0.17130000000E+03 0. -1.
       11    1    1    2    0    0  0.13734269390E-01 -0.30400864948E-02  0.56334713649E-01  0.58066629530E-01  0.51109989000E-03 0.  1.
     -623    1    1    2    0    0 -0.25158643518E-02 -0.65966443526E-02  0.30284244722E-02  0.17130000017E+03  0.17130000000E+03 0. -1.
      622    1    1    2    0    0 -0.11218405038E-01  0.96367308474E-02  0.39406368292E+01  0.39419331982E+01  0.10000000000E+00 0.  1.
</event>
<event>
 5   0  0.6262544E+06  0.9118800E+02  0.7818608E-02  0.1180000E+00
       11   -1    0    0    0    0  0.00000000000E+00  0.00000000000E+00  0.39999999673E+01  0.40000000000E+01  0.51109989000E-03 0. -1.
     -623   -1    0    0    0    0  0.00000000000E+00  0.00000000000E+00  0.12525980253E-10  0.17130000000E+03  0.17130000000E+03 0. -1.
       11    1    1    2    0    0  0.32885223502E-01  0.14553116975E-01  0.17526738158E+01  0.17530427824E+01  0.51109989000E-03 0. -1.
     -623    1    1    2    0    0  0.11201134898E-01  0.12740530228E-01  0.31950772487E-02  0.17130000087E+03  0.17130000000E+03 0. -1.
      622    1    1    2    0    0 -0.44086358400E-01 -0.27293647203E-01  0.22441310744E+01  0.22469563479E+01  0.10000000000E+00 0.  0.
</event>
<event>
 5   0  0.6262544E+06  0.9118800E+02  0.7818608E-02  0.1180000E+00
       11   -1    0    0    0    0  0.00000000000E+00  0.00000000000E+00  0.39999999673E+01  0.40000000000E+01  0.51109989000E-03 0.  1.
     -623   -1    0    0    0    0  0.00000000000E+00  0.00000000000E+00  0.12525980253E-10  0.17130000000E+03  0.17130000000E+03 0.  1.
       11    1    1    2    0    0 -0.58805432863E-02  0.71429078513E-01  0.11290260941E+01  0.11312987565E+01  0.51109989000E-03 0.  1.
     -623    1    1    2    0    0 -0.23375584135E-03 -0.10302169408E-01  0.46747268720E-02  0.17130000037E+03  0.17130000000E+03 0.  1.
      622    1    1    2    0    0  0.61142991276E-02 -0.61126909104E-01  0.28662991465E+01  0.28687008699E+01  0.10000000000E+00 0.  0.
</event>
<event>
 5   0  0.6262544E+06  0.9118800E+02  0.7818608E-02  0.1180000E+00
       11   -1    0    0    0    0  0.00000000000E+00  0.00000000000E+00  0.39999999673E+01  0.40000000000E+01  0.51109989000E-03 0.  1.
     -623   -1    0    0    0    0  0.00000000000E+00  0.00000000000E+00  0.12525980253E-10  0.17130000000E+03  0.17130000000E+03 0. -1.
       11    1    1    2    0    0  0.15795172313E-01  0.88541148408E-02  0.46847917285E-01  0.50228193204E-01  0.51109989000E-03 0.  1.
     -623    1    1    2    0    0 -0.84699247375E-02 -0.22861404746E-02  0.46588877288E-02  0.17130000029E+03  0.17130000000E+03 0. -1.
      622    1    1    2    0    0 -0.73252475752E-02 -0.65679743662E-02  0.39484931623E+01  0.39497715188E+01  0.10000000000E+00 0.  1.
</event>
<event>
 5   0  0.6262544E+06  0.9118800E+02  0.7818608E-02  0.1180000E+00
       11   -1    0    0    0    0  0.00000000000E+00  0.00000000000E+00  0.39999999673E+01  0.40000000000E+01  0.51109989000E-03 0. -1.
     -623   -1    0    0    0    0  0.00000000000E+00  0.00000000000E+00  0.12525980253E-10  0.17130000000E+03  0.17130000000E+03 0.  1.
       11    1    1    2    0    0  0.89824666069E-01  0.13212054736E+00  0.25197759575E+01  0.25248357267E+01  0.51109989000E-03 0. -1.
     -623    1    1    2    0    0  0.23914330386E-01 -0.55484852772E-02  0.18326440033E-01  0.17130000274E+03  0.17130000000E+03 0.  1.
      622    1    1    2    0    0 -0.11373899645E+00 -0.12657206208E+00  0.14618975699E+01  0.14751615339E+01  0.10000000000E+00 0.  1.
</event>
<event>
 5   0  0.6262544E+06  0.9118800E+02  0.7818608E-02  0.1180000E+00
       11   -1    0    0    0    0  0.00000000000E+00  0.00000000000E+00  0.39999999673E+01  0.40000000000E+01  0.51109989000E-03 0. -1.
     -623   -1    0    0    0    0  0.00000000000E+00  0.00000000000E+00  0.12525980253E-10  0.17130000000E+03  0.17130000000E+03 0. -1.
       11    1    1    2    0    0  0.39682076446E-02  0.49232472269E-01  0.98788798558E+00  0.98912209371E+00  0.51109989000E-03 0. -1.
     -623    1    1    2    0    0 -0.12119777826E-01  0.11508249376E-01  0.35201590594E-02  0.17130000085E+03  0.17130000000E+03 0. -1.
      622    1    1    2    0    0  0.81515701814E-02 -0.60740721645E-01  0.30085918227E+01  0.30108770548E+01  0.10000000000E+00 0.  0.
</event>
<event>
 5   0  0.6262544E+06  0.9118800E+02  0.7818608E-02  0.1180000E+00
       11   -1    0    0    0    0  0.00000000000E+00  0.00000000000E+00  0.39999999673E+01  0.40000000000E+01  0.51109989000E-03 0. -1.
     -623   -1    0    0    0    0  0.00000000000E+00  0.00000000000E+00  0.12525980253E-10  0.17130000000E+03  0.17130000000E+03 0. -1.
       11    1    1    2    0    0 -0.85366353720E-01  0.57254098047E-01  0.89827156056E+00  0.90413356526E+00  0.51109989000E-03 0. -1.
     -623    1    1    2    0    0  0.12186866955E-03 -0.82845085242E-02  0.90399935830E-02  0.17130000044E+03  0.17130000000E+03 0. -1.
      622    1    1    2    0    0  0.85244485050E-01 -0.48969589523E-01  0.30926884132E+01  0.30958659958E+01  0.10000000000E+00 0. -1.
</event>
<event>
 5   0  0.6262544E+06  0.9118800E+02  0.7818608E-02  0.1180000E+00
       11   -1    0    0    0    0  0.00000000000E+00  0.00000000000E+00  0.39999999673E+01  0.40000000000E+01  0.51109989000E-03 0.  1.
     -623   -1    0    0    0    0  0.00000000000E+00  0.00000000000E+00  0.12525980253E-10  0.17130000000E+03  0.17130000000E+03 0.  1.
       11    1    1    2    0    0  0.12478164169E-01  0.45451708266E-02  0.39938646713E+00  0.39960752558E+00  0.51109989000E-03 0.  1.
     -623    1    1    2    0    0 -0.94995483319E-02 -0.22514888420E-01  0.16578770018E-02  0.17130000175E+03  0.17130000000E+03 0.  1.
      622    1    1    2    0    0 -0.29786158371E-02  0.17969717593E-01  0.35989556232E+01  0.36003907234E+01  0.10000000000E+00 0.  1.
</event>
<event>
 5   0  0.6262544E+06  0.9118800E+02  0.7818608E-02  0.1180000E+00
       11   -1    0    0    0    0  0.00000000000E+00  0.00000000000E+00  0.39999999673E+01  0.40000000000E+01  0.51109989000E-03 0. -1.
     -623   -1    0    0    0    0  0.00000000000E+00  0.00000000000E+00  0.12525980253E-10  0.17130000000E+03  0.17130000000E+03 0. -1.
       11    1    1    2    0    0  0.15278878871E-01 -0.14992509401E-01  0.12604887393E+00  0.12785460227E+00  0.51109989000E-03 0. -1.
     -623    1    1    2    0    0 -0.22562943081E-01 -0.16684098191E-02  0.31414179514E-02  0.17130000152E+03  0.17130000000E+03 0. -1.
      622    1    1    2    0    0  0.72840642106E-02  0.16660919220E-01  0.38708096755E+01  0.38721438749E+01  0.10000000000E+00 0. -1.
</event>
<event>
 5   0  0.6262544E+06  0.9118800E+02  0.7818608E-02  0.1180000E+00
       11   -1    0    0    0    0  0.00000000000E+00  0.00000000000E+00  0.39999999673E+01  0.40000000000E+01  0.51109989000E-03 0. -1.
     -623   -1    0    0    0    0  0.00000000000E+00  0.00000000000E+00  0.12525980253E-10  0.17130000000E+03  0.17130000000E+03 0. -1.
       11    1    1    2    0    0  0.18157403270E-01  0.24004806244E-01  0.91615925741E+00  0.91665367952E+00  0.51109989000E-03 0. -1.
     -623    1    1    2    0    0 -0.26126305233E-01  0.20682672905E-01  0.24540150728E-02  0.17130000326E+03  0.17130000000E+03 0. -1.
      622    1    1    2    0    0  0.79689019633E-02 -0.44687479148E-01  0.30813866948E+01  0.30833430619E+01  0.10000000000E+00 0.  0.
</event>
<event>
 5   0  0.6262544E+06  0.9118800E+02  0.7818608E-02  0.1180000E+00
       11   -1    0    0    0    0  0.00000000000E+00  0.00000000000E+00  0.39999999673E+01  0.40000000000E+01  0.51109989000E-03 0.  1.
     -623   -1    0    0    0    0  0.00000000000E+00  0.00000000000E+00  0.12525980253E-10  0.17130000000E+03  0.17130000000E+03 0.  1.
       11    1    1    2    0    0 -0.10973219770E-01  0.10151937880E-01  0.38648838567E+00  0.38677772282E+00  0.51109989000E-03 0.  1.
     -623    1    1    2    0    0 -0.41719068043E-02 -0.20679763048E-02  0.17142479995E-02  0.17130000007E+03  0.17130000000E+03 0.  1.
      622    1    1    2    0    0  0.15145126574E-01 -0.80839615751E-02  0.36117973336E+01  0.36132222053E+01  0.10000000000E+00 0.  1.
</event>
<event>
 5   0  0.6262544E+06  0.9118800E+02  0.7818608E-02  0.1180000E+00
       11   -1    0    0    0    0  0.00000000000E+00  0.00000000000E+00  0.39999999673E+01  0.40000000000E+01  0.51109989000E-03 0. -1.
     -623   -1    0    0    0    0  0.00000000000E+00  0.00000000000E+00  0.12525980253E-10  0.17130000000E+03  0.17130000000E+03 0. -1.
       11    1    1    2    0    0 -0.20856835200E-01 -0.83700279690E-01  0.33455299709E+00  0.34549488199E+00  0.51109989000E-03 0. -1.
     -623    1    1    2    0    0  0.69664797074E-02 -0.14409886311E-01  0.13655674567E-01  0.17130000129E+03  0.17130000000E+03 0. -1.
      622    1    1    2    0    0  0.13890355493E-01  0.98110166001E-01  0.36517912957E+01  0.36545038260E+01  0.10000000000E+00 0. -1.
</event>
<event>
 5   0  0.6262544E+06  0.9118800E+02  0.7818608E-02  0.1180000E+00
       11   -1    0    0    0    0  0.00000000000E+00  0.00000000000E+00  0.39999999673E+01  0.40000000000E+01  0.51109989000E-03 0.  1.
     -623   -1    0    0    0    0  0.00000000000E+00  0.00000000000E+00  0.12525980253E-10  0.17130000000E+03  0.17130000000E+03 0. -1.
       11    1    1    2    0    0  0.20875999596E-01  0.22529443551E-02  0.94448189123E+00  0.94471540011E+00  0.51109989000E-03 0.  1.
     -623    1    1    2    0    0  0.25597210200E-03  0.25211112024E-02  0.19473053210E-02  0.17130000003E+03  0.17130000000E+03 0. -1.
      622    1    1    2    0    0 -0.21131971698E-01 -0.47740555575E-02  0.30535707708E+01  0.30552845701E+01  0.10000000000E+00 0.  1.
</event>
<event>
 5   0  0.6262544E+06  0.9118800E+02  0.7818608E-02  0.1180000E+00
       11   -1    0    0    0    0  0.00000000000E+00  0.00000000000E+00  0.39999999673E+01  0.40000000000E+01  0.51109989000E-03 0.  1.
     -623   -1    0    0    0    0  0.00000000000E+00  0.00000000000E+00  0.12525980253E-10  0.17130000000E+03  0.17130000000E+03 0. -1.
       11    1    1    2    0    0 -0.11170122032E-01 -0.11009666533E-01  0.80319176159E+00  0.80334503888E+00  0.51109989000E-03 0.  1.
     -623    1    1    2    0    0 -0.21092477523E-02  0.65565013494E-03  0.17621585040E-02  0.17130000002E+03  0.17130000000E+03 0. -1.
      622    1    1    2    0    0  0.13279369784E-01  0.10354016398E-01  0.31950460476E+01  0.31966549382E+01  0.10000000000E+00 0.  1.
</event>
<event>
 5   0  0.6262544E+06  0.9118800E+02  0.7818608E-02  0.1180000E+00
       11   -1    0    0    0    0  0.00000000000E+00  0.00000000000E+00  0.39999999673E+01  0.40000000000E+01  0.51109989000E-03 0. -1.
     -623   -1    0    0    0    0  0.00000000000E+00  0.00000000000E+00  0.12525980253E-10  0.17130000000E+03  0.17130000000E+03 0.  1.
       11    1    1    2    0    0 -0.14628072097E-01 -0.12600609445E-01  0.32994617323E+00  0.33051095943E+00  0.51109989000E-03 0. -1.
     -623    1    1    2    0    0  0.75859621437E-02  0.11965482344E-01  0.19350059423E-02  0.17130000060E+03  0.17130000000E+03 0.  1.
      622    1    1    2    0    0  0.70421099530E-02  0.63512710028E-03  0.36681187885E+01  0.36694884441E+01  0.10000000000E+00 0. -1.
</event>
<event>
 5   0  0.6262544E+06  0.9118800E+02  0.7818608E-02  0.1180000E+00
       11   -1    0    0    0    0  0.00000000000E+00  0.00000000000E+00  0.39999999673E+01  0.40000000000E+01  0.51109989000E-03 0. -1.
     -623   -1    0    0    0    0  0.00000000000E+00  0.00000000000E+00  0.12525980253E-10  0.17130000000E+03  0.17130000000E+03 0. -1.
       11    1    1    2    0    0  0.15978525850E-01  0.37069097305E-01  0.83889625795E-01  0.93097592893E-01  0.51109989000E-03 0. -1.
     -623    1    1    2    0    0 -0.14841721315E-01 -0.12059187103E-01  0.10569566958E-01  0.17130000139E+03  0.17130000000E+03 0. -1.
      622    1    1    2    0    0 -0.11368045347E-02 -0.25009910202E-01  0.39055407746E+01  0.39069010136E+01  0.10000000000E+00 0. -1.
</event>
<event>
 5   0  0.6262544E+06  0.9118800E+02  0.7818608E-02  0.1180000E+00
       11   -1    0    0    0    0  0.00000000000E+00  0.00000000000E+00  0.39999999673E+01  0.40000000000E+01  0.51109989000E-03 0. -1.
     -623   -1    0    0    0    0  0.00000000000E+00  0.00000000000E+00  0.12525980253E-10  0.17130000000E+03  0.17130000000E+03 0. -1.
       11    1    1    2    0    0 -0.19945328566E-01 -0.11905847548E-01  0.78878250191E+00  0.78912461746E+00  0.51109989000E-03 0. -1.
     -623    1    1    2    0    0 -0.42496906988E-02 -0.81045911942E-03  0.20161330648E-02  0.17130000007E+03  0.17130000000E+03 0. -1.
      622    1    1    2    0    0  0.24195019265E-01  0.12716306667E-01  0.32092013324E+01  0.32108753160E+01  0.10000000000E+00 0.  0.
</event>
<event>
 5   0  0.6262544E+06  0.9118800E+02  0.7818608E-02  0.1180000E+00
       11   -1    0    0    0    0  0.00000000000E+00  0.00000000000E+00  0.39999999673E+01  0.40000000000E+01  0.51109989000E-03 0. -1.
     -623   -1    0    0    0    0  0.00000000000E+00  0.00000000000E+00  0.12525980253E-10  0.17130000000E+03  0.17130000000E+03 0.  1.
       11    1    1    2    0    0  0.31701307095E-02  0.10588918125E-02  0.12745641981E+00  0.12750125942E+00  0.51109989000E-03 0. -1.
     -623    1    1    2    0    0 -0.37035494252E-02 -0.50075109998E-02  0.13383473268E-02  0.17130000012E+03  0.17130000000E+03 0.  1.
      622    1    1    2    0    0  0.53341871571E-03  0.39486191873E-02  0.38712052002E+01  0.38724986221E+01  0.10000000000E+00 0. -1.
</event>
<event>
 5   0  0.6262544E+06  0.9118800E+02  0.7818608E-02  0.1180000E+00
       11   -1    0    0    0    0  0.00000000000E+00  0.00000000000E+00  0.39999999673E+01  0.40000000000E+01  0.51109989000E-03 0. -1.
     -623   -1    0    0    0    0  0.00000000000E+00  0.00000000000E+00  0.12525980253E-10  0.17130000000E+03  0.17130000000E+03 0. -1.
       11    1    1    2    0    0  0.59174855715E-01  0.25016248274E-01  0.16318678302E+01  0.16331320684E+01  0.51109989000E-03 0. -1.
     -623    1    1    2    0    0 -0.43331053779E-01 -0.17935120795E-01  0.34477848637E-02  0.17130000645E+03  0.17130000000E+03 0. -1.
      622    1    1    2    0    0 -0.15843801936E-01 -0.70811274782E-02  0.23646843523E+01  0.23668614776E+01  0.10000000000E+00 0.  0.
</event>
<event>
 5   0  0.6262544E+06  0.9118800E+02  0.7818608E-02  0.1180000E+00
       11   -1    0    0    0    0  0.00000000000E+00  0.00000000000E+00  0.39999999673E+01  0.40000000000E+01  0.51109989000E-03 0. -1.
     -623   -1    0    0    0    0  0.00000000000E+00  0.00000000000E+00  0.12525980253E-10  0.17130000000E+03  0.17130000000E+03 0. -1.
       11    1    1    2    0    0 -0.11870047106E-01 -0.65220365445E-01  0.31922234416E+01  0.31929117364E+01  0.51109989000E-03 0. -1.
     -623    1    1    2    0    0  0.18431626750E-01 -0.31299060341E-02  0.98576409790E-02  0.17130000130E+03  0.17130000000E+03 0. -1.
      622    1    1    2    0    0 -0.65615796443E-02  0.68350271479E-01  0.79791888479E+00  0.80708695978E+00  0.10000000000E+00 0. -1.
</event>
<event>
 5   0  0.6262544E+06  0.9118800E+02  0.7818608E-02  0.1180000E+00
       11   -1    0    0    0    0  0.00000000000E+00  0.00000000000E+00  0.39999999673E+01  0.40000000000E+01  0.51109989000E-03 0. -1.
     -623   -1    0    0    0    0  0.00000000000E+00  0.00000000000E+00  0.12525980253E-10  0.17130000000E+03  0.17130000000E+03 0. -1.
       11    1    1    2    0    0  0.88049329025E-03  0.67199343190E-03  0.17523247220E-02  0.21351132606E-02  0.51109989000E-03 0. -1.
     -623    1    1    2    0    0 -0.47115854973E-02  0.51608700444E-02  0.16398622069E-02  0.17130000015E+03  0.17130000000E+03 0. -1.
      622    1    1    2    0    0  0.38310922069E-02 -0.58328634761E-02  0.39966077803E+01  0.39978647362E+01  0.10000000000E+00 0. -1.
</event>
<event>
 5   0  0.6262544E+06  0.9118800E+02  0.7818608E-02  0.1180000E+00
       11   -1    0    0    0    0  0.00000000000E+00  0.00000000000E+00  0.39999999673E+01  0.40000000000E+01  0.51109989000E-03 0. -1.
     -623   -1    0    0    0    0  0.00000000000E+00  0.00000000000E+00  0.12525980253E-10  0.17130000000E+03  0.17130000000E+03 0. -1.
       11    1    1    2    0    0  0.86651892519E-02  0.44792420442E-01  0.32963600324E+00  0.33277860852E+00  0.51109989000E-03 0. -1.
     -623    1    1    2    0    0  0.15125885708E-01  0.35379258042E-01  0.54646630357E-02  0.17130000441E+03  0.17130000000E+03 0. -1.
      622    1    1    2    0    0 -0.23791074960E-01 -0.80171678485E-01  0.36648993012E+01  0.36672169831E+01  0.10000000000E+00 0. -1.
</event>
<event>
 5   0  0.6262544E+06  0.9118800E+02  0.7818608E-02  0.1180000E+00
       11   -1    0    0    0    0  0.00000000000E+00  0.00000000000E+00  0.39999999673E+01  0.40000000000E+01  0.51109989000E-03 0.  1.
     -623   -1    0    0    0    0  0.00000000000E+00  0.00000000000E+00  0.12525980253E-10  0.17130000000E+03  0.17130000000E+03 0.  1.
       11    1    1    2    0    0  0.10479333359E-02 -0.41353899417E-02 -0.46543632817E-02  0.63343456570E-02  0.51109989000E-03 0.  1.
     -623    1    1    2    0    0  0.13861519807E-02 -0.43702842605E-02  0.12251157346E-01  0.17130000050E+03  0.17130000000E+03 0.  1.
      622    1    1    2    0    0 -0.24340853166E-02  0.85056742023E-02  0.39924031733E+01  0.39936651549E+01  0.10000000000E+00 0.  1.
</event>
<event>
 5   0  0.6262544E+06  0.9118800E+02  0.7818608E-02  0.1180000E+00
       11   -1    0    0    0    0  0.00000000000E+00  0.00000000000E+00  0.39999999673E+01  0.40000000000E+01  0.51109989000E-03 0. -1.
     -623   -1    0    0    0    0  0.00000000000E+00  0.00000000000E+00  0.12525980253E-10  0.17130000000E+03  0.17130000000E+03 0.  1.
       11    1    1    2    0    0 -0.24827440211E-02 -0.11565602733E-02  0.48508740478E-01  0.48588689789E-01  0.51109989000E-03 0. -1.
     -623    1    1    2    0    0 -0.55121674024E-03  0.18014736936E-02  0.13467234582E-02  0.17130000002E+03  0.17130000000E+03 0.  1.
      622    1    1    2    0    0  0.30339607614E-02 -0.64491342033E-03  0.39501445035E+01  0.39514112946E+01  0.10000000000E+00 0. -1.
</event>
<event>
 5   0  0.6262544E+06  0.9118800E+02  0.7818608E-02  0.1180000E+00
       11   -1    0    0    0    0  0.00000000000E+00  0.00000000000E+00  0.39999999673E+01  0.40000000000E+01  0.51109989000E-03 0. -1.
     -623   -1    0    0    0    0  0.00000000000E+00  0.00000000000E+00  0.12525980253E-10  0.17130000000E+03  0.17130000000E+03 0. -1.
       11    1    1    2    0    0  0.14722183057E-01 -0.33230121375E-01  0.51426967377E+00  0.51555265708E+00  0.51109989000E-03 0. -1.
     -623    1    1    2    0    0  0.82655758669E-02  0.29075699401E-02  0.29263003202E-02  0.17130000025E+03  0.17130000000E+03 0. -1.
      622    1    1    2    0    0 -0.22987758924E-01  0.30322551435E-01  0.34828039934E+01  0.34844470939E+01  0.10000000000E+00 0. -1.
</event>
<event>
 5   0  0.6262544E+06  0.9118800E+02  0.7818608E-02  0.1180000E+00
       11   -1    0    0    0    0  0.00000000000E+00  0.00000000000E+00  0.39999999673E+01  0.40000000000E+01  0.51109989000E-03 0.  1.
     -623   -1    0    0    0    0  0.00000000000E+00  0.00000000000E+00  0.12525980253E-10  0.17130000000E+03  0.17130000000E+03 0.  1.
       11    1    1    2    0    0 -0.21613181297E-01 -0.39500310994E-02  0.24594303202E+00  0.24692300131E+00  0.51109989000E-03 0.  1.
     -623    1    1    2    0    0 -0.32191468283E-02 -0.11383558196E-01  0.24263565778E-02  0.17130000043E+03  0.17130000000E+03 0.  1.
      622    1    1    2    0    0  0.24832328125E-01  0.15333589295E-01  0.37516305788E+01  0.37530765730E+01  0.10000000000E+00 0.  1.
</event>
<event>
 5   0  0.6262544E+06  0.9118800E+02  0.7818608E-02  0.1180000E+00
       11   -1    0    0    0    0  0.00000000000E+00  0.00000000000E+00  0.39999999673E+01  0.40000000000E+01  0.51109989000E-03 0. -1.
     -623   -1    0    0    0    0  0.00000000000E+00  0.00000000000E+00  0.12525980253E-10  0.17130000000E+03  0.17130000000E+03 0.  1.
       11    1    1    2    0    0 -0.79658979037E-02  0.25750773141E-01  0.23732568310E+00  0.23885204401E+00  0.51109989000E-03 0. -1.
     -623    1    1    2    0    0  0.11873041345E-02 -0.48416475021E-02  0.29202932275E-02  0.17130000010E+03  0.17130000000E+03 0.  1.
      622    1    1    2    0    0  0.67785937693E-02 -0.20909125639E-01  0.37597539910E+01  0.37611478586E+01  0.10000000000E+00 0.  0.
</event>
<event>
 5   0  0.6262544E+06  0.9118800E+02  0.7818608E-02  0.1180000E+00
       11   -1    0    0    0    0  0.00000000000E+00  0.00000000000E+00  0.39999999673E+01  0.40000000000E+01  0.51109989000E-03 0.  1.
     -623   -1    0    0    0    0  0.00000000000E+00  0.00000000000E+00  0.12525980253E-10  0.17130000000E+03  0.17130000000E+03 0.  1.
       11    1    1    2    0    0 -0.71985456779E-03  0.72745125738E-05  0.13238761046E-02  0.15912619380E-02  0.51109989000E-03 0.  1.
     -623    1    1    2    0    0 -0.67894747127E-04 -0.14524636975E-02  0.15183980533E-02  0.17130000001E+03  0.17130000000E+03 0.  1.
      622    1    1    2    0    0  0.78774931491E-03  0.14451891849E-02  0.39971576930E+01  0.39984087250E+01  0.10000000000E+00 0.  1.
</event>
<event>
 5   0  0.6262544E+06  0.9118800E+02  0.7818608E-02  0.1180000E+00
       11   -1    0    0    0    0  0.00000000000E+00  0.00000000000E+00  0.39999999673E+01  0.40000000000E+01  0.51109989000E-03 0. -1.
     -623   -1    0    0    0    0  0.00000000000E+00  0.00000000000E+00  0.12525980253E-10  0.17130000000E+03  0.17130000000E+03 0. -1.
       11    1    1    2    0    0 -0.41287632208E-01 -0.33909778884E-01  0.18122710589E+01  0.18130585192E+01  0.51109989000E-03 0. -1.
     -623    1    1    2    0    0 -0.44975854305E-02 -0.19292590035E-01  0.42039997901E-02  0.17130000120E+03  0.17130000000E+03 0. -1.
      622    1    1    2    0    0  0.45785217638E-01  0.53202368918E-01  0.21835249086E+01  0.21869402838E+01  0.10000000000E+00 0.  0.
</event>
<event>
 5   0  0.6262544E+06  0.9118800E+02  0.7818608E-02  0.1180000E+00
       11   -1    0    0    0    0  0.00000000000E+00  0.00000000000E+00  0.39999999673E+01  0.40000000000E+01  0.51109989000E-03 0. -1.
     -623   -1    0    0    0    0  0.00000000000E+00  0.00000000000E+00  0.12525980253E-10  0.17130000000E+03  0.17130000000E+03 0.  1.
       11    1    1    2    0    0  0.79664529346E-03 -0.31345804112E-02  0.11736702279E-01  0.12184893991E-01  0.51109989000E-03 0. -1.
     -623    1    1    2    0    0 -0.65259546513E-03  0.83475209962E-02  0.17057997472E-02  0.17130000021E+03  0.17130000000E+03 0.  1.
      622    1    1    2    0    0 -0.14404982833E-03 -0.52129405849E-02  0.39865574653E+01  0.39878148928E+01  0.10000000000E+00 0. -1.
</event>
<event>
 5   0  0.6262544E+06  0.9118800E+02  0.7818608E-02  0.1180000E+00
       11   -1    0    0    0    0  0.00000000000E+00  0.00000000000E+00  0.39999999673E+01  0.40000000000E+01  0.51109989000E-03 0.  1.
     -623   -1    0    0    0    0  0.00000000000E+00  0.00000000000E+00  0.12525980253E-10  0.17130000000E+03  0.17130000000E+03 0. -1.
       11    1    1    2    0    0 -0.10946650688E+00 -0.21510976431E-01  0.15014777429E+01  0.15056165887E+01  0.51109989000E-03 0.  1.
     -623    1    1    2    0    0  0.53598867786E-02 -0.14985548465E-01  0.85877562237E-02  0.17130000095E+03  0.17130000000E+03 0. -1.
      622    1    1    2    0    0  0.10410662010E+00  0.36496524895E-01  0.24899344682E+01  0.24943824568E+01  0.10000000000E+00 0.  1.
</event>
<event>
 5   0  0.6262544E+06  0.9118800E+02  0.7818608E-02  0.1180000E+00
       11   -1    0    0    0    0  0.00000000000E+00  0.00000000000E+00  0.39999999673E+01  0.40000000000E+01  0.51109989000E-03 0. -1.
     -623   -1    0    0    0    0  0.00000000000E+00  0.00000000000E+00  0.12525980253E-10  0.17130000000E+03  0.17130000000E+03 0.  1.
       11    1    1    2    0    0  0.46288350007E-02  0.36301543142E-03  0.18569055429E+00  0.18574929628E+00  0.51109989000E-03 0. -1.
     -623    1    1    2    0    0 -0.96644068295E-03 -0.80773958941E-03  0.13716030990E-02  0.17130000001E+03  0.17130000000E+03 0.  1.
      622    1    1    2    0    0 -0.36623943177E-02  0.44472415798E-03  0.38129378100E+01  0.38142506936E+01  0.10000000000E+00 0. -1.
</event>
<event>
 5   0  0.6262544E+06  0.9118800E+02  0.7818608E-02  0.1180000E+00
       11   -1    0    0    0    0  0.00000000000E+00  0.00000000000E+00  0.39999999673E+01  0.40000000000E+01  0.51109989000E-03 0.  1.
     -623   -1    0    0    0    0  0.00000000000E+00  0.00000000000E+00  0.12525980253E-10  0.17130000000E+03  0.17130000000E+03 0. -1.
       11    1    1    2    0    0 -0.25231764130E-01  0.48070146570E-02  0.46747436998E+00  0.46817977009E+00  0.51109989000E-03 0.  1.
     -623    1    1    2    0    0  0.17268678445E-01  0.13581554846E-01  0.21796459552E-02  0.17130000142E+03  0.17130000000E+03 0. -1.
      622    1    1    2    0    0  0.79630856843E-02 -0.18388569503E-01  0.35303459515E+01  0.35318188073E+01  0.10000000000E+00 0.  1.
</event>
<event>
 5   0  0.6262544E+06  0.9118800E+02  0.7818608E-02  0.1180000E+00
       11   -1    0    0    0    0  0.00000000000E+00  0.00000000000E+00  0.39999999673E+01  0.40000000000E+01  0.51109989000E-03 0.  1.
     -623   -1    0    0    0    0  0.00000000000E+00  0.00000000000E+00  0.12525980253E-10  0.17130000000E+03  0.17130000000E+03 0. -1.
       11    1    1    2    0    0 -0.24315600612E-02 -0.14531274397E-02  0.47486214364E-01  0.47573373231E-01  0.51109989000E-03 0.  1.
     -623    1    1    2    0    0  0.77179999755E-02 -0.81347665463E-03  0.13567422084E-02  0.17130000018E+03  0.17130000000E+03 0. -1.
      622    1    1    2    0    0 -0.52864399142E-02  0.22666040943E-02  0.39511570108E+01  0.39524264456E+01  0.10000000000E+00 0.  1.
</event>
<event>
 5   0  0.6262544E+06  0.9118800E+02  0.7818608E-02  0.1180000E+00
       11   -1    0    0    0    0  0.00000000000E+00  0.00000000000E+00  0.39999999673E+01  0.40000000000E+01  0.51109989000E-03 0.  1.
     -623   -1    0    0    0    0  0.00000000000E+00  0.00000000000E+00  0.12525980253E-10  0.17130000000E+03  0.17130000000E+03 0.  1.
       11    1    1    2    0    0 -0.23826350636E-01 -0.16661506502E-01  0.26262204191E+00  0.26422698368E+00  0.51109989000E-03 0.  1.
     -623    1    1    2    0    0 -0.40353897365E-02  0.24962441068E-02  0.30744561164E-02  0.17130000009E+03  0.17130000000E+03 0.  1.
      622    1    1    2    0    0  0.27861740373E-01  0.14165262396E-01  0.37343034694E+01  0.37357729230E+01  0.10000000000E+00 0.  1.
</event>
<event>
 5   0  0.6262544E+06  0.9118800E+02  0.7818608E-02  0.1180000E+00
       11   -1    0    0    0    0  0.00000000000E+00  0.00000000000E+00  0.39999999673E+01  0.40000000000E+01  0.51109989000E-03 0. -1.
     -623   -1    0    0    0    0  0.00000000000E+00  0.00000000000E+00  0.12525980253E-10  0.17130000000E+03  0.17130000000E+03 0.  1.
       11    1    1    2    0    0 -0.19929225090E-02 -0.14126876023E-02  0.41820363526E-02  0.48701208076E-02  0.51109989000E-03 0. -1.
     -623    1    1    2    0    0 -0.17494866468E-02  0.58131782934E-02  0.19440679503E-02  0.17130000012E+03  0.17130000000E+03 0.  1.
      622    1    1    2    0    0  0.37424091558E-02 -0.44004906911E-02  0.39938738631E+01  0.39951297606E+01  0.10000000000E+00 0. -1.
</event>
<event>
 5   0  0.6262544E+06  0.9118800E+02  0.7818608E-02  0.1180000E+00
       11   -1    0    0    0    0  0.00000000000E+00  0.00000000000E+00  0.39999999673E+01  0.40000000000E+01  0.51109989000E-03 0.  1.
     -623   -1    0    0    0    0  0.00000000000E+00  0.00000000000E+00  0.12525980253E-10  0.17130000000E+03  0.17130000000E+03 0. -1.
       11    1    1    2    0    0  0.81717501879E-02  0.17830089615E-01  0.71453151658E+00  0.71480083870E+00  0.51109989000E-03 0.  1.
     -623    1    1    2    0    0 -0.66727145282E-02 -0.60911094561E-03  0.18372603988E-02  0.17130000014E+03  0.17130000000E+03 0. -1.
      622    1    1    2    0    0 -0.14990356597E-02 -0.17220978669E-01  0.32836311904E+01  0.32851990204E+01  0.10000000000E+00 0.  1.
</event>
<event>
 5   0  0.6262544E+06  0.9118800E+02  0.7818608E-02  0.1180000E+00
       11   -1    0    0    0    0  0.00000000000E+00  0.00000000000E+00  0.39999999673E+01  0.40000000000E+01  0.51109989000E-03 0. -1.
     -623   -1    0    0    0    0  0.00000000000E+00  0.00000000000E+00  0.12525980253E-10  0.17130000000E+03  0.17130000000E+03 0.  1.
       11    1    1    2    0    0 -0.78890606465E-02 -0.59212596020E-03  0.17954449361E+00  0.17971943217E+00  0.51109989000E-03 0. -1.
     -623    1    1    2    0    0  0.46641484936E-03  0.52431665416E-02  0.14940676393E-02  0.17130000009E+03  0.17130000000E+03 0.  1.
      622    1    1    2    0    0  0.74226457971E-02 -0.46510405814E-02  0.38189614061E+01  0.38202804804E+01  0.10000000000E+00 0. -1.
</event>
<event>
 5   0  0.6262544E+06  0.9118800E+02  0.7818608E-02  0.1180000E+00
       11   -1    0    0    0    0  0.00000000000E+00  0.00000000000E+00  0.39999999673E+01  0.40000000000E+01  0.51109989000E-03 0.  1.
     -623   -1    0    0    0    0  0.00000000000E+00  0.00000000000E+00  0.12525980253E-10  0.17130000000E+03  0.17130000000E+03 0. -1.
       11    1    1    2    0    0 -0.11334851320E-01  0.52242568835E-02  0.22307806775E+00  0.22342752125E+00  0.51109989000E-03 0.  1.
     -623    1    1    2    0    0  0.10746712300E-01  0.27548255838E-02  0.16824502859E-02  0.17130000037E+03  0.17130000000E+03 0. -1.
      622    1    1    2    0    0  0.58813901884E-03 -0.79790824674E-02  0.37752394496E+01  0.37765721115E+01  0.10000000000E+00 0.  1.
</event>
<event>
 5   0  0.6262544E+06  0.9118800E+02  0.7818608E-02  0.1180000E+00
       11   -1    0    0    0    0  0.00000000000E+00  0.00000000000E+00  0.39999999673E+01  0.40000000000E+01  0.51109989000E-03 0.  1.
     -623   -1    0    0    0    0  0.00000000000E+00  0.00000000000E+00  0.12525980253E-10  0.17130000000E+03  0.17130000000E+03 0. -1.
       11    1    1    2    0    0  0.12628128197E-01 -0.34157376420E-01  0.71001371672E+00  0.71094720982E+00  0.51109989000E-03 0.  1.
     -623    1    1    2    0    0 -0.14785695688E-01  0.11670087297E-02  0.26209101895E-02  0.17130000066E+03  0.17130000000E+03 0. -1.
      622    1    1    2    0    0  0.21575674909E-02  0.32990367691E-01  0.32873653404E+01  0.32890521280E+01  0.10000000000E+00 0.  1.
</event>
<event>
 5   0  0.6262544E+06  0.9118800E+02  0.7818608E-02  0.1180000E+00
       11   -1    0    0    0    0  0.00000000000E+00  0.00000000000E+00  0.39999999673E+01  0.40000000000E+01  0.51109989000E-03 0.  1.
     -623   -1    0    0    0    0  0.00000000000E+00  0.00000000000E+00  0.12525980253E-10  0.17130000000E+03  0.17130000000E+03 0. -1.
       11    1    1    2    0    0 -0.70196642487E-03 -0.83124447397E-03 -0.10391383984E-02  0.15889480626E-02  0.51109989000E-03 0.  1.
     -623    1    1    2    0    0 -0.63447218681E-02 -0.13242198829E-01  0.39104071793E-02  0.17130000067E+03  0.17130000000E+03 0. -1.
      622    1    1    2    0    0  0.70466882930E-02  0.14073443303E-01  0.39971286986E+01  0.39984103780E+01  0.10000000000E+00 0.  1.
</event>
<event>
 5   0  0.6262544E+06  0.9118800E+02  0.7818608E-02  0.1180000E+00
       11   -1    0    0    0    0  0.00000000000E+00  0.00000000000E+00  0.39999999673E+01  0.40000000000E+01  0.51109989000E-03 0.  1.
     -623   -1    0    0    0    0  0.00000000000E+00  0.00000000000E+00  0.12525980253E-10  0.17130000000E+03  0.17130000000E+03 0.  1.
       11    1    1    2    0    0 -0.87184544105E-02 -0.10428713437E-02  0.69594082011E-01  0.70147676384E-01  0.51109989000E-03 0.  1.
     -623    1    1    2    0    0  0.99730931068E-02  0.21131356431E-02  0.18267395191E-02  0.17130000031E+03  0.17130000000E+03 0.  1.
      622    1    1    2    0    0 -0.12546386960E-02 -0.10702642993E-02  0.39285791457E+01  0.39298520104E+01  0.10000000000E+00 0.  1.
</event>
<event>
 5   0  0.6262544E+06  0.9118800E+02  0.7818608E-02  0.1180000E+00
       11   -1    0    0    0    0  0.00000000000E+00  0.00000000000E+00  0.39999999673E+01  0.40000000000E+01  0.51109989000E-03 0.  1.
     -623   -1    0    0    0    0  0.00000000000E+00  0.00000000000E+00  0.12525980253E-10  0.17130000000E+03  0.17130000000E+03 0. -1.
       11    1    1    2    0    0  0.21796002092E-01  0.47525692492E-03  0.17918610163E+00  0.18050820429E+00  0.51109989000E-03 0.  1.
     -623    1    1    2    0    0 -0.81762490014E-02 -0.36051814616E-02  0.26571971843E-02  0.17130000025E+03  0.17130000000E+03 0. -1.
      622    1    1    2    0    0 -0.13619753090E-01  0.31299245368E-02  0.38181566687E+01  0.38194915422E+01  0.10000000000E+00 0.  1.
</event>
<event>
 5   0  0.6262544E+06  0.9118800E+02  0.7818608E-02  0.1180000E+00
       11   -1    0    0    0    0  0.00000000000E+00  0.00000000000E+00  0.39999999673E+01  0.40000000000E+01  0.51109989000E-03 0.  1.
     -623   -1    0    0    0    0  0.00000000000E+00  0.00000000000E+00  0.12525980253E-10  0.17130000000E+03  0.17130000000E+03 0.  1.
       11    1    1    2    0    0 -0.11974921232E-01 -0.78391227999E-02  0.92204530823E-01  0.93310167241E-01  0.51109989000E-03 0.  1.
     -623    1    1    2    0    0  0.85196675968E-02  0.21823341972E-01  0.24138543662E-02  0.17130000162E+03  0.17130000000E+03 0.  1.
      622    1    1    2    0    0  0.34552536352E-02 -0.13984219172E-01  0.39053815822E+01  0.39066882138E+01  0.10000000000E+00 0.  1.
</event>
<event>
 5   0  0.6262544E+06  0.9118800E+02  0.7818608E-02  0.1180000E+00
       11   -1    0    0    0    0  0.00000000000E+00  0.00000000000E+00  0.39999999673E+01  0.40000000000E+01  0.51109989000E-03 0. -1.
     -623   -1    0    0    0    0  0.00000000000E+00  0.00000000000E+00  0.12525980253E-10  0.17130000000E+03  0.17130000000E+03 0. -1.
       11    1    1    2    0    0 -0.85914063777E-02 -0.18994153502E-01  0.45824569707E+00  0.45871992570E+00  0.51109989000E-03 0. -1.
     -623    1    1    2    0    0  0.21041503436E-01 -0.23775052230E-02  0.19741271697E-02  0.17130000132E+03  0.17130000000E+03 0. -1.
      622    1    1    2    0    0 -0.12450097059E-01  0.21371658725E-01  0.35397801432E+01  0.35412787542E+01  0.10000000000E+00 0. -1.
</event>
<event>
 5   0  0.6262544E+06  0.9118800E+02  0.7818608E-02  0.1180000E+00
       11   -1    0    0    0    0  0.00000000000E+00  0.00000000000E+00  0.39999999673E+01  0.40000000000E+01  0.51109989000E-03 0.  1.
     -623   -1    0    0    0    0  0.00000000000E+00  0.00000000000E+00  0.12525980253E-10  0.17130000000E+03  0.17130000000E+03 0. -1.
       11    1    1    2    0    0 -0.48575208471E-03  0.72590370109E-03  0.35191499767E-03  0.10714282683E-02  0.51109989000E-03 0.  1.
     -623    1    1    2    0    0 -0.22679699196E-02  0.19574953252E-02  0.19718976574E-02  0.17130000004E+03  0.17130000000E+03 0. -1.
      622    1    1    2    0    0  0.27537220043E-02 -0.26833990263E-02  0.39976761548E+01  0.39989285343E+01  0.10000000000E+00 0.  1.
</event>
<event>
 5   0  0.6262544E+06  0.9118800E+02  0.7818608E-02  0.1180000E+00
       11   -1    0    0    0    0  0.00000000000E+00  0.00000000000E+00  0.39999999673E+01  0.40000000000E+01  0.51109989000E-03 0.  1.
     -623   -1    0    0    0    0  0.00000000000E+00  0.00000000000E+00  0.12525980253E-10  0.17130000000E+03  0.17130000000E+03 0. -1.
       11    1    1    2    0    0  0.33351066030E-02 -0.26655137169E-02  0.67088544652E-02  0.79685537671E-02  0.51109989000E-03 0.  1.
     -623    1    1    2    0    0 -0.11607686793E-01  0.24352343190E-02  0.25213685022E-02  0.17130000043E+03  0.17130000000E+03 0. -1.
      622    1    1    2    0    0  0.82725801898E-02  0.23027939792E-03  0.39907697444E+01  0.39920310171E+01  0.10000000000E+00 0.  1.
</event>
<event>
 5   0  0.6262544E+06  0.9118800E+02  0.7818608E-02  0.1180000E+00
       11   -1    0    0    0    0  0.00000000000E+00  0.00000000000E+00  0.39999999673E+01  0.40000000000E+01  0.51109989000E-03 0.  1.
     -623   -1    0    0    0    0  0.00000000000E+00  0.00000000000E+00  0.12525980253E-10  0.17130000000E+03  0.17130000000E+03 0. -1.
       11    1    1    2    0    0  0.53374065024E-02  0.81202332001E-02  0.51088793045E-01  0.52007231164E-01  0.51109989000E-03 0.  1.
     -623    1    1    2    0    0  0.31453931028E-02 -0.67734176718E-03  0.22012536345E-02  0.17130000004E+03  0.17130000000E+03 0. -1.
      622    1    1    2    0    0 -0.84827996053E-02 -0.74428914329E-02  0.39467099208E+01  0.39479927246E+01  0.10000000000E+00 0.  1.
</event>
<event>
 5   0  0.6262544E+06  0.9118800E+02  0.7818608E-02  0.1180000E+00
       11   -1    0    0    0    0  0.00000000000E+00  0.00000000000E+00  0.39999999673E+01  0.40000000000E+01  0.51109989000E-03 0.  1.
     -623   -1    0    0    0    0  0.00000000000E+00  0.00000000000E+00  0.12525980253E-10  0.17130000000E+03  0.17130000000E+03 0. -1.
       11    1    1    2    0    0  0.20555234005E-01  0.19900824216E-03  0.32521942690E+01  0.32522592735E+01  0.51109989000E-03 0.  1.
     -623    1    1    2    0    0  0.19632989324E-02  0.21981501694E-02  0.71282356790E-02  0.17130000017E+03  0.17130000000E+03 0. -1.
      622    1    1    2    0    0 -0.22518532937E-01 -0.23971584115E-02  0.74067746264E+00  0.74774055284E+00  0.10000000000E+00 0.  1.
</event>
<event>
 5   0  0.6262544E+06  0.9118800E+02  0.7818608E-02  0.1180000E+00
       11   -1    0    0    0    0  0.00000000000E+00  0.00000000000E+00  0.39999999673E+01  0.40000000000E+01  0.51109989000E-03 0.  1.
     -623   -1    0    0    0    0  0.00000000000E+00  0.00000000000E+00  0.12525980253E-10  0.17130000000E+03  0.17130000000E+03 0. -1.
       11    1    1    2    0    0 -0.31151816755E-02  0.43990149085E-02  0.26859898551E-01  0.27400201843E-01  0.51109989000E-03 0.  1.
     -623    1    1    2    0    0 -0.49154541150E-02 -0.12664475217E-02  0.18085315479E-02  0.17130000008E+03  0.17130000000E+03 0. -1.
      622    1    1    2    0    0  0.80306357905E-02 -0.31325673868E-02  0.39713315373E+01  0.39725997134E+01  0.10000000000E+00 0.  1.
</event>
<event>
 5   0  0.6262544E+06  0.9118800E+02  0.7818608E-02  0.1180000E+00
       11   -1    0    0    0    0  0.00000000000E+00  0.00000000000E+00  0.39999999673E+01  0.40000000000E+01  0.51109989000E-03 0.  1.
     -623   -1    0    0    0    0  0.00000000000E+00  0.00000000000E+00  0.12525980253E-10  0.17130000000E+03  0.17130000000E+03 0. -1.
       11    1    1    2    0    0  0.90813136600E-01  0.14059256821E-02  0.29294556809E+00  0.30670241195E+00  0.51109989000E-03 0.  1.
     -623    1    1    2    0    0 -0.41062274379E-01  0.10214879007E-01  0.15470305741E-01  0.17130000592E+03  0.17130000000E+03 0. -1.
      622    1    1    2    0    0 -0.49750862221E-01 -0.11620804689E-01  0.36915840935E+01  0.36932916634E+01  0.10000000000E+00 0.  1.
</event>
<event>
 5   0  0.6262544E+06  0.9118800E+02  0.7818608E-02  0.1180000E+00
       11   -1    0    0    0    0  0.00000000000E+00  0.00000000000E+00  0.39999999673E+01  0.40000000000E+01  0.51109989000E-03 0.  1.
     -623   -1    0    0    0    0  0.00000000000E+00  0.00000000000E+00  0.12525980253E-10  0.17130000000E+03  0.17130000000E+03 0.  1.
       11    1    1    2    0    0  0.19640379032E-02  0.53703995471E-03  0.26045640727E-02  0.33452703784E-02  0.51109989000E-03 0.  1.
     -623    1    1    2    0    0 -0.70300037463E-03 -0.41106714137E-03  0.19921303174E-02  0.17130000001E+03  0.17130000000E+03 0.  1.
      622    1    1    2    0    0 -0.12610375286E-02 -0.12597281332E-03  0.39954032731E+01  0.39966547163E+01  0.10000000000E+00 0.  1.
</event>
<event>
 5   0  0.6262544E+06  0.9118800E+02  0.7818608E-02  0.1180000E+00
       11   -1    0    0    0    0  0.00000000000E+00  0.00000000000E+00  0.39999999673E+01  0.40000000000E+01  0.51109989000E-03 0. -1.
     -623   -1    0    0    0    0  0.00000000000E+00  0.00000000000E+00  0.12525980253E-10  0.17130000000E+03  0.17130000000E+03 0. -1.
       11    1    1    2    0    0  0.82636446387E-01 -0.60341482933E-01  0.62425941660E+00  0.63258988079E+00  0.51109989000E-03 0. -1.
     -623    1    1    2    0    0 -0.21665826972E-02  0.63792465277E-02  0.11210832336E-01  0.17130000050E+03  0.17130000000E+03 0. -1.
      622    1    1    2    0    0 -0.80469863690E-01  0.53962236405E-01  0.33645297184E+01  0.33674096199E+01  0.10000000000E+00 0. -1.
</event>
<event>
 5   0  0.6262544E+06  0.9118800E+02  0.7818608E-02  0.1180000E+00
       11   -1    0    0    0    0  0.00000000000E+00  0.00000000000E+00  0.39999999673E+01  0.40000000000E+01  0.51109989000E-03 0.  1.
     -623   -1    0    0    0    0  0.00000000000E+00  0.00000000000E+00  0.12525980253E-10  0.17130000000E+03  0.17130000000E+03 0. -1.
       11    1    1    2    0    0  0.14664063980E-02  0.15999576886E-01  0.11527664322E+00  0.11639202079E+00  0.51109989000E-03 0.  1.
     -623    1    1    2    0    0 -0.68380920274E-02  0.25715178863E-02  0.24513283406E-02  0.17130000017E+03  0.17130000000E+03 0. -1.
      622    1    1    2    0    0  0.53716856296E-02 -0.18571094773E-01  0.38822719959E+01  0.38836078060E+01  0.10000000000E+00 0.  1.
</event>
<event>
 5   0  0.6262544E+06  0.9118800E+02  0.7818608E-02  0.1180000E+00
       11   -1    0    0    0    0  0.00000000000E+00  0.00000000000E+00  0.39999999673E+01  0.40000000000E+01  0.51109989000E-03 0. -1.
     -623   -1    0    0    0    0  0.00000000000E+00  0.00000000000E+00  0.12525980253E-10  0.17130000000E+03  0.17130000000E+03 0.  1.
       11    1    1    2    0    0  0.95917834850E-03 -0.67553144227E-02  0.14852574158E-01  0.16352812450E-01  0.51109989000E-03 0. -1.
     -623    1    1    2    0    0  0.11672889816E-01 -0.22404269208E-02  0.27861644306E-02  0.17130000044E+03  0.17130000000E+03 0.  1.
      622    1    1    2    0    0 -0.12632068164E-01  0.89957413435E-02  0.39823612288E+01  0.39836467525E+01  0.10000000000E+00 0. -1.
</event>
<event>
 5   0  0.6262544E+06  0.9118800E+02  0.7818608E-02  0.1180000E+00
       11   -1    0    0    0    0  0.00000000000E+00  0.00000000000E+00  0.39999999673E+01  0.40000000000E+01  0.51109989000E-03 0.  1.
     -623   -1    0    0    0    0  0.00000000000E+00  0.00000000000E+00  0.12525980253E-10  0.17130000000E+03  0.17130000000E+03 0.  1.
       11    1    1    2    0    0 -0.71596254753E-02 -0.22875540592E-01  0.27732327841E+00  0.27835770614E+00  0.51109989000E-03 0.  1.
     -623    1    1    2    0    0  0.25062223590E-02 -0.12397942649E-02  0.24592411783E-02  0.17130000004E+03  0.17130000000E+03 0.  1.
      622    1    1    2    0    0  0.46534031164E-02  0.24115334857E-01  0.37202174478E+01  0.37216422534E+01  0.10000000000E+00 0.  1.
</event>
<event>
 5   0  0.6262544E+06  0.9118800E+02  0.7818608E-02  0.1180000E+00
       11   -1    0    0    0    0  0.00000000000E+00  0.00000000000E+00  0.39999999673E+01  0.40000000000E+01  0.51109989000E-03 0. -1.
     -623   -1    0    0    0    0  0.00000000000E+00  0.00000000000E+00  0.12525980253E-10  0.17130000000E+03  0.17130000000E+03 0.  1.
       11    1    1    2    0    0 -0.18635793345E-02  0.15624901670E-02  0.87486628070E-02  0.90947582412E-02  0.51109989000E-03 0. -1.
     -623    1    1    2    0    0 -0.42786580942E-02 -0.12786203304E-01  0.16201620366E-02  0.17130000054E+03  0.17130000000E+03 0.  1.
      622    1    1    2    0    0  0.61422374287E-02  0.11223713136E-01  0.39896311425E+01  0.39909047034E+01  0.10000000000E+00 0. -1.
</event>
<event>
 5   0  0.6262544E+06  0.9118800E+02  0.7818608E-02  0.1180000E+00
       11   -1    0    0    0    0  0.00000000000E+00  0.00000000000E+00  0.39999999673E+01  0.40000000000E+01  0.51109989000E-03 0. -1.
     -623   -1    0    0    0    0  0.00000000000E+00  0.00000000000E+00  0.12525980253E-10  0.17130000000E+03  0.17130000000E+03 0.  1.
       11    1    1    2    0    0 -0.71043568787E-02 -0.22247033400E-02  0.13200497069E-01  0.15163625476E-01  0.51109989000E-03 0. -1.
     -623    1    1    2    0    0  0.10943557576E-01 -0.61212847651E-03  0.32212912386E-02  0.17130000038E+03  0.17130000000E+03 0.  1.
      622    1    1    2    0    0 -0.38392006973E-02  0.28368318166E-02  0.39835781792E+01  0.39848359937E+01  0.10000000000E+00 0. -1.
</event>
<event>
 5   0  0.6262544E+06  0.9118800E+02  0.7818608E-02  0.1180000E+00
       11   -1    0    0    0    0  0.00000000000E+00  0.00000000000E+00  0.39999999673E+01  0.40000000000E+01  0.51109989000E-03 0.  1.
     -623   -1    0    0    0    0  0.00000000000E+00  0.00000000000E+00  0.12525980253E-10  0.17130000000E+03  0.17130000000E+03 0.  1.
       11    1    1    2    0    0 -0.39583250212E-01  0.61469115976E-02  0.92556594794E+00  0.92643251423E+00  0.51109989000E-03 0.  1.
     -623    1    1    2    0    0  0.69365760212E-02  0.65464078648E-02  0.26937306900E-02  0.17130000029E+03  0.17130000000E+03 0.  1.
      622    1    1    2    0    0  0.32646674191E-01 -0.12693319462E-01  0.30717402887E+01  0.30735671990E+01  0.10000000000E+00 0.  1.
</event>
<event>
 5   0  0.6262544E+06  0.9118800E+02  0.7818608E-02  0.1180000E+00
       11   -1    0    0    0    0  0.00000000000E+00  0.00000000000E+00  0.39999999673E+01  0.40000000000E+01  0.51109989000E-03 0.  1.
     -623   -1    0    0    0    0  0.00000000000E+00  0.00000000000E+00  0.12525980253E-10  0.17130000000E+03  0.17130000000E+03 0. -1.
       11    1    1    2    0    0 -0.26656352658E-02 -0.11879878447E-02  0.25652033197E-01  0.25822566754E-01  0.51109989000E-03 0.  1.
     -623    1    1    2    0    0  0.12770085891E-02 -0.64955330314E-03  0.14295016950E-02  0.17130000001E+03  0.17130000000E+03 0. -1.
      622    1    1    2    0    0  0.13886266767E-02  0.18375411478E-02  0.39729184325E+01  0.39741774213E+01  0.10000000000E+00 0.  1.
</event>
<event>
 5   0  0.6262544E+06  0.9118800E+02  0.7818608E-02  0.1180000E+00
       11   -1    0    0    0    0  0.00000000000E+00  0.00000000000E+00  0.39999999673E+01  0.40000000000E+01  0.51109989000E-03 0. -1.
     -623   -1    0    0    0    0  0.00000000000E+00  0.00000000000E+00  0.12525980253E-10  0.17130000000E+03  0.17130000000E+03 0. -1.
       11    1    1    2    0    0  0.15014263496E-01 -0.11639102495E+00  0.19633776039E+01  0.19668818407E+01  0.51109989000E-03 0. -1.
     -623    1    1    2    0    0 -0.36792930104E-01 -0.62395924484E-02  0.97925226459E-02  0.17130000434E+03  0.17130000000E+03 0. -1.
      622    1    1    2    0    0  0.21778666608E-01  0.12263061740E+00  0.20268298408E+01  0.20331138144E+01  0.10000000000E+00 0. -1.
</event>
<event>
 5   0  0.6262544E+06  0.9118800E+02  0.7818608E-02  0.1180000E+00
       11   -1    0    0    0    0  0.00000000000E+00  0.00000000000E+00  0.39999999673E+01  0.40000000000E+01  0.51109989000E-03 0. -1.
     -623   -1    0    0    0    0  0.00000000000E+00  0.00000000000E+00  0.12525980253E-10  0.17130000000E+03  0.17130000000E+03 0.  1.
       11    1    1    2    0    0  0.28401817219E-01  0.10999910331E-01  0.34185988357E+00  0.34321436809E+00  0.51109989000E-03 0. -1.
     -623    1    1    2    0    0 -0.29900433086E-01 -0.52023131199E-02  0.27296447625E-02  0.17130000271E+03  0.17130000000E+03 0.  1.
      622    1    1    2    0    0  0.14986158668E-02 -0.57975972110E-02  0.36554104390E+01  0.36567829216E+01  0.10000000000E+00 0.  0.
</event>
<event>
 5   0  0.6262544E+06  0.9118800E+02  0.7818608E-02  0.1180000E+00
       11   -1    0    0    0    0  0.00000000000E+00  0.00000000000E+00  0.39999999673E+01  0.40000000000E+01  0.51109989000E-03 0.  1.
     -623   -1    0    0    0    0  0.00000000000E+00  0.00000000000E+00  0.12525980253E-10  0.17130000000E+03  0.17130000000E+03 0. -1.
       11    1    1    2    0    0 -0.28843830768E-02  0.50645755391E-03  0.15818388359E-01  0.16095303612E-01  0.51109989000E-03 0.  1.
     -623    1    1    2    0    0  0.27193558705E-02  0.36839713771E-02  0.15344065034E-02  0.17130000007E+03  0.17130000000E+03 0. -1.
      622    1    1    2    0    0  0.16502720625E-03 -0.41904289311E-02  0.39826471726E+01  0.39839046284E+01  0.10000000000E+00 0.  1.
</event>
<event>
 5   0  0.6262544E+06  0.9118800E+02  0.7818608E-02  0.1180000E+00
       11   -1    0    0    0    0  0.00000000000E+00  0.00000000000E+00  0.39999999673E+01  0.40000000000E+01  0.51109989000E-03 0.  1.
     -623   -1    0    0    0    0  0.00000000000E+00  0.00000000000E+00  0.12525980253E-10  0.17130000000E+03  0.17130000000E+03 0. -1.
       11    1    1    2    0    0  0.10302550578E-01 -0.31038454182E-02  0.13044296342E+00  0.13088699070E+00  0.51109989000E-03 0.  1.
     -623    1    1    2    0    0  0.97331675511E-03  0.59856276784E-02  0.17541226159E-02  0.17130000012E+03  0.17130000000E+03 0. -1.
      622    1    1    2    0    0 -0.11275867333E-01 -0.28817822604E-02  0.38678028815E+01  0.38691128932E+01  0.10000000000E+00 0.  1.
</event>
<event>
 5   0  0.6262544E+06  0.9118800E+02  0.7818608E-02  0.1180000E+00
       11   -1    0    0    0    0  0.00000000000E+00  0.00000000000E+00  0.39999999673E+01  0.40000000000E+01  0.51109989000E-03 0.  1.
     -623   -1    0    0    0    0  0.00000000000E+00  0.00000000000E+00  0.12525980253E-10  0.17130000000E+03  0.17130000000E+03 0. -1.
       11    1    1    2    0    0  0.19080930257E-01  0.10002611403E-01  0.56758581227E+00  0.56799476199E+00  0.51109989000E-03 0.  1.
     -623    1    1    2    0    0  0.24918230558E-01 -0.51534566150E-02  0.21536040338E-02  0.17130000190E+03  0.17130000000E+03 0. -1.
      622    1    1    2    0    0 -0.43999160815E-01 -0.48491547883E-02  0.34302605510E+01  0.34320033346E+01  0.10000000000E+00 0.  0.
</event>
<event>
 5   0  0.6262544E+06  0.9118800E+02  0.7818608E-02  0.1180000E+00
       11   -1    0    0    0    0  0.00000000000E+00  0.00000000000E+00  0.39999999673E+01  0.40000000000E+01  0.51109989000E-03 0.  1.
     -623   -1    0    0    0    0  0.00000000000E+00  0.00000000000E+00  0.12525980253E-10  0.17130000000E+03  0.17130000000E+03 0. -1.
       11    1    1    2    0    0 -0.55336286092E-02 -0.18468137609E-02  0.41241674452E-01  0.41655356214E-01  0.51109989000E-03 0.  1.
     -623    1    1    2    0    0  0.15279768192E-02 -0.10795142883E-01  0.16995820573E-02  0.17130000036E+03  0.17130000000E+03 0. -1.
      622    1    1    2    0    0  0.40056517900E-02  0.12641956644E-01  0.39570587110E+01  0.39583442885E+01  0.10000000000E+00 0.  1.
</event>
<event>
 5   0  0.6262544E+06  0.9118800E+02  0.7818608E-02  0.1180000E+00
       11   -1    0    0    0    0  0.00000000000E+00  0.00000000000E+00  0.39999999673E+01  0.40000000000E+01  0.51109989000E-03 0. -1.
     -623   -1    0    0    0    0  0.00000000000E+00  0.00000000000E+00  0.12525980253E-10  0.17130000000E+03  0.17130000000E+03 0.  1.
       11    1    1    2    0    0 -0.98484866405E-02  0.58707000915E-02  0.13683461939E+00  0.13731508327E+00  0.51109989000E-03 0. -1.
     -623    1    1    2    0    0  0.71088187060E-02  0.73513872206E-02  0.17990087790E-02  0.17130000031E+03  0.17130000000E+03 0.  1.
      622    1    1    2    0    0  0.27396679345E-02 -0.13222087312E-01  0.38613663392E+01  0.38626846020E+01  0.10000000000E+00 0. -1.
</event>
<event>
 5   0  0.6262544E+06  0.9118800E+02  0.7818608E-02  0.1180000E+00
       11   -1    0    0    0    0  0.00000000000E+00  0.00000000000E+00  0.39999999673E+01  0.40000000000E+01  0.51109989000E-03 0.  1.
     -623   -1    0    0    0    0  0.00000000000E+00  0.00000000000E+00  0.12525980253E-10  0.17130000000E+03  0.17130000000E+03 0. -1.
       11    1    1    2    0    0 -0.37811144406E-01  0.13890603870E-01  0.11474217013E+01  0.11481286746E+01  0.51109989000E-03 0.  1.
     -623    1    1    2    0    0 -0.17053581034E-01 -0.13550814290E-01  0.29902685399E-02  0.17130000141E+03  0.17130000000E+03 0. -1.
      622    1    1    2    0    0  0.54864725440E-01 -0.33978957962E-03  0.28495879976E+01  0.28518699145E+01  0.10000000000E+00 0.  0.
</event>
<event>
 5   0  0.6262544E+06  0.9118800E+02  0.7818608E-02  0.1180000E+00
       11   -1    0    0    0    0  0.00000000000E+00  0.00000000000E+00  0.39999999673E+01  0.40000000000E+01  0.51109989000E-03 0.  1.
     -623   -1    0    0    0    0  0.00000000000E+00  0.00000000000E+00  0.12525980253E-10  0.17130000000E+03  0.17130000000E+03 0. -1.
       11    1    1    2    0    0  0.14237130670E-01  0.35898712129E-01  0.15966505949E+01  0.15971176528E+01  0.51109989000E-03 0.  1.
     -623    1    1    2    0    0  0.15569798016E-02  0.10212754503E-01  0.30439280962E-02  0.17130000034E+03  0.17130000000E+03 0. -1.
      622    1    1    2    0    0 -0.15794110472E-01 -0.46111466632E-01  0.24003054443E+01  0.24028820086E+01  0.10000000000E+00 0.  0.
</event>
<event>
 5   0  0.6262544E+06  0.9118800E+02  0.7818608E-02  0.1180000E+00
       11   -1    0    0    0    0  0.00000000000E+00  0.00000000000E+00  0.39999999673E+01  0.40000000000E+01  0.51109989000E-03 0. -1.
     -623   -1    0    0    0    0  0.00000000000E+00  0.00000000000E+00  0.12525980253E-10  0.17130000000E+03  0.17130000000E+03 0.  1.
       11    1    1    2    0    0  0.57038074717E-03 -0.72980840010E-03 -0.14201161806E-02  0.17708493899E-02  0.51109989000E-03 0. -1.
     -623    1    1    2    0    0  0.21906365326E-02  0.30549685262E-02  0.44434110380E-02  0.17130000010E+03  0.17130000000E+03 0.  1.
      622    1    1    2    0    0 -0.27610172798E-02 -0.23251601261E-02  0.39969766725E+01  0.39982290518E+01  0.10000000000E+00 0. -1.
</event>
<event>
 5   0  0.6262544E+06  0.9118800E+02  0.7818608E-02  0.1180000E+00
       11   -1    0    0    0    0  0.00000000000E+00  0.00000000000E+00  0.39999999673E+01  0.40000000000E+01  0.51109989000E-03 0.  1.
     -623   -1    0    0    0    0  0.00000000000E+00  0.00000000000E+00  0.12525980253E-10  0.17130000000E+03  0.17130000000E+03 0.  1.
       11    1    1    2    0    0 -0.17476512167E-01 -0.22413376818E-01  0.61999000387E+00  0.62064132481E+00  0.51109989000E-03 0.  1.
     -623    1    1    2    0    0  0.10220047951E-02  0.45010919986E-03  0.22426837851E-02  0.17130000002E+03  0.17130000000E+03 0.  1.
      622    1    1    2    0    0  0.16454507372E-01  0.21963267618E-01  0.33777672797E+01  0.33793586569E+01  0.10000000000E+00 0.  0.
</event>
<event>
 5   0  0.6262544E+06  0.9118800E+02  0.7818608E-02  0.1180000E+00
       11   -1    0    0    0    0  0.00000000000E+00  0.00000000000E+00  0.39999999673E+01  0.40000000000E+01  0.51109989000E-03 0.  1.
     -623   -1    0    0    0    0  0.00000000000E+00  0.00000000000E+00  0.12525980253E-10  0.17130000000E+03  0.17130000000E+03 0. -1.
       11    1    1    2    0    0  0.34743194640E-01 -0.63771076606E-02  0.45194953288E+00  0.45332813564E+00  0.51109989000E-03 0.  1.
     -623    1    1    2    0    0  0.47787171728E-04  0.14625046036E-01  0.29695804833E-02  0.17130000065E+03  0.17130000000E+03 0. -1.
      622    1    1    2    0    0 -0.34790981812E-01 -0.82479383757E-02  0.35450808540E+01  0.35466712143E+01  0.10000000000E+00 0.  1.
</event>
<event>
 5   0  0.6262544E+06  0.9118800E+02  0.7818608E-02  0.1180000E+00
       11   -1    0    0    0    0  0.00000000000E+00  0.00000000000E+00  0.39999999673E+01  0.40000000000E+01  0.51109989000E-03 0. -1.
     -623   -1    0    0    0    0  0.00000000000E+00  0.00000000000E+00  0.12525980253E-10  0.17130000000E+03  0.17130000000E+03 0.  1.
       11    1    1    2    0    0  0.31652730614E-01 -0.45127485023E-02  0.26077210863E+00  0.26272535872E+00  0.51109989000E-03 0. -1.
     -623    1    1    2    0    0 -0.25586418381E-01  0.20063178315E-02  0.32990513504E-02  0.17130000195E+03  0.17130000000E+03 0.  1.
      622    1    1    2    0    0 -0.60663122328E-02  0.25064306707E-02  0.37359288075E+01  0.37372726870E+01  0.10000000000E+00 0. -1.
</event>
<event>
 5   0  0.6262544E+06  0.9118800E+02  0.7818608E-02  0.1180000E+00
       11   -1    0    0    0    0  0.00000000000E+00  0.00000000000E+00  0.39999999673E+01  0.40000000000E+01  0.51109989000E-03 0. -1.
     -623   -1    0    0    0    0  0.00000000000E+00  0.00000000000E+00  0.12525980253E-10  0.17130000000E+03  0.17130000000E+03 0.  1.
       11    1    1    2    0    0  0.10363208348E-02  0.56424189272E-03  0.10570603389E-02  0.16646108986E-02  0.51109989000E-03 0.  1.
     -623    1    1    2    0    0 -0.15534392295E-02  0.32829970281E-02  0.18601675199E-02  0.17130000005E+03  0.17130000000E+03 0.  1.
      622    1    1    2    0    0  0.51711839463E-03 -0.38472389208E-02  0.39970827394E+01  0.39983353404E+01  0.10000000000E+00 0. -1.
</event>
<event>
 5   0  0.6262544E+06  0.9118800E+02  0.7818608E-02  0.1180000E+00
       11   -1    0    0    0    0  0.00000000000E+00  0.00000000000E+00  0.39999999673E+01  0.40000000000E+01  0.51109989000E-03 0.  1.
     -623   -1    0    0    0    0  0.00000000000E+00  0.00000000000E+00  0.12525980253E-10  0.17130000000E+03  0.17130000000E+03 0. -1.
       11    1    1    2    0    0  0.93279452244E-01  0.57651824507E-01  0.15848079894E+00  0.19272055919E+00  0.51109989000E-03 0.  1.
     -623    1    1    2    0    0 -0.63172696684E-01  0.31120854666E-01  0.36726199988E-01  0.17130001841E+03  0.17130000000E+03 0. -1.
      622    1    1    2    0    0 -0.30106755560E-01 -0.88772679173E-01  0.38047929684E+01  0.38072610283E+01  0.10000000000E+00 0.  1.
</event>
<event>
 5   0  0.6262544E+06  0.9118800E+02  0.7818608E-02  0.1180000E+00
       11   -1    0    0    0    0  0.00000000000E+00  0.00000000000E+00  0.39999999673E+01  0.40000000000E+01  0.51109989000E-03 0.  1.
     -623   -1    0    0    0    0  0.00000000000E+00  0.00000000000E+00  0.12525980253E-10  0.17130000000E+03  0.17130000000E+03 0. -1.
       11    1    1    2    0    0  0.41649757154E-02  0.24153967601E-01  0.86541358505E+00  0.86576076117E+00  0.51109989000E-03 0.  1.
     -623    1    1    2    0    0  0.20292768286E-01  0.83996988107E-02  0.22088876549E-02  0.17130000142E+03  0.17130000000E+03 0. -1.
      622    1    1    2    0    0 -0.24457744001E-01 -0.32553666412E-01  0.31323774947E+01  0.31342378167E+01  0.10000000000E+00 0.  1.
</event>
<event>
 5   0  0.6262544E+06  0.9118800E+02  0.7818608E-02  0.1180000E+00
       11   -1    0    0    0    0  0.00000000000E+00  0.00000000000E+00  0.39999999673E+01  0.40000000000E+01  0.51109989000E-03 0. -1.
     -623   -1    0    0    0    0  0.00000000000E+00  0.00000000000E+00  0.12525980253E-10  0.17130000000E+03  0.17130000000E+03 0. -1.
       11    1    1    2    0    0 -0.27534767641E-01  0.59195008973E-04  0.13164648237E+01  0.13167528471E+01  0.51109989000E-03 0. -1.
     -623    1    1    2    0    0 -0.74148304135E-03 -0.22565465783E-01  0.23971146618E-02  0.17130000150E+03  0.17130000000E+03 0. -1.
      622    1    1    2    0    0  0.28276250682E-01  0.22506270774E-01  0.26811380290E+01  0.26832456483E+01  0.10000000000E+00 0. -1.
</event>
<event>
 5   0  0.6262544E+06  0.9118800E+02  0.7818608E-02  0.1180000E+00
       11   -1    0    0    0    0  0.00000000000E+00  0.00000000000E+00  0.39999999673E+01  0.40000000000E+01  0.51109989000E-03 0.  1.
     -623   -1    0    0    0    0  0.00000000000E+00  0.00000000000E+00  0.12525980253E-10  0.17130000000E+03  0.17130000000E+03 0. -1.
       11    1    1    2    0    0 -0.22312956916E-02 -0.88754208273E-02  0.49293998969E-01  0.50138920317E-01  0.51109989000E-03 0.  1.
     -623    1    1    2    0    0  0.35729236677E-03  0.13246188322E-01  0.21143484008E-02  0.17130000053E+03  0.17130000000E+03 0. -1.
      622    1    1    2    0    0  0.18740033248E-02 -0.43707674945E-02  0.39485916200E+01  0.39498605541E+01  0.10000000000E+00 0.  1.
</event>
<event>
 5   0  0.6262544E+06  0.9118800E+02  0.7818608E-02  0.1180000E+00
       11   -1    0    0    0    0  0.00000000000E+00  0.00000000000E+00  0.39999999673E+01  0.40000000000E+01  0.51109989000E-03 0.  1.
     -623   -1    0    0    0    0  0.00000000000E+00  0.00000000000E+00  0.12525980253E-10  0.17130000000E+03  0.17130000000E+03 0. -1.
       11    1    1    2    0    0  0.15328041757E-01 -0.14931161675E-01  0.72211920314E+00  0.72243635929E+00  0.51109989000E-03 0.  1.
     -623    1    1    2    0    0 -0.10384414783E-01  0.22309568431E-01  0.18568195125E-02  0.17130000178E+03  0.17130000000E+03 0. -1.
      622    1    1    2    0    0 -0.49436269741E-02 -0.73784067555E-02  0.32760239446E+01  0.32775618631E+01  0.10000000000E+00 0. -1.
</event>
<event>
 5   0  0.6262544E+06  0.9118800E+02  0.7818608E-02  0.1180000E+00
       11   -1    0    0    0    0  0.00000000000E+00  0.00000000000E+00  0.39999999673E+01  0.40000000000E+01  0.51109989000E-03 0.  1.
     -623   -1    0    0    0    0  0.00000000000E+00  0.00000000000E+00  0.12525980253E-10  0.17130000000E+03  0.17130000000E+03 0.  1.
       11    1    1    2    0    0  0.74646944708E-03 -0.44439986432E-02  0.38080792188E+00  0.38083492609E+00  0.51109989000E-03 0.  1.
     -623    1    1    2    0    0  0.19247649303E-02 -0.31006972922E-02  0.14176674362E-02  0.17130000004E+03  0.17130000000E+03 0.  1.
      622    1    1    2    0    0 -0.26712343773E-02  0.75446959354E-02  0.36177743780E+01  0.36191650292E+01  0.10000000000E+00 0.  1.
</event>
<event>
 5   0  0.6262544E+06  0.9118800E+02  0.7818608E-02  0.1180000E+00
       11   -1    0    0    0    0  0.00000000000E+00  0.00000000000E+00  0.39999999673E+01  0.40000000000E+01  0.51109989000E-03 0. -1.
     -623   -1    0    0    0    0  0.00000000000E+00  0.00000000000E+00  0.12525980253E-10  0.17130000000E+03  0.17130000000E+03 0. -1.
       11    1    1    2    0    0 -0.23102239811E-01 -0.76181201244E-02  0.13123584283E+00  0.13347230764E+00  0.51109989000E-03 0. -1.
     -623    1    1    2    0    0 -0.32018223881E-02 -0.24785442067E-02  0.36325767535E-02  0.17130000009E+03  0.17130000000E+03 0. -1.
      622    1    1    2    0    0  0.26304062199E-01  0.10096664331E-01  0.38651315478E+01  0.38665276060E+01  0.10000000000E+00 0. -1.
</event>
<event>
 5   0  0.6262544E+06  0.9118800E+02  0.7818608E-02  0.1180000E+00
       11   -1    0    0    0    0  0.00000000000E+00  0.00000000000E+00  0.39999999673E+01  0.40000000000E+01  0.51109989000E-03 0.  1.
     -623   -1    0    0    0    0  0.00000000000E+00  0.00000000000E+00  0.12525980253E-10  0.17130000000E+03  0.17130000000E+03 0. -1.
       11    1    1    2    0    0  0.31732622614E-02 -0.14724947445E-01  0.46486262284E+00  0.46510688342E+00  0.51109989000E-03 0.  1.
     -623    1    1    2    0    0 -0.73481033565E-02  0.58266173288E-02  0.16729165783E-02  0.17130000026E+03  0.17130000000E+03 0. -1.
      622    1    1    2    0    0  0.41748410951E-02  0.88983301166E-02  0.35334644279E+01  0.35348928517E+01  0.10000000000E+00 0.  1.
</event>
<event>
 5   0  0.6262544E+06  0.9118800E+02  0.7818608E-02  0.1180000E+00
       11   -1    0    0    0    0  0.00000000000E+00  0.00000000000E+00  0.39999999673E+01  0.40000000000E+01  0.51109989000E-03 0.  1.
     -623   -1    0    0    0    0  0.00000000000E+00  0.00000000000E+00  0.12525980253E-10  0.17130000000E+03  0.17130000000E+03 0.  1.
       11    1    1    2    0    0  0.52311727121E-02  0.15114944500E-02  0.25716958289E-01  0.26292070045E-01  0.51109989000E-03 0.  1.
     -623    1    1    2    0    0  0.99042752901E-03  0.40760211159E-02  0.18424120253E-02  0.17130000006E+03  0.17130000000E+03 0.  1.
      622    1    1    2    0    0 -0.62216002412E-02 -0.55875155659E-02  0.39724405970E+01  0.39737078687E+01  0.10000000000E+00 0.  1.
</event>
<event>
 5   0  0.6262544E+06  0.9118800E+02  0.7818608E-02  0.1180000E+00
       11   -1    0    0    0    0  0.00000000000E+00  0.00000000000E+00  0.39999999673E+01  0.40000000000E+01  0.51109989000E-03 0.  1.
     -623   -1    0    0    0    0  0.00000000000E+00  0.00000000000E+00  0.12525980253E-10  0.17130000000E+03  0.17130000000E+03 0. -1.
       11    1    1    2    0    0  0.48847353337E-01  0.69928731477E-01  0.18758317418E+01  0.18777702405E+01  0.51109989000E-03 0.  1.
     -623    1    1    2    0    0 -0.52894333740E-02 -0.93026003130E-03  0.58669517111E-02  0.17130000018E+03  0.17130000000E+03 0. -1.
      622    1    1    2    0    0 -0.43557919963E-01 -0.68998471445E-01  0.21183012738E+01  0.21222295748E+01  0.10000000000E+00 0.  1.
</event>
<event>
 5   0  0.6262544E+06  0.9118800E+02  0.7818608E-02  0.1180000E+00
       11   -1    0    0    0    0  0.00000000000E+00  0.00000000000E+00  0.39999999673E+01  0.40000000000E+01  0.51109989000E-03 0. -1.
     -623   -1    0    0    0    0  0.00000000000E+00  0.00000000000E+00  0.12525980253E-10  0.17130000000E+03  0.17130000000E+03 0. -1.
       11    1    1    2    0    0 -0.16026729946E-01 -0.50988771652E-01  0.95096587787E+00  0.95246683565E+00  0.51109989000E-03 0. -1.
     -623    1    1    2    0    0  0.15656284414E-01 -0.52833868719E-02  0.36627494580E-02  0.17130000084E+03  0.17130000000E+03 0. -1.
      622    1    1    2    0    0  0.37044553135E-03  0.56272158524E-01  0.30453713400E+01  0.30475323282E+01  0.10000000000E+00 0.  1.
</event>
<event>
 5   0  0.6262544E+06  0.9118800E+02  0.7818608E-02  0.1180000E+00
       11   -1    0    0    0    0  0.00000000000E+00  0.00000000000E+00  0.39999999673E+01  0.40000000000E+01  0.51109989000E-03 0.  1.
     -623   -1    0    0    0    0  0.00000000000E+00  0.00000000000E+00  0.12525980253E-10  0.17130000000E+03  0.17130000000E+03 0. -1.
       11    1    1    2    0    0 -0.11362137855E-01 -0.37076994884E-01  0.16151596319E+00  0.16610680093E+00  0.51109989000E-03 0.  1.
     -623    1    1    2    0    0 -0.20957781565E-01 -0.51738569079E-02  0.62658420635E-02  0.17130000147E+03  0.17130000000E+03 0. -1.
      622    1    1    2    0    0  0.32319919420E-01  0.42250851792E-01  0.38322181621E+01  0.38338917243E+01  0.10000000000E+00 0.  1.
</event>
<event>
 5   0  0.6262544E+06  0.9118800E+02  0.7818608E-02  0.1180000E+00
       11   -1    0    0    0    0  0.00000000000E+00  0.00000000000E+00  0.39999999673E+01  0.40000000000E+01  0.51109989000E-03 0.  1.
     -623   -1    0    0    0    0  0.00000000000E+00  0.00000000000E+00  0.12525980253E-10  0.17130000000E+03  0.17130000000E+03 0. -1.
       11    1    1    2    0    0  0.53628761213E-01 -0.96224258943E-01  0.15749669579E+01  0.15788148504E+01  0.51109989000E-03 0.  1.
     -623    1    1    2    0    0 -0.15911773032E-01 -0.14739797940E-02  0.81826921836E-02  0.17130000094E+03  0.17130000000E+03 0. -1.
      622    1    1    2    0    0 -0.37716988181E-01  0.97698238737E-01  0.24168503173E+01  0.24211842089E+01  0.10000000000E+00 0.  1.
</event>
<event>
 5   0  0.6262544E+06  0.9118800E+02  0.7818608E-02  0.1180000E+00
       11   -1    0    0    0    0  0.00000000000E+00  0.00000000000E+00  0.39999999673E+01  0.40000000000E+01  0.51109989000E-03 0.  1.
     -623   -1    0    0    0    0  0.00000000000E+00  0.00000000000E+00  0.12525980253E-10  0.17130000000E+03  0.17130000000E+03 0.  1.
       11    1    1    2    0    0 -0.10365496191E-02 -0.27514346729E-01  0.15407487079E+01  0.15409947942E+01  0.51109989000E-03 0.  1.
     -623    1    1    2    0    0 -0.96201213083E-02 -0.42445613508E-02  0.25089588385E-02  0.17130000034E+03  0.17130000000E+03 0.  1.
      622    1    1    2    0    0  0.10656670927E-01  0.31758908080E-01  0.24567423006E+01  0.24590048647E+01  0.10000000000E+00 0.  1.
</event>
<event>
 5   0  0.6262544E+06  0.9118800E+02  0.7818608E-02  0.1180000E+00
       11   -1    0    0    0    0  0.00000000000E+00  0.00000000000E+00  0.39999999673E+01  0.40000000000E+01  0.51109989000E-03 0. -1.
     -623   -1    0    0    0    0  0.00000000000E+00  0.00000000000E+00  0.12525980253E-10  0.17130000000E+03  0.17130000000E+03 0. -1.
       11    1    1    2    0    0 -0.22257979244E-01  0.64775523607E-01  0.54203777513E+00  0.54634832935E+00  0.51109989000E-03 0. -1.
     -623    1    1    2    0    0 -0.10006965770E-01 -0.78026083353E-01  0.59529539883E-02  0.17130001817E+03  0.17130000000E+03 0. -1.
      622    1    1    2    0    0  0.32264945015E-01  0.13250559746E-01  0.34520092382E+01  0.34536335047E+01  0.10000000000E+00 0. -1.
</event>
<event>
 5   0  0.6262544E+06  0.9118800E+02  0.7818608E-02  0.1180000E+00
       11   -1    0    0    0    0  0.00000000000E+00  0.00000000000E+00  0.39999999673E+01  0.40000000000E+01  0.51109989000E-03 0. -1.
     -623   -1    0    0    0    0  0.00000000000E+00  0.00000000000E+00  0.12525980253E-10  0.17130000000E+03  0.17130000000E+03 0. -1.
       11    1    1    2    0    0 -0.25603056185E-01  0.13827329840E-01  0.63736480368E-01  0.70066480498E-01  0.51109989000E-03 0. -1.
     -623    1    1    2    0    0 -0.10787398093E-01 -0.30674198852E-02  0.77862819601E-02  0.17130000054E+03  0.17130000000E+03 0. -1.
      622    1    1    2    0    0  0.36390454279E-01 -0.10759909955E-01  0.39284772050E+01  0.39299329754E+01  0.10000000000E+00 0. -1.
</event>
<event>
 5   0  0.6262544E+06  0.9118800E+02  0.7818608E-02  0.1180000E+00
       11   -1    0    0    0    0  0.00000000000E+00  0.00000000000E+00  0.39999999673E+01  0.40000000000E+01  0.51109989000E-03 0.  1.
     -623   -1    0    0    0    0  0.00000000000E+00  0.00000000000E+00  0.12525980253E-10  0.17130000000E+03  0.17130000000E+03 0. -1.
       11    1    1    2    0    0 -0.19239588901E-02  0.56444115121E-03  0.76453838780E-02  0.79204374477E-02  0.51109989000E-03 0.  1.
     -623    1    1    2    0    0  0.27118108729E-03  0.21614520406E-02  0.15289913884E-02  0.17130000002E+03  0.17130000000E+03 0. -1.
      622    1    1    2    0    0  0.16527778028E-02 -0.27258931919E-02  0.39908255922E+01  0.39920795420E+01  0.10000000000E+00 0.  1.
</event>
<event>
 5   0  0.6262544E+06  0.9118800E+02  0.7818608E-02  0.1180000E+00
       11   -1    0    0    0    0  0.00000000000E+00  0.00000000000E+00  0.39999999673E+01  0.40000000000E+01  0.51109989000E-03 0.  1.
     -623   -1    0    0    0    0  0.00000000000E+00  0.00000000000E+00  0.12525980253E-10  0.17130000000E+03  0.17130000000E+03 0. -1.
       11    1    1    2    0    0 -0.12940106922E-01  0.20562152390E-01  0.13885944341E+00  0.14096969435E+00  0.51109989000E-03 0.  1.
     -623    1    1    2    0    0 -0.93473336019E-02 -0.15478685885E-01  0.34748190842E-02  0.17130000099E+03  0.17130000000E+03 0. -1.
      622    1    1    2    0    0  0.22287440524E-01 -0.50834665055E-02  0.38576657049E+01  0.38590293161E+01  0.10000000000E+00 0.  1.
</event>
<event>
 5   0  0.6262544E+06  0.9118800E+02  0.7818608E-02  0.1180000E+00
       11   -1    0    0    0    0  0.00000000000E+00  0.00000000000E+00  0.39999999673E+01  0.40000000000E+01  0.51109989000E-03 0.  1.
     -623   -1    0    0    0    0  0.00000000000E+00  0.00000000000E+00  0.12525980253E-10  0.17130000000E+03  0.17130000000E+03 0.  1.
       11    1    1    2    0    0 -0.42269446435E-03 -0.11329740270E-02  0.94571592267E-02  0.95478471130E-02  0.51109989000E-03 0.  1.
     -623    1    1    2    0    0 -0.17145464867E-03  0.82623389397E-03  0.13439062587E-02  0.17130000001E+03  0.17130000000E+03 0.  1.
      622    1    1    2    0    0  0.59414911301E-03  0.30674013311E-03  0.39891989016E+01  0.39904521453E+01  0.10000000000E+00 0.  1.
</event>
<event>
 5   0  0.6262544E+06  0.9118800E+02  0.7818608E-02  0.1180000E+00
       11   -1    0    0    0    0  0.00000000000E+00  0.00000000000E+00  0.39999999673E+01  0.40000000000E+01  0.51109989000E-03 0. -1.
     -623   -1    0    0    0    0  0.00000000000E+00  0.00000000000E+00  0.12525980253E-10  0.17130000000E+03  0.17130000000E+03 0.  1.
       11    1    1    2    0    0  0.13741058391E-02 -0.40957517720E-03  0.34080323517E-02  0.37325361741E-02  0.51109989000E-03 0. -1.
     -623    1    1    2    0    0 -0.13391084002E-02  0.52451678122E-03  0.15758497073E-02  0.17130000001E+03  0.17130000000E+03 0.  1.
      622    1    1    2    0    0 -0.34997438868E-04 -0.11494160404E-03  0.39950160855E+01  0.39962674507E+01  0.10000000000E+00 0. -1.
</event>
<event>
 5   0  0.6262544E+06  0.9118800E+02  0.7818608E-02  0.1180000E+00
       11   -1    0    0    0    0  0.00000000000E+00  0.00000000000E+00  0.39999999673E+01  0.40000000000E+01  0.51109989000E-03 0.  1.
     -623   -1    0    0    0    0  0.00000000000E+00  0.00000000000E+00  0.12525980253E-10  0.17130000000E+03  0.17130000000E+03 0. -1.
       11    1    1    2    0    0  0.28838141425E-01  0.28243631151E-01  0.32887092516E+00  0.33133923362E+00  0.51109989000E-03 0.  1.
     -623    1    1    2    0    0 -0.63002280637E-01 -0.39825101817E-01  0.40251198837E-02  0.17130001626E+03  0.17130000000E+03 0. -1.
      622    1    1    2    0    0  0.34164139212E-01  0.11581470666E-01  0.36671039223E+01  0.36686445039E+01  0.10000000000E+00 0.  1.
</event>
<event>
 5   0  0.6262544E+06  0.9118800E+02  0.7818608E-02  0.1180000E+00
       11   -1    0    0    0    0  0.00000000000E+00  0.00000000000E+00  0.39999999673E+01  0.40000000000E+01  0.51109989000E-03 0. -1.
     -623   -1    0    0    0    0  0.00000000000E+00  0.00000000000E+00  0.12525980253E-10  0.17130000000E+03  0.17130000000E+03 0.  1.
       11    1    1    2    0    0  0.12296371865E-02  0.15666367917E-02 -0.10990290054E-02  0.23314043621E-02  0.51109989000E-03 0. -1.
     -623    1    1    2    0    0  0.40550122070E-02  0.45493005030E-03  0.46854435158E-02  0.17130000011E+03  0.17130000000E+03 0.  1.
      622    1    1    2    0    0 -0.52846493935E-02 -0.20215668420E-02  0.39964135528E+01  0.39976684829E+01  0.10000000000E+00 0. -1.
</event>
<event>
 5   0  0.6262544E+06  0.9118800E+02  0.7818608E-02  0.1180000E+00
       11   -1    0    0    0    0  0.00000000000E+00  0.00000000000E+00  0.39999999673E+01  0.40000000000E+01  0.51109989000E-03 0. -1.
     -623   -1    0    0    0    0  0.00000000000E+00  0.00000000000E+00  0.12525980253E-10  0.17130000000E+03  0.17130000000E+03 0. -1.
       11    1    1    2    0    0  0.12758913959E-04 -0.51277557055E-03 -0.48212606588E-03  0.86992540864E-03  0.51109989000E-03 0. -1.
     -623    1    1    2    0    0  0.68884576527E-02  0.99210101979E-03  0.26086327799E-02  0.17130000016E+03  0.17130000000E+03 0. -1.
      622    1    1    2    0    0 -0.69012165668E-02 -0.47932544927E-03  0.39978734608E+01  0.39991299135E+01  0.10000000000E+00 0. -1.
</event>
<event>
 5   0  0.6262544E+06  0.9118800E+02  0.7818608E-02  0.1180000E+00
       11   -1    0    0    0    0  0.00000000000E+00  0.00000000000E+00  0.39999999673E+01  0.40000000000E+01  0.51109989000E-03 0.  1.
     -623   -1    0    0    0    0  0.00000000000E+00  0.00000000000E+00  0.12525980253E-10  0.17130000000E+03  0.17130000000E+03 0.  1.
       11    1    1    2    0    0 -0.11217522812E-01  0.14525114611E-01  0.16055315341E+00  0.16159946802E+00  0.51109989000E-03 0.  1.
     -623    1    1    2    0    0  0.58126991936E-02 -0.16982219221E-02  0.23744984298E-02  0.17130000012E+03  0.17130000000E+03 0.  1.
      622    1    1    2    0    0  0.54048236185E-02 -0.12826892689E-01  0.38370723156E+01  0.38384004086E+01  0.10000000000E+00 0.  1.
</event>
<event>
 5   0  0.6262544E+06  0.9118800E+02  0.7818608E-02  0.1180000E+00
       11   -1    0    0    0    0  0.00000000000E+00  0.00000000000E+00  0.39999999673E+01  0.40000000000E+01  0.51109989000E-03 0. -1.
     -623   -1    0    0    0    0  0.00000000000E+00  0.00000000000E+00  0.12525980253E-10  0.17130000000E+03  0.17130000000E+03 0. -1.
       11    1    1    2    0    0  0.35250571425E-03 -0.36502108124E-02  0.23908241529E-01  0.24193253923E-01  0.51109989000E-03 0. -1.
     -623    1    1    2    0    0 -0.78094215263E-03  0.42186560130E-02  0.15429095501E-02  0.17130000006E+03  0.17130000000E+03 0. -1.
      622    1    1    2    0    0  0.42843643842E-03 -0.56844520090E-03  0.39745488165E+01  0.39758066856E+01  0.10000000000E+00 0. -1.
</event>
<event>
 5   0  0.6262544E+06  0.9118800E+02  0.7818608E-02  0.1180000E+00
       11   -1    0    0    0    0  0.00000000000E+00  0.00000000000E+00  0.39999999673E+01  0.40000000000E+01  0.51109989000E-03 0.  1.
     -623   -1    0    0    0    0  0.00000000000E+00  0.00000000000E+00  0.12525980253E-10  0.17130000000E+03  0.17130000000E+03 0.  1.
       11    1    1    2    0    0  0.45737959296E-01  0.35666427029E-01  0.13880933591E+01  0.13893046785E+01  0.51109989000E-03 0.  1.
     -623    1    1    2    0    0 -0.71913718365E-02  0.91093679156E-02  0.37967413472E-02  0.17130000044E+03  0.17130000000E+03 0.  1.
      622    1    1    2    0    0 -0.38546587460E-01 -0.44775794944E-01  0.26081098669E+01  0.26106948862E+01  0.10000000000E+00 0.  1.
</event>
<event>
 5   0  0.6262544E+06  0.9118800E+02  0.7818608E-02  0.1180000E+00
       11   -1    0    0    0    0  0.00000000000E+00  0.00000000000E+00  0.39999999673E+01  0.40000000000E+01  0.51109989000E-03 0. -1.
     -623   -1    0    0    0    0  0.00000000000E+00  0.00000000000E+00  0.12525980253E-10  0.17130000000E+03  0.17130000000E+03 0. -1.
       11    1    1    2    0    0 -0.41759091590E-03  0.33372231211E-03  0.48615101574E-02  0.49174441392E-02  0.51109989000E-03 0. -1.
     -623    1    1    2    0    0  0.41695280520E-02 -0.89808503180E-02  0.13190507706E-02  0.17130000029E+03  0.17130000000E+03 0. -1.
      622    1    1    2    0    0 -0.37519371361E-02  0.86471280057E-02  0.39938194064E+01  0.39950822646E+01  0.10000000000E+00 0. -1.
</event>
<event>
 5   0  0.6262544E+06  0.9118800E+02  0.7818608E-02  0.1180000E+00
       11   -1    0    0    0    0  0.00000000000E+00  0.00000000000E+00  0.39999999673E+01  0.40000000000E+01  0.51109989000E-03 0. -1.
     -623   -1    0    0    0    0  0.00000000000E+00  0.00000000000E+00  0.12525980253E-10  0.17130000000E+03  0.17130000000E+03 0. -1.
       11    1    1    2    0    0 -0.19074619501E-01  0.65101421260E-02  0.41218188036E+00  0.41267467426E+00  0.51109989000E-03 0. -1.
     -623    1    1    2    0    0  0.46176990024E-01  0.15226058464E-02  0.20044914479E-02  0.17130000624E+03  0.17130000000E+03 0. -1.
      622    1    1    2    0    0 -0.27102370522E-01 -0.80327479724E-02  0.35858135956E+01  0.35873190833E+01  0.10000000000E+00 0. -1.
</event>
<event>
 5   0  0.6262544E+06  0.9118800E+02  0.7818608E-02  0.1180000E+00
       11   -1    0    0    0    0  0.00000000000E+00  0.00000000000E+00  0.39999999673E+01  0.40000000000E+01  0.51109989000E-03 0. -1.
     -623   -1    0    0    0    0  0.00000000000E+00  0.00000000000E+00  0.12525980253E-10  0.17130000000E+03  0.17130000000E+03 0.  1.
       11    1    1    2    0    0  0.73295193357E-02 -0.43480089630E-02  0.16217347436E-01  0.18327318860E-01  0.51109989000E-03 0. -1.
     -623    1    1    2    0    0 -0.17445937736E-01 -0.26394671903E-01  0.35004273433E-02  0.17130000296E+03  0.17130000000E+03 0.  1.
      622    1    1    2    0    0  0.10116418400E-01  0.30742680866E-01  0.39802821925E+01  0.39816697234E+01  0.10000000000E+00 0. -1.
</event>
<event>
 5   0  0.6262544E+06  0.9118800E+02  0.7818608E-02  0.1180000E+00
       11   -1    0    0    0    0  0.00000000000E+00  0.00000000000E+00  0.39999999673E+01  0.40000000000E+01  0.51109989000E-03 0. -1.
     -623   -1    0    0    0    0  0.00000000000E+00  0.00000000000E+00  0.12525980253E-10  0.17130000000E+03  0.17130000000E+03 0.  1.
       11    1    1    2    0    0  0.15524382498E-01  0.72652417871E-01  0.20041431861E+01  0.20055197710E+01  0.51109989000E-03 0. -1.
     -623    1    1    2    0    0  0.35953651440E-02 -0.14445405172E-01  0.48281749179E-02  0.17130000071E+03  0.17130000000E+03 0.  1.
      622    1    1    2    0    0 -0.19119747642E-01 -0.58207012699E-01  0.19910286063E+01  0.19944795141E+01  0.10000000000E+00 0.  0.
</event>
<event>
 5   0  0.6262544E+06  0.9118800E+02  0.7818608E-02  0.1180000E+00
       11   -1    0    0    0    0  0.00000000000E+00  0.00000000000E+00  0.39999999673E+01  0.40000000000E+01  0.51109989000E-03 0. -1.
     -623   -1    0    0    0    0  0.00000000000E+00  0.00000000000E+00  0.12525980253E-10  0.17130000000E+03  0.17130000000E+03 0. -1.
       11    1    1    2    0    0 -0.50347848910E-01  0.15387443609E+00  0.22226713482E+01  0.22285601700E+01  0.51109989000E-03 0. -1.
     -623    1    1    2    0    0 -0.24874723926E-02 -0.31149585155E-01  0.13771403779E-01  0.17130000340E+03  0.17130000000E+03 0. -1.
      622    1    1    2    0    0  0.52835321303E-01 -0.12272485094E+00  0.17635572154E+01  0.17714364263E+01  0.10000000000E+00 0.  0.
</event>
<event>
 5   0  0.6262544E+06  0.9118800E+02  0.7818608E-02  0.1180000E+00
       11   -1    0    0    0    0  0.00000000000E+00  0.00000000000E+00  0.39999999673E+01  0.40000000000E+01  0.51109989000E-03 0.  1.
     -623   -1    0    0    0    0  0.00000000000E+00  0.00000000000E+00  0.12525980253E-10  0.17130000000E+03  0.17130000000E+03 0. -1.
       11    1    1    2    0    0 -0.65928869588E-02  0.13801639725E-01  0.10873051997E+01  0.10874128976E+01  0.51109989000E-03 0.  1.
     -623    1    1    2    0    0 -0.48121502783E-03 -0.12151674739E-02  0.18606812216E-02  0.17130000002E+03  0.17130000000E+03 0. -1.
      622    1    1    2    0    0  0.70741019866E-02 -0.12586472251E-01  0.29108340865E+01  0.29125870873E+01  0.10000000000E+00 0.  1.
</event>
<event>
 5   0  0.6262544E+06  0.9118800E+02  0.7818608E-02  0.1180000E+00
       11   -1    0    0    0    0  0.00000000000E+00  0.00000000000E+00  0.39999999673E+01  0.40000000000E+01  0.51109989000E-03 0. -1.
     -623   -1    0    0    0    0  0.00000000000E+00  0.00000000000E+00  0.12525980253E-10  0.17130000000E+03  0.17130000000E+03 0. -1.
       11    1    1    2    0    0 -0.10439840212E-01  0.98438326693E-02  0.42862002701E+00  0.42886044360E+00  0.51109989000E-03 0. -1.
     -623    1    1    2    0    0  0.10727739774E-01 -0.30161248830E-02  0.16476835296E-02  0.17130000037E+03  0.17130000000E+03 0. -1.
      622    1    1    2    0    0 -0.28789956181E-03 -0.68277077862E-02  0.35697322569E+01  0.35711391861E+01  0.10000000000E+00 0. -1.
</event>
<event>
 5   0  0.6262544E+06  0.9118800E+02  0.7818608E-02  0.1180000E+00
       11   -1    0    0    0    0  0.00000000000E+00  0.00000000000E+00  0.39999999673E+01  0.40000000000E+01  0.51109989000E-03 0.  1.
     -623   -1    0    0    0    0  0.00000000000E+00  0.00000000000E+00  0.12525980253E-10  0.17130000000E+03  0.17130000000E+03 0. -1.
       11    1    1    2    0    0 -0.41821569488E-01 -0.45030012527E-01  0.79149680477E-01  0.10020817753E+00  0.51109989000E-03 0.  1.
     -623    1    1    2    0    0 -0.27582837266E-02 -0.11662506438E-01  0.23009919397E-01  0.17130000196E+03  0.17130000000E+03 0. -1.
      622    1    1    2    0    0  0.44579853214E-01  0.56692518965E-01  0.38978403675E+01  0.38997898579E+01  0.10000000000E+00 0.  1.
</event>
<event>
 5   0  0.6262544E+06  0.9118800E+02  0.7818608E-02  0.1180000E+00
       11   -1    0    0    0    0  0.00000000000E+00  0.00000000000E+00  0.39999999673E+01  0.40000000000E+01  0.51109989000E-03 0.  1.
     -623   -1    0    0    0    0  0.00000000000E+00  0.00000000000E+00  0.12525980253E-10  0.17130000000E+03  0.17130000000E+03 0.  1.
       11    1    1    2    0    0  0.25545224477E-02 -0.12249569442E-01  0.70519487468E-01  0.71622879531E-01  0.51109989000E-03 0.  1.
     -623    1    1    2    0    0  0.52270314593E-01  0.53018708108E-01  0.29869308265E-02  0.17130001621E+03  0.17130000000E+03 0.  1.
      622    1    1    2    0    0 -0.54824837043E-01 -0.40769138668E-01  0.39264935492E+01  0.39283609149E+01  0.10000000000E+00 0.  1.
</event>
<event>
 5   0  0.6262544E+06  0.9118800E+02  0.7818608E-02  0.1180000E+00
       11   -1    0    0    0    0  0.00000000000E+00  0.00000000000E+00  0.39999999673E+01  0.40000000000E+01  0.51109989000E-03 0. -1.
     -623   -1    0    0    0    0  0.00000000000E+00  0.00000000000E+00  0.12525980253E-10  0.17130000000E+03  0.17130000000E+03 0. -1.
       11    1    1    2    0    0 -0.11911031771E-01 -0.47087222903E-01  0.25204203074E+01  0.25208883090E+01  0.51109989000E-03 0. -1.
     -623    1    1    2    0    0  0.64311159462E-01  0.41668420832E-01  0.48100663987E-02  0.17130001721E+03  0.17130000000E+03 0. -1.
      622    1    1    2    0    0 -0.52400127691E-01  0.54188020711E-02  0.14747695935E+01  0.14790944834E+01  0.10000000000E+00 0.  1.
</event>
<event>
 5   0  0.6262544E+06  0.9118800E+02  0.7818608E-02  0.1180000E+00
       11   -1    0    0    0    0  0.00000000000E+00  0.00000000000E+00  0.39999999673E+01  0.40000000000E+01  0.51109989000E-03 0. -1.
     -623   -1    0    0    0    0  0.00000000000E+00  0.00000000000E+00  0.12525980253E-10  0.17130000000E+03  0.17130000000E+03 0.  1.
       11    1    1    2    0    0  0.63582378497E-02  0.12412137914E+00  0.24129194178E+01  0.24161181515E+01  0.51109989000E-03 0. -1.
     -623    1    1    2    0    0 -0.73531337547E-02  0.10305190194E-01  0.12086141577E-01  0.17130000089E+03  0.17130000000E+03 0.  1.
      622    1    1    2    0    0  0.99489590499E-03 -0.13442656934E+00  0.15749944080E+01  0.15838809543E+01  0.10000000000E+00 0.  0.
</event>
<event>
 5   0  0.6262544E+06  0.9118800E+02  0.7818608E-02  0.1180000E+00
       11   -1    0    0    0    0  0.00000000000E+00  0.00000000000E+00  0.39999999673E+01  0.40000000000E+01  0.51109989000E-03 0.  1.
     -623   -1    0    0    0    0  0.00000000000E+00  0.00000000000E+00  0.12525980253E-10  0.17130000000E+03  0.17130000000E+03 0. -1.
       11    1    1    2    0    0 -0.27994363596E-02  0.45312805516E-02  0.30015040255E+00  0.30019809246E+00  0.51109989000E-03 0.  1.
     -623    1    1    2    0    0 -0.12071909751E-02  0.26837054047E-02  0.14085667649E-02  0.17130000003E+03  0.17130000000E+03 0. -1.
      622    1    1    2    0    0  0.40066273347E-02 -0.72149859563E-02  0.36984409980E+01  0.36998018765E+01  0.10000000000E+00 0.  1.
</event>
<event>
 5   0  0.6262544E+06  0.9118800E+02  0.7818608E-02  0.1180000E+00
       11   -1    0    0    0    0  0.00000000000E+00  0.00000000000E+00  0.39999999673E+01  0.40000000000E+01  0.51109989000E-03 0. -1.
     -623   -1    0    0    0    0  0.00000000000E+00  0.00000000000E+00  0.12525980253E-10  0.17130000000E+03  0.17130000000E+03 0. -1.
       11    1    1    2    0    0 -0.18547537414E-01  0.98939366463E-02  0.64813856610E-01  0.68139550616E-01  0.51109989000E-03 0. -1.
     -623    1    1    2    0    0  0.34310098659E-01  0.10046089739E-01  0.46835105093E-02  0.17130000379E+03  0.17130000000E+03 0. -1.
      622    1    1    2    0    0 -0.15762561246E-01 -0.19940026386E-01  0.39305026003E+01  0.39318566548E+01  0.10000000000E+00 0. -1.
</event>
<event>
 5   0  0.6262544E+06  0.9118800E+02  0.7818608E-02  0.1180000E+00
       11   -1    0    0    0    0  0.00000000000E+00  0.00000000000E+00  0.39999999673E+01  0.40000000000E+01  0.51109989000E-03 0.  1.
     -623   -1    0    0    0    0  0.00000000000E+00  0.00000000000E+00  0.12525980253E-10  0.17130000000E+03  0.17130000000E+03 0.  1.
       11    1    1    2    0    0 -0.32899023794E-01 -0.13639655976E-01  0.89128767319E+00  0.89199908273E+00  0.51109989000E-03 0.  1.
     -623    1    1    2    0    0 -0.97288726401E-03  0.10324130943E-01  0.25073206385E-02  0.17130000033E+03  0.17130000000E+03 0.  1.
      622    1    1    2    0    0  0.33871911058E-01  0.33155250329E-02  0.31062049735E+01  0.31080005850E+01  0.10000000000E+00 0.  1.
</event>
<event>
 5   0  0.6262544E+06  0.9118800E+02  0.7818608E-02  0.1180000E+00
       11   -1    0    0    0    0  0.00000000000E+00  0.00000000000E+00  0.39999999673E+01  0.40000000000E+01  0.51109989000E-03 0.  1.
     -623   -1    0    0    0    0  0.00000000000E+00  0.00000000000E+00  0.12525980253E-10  0.17130000000E+03  0.17130000000E+03 0. -1.
       11    1    1    2    0    0 -0.19979293417E-01  0.22651315511E-01  0.12302086588E+01  0.12305794812E+01  0.51109989000E-03 0.  1.
     -623    1    1    2    0    0  0.22273389174E-01 -0.13308967744E-01  0.21955098169E-02  0.17130000198E+03  0.17130000000E+03 0. -1.
      622    1    1    2    0    0 -0.22940957568E-02 -0.93423477670E-02  0.27675957988E+01  0.27694185396E+01  0.10000000000E+00 0.  1.
</event>
<event>
 5   0  0.6262544E+06  0.9118800E+02  0.7818608E-02  0.1180000E+00
       11   -1    0    0    0    0  0.00000000000E+00  0.00000000000E+00  0.39999999673E+01  0.40000000000E+01  0.51109989000E-03 0.  1.
     -623   -1    0    0    0    0  0.00000000000E+00  0.00000000000E+00  0.12525980253E-10  0.17130000000E+03  0.17130000000E+03 0.  1.
       11    1    1    2    0    0  0.11592796593E-02  0.18597238098E-04  0.29156110418E-01  0.29183630223E-01  0.51109989000E-03 0.  1.
     -623    1    1    2    0    0 -0.38104269114E-03  0.18274988012E-02  0.12873943677E-02  0.17130000002E+03  0.17130000000E+03 0.  1.
      622    1    1    2    0    0 -0.77823696816E-03 -0.18460960393E-02  0.39695564626E+01  0.39708163548E+01  0.10000000000E+00 0.  1.
</event>
<event>
 5   0  0.6262544E+06  0.9118800E+02  0.7818608E-02  0.1180000E+00
       11   -1    0    0    0    0  0.00000000000E+00  0.00000000000E+00  0.39999999673E+01  0.40000000000E+01  0.51109989000E-03 0. -1.
     -623   -1    0    0    0    0  0.00000000000E+00  0.00000000000E+00  0.12525980253E-10  0.17130000000E+03  0.17130000000E+03 0. -1.
       11    1    1    2    0    0 -0.12826968459E-03 -0.51060639902E-03 -0.79355500224E-03  0.10807981522E-02  0.51109989000E-03 0. -1.
     -623    1    1    2    0    0 -0.11656767125E-02 -0.51764115725E-03  0.31252288024E-02  0.17130000003E+03  0.17130000000E+03 0. -1.
      622    1    1    2    0    0  0.12939463971E-02  0.10282475563E-02  0.39976682935E+01  0.39989191686E+01  0.10000000000E+00 0. -1.
</event>
<event>
 5   0  0.6262544E+06  0.9118800E+02  0.7818608E-02  0.1180000E+00
       11   -1    0    0    0    0  0.00000000000E+00  0.00000000000E+00  0.39999999673E+01  0.40000000000E+01  0.51109989000E-03 0.  1.
     -623   -1    0    0    0    0  0.00000000000E+00  0.00000000000E+00  0.12525980253E-10  0.17130000000E+03  0.17130000000E+03 0.  1.
       11    1    1    2    0    0 -0.76614680756E-02  0.54667406031E-02  0.78610336026E-01  0.79173414092E-01  0.51109989000E-03 0.  1.
     -623    1    1    2    0    0  0.10129707280E-01 -0.96669188003E-03  0.18421668395E-02  0.17130000031E+03  0.17130000000E+03 0.  1.
      622    1    1    2    0    0 -0.24682392055E-02 -0.45000487230E-02  0.39195474648E+01  0.39208262741E+01  0.10000000000E+00 0.  1.
</event>
<event>
 5   0  0.6262544E+06  0.9118800E+02  0.7818608E-02  0.1180000E+00
       11   -1    0    0    0    0  0.00000000000E+00  0.00000000000E+00  0.39999999673E+01  0.40000000000E+01  0.51109989000E-03 0.  1.
     -623   -1    0    0    0    0  0.00000000000E+00  0.00000000000E+00  0.12525980253E-10  0.17130000000E+03  0.17130000000E+03 0.  1.
       11    1    1    2    0    0 -0.10499380851E-01 -0.48344165705E-02  0.95047062165E-01  0.95748701457E-01  0.51109989000E-03 0.  1.
     -623    1    1    2    0    0 -0.47708164082E-02  0.72052973446E-02  0.20132941125E-02  0.17130000023E+03  0.17130000000E+03 0.  1.
      622    1    1    2    0    0  0.15270197259E-01 -0.23708807741E-02  0.39029396111E+01  0.39042510687E+01  0.10000000000E+00 0.  1.
</event>
<event>
 5   0  0.6262544E+06  0.9118800E+02  0.7818608E-02  0.1180000E+00
       11   -1    0    0    0    0  0.00000000000E+00  0.00000000000E+00  0.39999999673E+01  0.40000000000E+01  0.51109989000E-03 0. -1.
     -623   -1    0    0    0    0  0.00000000000E+00  0.00000000000E+00  0.12525980253E-10  0.17130000000E+03  0.17130000000E+03 0.  1.
       11    1    1    2    0    0  0.14831779842E-02 -0.29129785472E-02  0.73735483271E-01  0.73809673992E-01  0.51109989000E-03 0. -1.
     -623    1    1    2    0    0  0.18587669230E-01  0.39120336746E-02  0.14003686796E-02  0.17130000106E+03  0.17130000000E+03 0.  1.
      622    1    1    2    0    0 -0.20070847215E-01 -0.99905512740E-03  0.39248641154E+01  0.39261892671E+01  0.10000000000E+00 0. -1.
</event>
<event>
 5   0  0.6262544E+06  0.9118800E+02  0.7818608E-02  0.1180000E+00
       11   -1    0    0    0    0  0.00000000000E+00  0.00000000000E+00  0.39999999673E+01  0.40000000000E+01  0.51109989000E-03 0. -1.
     -623   -1    0    0    0    0  0.00000000000E+00  0.00000000000E+00  0.12525980253E-10  0.17130000000E+03  0.17130000000E+03 0. -1.
       11    1    1    2    0    0 -0.28271646329E-01 -0.26746664684E-01  0.16724513466E+00  0.17171449080E+00  0.51109989000E-03 0. -1.
     -623    1    1    2    0    0 -0.85461431984E-02  0.14259885864E-01  0.59740058865E-02  0.17130000091E+03  0.17130000000E+03 0. -1.
      622    1    1    2    0    0  0.36817789527E-01  0.12486778820E-01  0.38267808268E+01  0.38282845983E+01  0.10000000000E+00 0. -1.
</event>
<event>
 5   0  0.6262544E+06  0.9118800E+02  0.7818608E-02  0.1180000E+00
       11   -1    0    0    0    0  0.00000000000E+00  0.00000000000E+00  0.39999999673E+01  0.40000000000E+01  0.51109989000E-03 0.  1.
     -623   -1    0    0    0    0  0.00000000000E+00  0.00000000000E+00  0.12525980253E-10  0.17130000000E+03  0.17130000000E+03 0.  1.
       11    1    1    2    0    0  0.18935660528E-03 -0.48325110301E-02  0.26652776962E-01  0.27092817529E-01  0.51109989000E-03 0.  1.
     -623    1    1    2    0    0  0.20174237716E-02 -0.18491304967E-02  0.17049953860E-02  0.17130000003E+03  0.17130000000E+03 0.  1.
      622    1    1    2    0    0 -0.22067803769E-02  0.66816415269E-02  0.39716421951E+01  0.39729071522E+01  0.10000000000E+00 0.  1.
</event>
<event>
 5   0  0.6262544E+06  0.9118800E+02  0.7818608E-02  0.1180000E+00
       11   -1    0    0    0    0  0.00000000000E+00  0.00000000000E+00  0.39999999673E+01  0.40000000000E+01  0.51109989000E-03 0. -1.
     -623   -1    0    0    0    0  0.00000000000E+00  0.00000000000E+00  0.12525980253E-10  0.17130000000E+03  0.17130000000E+03 0. -1.
       11    1    1    2    0    0  0.35332601626E-01  0.17842478765E-01  0.10910960950E+00  0.11606857842E+00  0.51109989000E-03 0. -1.
     -623    1    1    2    0    0 -0.15967365243E-01 -0.17606434775E-01  0.82966565187E-02  0.17130000185E+03  0.17130000000E+03 0. -1.
      622    1    1    2    0    0 -0.19365236383E-01 -0.23604399001E-03  0.38825937014E+01  0.38839295718E+01  0.10000000000E+00 0. -1.
</event>
<event>
 5   0  0.6262544E+06  0.9118800E+02  0.7818608E-02  0.1180000E+00
       11   -1    0    0    0    0  0.00000000000E+00  0.00000000000E+00  0.39999999673E+01  0.40000000000E+01  0.51109989000E-03 0. -1.
     -623   -1    0    0    0    0  0.00000000000E+00  0.00000000000E+00  0.12525980253E-10  0.17130000000E+03  0.17130000000E+03 0.  1.
       11    1    1    2    0    0  0.12982591543E-01  0.13069481287E-01  0.11171200072E+01  0.11172720039E+01  0.51109989000E-03 0. -1.
     -623    1    1    2    0    0  0.11436865684E-02  0.11874643613E-01  0.20300032885E-02  0.17130000043E+03  0.17130000000E+03 0.  1.
      622    1    1    2    0    0 -0.14126278111E-01 -0.24944124900E-01  0.28808499569E+01  0.28827275687E+01  0.10000000000E+00 0.  0.
</event>
<event>
 5   0  0.6262544E+06  0.9118800E+02  0.7818608E-02  0.1180000E+00
       11   -1    0    0    0    0  0.00000000000E+00  0.00000000000E+00  0.39999999673E+01  0.40000000000E+01  0.51109989000E-03 0.  1.
     -623   -1    0    0    0    0  0.00000000000E+00  0.00000000000E+00  0.12525980253E-10  0.17130000000E+03  0.17130000000E+03 0. -1.
       11    1    1    2    0    0 -0.71718618262E-01  0.18531645168E-01  0.27786887065E+01  0.27796759112E+01  0.51109989000E-03 0.  1.
     -623    1    1    2    0    0  0.52511810588E-01  0.57402357390E-01  0.76340075248E-02  0.17130001784E+03  0.17130000000E+03 0. -1.
      622    1    1    2    0    0  0.19206807674E-01 -0.75934002558E-01  0.12136772533E+01  0.12203062523E+01  0.10000000000E+00 0.  0.
</event>
<event>
 5   0  0.6262544E+06  0.9118800E+02  0.7818608E-02  0.1180000E+00
       11   -1    0    0    0    0  0.00000000000E+00  0.00000000000E+00  0.39999999673E+01  0.40000000000E+01  0.51109989000E-03 0.  1.
     -623   -1    0    0    0    0  0.00000000000E+00  0.00000000000E+00  0.12525980253E-10  0.17130000000E+03  0.17130000000E+03 0. -1.
       11    1    1    2    0    0 -0.63787652764E-02  0.23070771774E-02  0.13625260713E-01  0.15228926493E-01  0.51109989000E-03 0.  1.
     -623    1    1    2    0    0  0.51033091431E-02  0.10597285719E-01  0.28801418552E-02  0.17130000043E+03  0.17130000000E+03 0. -1.
      622    1    1    2    0    0  0.12754561333E-02 -0.12904362897E-01  0.39834945648E+01  0.39847706455E+01  0.10000000000E+00 0.  1.
</event>
<event>
 5   0  0.6262544E+06  0.9118800E+02  0.7818608E-02  0.1180000E+00
       11   -1    0    0    0    0  0.00000000000E+00  0.00000000000E+00  0.39999999673E+01  0.40000000000E+01  0.51109989000E-03 0. -1.
     -623   -1    0    0    0    0  0.00000000000E+00  0.00000000000E+00  0.12525980253E-10  0.17130000000E+03  0.17130000000E+03 0. -1.
       11    1    1    2    0    0 -0.62683338948E-02 -0.86040099354E-02  0.11424393178E+00  0.11473995889E+00  0.51109989000E-03 0. -1.
     -623    1    1    2    0    0 -0.32897557993E-03  0.66597401495E-02  0.17893517226E-02  0.17130000014E+03  0.17130000000E+03 0. -1.
      622    1    1    2    0    0  0.65973094747E-02  0.19442697860E-02  0.38839666839E+01  0.38852599020E+01  0.10000000000E+00 0. -1.
</event>
<event>
 5   0  0.6262544E+06  0.9118800E+02  0.7818608E-02  0.1180000E+00
       11   -1    0    0    0    0  0.00000000000E+00  0.00000000000E+00  0.39999999673E+01  0.40000000000E+01  0.51109989000E-03 0. -1.
     -623   -1    0    0    0    0  0.00000000000E+00  0.00000000000E+00  0.12525980253E-10  0.17130000000E+03  0.17130000000E+03 0.  1.
       11    1    1    2    0    0 -0.13661182820E-03 -0.73289080568E-02  0.14714782353E+00  0.14733117372E+00  0.51109989000E-03 0. -1.
     -623    1    1    2    0    0  0.19686536457E-01 -0.10036806995E-01  0.15715412648E-02  0.17130000143E+03  0.17130000000E+03 0.  1.
      622    1    1    2    0    0 -0.19549924629E-01  0.17365715052E-01  0.38512806026E+01  0.38526673938E+01  0.10000000000E+00 0. -1.
</event>
<event>
 5   0  0.6262544E+06  0.9118800E+02  0.7818608E-02  0.1180000E+00
       11   -1    0    0    0    0  0.00000000000E+00  0.00000000000E+00  0.39999999673E+01  0.40000000000E+01  0.51109989000E-03 0.  1.
     -623   -1    0    0    0    0  0.00000000000E+00  0.00000000000E+00  0.12525980253E-10  0.17130000000E+03  0.17130000000E+03 0. -1.
       11    1    1    2    0    0 -0.16131934646E-01 -0.12762523200E-01  0.10781374464E-02  0.20604487795E-01  0.51109989000E-03 0.  1.
     -623    1    1    2    0    0  0.26587823811E-01  0.14048809299E-01  0.20800840782E-01  0.17130000390E+03  0.17130000000E+03 0. -1.
      622    1    1    2    0    0 -0.10455889165E-01 -0.12862860983E-02  0.39781209891E+01  0.39793916098E+01  0.10000000000E+00 0.  1.
</event>
<event>
 5   0  0.6262544E+06  0.9118800E+02  0.7818608E-02  0.1180000E+00
       11   -1    0    0    0    0  0.00000000000E+00  0.00000000000E+00  0.39999999673E+01  0.40000000000E+01  0.51109989000E-03 0.  1.
     -623   -1    0    0    0    0  0.00000000000E+00  0.00000000000E+00  0.12525980253E-10  0.17130000000E+03  0.17130000000E+03 0. -1.
       11    1    1    2    0    0  0.41713998380E-03  0.80067283064E-02  0.87218714917E-01  0.87587939574E-01  0.51109989000E-03 0.  1.
     -623    1    1    2    0    0 -0.60065608806E-02 -0.11995629006E-02  0.16574201138E-02  0.17130000012E+03  0.17130000000E+03 0. -1.
      622    1    1    2    0    0  0.55894208970E-02 -0.68071654058E-02  0.39111238324E+01  0.39124119430E+01  0.10000000000E+00 0.  1.
</event>
<event>
 5   0  0.6262544E+06  0.9118800E+02  0.7818608E-02  0.1180000E+00
       11   -1    0    0    0    0  0.00000000000E+00  0.00000000000E+00  0.39999999673E+01  0.40000000000E+01  0.51109989000E-03 0. -1.
     -623   -1    0    0    0    0  0.00000000000E+00  0.00000000000E+00  0.12525980253E-10  0.17130000000E+03  0.17130000000E+03 0. -1.
       11    1    1    2    0    0 -0.44648498051E-01 -0.26196347816E-01  0.81047217381E+00  0.81212384694E+00  0.51109989000E-03 0. -1.
     -623    1    1    2    0    0 -0.44063034526E-02  0.69633624244E-02  0.36563941495E-02  0.17130000024E+03  0.17130000000E+03 0. -1.
      622    1    1    2    0    0  0.49054801504E-01  0.19232985392E-01  0.31858713994E+01  0.31878759158E+01  0.10000000000E+00 0. -1.
</event>
<event>
 5   0  0.6262544E+06  0.9118800E+02  0.7818608E-02  0.1180000E+00
       11   -1    0    0    0    0  0.00000000000E+00  0.00000000000E+00  0.39999999673E+01  0.40000000000E+01  0.51109989000E-03 0. -1.
     -623   -1    0    0    0    0  0.00000000000E+00  0.00000000000E+00  0.12525980253E-10  0.17130000000E+03  0.17130000000E+03 0.  1.
       11    1    1    2    0    0 -0.12966532101E-02  0.19152772153E-02  0.28634742636E-02  0.37162217795E-02  0.51109989000E-03 0. -1.
     -623    1    1    2    0    0 -0.50720883869E-03  0.10707728085E-02  0.21056134318E-02  0.17130000002E+03  0.17130000000E+03 0.  1.
      622    1    1    2    0    0  0.18038620488E-02 -0.29860500238E-02  0.39950308797E+01  0.39962837612E+01  0.10000000000E+00 0. -1.
</event>
<event>
 5   0  0.6262544E+06  0.9118800E+02  0.7818608E-02  0.1180000E+00
       11   -1    0    0    0    0  0.00000000000E+00  0.00000000000E+00  0.39999999673E+01  0.40000000000E+01  0.51109989000E-03 0. -1.
     -623   -1    0    0    0    0  0.00000000000E+00  0.00000000000E+00  0.12525980253E-10  0.17130000000E+03  0.17130000000E+03 0.  1.
       11    1    1    2    0    0  0.81329346673E-02  0.16762258410E-01  0.53199096092E+00  0.53231735051E+00  0.51109989000E-03 0. -1.
     -623    1    1    2    0    0 -0.35319211066E-02 -0.65433146854E-03  0.18090705604E-02  0.17130000005E+03  0.17130000000E+03 0.  1.
      622    1    1    2    0    0 -0.46010135608E-02 -0.16107926941E-01  0.34661999359E+01  0.34676826023E+01  0.10000000000E+00 0. -1.
</event>
<event>
 5   0  0.6262544E+06  0.9118800E+02  0.7818608E-02  0.1180000E+00
       11   -1    0    0    0    0  0.00000000000E+00  0.00000000000E+00  0.39999999673E+01  0.40000000000E+01  0.51109989000E-03 0.  1.
     -623   -1    0    0    0    0  0.00000000000E+00  0.00000000000E+00  0.12525980253E-10  0.17130000000E+03  0.17130000000E+03 0. -1.
       11    1    1    2    0    0 -0.20469984515E-01  0.18193931746E-01  0.10340129968E+01  0.10343757433E+01  0.51109989000E-03 0.  1.
     -623    1    1    2    0    0  0.10301617653E+00 -0.28842730277E-02  0.32694816361E-02  0.17130003103E+03  0.17130000000E+03 0. -1.
      622    1    1    2    0    0 -0.82546192019E-01 -0.15309658718E-01  0.29627174889E+01  0.29655932254E+01  0.10000000000E+00 0.  0.
</event>
<event>
 5   0  0.6262544E+06  0.9118800E+02  0.7818608E-02  0.1180000E+00
       11   -1    0    0    0    0  0.00000000000E+00  0.00000000000E+00  0.39999999673E+01  0.40000000000E+01  0.51109989000E-03 0. -1.
     -623   -1    0    0    0    0  0.00000000000E+00  0.00000000000E+00  0.12525980253E-10  0.17130000000E+03  0.17130000000E+03 0.  1.
       11    1    1    2    0    0  0.11227370598E-01 -0.98864442916E-02  0.65402872296E-01  0.67093908508E-01  0.51109989000E-03 0. -1.
     -623    1    1    2    0    0  0.50213592356E-02  0.49284142878E-02  0.29994073416E-02  0.17130000017E+03  0.17130000000E+03 0.  1.
      622    1    1    2    0    0 -0.16248729834E-01  0.49580300037E-02  0.39315976878E+01  0.39329059208E+01  0.10000000000E+00 0. -1.
</event>
<event>
 5   0  0.6262544E+06  0.9118800E+02  0.7818608E-02  0.1180000E+00
       11   -1    0    0    0    0  0.00000000000E+00  0.00000000000E+00  0.39999999673E+01  0.40000000000E+01  0.51109989000E-03 0.  1.
     -623   -1    0    0    0    0  0.00000000000E+00  0.00000000000E+00  0.12525980253E-10  0.17130000000E+03  0.17130000000E+03 0.  1.
       11    1    1    2    0    0  0.60508742976E-02 -0.65611863726E-04  0.22779316392E-01  0.23574899004E-01  0.51109989000E-03 0.  1.
     -623    1    1    2    0    0 -0.11821052531E-01 -0.38158664078E-03  0.20577934920E-02  0.17130000042E+03  0.17130000000E+03 0.  1.
      622    1    1    2    0    0  0.57701782331E-02  0.44719850450E-03  0.39751628575E+01  0.39764246804E+01  0.10000000000E+00 0.  1.
</event>
<event>
 5   0  0.6262544E+06  0.9118800E+02  0.7818608E-02  0.1180000E+00
       11   -1    0    0    0    0  0.00000000000E+00  0.00000000000E+00  0.39999999673E+01  0.40000000000E+01  0.51109989000E-03 0.  1.
     -623   -1    0    0    0    0  0.00000000000E+00  0.00000000000E+00  0.12525980253E-10  0.17130000000E+03  0.17130000000E+03 0. -1.
       11    1    1    2    0    0 -0.64985756750E-01  0.28665878820E-01  0.98465793224E+00  0.98721648383E+00  0.51109989000E-03 0.  1.
     -623    1    1    2    0    0  0.33419469303E-02  0.62242442013E-02  0.50520310376E-02  0.17130000022E+03  0.17130000000E+03 0. -1.
      622    1    1    2    0    0  0.61643809819E-01 -0.34890123021E-01  0.30102900041E+01  0.30127832960E+01  0.10000000000E+00 0.  1.
</event>
<event>
 5   0  0.6262544E+06  0.9118800E+02  0.7818608E-02  0.1180000E+00
       11   -1    0    0    0    0  0.00000000000E+00  0.00000000000E+00  0.39999999673E+01  0.40000000000E+01  0.51109989000E-03 0. -1.
     -623   -1    0    0    0    0  0.00000000000E+00  0.00000000000E+00  0.12525980253E-10  0.17130000000E+03  0.17130000000E+03 0. -1.
       11    1    1    2    0    0  0.45308101363E-02 -0.43723286702E-02  0.63718833932E-01  0.64031215195E-01  0.51109989000E-03 0. -1.
     -623    1    1    2    0    0  0.19743361855E-02  0.31005826491E-03  0.15903824149E-02  0.17130000002E+03  0.17130000000E+03 0. -1.
      622    1    1    2    0    0 -0.65051463219E-02  0.40622704053E-02  0.39346907511E+01  0.39359687659E+01  0.10000000000E+00 0. -1.
</event>
<event>
 5   0  0.6262544E+06  0.9118800E+02  0.7818608E-02  0.1180000E+00
       11   -1    0    0    0    0  0.00000000000E+00  0.00000000000E+00  0.39999999673E+01  0.40000000000E+01  0.51109989000E-03 0.  1.
     -623   -1    0    0    0    0  0.00000000000E+00  0.00000000000E+00  0.12525980253E-10  0.17130000000E+03  0.17130000000E+03 0.  1.
       11    1    1    2    0    0  0.23911901321E-01 -0.84992907622E-02  0.49070878168E-02  0.25852614997E-01  0.51109989000E-03 0.  1.
     -623    1    1    2    0    0 -0.17826193924E-01  0.10761564669E-01  0.22211836919E-01  0.17130000271E+03  0.17130000000E+03 0.  1.
      622    1    1    2    0    0 -0.60857073971E-02 -0.22622739069E-02  0.39728810427E+01  0.39741446794E+01  0.10000000000E+00 0.  1.
</event>
<event>
 5   0  0.6262544E+06  0.9118800E+02  0.7818608E-02  0.1180000E+00
       11   -1    0    0    0    0  0.00000000000E+00  0.00000000000E+00  0.39999999673E+01  0.40000000000E+01  0.51109989000E-03 0.  1.
     -623   -1    0    0    0    0  0.00000000000E+00  0.00000000000E+00  0.12525980253E-10  0.17130000000E+03  0.17130000000E+03 0. -1.
       11    1    1    2    0    0  0.65624101543E-02 -0.18065780243E-01  0.57463787700E-01  0.60595261883E-01  0.51109989000E-03 0.  1.
     -623    1    1    2    0    0 -0.31341833790E-01  0.23760475029E-01  0.44875252291E-02  0.17130000457E+03  0.17130000000E+03 0. -1.
      622    1    1    2    0    0  0.24779423636E-01 -0.56946947864E-02  0.39380486544E+01  0.39394001642E+01  0.10000000000E+00 0.  1.
</event>
<event>
 5   0  0.6262544E+06  0.9118800E+02  0.7818608E-02  0.1180000E+00
       11   -1    0    0    0    0  0.00000000000E+00  0.00000000000E+00  0.39999999673E+01  0.40000000000E+01  0.51109989000E-03 0.  1.
     -623   -1    0    0    0    0  0.00000000000E+00  0.00000000000E+00  0.12525980253E-10  0.17130000000E+03  0.17130000000E+03 0.  1.
       11    1    1    2    0    0  0.11769855628E-01  0.68528294315E-02  0.29863046260E+00  0.29894130726E+00  0.51109989000E-03 0.  1.
     -623    1    1    2    0    0 -0.29795659359E-02 -0.24451061028E-01  0.17161010403E-02  0.17130000178E+03  0.17130000000E+03 0.  1.
      622    1    1    2    0    0 -0.87902896919E-02  0.17598231596E-01  0.36996534037E+01  0.37010569132E+01  0.10000000000E+00 0.  1.
</event>
<event>
 5   0  0.6262544E+06  0.9118800E+02  0.7818608E-02  0.1180000E+00
       11   -1    0    0    0    0  0.00000000000E+00  0.00000000000E+00  0.39999999673E+01  0.40000000000E+01  0.51109989000E-03 0.  1.
     -623   -1    0    0    0    0  0.00000000000E+00  0.00000000000E+00  0.12525980253E-10  0.17130000000E+03  0.17130000000E+03 0. -1.
       11    1    1    2    0    0 -0.53661437318E-01 -0.19935738010E-01  0.14329220099E+01  0.14340651070E+01  0.51109989000E-03 0.  1.
     -623    1    1    2    0    0 -0.32495685725E-02  0.60111606736E-02  0.37620957085E-02  0.17130000018E+03  0.17130000000E+03 0. -1.
      622    1    1    2    0    0  0.56911005890E-01  0.13924577337E-01  0.25633158618E+01  0.25659347154E+01  0.10000000000E+00 0.  1.
</event>
<event>
 5   0  0.6262544E+06  0.9118800E+02  0.7818608E-02  0.1180000E+00
       11   -1    0    0    0    0  0.00000000000E+00  0.00000000000E+00  0.39999999673E+01  0.40000000000E+01  0.51109989000E-03 0. -1.
     -623   -1    0    0    0    0  0.00000000000E+00  0.00000000000E+00  0.12525980253E-10  0.17130000000E+03  0.17130000000E+03 0.  1.
       11    1    1    2    0    0  0.29160671785E-02 -0.12005334832E-01  0.66031428111E-01  0.67179180062E-01  0.51109989000E-03 0. -1.
     -623    1    1    2    0    0 -0.87351598671E-02  0.72586474833E-02  0.24268426385E-02  0.17130000039E+03  0.17130000000E+03 0.  1.
      622    1    1    2    0    0  0.58190926887E-02  0.47466873488E-02  0.39315416967E+01  0.39328204263E+01  0.10000000000E+00 0. -1.
</event>
<event>
 5   0  0.6262544E+06  0.9118800E+02  0.7818608E-02  0.1180000E+00
       11   -1    0    0    0    0  0.00000000000E+00  0.00000000000E+00  0.39999999673E+01  0.40000000000E+01  0.51109989000E-03 0. -1.
     -623   -1    0    0    0    0  0.00000000000E+00  0.00000000000E+00  0.12525980253E-10  0.17130000000E+03  0.17130000000E+03 0.  1.
       11    1    1    2    0    0  0.56345531574E-02  0.56922063675E-02  0.15219595401E-01  0.17206007904E-01  0.51109989000E-03 0. -1.
     -623    1    1    2    0    0 -0.54160345673E-02 -0.69620526538E-02  0.32424442471E-02  0.17130000026E+03  0.17130000000E+03 0.  1.
      622    1    1    2    0    0 -0.21851859011E-03  0.12698462863E-02  0.39815379277E+01  0.39827937343E+01  0.10000000000E+00 0. -1.
</event>
<event>
 5   0  0.6262544E+06  0.9118800E+02  0.7818608E-02  0.1180000E+00
       11   -1    0    0    0    0  0.00000000000E+00  0.00000000000E+00  0.39999999673E+01  0.40000000000E+01  0.51109989000E-03 0. -1.
     -623   -1    0    0    0    0  0.00000000000E+00  0.00000000000E+00  0.12525980253E-10  0.17130000000E+03  0.17130000000E+03 0.  1.
       11    1    1    2    0    0 -0.23366918567E-01  0.36945639627E-01  0.38182837511E+00  0.38432299233E+00  0.51109989000E-03 0. -1.
     -623    1    1    2    0    0 -0.32777890455E-02 -0.17898292215E-01  0.40271359325E-02  0.17130000101E+03  0.17130000000E+03 0.  1.
      622    1    1    2    0    0  0.26644707613E-01 -0.19047347412E-01  0.36141444563E+01  0.36156759939E+01  0.10000000000E+00 0. -1.
</event>
<event>
 5   0  0.6262544E+06  0.9118800E+02  0.7818608E-02  0.1180000E+00
       11   -1    0    0    0    0  0.00000000000E+00  0.00000000000E+00  0.39999999673E+01  0.40000000000E+01  0.51109989000E-03 0. -1.
     -623   -1    0    0    0    0  0.00000000000E+00  0.00000000000E+00  0.12525980253E-10  0.17130000000E+03  0.17130000000E+03 0. -1.
       11    1    1    2    0    0  0.46411297119E-02  0.68951644853E-03  0.66336504845E-02  0.81413793271E-02  0.51109989000E-03 0. -1.
     -623    1    1    2    0    0 -0.53910363586E-03  0.97602824233E-02  0.27765338787E-02  0.17130000030E+03  0.17130000000E+03 0. -1.
      622    1    1    2    0    0 -0.41020260760E-02 -0.10449798872E-01  0.39905897830E+01  0.39918583193E+01  0.10000000000E+00 0. -1.
</event>
<event>
 5   0  0.6262544E+06  0.9118800E+02  0.7818608E-02  0.1180000E+00
       11   -1    0    0    0    0  0.00000000000E+00  0.00000000000E+00  0.39999999673E+01  0.40000000000E+01  0.51109989000E-03 0. -1.
     -623   -1    0    0    0    0  0.00000000000E+00  0.00000000000E+00  0.12525980253E-10  0.17130000000E+03  0.17130000000E+03 0.  1.
       11    1    1    2    0    0  0.32839576322E-01  0.13407715614E-01  0.11896929600E+00  0.12414571770E+00  0.51109989000E-03 0. -1.
     -623    1    1    2    0    0 -0.53395314493E-01 -0.30125003066E-01  0.65683352952E-02  0.17130001110E+03  0.17130000000E+03 0.  1.
      622    1    1    2    0    0  0.20555738171E-01  0.16717287453E-01  0.38744623361E+01  0.38758431856E+01  0.10000000000E+00 0. -1.
</event>
<event>
 5   0  0.6262544E+06  0.9118800E+02  0.7818608E-02  0.1180000E+00
       11   -1    0    0    0    0  0.00000000000E+00  0.00000000000E+00  0.39999999673E+01  0.40000000000E+01  0.51109989000E-03 0.  1.
     -623   -1    0    0    0    0  0.00000000000E+00  0.00000000000E+00  0.12525980253E-10  0.17130000000E+03  0.17130000000E+03 0. -1.
       11    1    1    2    0    0  0.14503228241E-01  0.65678653908E-02  0.96866886204E-01  0.98167893688E-01  0.51109989000E-03 0.  1.
     -623    1    1    2    0    0 -0.20143182360E-01  0.11328210928E-01  0.26293464208E-02  0.17130000158E+03  0.17130000000E+03 0. -1.
      622    1    1    2    0    0  0.56399541191E-02 -0.17896076319E-01  0.39005037349E+01  0.39018305274E+01  0.10000000000E+00 0.  1.
</event>
<event>
 5   0  0.6262544E+06  0.9118800E+02  0.7818608E-02  0.1180000E+00
       11   -1    0    0    0    0  0.00000000000E+00  0.00000000000E+00  0.39999999673E+01  0.40000000000E+01  0.51109989000E-03 0. -1.
     -623   -1    0    0    0    0  0.00000000000E+00  0.00000000000E+00  0.12525980253E-10  0.17130000000E+03  0.17130000000E+03 0.  1.
       11    1    1    2    0    0 -0.62837531118E-02 -0.95163117015E-03  0.90647022821E-02  0.11082472827E-01  0.51109989000E-03 0. -1.
     -623    1    1    2    0    0  0.12505000466E-01  0.17103906202E-01  0.33103165752E-02  0.17130000134E+03  0.17130000000E+03 0.  1.
      622    1    1    2    0    0 -0.62212473543E-02 -0.16152275032E-01  0.39876249485E+01  0.39889161849E+01  0.10000000000E+00 0. -1.
</event>
<event>
 5   0  0.6262544E+06  0.9118800E+02  0.7818608E-02  0.1180000E+00
       11   -1    0    0    0    0  0.00000000000E+00  0.00000000000E+00  0.39999999673E+01  0.40000000000E+01  0.51109989000E-03 0.  1.
     -623   -1    0    0    0    0  0.00000000000E+00  0.00000000000E+00  0.12525980253E-10  0.17130000000E+03  0.17130000000E+03 0.  1.
       11    1    1    2    0    0 -0.58283032058E-02  0.10596194642E-01  0.88096781690E-01  0.88924420866E-01  0.51109989000E-03 0.  1.
     -623    1    1    2    0    0  0.27709282441E-02 -0.12478842037E-02  0.21186476287E-02  0.17130000004E+03  0.17130000000E+03 0.  1.
      622    1    1    2    0    0  0.30573749618E-02 -0.93483104382E-02  0.39097845380E+01  0.39110755390E+01  0.10000000000E+00 0.  1.
</event>
<event>
 5   0  0.6262544E+06  0.9118800E+02  0.7818608E-02  0.1180000E+00
       11   -1    0    0    0    0  0.00000000000E+00  0.00000000000E+00  0.39999999673E+01  0.40000000000E+01  0.51109989000E-03 0.  1.
     -623   -1    0    0    0    0  0.00000000000E+00  0.00000000000E+00  0.12525980253E-10  0.17130000000E+03  0.17130000000E+03 0. -1.
       11    1    1    2    0    0 -0.62997999812E-02  0.34875135048E-02  0.27218108575E+00  0.27227679830E+00  0.51109989000E-03 0.  1.
     -623    1    1    2    0    0  0.88306903815E-03  0.12215909433E-02  0.14441477648E-02  0.17130000001E+03  0.17130000000E+03 0. -1.
      622    1    1    2    0    0  0.54167309430E-02 -0.47091044481E-02  0.37263747338E+01  0.37277231890E+01  0.10000000000E+00 0.  1.
</event>
<event>
 5   0  0.6262544E+06  0.9118800E+02  0.7818608E-02  0.1180000E+00
       11   -1    0    0    0    0  0.00000000000E+00  0.00000000000E+00  0.39999999673E+01  0.40000000000E+01  0.51109989000E-03 0.  1.
     -623   -1    0    0    0    0  0.00000000000E+00  0.00000000000E+00  0.12525980253E-10  0.17130000000E+03  0.17130000000E+03 0.  1.
       11    1    1    2    0    0 -0.74795997273E-02  0.80024279539E-02  0.10640319149E+00  0.10696674085E+00  0.51109989000E-03 0.  1.
     -623    1    1    2    0    0  0.10498935182E-01  0.15125916335E-02  0.18612158555E-02  0.17130000034E+03  0.17130000000E+03 0.  1.
      622    1    1    2    0    0 -0.30193354546E-02 -0.95150195874E-02  0.38917355602E+01  0.38930329208E+01  0.10000000000E+00 0.  1.
</event>
<event>
 5   0  0.6262544E+06  0.9118800E+02  0.7818608E-02  0.1180000E+00
       11   -1    0    0    0    0  0.00000000000E+00  0.00000000000E+00  0.39999999673E+01  0.40000000000E+01  0.51109989000E-03 0. -1.
     -623   -1    0    0    0    0  0.00000000000E+00  0.00000000000E+00  0.12525980253E-10  0.17130000000E+03  0.17130000000E+03 0. -1.
       11    1    1    2    0    0  0.56090742529E-02 -0.73649827619E-02  0.45720770490E-01  0.46651417581E-01  0.51109989000E-03 0. -1.
     -623    1    1    2    0    0 -0.43213978309E-02  0.77744775312E-02  0.21960435045E-02  0.17130000025E+03  0.17130000000E+03 0. -1.
      622    1    1    2    0    0 -0.12876764219E-02 -0.40949476947E-03  0.39520831535E+01  0.39533483375E+01  0.10000000000E+00 0. -1.
</event>
<event>
 5   0  0.6262544E+06  0.9118800E+02  0.7818608E-02  0.1180000E+00
       11   -1    0    0    0    0  0.00000000000E+00  0.00000000000E+00  0.39999999673E+01  0.40000000000E+01  0.51109989000E-03 0.  1.
     -623   -1    0    0    0    0  0.00000000000E+00  0.00000000000E+00  0.12525980253E-10  0.17130000000E+03  0.17130000000E+03 0.  1.
       11    1    1    2    0    0 -0.10789161771E-02  0.15009368480E-01  0.79380053288E-01  0.80795416240E-01  0.51109989000E-03 0.  1.
     -623    1    1    2    0    0  0.75811980206E-02 -0.10009949278E-01  0.27003741599E-02  0.17130000048E+03  0.17130000000E+03 0.  1.
      622    1    1    2    0    0 -0.65022818436E-02 -0.49994192018E-02  0.39179195400E+01  0.39192041023E+01  0.10000000000E+00 0.  1.
</event>
<event>
 5   0  0.6262544E+06  0.9118800E+02  0.7818608E-02  0.1180000E+00
       11   -1    0    0    0    0  0.00000000000E+00  0.00000000000E+00  0.39999999673E+01  0.40000000000E+01  0.51109989000E-03 0.  1.
     -623   -1    0    0    0    0  0.00000000000E+00  0.00000000000E+00  0.12525980253E-10  0.17130000000E+03  0.17130000000E+03 0.  1.
       11    1    1    2    0    0  0.80384728104E-02  0.19794859004E-01  0.48371417654E+00  0.48418603790E+00  0.51109989000E-03 0.  1.
     -623    1    1    2    0    0  0.24972950585E-02 -0.26255684050E-02  0.19520443663E-02  0.17130000005E+03  0.17130000000E+03 0.  1.
      622    1    1    2    0    0 -0.10535767869E-01 -0.17169290599E-01  0.35143337465E+01  0.35158139127E+01  0.10000000000E+00 0.  1.
</event>
<event>
 5   0  0.6262544E+06  0.9118800E+02  0.7818608E-02  0.1180000E+00
       11   -1    0    0    0    0  0.00000000000E+00  0.00000000000E+00  0.39999999673E+01  0.40000000000E+01  0.51109989000E-03 0.  1.
     -623   -1    0    0    0    0  0.00000000000E+00  0.00000000000E+00  0.12525980253E-10  0.17130000000E+03  0.17130000000E+03 0. -1.
       11    1    1    2    0    0 -0.68260770419E-02 -0.64009895459E-02  0.61438047853E-01  0.62148716335E-01  0.51109989000E-03 0.  1.
     -623    1    1    2    0    0  0.63948920410E-02  0.81925691466E-02  0.19813267411E-02  0.17130000033E+03  0.17130000000E+03 0. -1.
      622    1    1    2    0    0  0.43118500105E-03 -0.17915796005E-02  0.39365805927E+01  0.39378509568E+01  0.10000000000E+00 0.  1.
</event>
<event>
 5   0  0.6262544E+06  0.9118800E+02  0.7818608E-02  0.1180000E+00
       11   -1    0    0    0    0  0.00000000000E+00  0.00000000000E+00  0.39999999673E+01  0.40000000000E+01  0.51109989000E-03 0.  1.
     -623   -1    0    0    0    0  0.00000000000E+00  0.00000000000E+00  0.12525980253E-10  0.17130000000E+03  0.17130000000E+03 0.  1.
       11    1    1    2    0    0 -0.69472106130E-01 -0.32793437322E-01  0.17492353797E+00  0.19105048657E+00  0.51109989000E-03 0.  1.
     -623    1    1    2    0    0  0.22786925248E-01 -0.71547329280E-03  0.17875964451E-01  0.17130000245E+03  0.17130000000E+03 0.  1.
      622    1    1    2    0    0  0.46685180882E-01  0.33508910615E-01  0.38072004649E+01  0.38089470636E+01  0.10000000000E+00 0.  1.
</event>
<event>
 5   0  0.6262544E+06  0.9118800E+02  0.7818608E-02  0.1180000E+00
       11   -1    0    0    0    0  0.00000000000E+00  0.00000000000E+00  0.39999999673E+01  0.40000000000E+01  0.51109989000E-03 0. -1.
     -623   -1    0    0    0    0  0.00000000000E+00  0.00000000000E+00  0.12525980253E-10  0.17130000000E+03  0.17130000000E+03 0. -1.
       11    1    1    2    0    0 -0.16231684545E-01  0.12432577500E-01  0.97280606542E+00  0.97302103714E+00  0.51109989000E-03 0. -1.
     -623    1    1    2    0    0 -0.29374222163E-02  0.18381096060E-02  0.19616374202E-02  0.17130000005E+03  0.17130000000E+03 0. -1.
      622    1    1    2    0    0  0.19169106761E-01 -0.14270687106E-01  0.30252322643E+01  0.30269789164E+01  0.10000000000E+00 0. -1.
</event>
<event>
 5   0  0.6262544E+06  0.9118800E+02  0.7818608E-02  0.1180000E+00
       11   -1    0    0    0    0  0.00000000000E+00  0.00000000000E+00  0.39999999673E+01  0.40000000000E+01  0.51109989000E-03 0. -1.
     -623   -1    0    0    0    0  0.00000000000E+00  0.00000000000E+00  0.12525980253E-10  0.17130000000E+03  0.17130000000E+03 0.  1.
       11    1    1    2    0    0  0.12989560120E-01 -0.21924917119E-02  0.60294241212E+00  0.60308651888E+00  0.51109989000E-03 0. -1.
     -623    1    1    2    0    0  0.59792728111E-02  0.12387722851E-02  0.16695542315E-02  0.17130000012E+03  0.17130000000E+03 0.  1.
      622    1    1    2    0    0 -0.18968832931E-01  0.95371942688E-03  0.33953880010E+01  0.33969133642E+01  0.10000000000E+00 0. -1.
</event>
<event>
 5   0  0.6262544E+06  0.9118800E+02  0.7818608E-02  0.1180000E+00
       11   -1    0    0    0    0  0.00000000000E+00  0.00000000000E+00  0.39999999673E+01  0.40000000000E+01  0.51109989000E-03 0.  1.
     -623   -1    0    0    0    0  0.00000000000E+00  0.00000000000E+00  0.12525980253E-10  0.17130000000E+03  0.17130000000E+03 0.  1.
       11    1    1    2    0    0  0.29146654027E-02  0.65188127887E-02  0.12516994488E+00  0.12537450506E+00  0.51109989000E-03 0.  1.
     -623    1    1    2    0    0  0.60825199800E-02 -0.81844206922E-02  0.15063077397E-02  0.17130000031E+03  0.17130000000E+03 0.  1.
      622    1    1    2    0    0 -0.89971853831E-02  0.16656079040E-02  0.38733237150E+01  0.38746251851E+01  0.10000000000E+00 0.  1.
</event>
<event>
 5   0  0.6262544E+06  0.9118800E+02  0.7818608E-02  0.1180000E+00
       11   -1    0    0    0    0  0.00000000000E+00  0.00000000000E+00  0.39999999673E+01  0.40000000000E+01  0.51109989000E-03 0. -1.
     -623   -1    0    0    0    0  0.00000000000E+00  0.00000000000E+00  0.12525980253E-10  0.17130000000E+03  0.17130000000E+03 0. -1.
       11    1    1    2    0    0  0.10490622976E-01 -0.10005135600E-01  0.35936254830E-01  0.38753471368E-01  0.51109989000E-03 0. -1.
     -623    1    1    2    0    0  0.80760753517E-02  0.81767834388E-02  0.41239973591E-02  0.17130000044E+03  0.17130000000E+03 0. -1.
      622    1    1    2    0    0 -0.18566698328E-01  0.18283521608E-02  0.39599397153E+01  0.39612460935E+01  0.10000000000E+00 0. -1.
</event>
<event>
 5   0  0.6262544E+06  0.9118800E+02  0.7818608E-02  0.1180000E+00
       11   -1    0    0    0    0  0.00000000000E+00  0.00000000000E+00  0.39999999673E+01  0.40000000000E+01  0.51109989000E-03 0. -1.
     -623   -1    0    0    0    0  0.00000000000E+00  0.00000000000E+00  0.12525980253E-10  0.17130000000E+03  0.17130000000E+03 0.  1.
       11    1    1    2    0    0 -0.29886216574E-01  0.14836595125E+00  0.18250841856E+01  0.18313487345E+01  0.51109989000E-03 0. -1.
     -623    1    1    2    0    0 -0.63557718054E-02 -0.47924658087E-02  0.13638768747E-01  0.17130000073E+03  0.17130000000E+03 0.  1.
      622    1    1    2    0    0  0.36241988380E-01 -0.14357348544E+00  0.21612770130E+01  0.21686505376E+01  0.10000000000E+00 0. -1.
</event>
<event>
 5   0  0.6262544E+06  0.9118800E+02  0.7818608E-02  0.1180000E+00
       11   -1    0    0    0    0  0.00000000000E+00  0.00000000000E+00  0.39999999673E+01  0.40000000000E+01  0.51109989000E-03 0. -1.
     -623   -1    0    0    0    0  0.00000000000E+00  0.00000000000E+00  0.12525980253E-10  0.17130000000E+03  0.17130000000E+03 0.  1.
       11    1    1    2    0    0 -0.13861661944E-02  0.13496077309E-03  0.42288744014E-01  0.42314758214E-01  0.51109989000E-03 0. -1.
     -623    1    1    2    0    0  0.35830379227E-02  0.18645388945E-01  0.13357892680E-02  0.17130000106E+03  0.17130000000E+03 0.  1.
      622    1    1    2    0    0 -0.21968717282E-02 -0.18780349718E-01  0.39563754341E+01  0.39576841844E+01  0.10000000000E+00 0. -1.
</event>
<event>
 5   0  0.6262544E+06  0.9118800E+02  0.7818608E-02  0.1180000E+00
       11   -1    0    0    0    0  0.00000000000E+00  0.00000000000E+00  0.39999999673E+01  0.40000000000E+01  0.51109989000E-03 0.  1.
     -623   -1    0    0    0    0  0.00000000000E+00  0.00000000000E+00  0.12525980253E-10  0.17130000000E+03  0.17130000000E+03 0. -1.
       11    1    1    2    0    0 -0.73444054381E-01  0.52179405603E-01  0.63253893030E+00  0.63892290542E+00  0.51109989000E-03 0.  1.
     -623    1    1    2    0    0  0.80271564416E-02  0.24913972802E-02  0.89542246069E-02  0.17130000044E+03  0.17130000000E+03 0. -1.
      622    1    1    2    0    0  0.65416897940E-01 -0.54670802883E-01  0.33585068124E+01  0.33610766544E+01  0.10000000000E+00 0.  1.
</event>
<event>
 5   0  0.6262544E+06  0.9118800E+02  0.7818608E-02  0.1180000E+00
       11   -1    0    0    0    0  0.00000000000E+00  0.00000000000E+00  0.39999999673E+01  0.40000000000E+01  0.51109989000E-03 0. -1.
     -623   -1    0    0    0    0  0.00000000000E+00  0.00000000000E+00  0.12525980253E-10  0.17130000000E+03  0.17130000000E+03 0.  1.
       11    1    1    2    0    0 -0.14440500453E-01  0.59382676739E-02  0.70500324910E-01  0.72210443232E-01  0.51109989000E-03 0. -1.
     -623    1    1    2    0    0  0.40348325749E-02 -0.11108819843E-01  0.30008992519E-02  0.17130000043E+03  0.17130000000E+03 0.  1.
      622    1    1    2    0    0  0.10405667878E-01  0.51705521688E-02  0.39264987433E+01  0.39277891228E+01  0.10000000000E+00 0. -1.
</event>
<event>
 5   0  0.6262544E+06  0.9118800E+02  0.7818608E-02  0.1180000E+00
       11   -1    0    0    0    0  0.00000000000E+00  0.00000000000E+00  0.39999999673E+01  0.40000000000E+01  0.51109989000E-03 0. -1.
     -623   -1    0    0    0    0  0.00000000000E+00  0.00000000000E+00  0.12525980253E-10  0.17130000000E+03  0.17130000000E+03 0.  1.
       11    1    1    2    0    0  0.17921312181E-01  0.15738915788E-01  0.45609542681E+00  0.45671893598E+00  0.51109989000E-03 0. -1.
     -623    1    1    2    0    0 -0.22939524951E-01 -0.97565218287E-02  0.20453131168E-02  0.17130000183E+03  0.17130000000E+03 0.  1.
      622    1    1    2    0    0  0.50182127691E-02 -0.59823939600E-02  0.35418592273E+01  0.35432792379E+01  0.10000000000E+00 0. -1.
</event>
<event>
 5   0  0.6262544E+06  0.9118800E+02  0.7818608E-02  0.1180000E+00
       11   -1    0    0    0    0  0.00000000000E+00  0.00000000000E+00  0.39999999673E+01  0.40000000000E+01  0.51109989000E-03 0. -1.
     -623   -1    0    0    0    0  0.00000000000E+00  0.00000000000E+00  0.12525980253E-10  0.17130000000E+03  0.17130000000E+03 0.  1.
       11    1    1    2    0    0 -0.24813555496E-02 -0.24725596389E-02  0.20719661621E+00  0.20722685556E+00  0.51109989000E-03 0. -1.
     -623    1    1    2    0    0  0.14066574587E-02 -0.32469634591E-01  0.15129935154E-02  0.17130000309E+03  0.17130000000E+03 0.  1.
      622    1    1    2    0    0  0.10746980909E-02  0.34942194230E-01  0.37912903576E+01  0.37927700547E+01  0.10000000000E+00 0. -1.
</event>
<event>
 5   0  0.6262544E+06  0.9118800E+02  0.7818608E-02  0.1180000E+00
       11   -1    0    0    0    0  0.00000000000E+00  0.00000000000E+00  0.39999999673E+01  0.40000000000E+01  0.51109989000E-03 0. -1.
     -623   -1    0    0    0    0  0.00000000000E+00  0.00000000000E+00  0.12525980253E-10  0.17130000000E+03  0.17130000000E+03 0.  1.
       11    1    1    2    0    0 -0.12650342652E-01 -0.50427048857E-02  0.30222351004E+00  0.30253061215E+00  0.51109989000E-03 0. -1.
     -623    1    1    2    0    0 -0.78415584777E-03  0.36810701862E-02  0.16843092086E-02  0.17130000005E+03  0.17130000000E+03 0.  1.
      622    1    1    2    0    0  0.13434498500E-01  0.13616346992E-02  0.36960921484E+01  0.36974693385E+01  0.10000000000E+00 0. -1.
</event>
<event>
 5   0  0.6262544E+06  0.9118800E+02  0.7818608E-02  0.1180000E+00
       11   -1    0    0    0    0  0.00000000000E+00  0.00000000000E+00  0.39999999673E+01  0.40000000000E+01  0.51109989000E-03 0. -1.
     -623   -1    0    0    0    0  0.00000000000E+00  0.00000000000E+00  0.12525980253E-10  0.17130000000E+03  0.17130000000E+03 0. -1.
       11    1    1    2    0    0 -0.42455363221E-02 -0.15675295765E-01  0.58333846565E+00  0.58356470610E+00  0.51109989000E-03 0. -1.
     -623    1    1    2    0    0 -0.24528720027E-02  0.22075838565E-02  0.17232016725E-02  0.17130000004E+03  0.17130000000E+03 0. -1.
      622    1    1    2    0    0  0.66984083248E-02  0.13467711909E-01  0.34149383000E+01  0.34164352534E+01  0.10000000000E+00 0. -1.
</event>
<event>
 5   0  0.6262544E+06  0.9118800E+02  0.7818608E-02  0.1180000E+00
       11   -1    0    0    0    0  0.00000000000E+00  0.00000000000E+00  0.39999999673E+01  0.40000000000E+01  0.51109989000E-03 0. -1.
     -623   -1    0    0    0    0  0.00000000000E+00  0.00000000000E+00  0.12525980253E-10  0.17130000000E+03  0.17130000000E+03 0. -1.
       11    1    1    2    0    0  0.14991849489E-03  0.10140685476E-01  0.50583108895E-02  0.11344765674E-01  0.51109989000E-03 0. -1.
     -623    1    1    2    0    0  0.75358285460E-02 -0.10257422100E-01  0.75482227672E-02  0.17130000064E+03  0.17130000000E+03 0. -1.
      622    1    1    2    0    0 -0.76857470409E-02  0.11673662371E-03  0.39873934337E+01  0.39886545952E+01  0.10000000000E+00 0. -1.
</event>
<event>
 5   0  0.6262544E+06  0.9118800E+02  0.7818608E-02  0.1180000E+00
       11   -1    0    0    0    0  0.00000000000E+00  0.00000000000E+00  0.39999999673E+01  0.40000000000E+01  0.51109989000E-03 0.  1.
     -623   -1    0    0    0    0  0.00000000000E+00  0.00000000000E+00  0.12525980253E-10  0.17130000000E+03  0.17130000000E+03 0. -1.
       11    1    1    2    0    0  0.63432487956E-02  0.73741209846E-02  0.10749143162E+00  0.10793184682E+00  0.51109989000E-03 0.  1.
     -623    1    1    2    0    0 -0.27717999289E-02 -0.36672240470E-02  0.17287341213E-02  0.17130000007E+03  0.17130000000E+03 0. -1.
      622    1    1    2    0    0 -0.35714488667E-02 -0.37068969377E-02  0.38907798016E+01  0.38920680828E+01  0.10000000000E+00 0.  1.
</event>
<event>
 5   0  0.6262544E+06  0.9118800E+02  0.7818608E-02  0.1180000E+00
       11   -1    0    0    0    0  0.00000000000E+00  0.00000000000E+00  0.39999999673E+01  0.40000000000E+01  0.51109989000E-03 0.  1.
     -623   -1    0    0    0    0  0.00000000000E+00  0.00000000000E+00  0.12525980253E-10  0.17130000000E+03  0.17130000000E+03 0. -1.
       11    1    1    2    0    0  0.65904336778E-03  0.74229025925E-02  0.38212228851E-02  0.83902794050E-02  0.51109989000E-03 0.  1.
     -623    1    1    2    0    0  0.48778604174E-02  0.22568553365E-02  0.58376137770E-02  0.17130000018E+03  0.17130000000E+03 0. -1.
      622    1    1    2    0    0 -0.55369037853E-02 -0.96797579290E-02  0.39903411308E+01  0.39916095369E+01  0.10000000000E+00 0.  1.
</event>
<event>
 5   0  0.6262544E+06  0.9118800E+02  0.7818608E-02  0.1180000E+00
       11   -1    0    0    0    0  0.00000000000E+00  0.00000000000E+00  0.39999999673E+01  0.40000000000E+01  0.51109989000E-03 0. -1.
     -623   -1    0    0    0    0  0.00000000000E+00  0.00000000000E+00  0.12525980253E-10  0.17130000000E+03  0.17130000000E+03 0.  1.
       11    1    1    2    0    0  0.31227211466E-03 -0.16601118110E-02  0.74500698672E-03  0.19156574867E-02  0.51109989000E-03 0. -1.
     -623    1    1    2    0    0  0.11551940066E-02 -0.97841242558E-03  0.24225765826E-02  0.17130000002E+03  0.17130000000E+03 0.  1.
      622    1    1    2    0    0 -0.14674661213E-02  0.26385242366E-02  0.39968323838E+01  0.39980843187E+01  0.10000000000E+00 0. -1.
</event>
<event>
 5   0  0.6262544E+06  0.9118800E+02  0.7818608E-02  0.1180000E+00
       11   -1    0    0    0    0  0.00000000000E+00  0.00000000000E+00  0.39999999673E+01  0.40000000000E+01  0.51109989000E-03 0. -1.
     -623   -1    0    0    0    0  0.00000000000E+00  0.00000000000E+00  0.12525980253E-10  0.17130000000E+03  0.17130000000E+03 0. -1.
       11    1    1    2    0    0 -0.28468866502E-01  0.16193246658E-02  0.74705668856E-01  0.79964346768E-01  0.51109989000E-03 0. -1.
     -623    1    1    2    0    0  0.29198166697E-01  0.14320017172E-01  0.65700496879E-02  0.17130000321E+03  0.17130000000E+03 0. -1.
      622    1    1    2    0    0 -0.72930019439E-03 -0.15939341838E-01  0.39187242488E+01  0.39200324403E+01  0.10000000000E+00 0. -1.
</event>
<event>
 5   0  0.6262544E+06  0.9118800E+02  0.7818608E-02  0.1180000E+00
       11   -1    0    0    0    0  0.00000000000E+00  0.00000000000E+00  0.39999999673E+01  0.40000000000E+01  0.51109989000E-03 0. -1.
     -623   -1    0    0    0    0  0.00000000000E+00  0.00000000000E+00  0.12525980253E-10  0.17130000000E+03  0.17130000000E+03 0.  1.
       11    1    1    2    0    0  0.28155356080E-02 -0.17949554554E-01  0.12497318627E+00  0.12628805272E+00  0.51109989000E-03 0. -1.
     -623    1    1    2    0    0 -0.13502458557E-01  0.12663804001E-01  0.26251753959E-02  0.17130000102E+03  0.17130000000E+03 0.  1.
      622    1    1    2    0    0  0.10686922950E-01  0.52857505523E-02  0.38724016058E+01  0.38737109270E+01  0.10000000000E+00 0. -1.
</event>
<event>
 5   0  0.6262544E+06  0.9118800E+02  0.7818608E-02  0.1180000E+00
       11   -1    0    0    0    0  0.00000000000E+00  0.00000000000E+00  0.39999999673E+01  0.40000000000E+01  0.51109989000E-03 0. -1.
     -623   -1    0    0    0    0  0.00000000000E+00  0.00000000000E+00  0.12525980253E-10  0.17130000000E+03  0.17130000000E+03 0. -1.
       11    1    1    2    0    0  0.25119605286E-01 -0.26675904438E-01  0.54271209841E-01  0.65484531653E-01  0.51109989000E-03 0. -1.
     -623    1    1    2    0    0  0.45384599390E-04  0.24189288681E-01  0.12567758603E-01  0.17130000217E+03  0.17130000000E+03 0. -1.
      622    1    1    2    0    0 -0.25164989886E-01  0.24866157563E-02  0.39331609989E+01  0.39345132994E+01  0.10000000000E+00 0. -1.
</event>
<event>
 5   0  0.6262544E+06  0.9118800E+02  0.7818608E-02  0.1180000E+00
       11   -1    0    0    0    0  0.00000000000E+00  0.00000000000E+00  0.39999999673E+01  0.40000000000E+01  0.51109989000E-03 0. -1.
     -623   -1    0    0    0    0  0.00000000000E+00  0.00000000000E+00  0.12525980253E-10  0.17130000000E+03  0.17130000000E+03 0.  1.
       11    1    1    2    0    0  0.17931418744E-01  0.74087857005E-01  0.12793315920E+01  0.12816006124E+01  0.51109989000E-03 0. -1.
     -623    1    1    2    0    0 -0.43023769839E-01 -0.16716691038E-01  0.48370159209E-02  0.17130000629E+03  0.17130000000E+03 0.  1.
      622    1    1    2    0    0  0.25092351095E-01 -0.57371165968E-01  0.27158313595E+01  0.27183931007E+01  0.10000000000E+00 0. -1.
</event>
<event>
 5   0  0.6262544E+06  0.9118800E+02  0.7818608E-02  0.1180000E+00
       11   -1    0    0    0    0  0.00000000000E+00  0.00000000000E+00  0.39999999673E+01  0.40000000000E+01  0.51109989000E-03 0.  1.
     -623   -1    0    0    0    0  0.00000000000E+00  0.00000000000E+00  0.12525980253E-10  0.17130000000E+03  0.17130000000E+03 0.  1.
       11    1    1    2    0    0  0.19288842341E-01  0.63447631530E-03  0.43397204495E-01  0.47497795505E-01  0.51109989000E-03 0.  1.
     -623    1    1    2    0    0 -0.53501519117E-02  0.36661279584E-02  0.53929161713E-02  0.17130000021E+03  0.17130000000E+03 0.  1.
      622    1    1    2    0    0 -0.13938690430E-01 -0.43006042737E-02  0.39512098467E+01  0.39525019968E+01  0.10000000000E+00 0.  1.
</event>
<event>
 5   0  0.6262544E+06  0.9118800E+02  0.7818608E-02  0.1180000E+00
       11   -1    0    0    0    0  0.00000000000E+00  0.00000000000E+00  0.39999999673E+01  0.40000000000E+01  0.51109989000E-03 0.  1.
     -623   -1    0    0    0    0  0.00000000000E+00  0.00000000000E+00  0.12525980253E-10  0.17130000000E+03  0.17130000000E+03 0.  1.
       11    1    1    2    0    0  0.47987346539E-02  0.56015366395E-02  0.15989142350E+00  0.16006228037E+00  0.51109989000E-03 0.  1.
     -623    1    1    2    0    0  0.34046673188E-02  0.12323621145E-02  0.14880430651E-02  0.17130000004E+03  0.17130000000E+03 0.  1.
      622    1    1    2    0    0 -0.82034019727E-02 -0.68338987540E-02  0.38386205008E+01  0.38399376749E+01  0.10000000000E+00 0.  1.
</event>
<event>
 5   0  0.6262544E+06  0.9118800E+02  0.7818608E-02  0.1180000E+00
       11   -1    0    0    0    0  0.00000000000E+00  0.00000000000E+00  0.39999999673E+01  0.40000000000E+01  0.51109989000E-03 0. -1.
     -623   -1    0    0    0    0  0.00000000000E+00  0.00000000000E+00  0.12525980253E-10  0.17130000000E+03  0.17130000000E+03 0.  1.
       11    1    1    2    0    0 -0.17503401801E-01  0.51597089347E-02  0.15909822705E+00  0.16014212046E+00  0.51109989000E-03 0. -1.
     -623    1    1    2    0    0  0.18203881599E-01 -0.24495828406E-01  0.23977151473E-02  0.17130000274E+03  0.17130000000E+03 0.  1.
      622    1    1    2    0    0 -0.70047979897E-03  0.19336119473E-01  0.38385040253E+01  0.38398551442E+01  0.10000000000E+00 0. -1.
</event>
<event>
 5   0  0.6262544E+06  0.9118800E+02  0.7818608E-02  0.1180000E+00
       11   -1    0    0    0    0  0.00000000000E+00  0.00000000000E+00  0.39999999673E+01  0.40000000000E+01  0.51109989000E-03 0.  1.
     -623   -1    0    0    0    0  0.00000000000E+00  0.00000000000E+00  0.12525980253E-10  0.17130000000E+03  0.17130000000E+03 0.  1.
       11    1    1    2    0    0 -0.51593742750E-01 -0.20432697926E-01  0.10824796252E+01  0.10839011992E+01  0.51109989000E-03 0.  1.
     -623    1    1    2    0    0 -0.12816084929E-01 -0.15814600462E-01  0.40752359192E-02  0.17130000126E+03  0.17130000000E+03 0.  1.
      622    1    1    2    0    0  0.64409827679E-01  0.36247298388E-01  0.29134451062E+01  0.29160975429E+01  0.10000000000E+00 0.  1.
</event>
<event>
 5   0  0.6262544E+06  0.9118800E+02  0.7818608E-02  0.1180000E+00
       11   -1    0    0    0    0  0.00000000000E+00  0.00000000000E+00  0.39999999673E+01  0.40000000000E+01  0.51109989000E-03 0.  1.
     -623   -1    0    0    0    0  0.00000000000E+00  0.00000000000E+00  0.12525980253E-10  0.17130000000E+03  0.17130000000E+03 0.  1.
       11    1    1    2    0    0  0.45379084850E-01 -0.31594286173E-01  0.56085194091E+00  0.56357130969E+00  0.51109989000E-03 0.  1.
     -623    1    1    2    0    0 -0.76496227488E-03  0.14682381148E-01  0.45067107716E-02  0.17130000069E+03  0.17130000000E+03 0.  1.
      622    1    1    2    0    0 -0.44614122575E-01  0.16911905025E-01  0.34346413157E+01  0.34364280002E+01  0.10000000000E+00 0.  1.
</event>
<event>
 5   0  0.6262544E+06  0.9118800E+02  0.7818608E-02  0.1180000E+00
       11   -1    0    0    0    0  0.00000000000E+00  0.00000000000E+00  0.39999999673E+01  0.40000000000E+01  0.51109989000E-03 0. -1.
     -623   -1    0    0    0    0  0.00000000000E+00  0.00000000000E+00  0.12525980253E-10  0.17130000000E+03  0.17130000000E+03 0.  1.
       11    1    1    2    0    0  0.18544755787E-01 -0.34224567031E-02  0.31939770294E+00  0.31995433274E+00  0.51109989000E-03 0. -1.
     -623    1    1    2    0    0  0.11742262918E-02 -0.60767993562E-02  0.19807655802E-02  0.17130000012E+03  0.17130000000E+03 0.  1.
      622    1    1    2    0    0 -0.19718982079E-01  0.94992560595E-02  0.36786214990E+01  0.36800455441E+01  0.10000000000E+00 0. -1.
</event>
<event>
 5   0  0.6262544E+06  0.9118800E+02  0.7818608E-02  0.1180000E+00
       11   -1    0    0    0    0  0.00000000000E+00  0.00000000000E+00  0.39999999673E+01  0.40000000000E+01  0.51109989000E-03 0. -1.
     -623   -1    0    0    0    0  0.00000000000E+00  0.00000000000E+00  0.12525980253E-10  0.17130000000E+03  0.17130000000E+03 0. -1.
       11    1    1    2    0    0  0.12661711707E-01 -0.13804045277E-01  0.83780673662E-02  0.20526174638E-01  0.51109989000E-03 0. -1.
     -623    1    1    2    0    0  0.14245981016E-01 -0.17720790665E-02  0.13527350024E-01  0.17130000114E+03  0.17130000000E+03 0. -1.
      622    1    1    2    0    0 -0.26907692724E-01  0.15576124344E-01  0.39780945500E+01  0.39794726897E+01  0.10000000000E+00 0. -1.
</event>
<event>
 5   0  0.6262544E+06  0.9118800E+02  0.7818608E-02  0.1180000E+00
       11   -1    0    0    0    0  0.00000000000E+00  0.00000000000E+00  0.39999999673E+01  0.40000000000E+01  0.51109989000E-03 0. -1.
     -623   -1    0    0    0    0  0.00000000000E+00  0.00000000000E+00  0.12525980253E-10  0.17130000000E+03  0.17130000000E+03 0. -1.
       11    1    1    2    0    0  0.27184827763E-01 -0.84184198902E-02  0.28734354867E-01  0.40445136007E-01  0.51109989000E-03 0. -1.
     -623    1    1    2    0    0  0.15715110924E-02 -0.25389021189E-01  0.13224954387E-01  0.17130000240E+03  0.17130000000E+03 0. -1.
      622    1    1    2    0    0 -0.28756338855E-01  0.33807441079E-01  0.39580406581E+01  0.39595524648E+01  0.10000000000E+00 0. -1.
</event>
<event>
 5   0  0.6262544E+06  0.9118800E+02  0.7818608E-02  0.1180000E+00
       11   -1    0    0    0    0  0.00000000000E+00  0.00000000000E+00  0.39999999673E+01  0.40000000000E+01  0.51109989000E-03 0.  1.
     -623   -1    0    0    0    0  0.00000000000E+00  0.00000000000E+00  0.12525980253E-10  0.17130000000E+03  0.17130000000E+03 0. -1.
       11    1    1    2    0    0  0.75655489544E-02 -0.17562441060E-01  0.10773290190E+00  0.10941808004E+00  0.51109989000E-03 0.  1.
     -623    1    1    2    0    0 -0.68290380632E-02 -0.71252300817E-02  0.30492483492E-02  0.17130000031E+03  0.17130000000E+03 0. -1.
      622    1    1    2    0    0 -0.73651089119E-03  0.24687671142E-01  0.38892178171E+01  0.38905816085E+01  0.10000000000E+00 0.  1.
</event>
<event>
 5   0  0.6262544E+06  0.9118800E+02  0.7818608E-02  0.1180000E+00
       11   -1    0    0    0    0  0.00000000000E+00  0.00000000000E+00  0.39999999673E+01  0.40000000000E+01  0.51109989000E-03 0.  1.
     -623   -1    0    0    0    0  0.00000000000E+00  0.00000000000E+00  0.12525980253E-10  0.17130000000E+03  0.17130000000E+03 0. -1.
       11    1    1    2    0    0 -0.23893206929E-01  0.35800308487E-02  0.65050349094E+00  0.65095219095E+00  0.51109989000E-03 0.  1.
     -623    1    1    2    0    0 -0.35826998187E-02  0.56299873410E-02  0.20675342035E-02  0.17130000014E+03  0.17130000000E+03 0. -1.
      622    1    1    2    0    0  0.27475906748E-01 -0.92100181897E-02  0.33474289422E+01  0.33490476666E+01  0.10000000000E+00 0.  1.
</event>
<event>
 5   0  0.6262544E+06  0.9118800E+02  0.7818608E-02  0.1180000E+00
       11   -1    0    0    0    0  0.00000000000E+00  0.00000000000E+00  0.39999999673E+01  0.40000000000E+01  0.51109989000E-03 0. -1.
     -623   -1    0    0    0    0  0.00000000000E+00  0.00000000000E+00  0.12525980253E-10  0.17130000000E+03  0.17130000000E+03 0.  1.
       11    1    1    2    0    0  0.13392174839E+00 -0.40063420835E-01  0.79613494630E+00  0.80831381674E+00  0.51109989000E-03 0. -1.
     -623    1    1    2    0    0 -0.15668123670E+00 -0.15652715454E-01  0.14386600745E-01  0.17130007297E+03  0.17130000000E+03 0.  1.
      622    1    1    2    0    0  0.22759488306E-01  0.55716136290E-01  0.31894784203E+01  0.31916132090E+01  0.10000000000E+00 0. -1.
</event>
<event>
 5   0  0.6262544E+06  0.9118800E+02  0.7818608E-02  0.1180000E+00
       11   -1    0    0    0    0  0.00000000000E+00  0.00000000000E+00  0.39999999673E+01  0.40000000000E+01  0.51109989000E-03 0. -1.
     -623   -1    0    0    0    0  0.00000000000E+00  0.00000000000E+00  0.12525980253E-10  0.17130000000E+03  0.17130000000E+03 0. -1.
       11    1    1    2    0    0 -0.18366069987E-01  0.10784174343E-01  0.18758460201E+00  0.18879050579E+00  0.51109989000E-03 0. -1.
     -623    1    1    2    0    0 -0.35840961724E-02 -0.12952006196E-02  0.25931272935E-02  0.17130000006E+03  0.17130000000E+03 0. -1.
      622    1    1    2    0    0  0.21950166160E-01 -0.94889737230E-02  0.38098222382E+01  0.38112094323E+01  0.10000000000E+00 0. -1.
</event>
<event>
 5   0  0.6262544E+06  0.9118800E+02  0.7818608E-02  0.1180000E+00
       11   -1    0    0    0    0  0.00000000000E+00  0.00000000000E+00  0.39999999673E+01  0.40000000000E+01  0.51109989000E-03 0.  1.
     -623   -1    0    0    0    0  0.00000000000E+00  0.00000000000E+00  0.12525980253E-10  0.17130000000E+03  0.17130000000E+03 0. -1.
       11    1    1    2    0    0  0.30798020887E-01  0.15594633871E+00  0.11360475936E+01  0.11471147174E+01  0.51109989000E-03 0.  1.
     -623    1    1    2    0    0 -0.19233782652E-01 -0.65628442812E-02  0.16761878151E-01  0.17130000203E+03  0.17130000000E+03 0. -1.
      622    1    1    2    0    0 -0.11564238235E-01 -0.14938349442E+00  0.28471904956E+01  0.28528832570E+01  0.10000000000E+00 0.  1.
</event>
<event>
 5   0  0.6262544E+06  0.9118800E+02  0.7818608E-02  0.1180000E+00
       11   -1    0    0    0    0  0.00000000000E+00  0.00000000000E+00  0.39999999673E+01  0.40000000000E+01  0.51109989000E-03 0. -1.
     -623   -1    0    0    0    0  0.00000000000E+00  0.00000000000E+00  0.12525980253E-10  0.17130000000E+03  0.17130000000E+03 0. -1.
       11    1    1    2    0    0  0.14853590572E-01 -0.24085867403E-02  0.65313013682E+00  0.65330365626E+00  0.51109989000E-03 0. -1.
     -623    1    1    2    0    0 -0.56575042209E-01  0.60569470120E-02  0.19394719146E-02  0.17130000946E+03  0.17130000000E+03 0. -1.
      622    1    1    2    0    0  0.41721451638E-01 -0.36483602717E-02  0.33449303586E+01  0.33466868832E+01  0.10000000000E+00 0. -1.
</event>
<event>
 5   0  0.6262544E+06  0.9118800E+02  0.7818608E-02  0.1180000E+00
       11   -1    0    0    0    0  0.00000000000E+00  0.00000000000E+00  0.39999999673E+01  0.40000000000E+01  0.51109989000E-03 0. -1.
     -623   -1    0    0    0    0  0.00000000000E+00  0.00000000000E+00  0.12525980253E-10  0.17130000000E+03  0.17130000000E+03 0. -1.
       11    1    1    2    0    0 -0.22256818648E-01  0.39521828351E-02  0.16139506731E+00  0.16297120818E+00  0.51109989000E-03 0. -1.
     -623    1    1    2    0    0 -0.18678078576E-03  0.40644281263E-02  0.29535340114E-02  0.17130000007E+03  0.17130000000E+03 0. -1.
      622    1    1    2    0    0  0.22443599433E-01 -0.80166109614E-02  0.38356513660E+01  0.38370287180E+01  0.10000000000E+00 0. -1.
</event>
<event>
 5   0  0.6262544E+06  0.9118800E+02  0.7818608E-02  0.1180000E+00
       11   -1    0    0    0    0  0.00000000000E+00  0.00000000000E+00  0.39999999673E+01  0.40000000000E+01  0.51109989000E-03 0.  1.
     -623   -1    0    0    0    0  0.00000000000E+00  0.00000000000E+00  0.12525980253E-10  0.17130000000E+03  0.17130000000E+03 0.  1.
       11    1    1    2    0    0 -0.13996530526E-02 -0.23253113344E-02 -0.44749773657E-03  0.27977810478E-02  0.51109989000E-03 0.  1.
     -623    1    1    2    0    0 -0.11224265989E-02  0.30520612696E-03  0.44976863986E-02  0.17130000006E+03  0.17130000000E+03 0.  1.
      622    1    1    2    0    0  0.25220796515E-02  0.20201052075E-02  0.39959497786E+01  0.39972021559E+01  0.10000000000E+00 0.  1.
</event>
<event>
 5   0  0.6262544E+06  0.9118800E+02  0.7818608E-02  0.1180000E+00
       11   -1    0    0    0    0  0.00000000000E+00  0.00000000000E+00  0.39999999673E+01  0.40000000000E+01  0.51109989000E-03 0. -1.
     -623   -1    0    0    0    0  0.00000000000E+00  0.00000000000E+00  0.12525980253E-10  0.17130000000E+03  0.17130000000E+03 0. -1.
       11    1    1    2    0    0  0.48871651022E-01  0.46784884958E-01  0.20732471659E+01  0.20743508228E+01  0.51109989000E-03 0. -1.
     -623    1    1    2    0    0 -0.96306767694E-02 -0.15822472458E-01  0.43526977172E-02  0.17130000106E+03  0.17130000000E+03 0. -1.
      622    1    1    2    0    0 -0.39240974253E-01 -0.30962412500E-01  0.19224001037E+01  0.19256481205E+01  0.10000000000E+00 0.  0.
</event>
<event>
 5   0  0.6262544E+06  0.9118800E+02  0.7818608E-02  0.1180000E+00
       11   -1    0    0    0    0  0.00000000000E+00  0.00000000000E+00  0.39999999673E+01  0.40000000000E+01  0.51109989000E-03 0. -1.
     -623   -1    0    0    0    0  0.00000000000E+00  0.00000000000E+00  0.12525980253E-10  0.17130000000E+03  0.17130000000E+03 0.  1.
       11    1    1    2    0    0  0.92130679549E-01 -0.14431236784E+00  0.26541322706E+01  0.26596489416E+01  0.51109989000E-03 0. -1.
     -623    1    1    2    0    0 -0.69082134731E-02 -0.24016955944E-01  0.22638905988E-01  0.17130000332E+03  0.17130000000E+03 0.  1.
      622    1    1    2    0    0 -0.85222466076E-01  0.16832932379E+00  0.13232287908E+01  0.13403477395E+01  0.10000000000E+00 0.  1.
</event>
<event>
 5   0  0.6262544E+06  0.9118800E+02  0.7818608E-02  0.1180000E+00
       11   -1    0    0    0    0  0.00000000000E+00  0.00000000000E+00  0.39999999673E+01  0.40000000000E+01  0.51109989000E-03 0. -1.
     -623   -1    0    0    0    0  0.00000000000E+00  0.00000000000E+00  0.12525980253E-10  0.17130000000E+03  0.17130000000E+03 0.  1.
       11    1    1    2    0    0 -0.23423098903E-02 -0.94068212088E-02  0.14338519654E+00  0.14371343190E+00  0.51109989000E-03 0. -1.
     -623    1    1    2    0    0 -0.33935175142E-02  0.58653845011E-02  0.16310406103E-02  0.17130000014E+03  0.17130000000E+03 0.  1.
      622    1    1    2    0    0  0.57358274045E-02  0.35414367077E-02  0.38549837302E+01  0.38562864263E+01  0.10000000000E+00 0. -1.
</event>
<event>
 5   0  0.6262544E+06  0.9118800E+02  0.7818608E-02  0.1180000E+00
       11   -1    0    0    0    0  0.00000000000E+00  0.00000000000E+00  0.39999999673E+01  0.40000000000E+01  0.51109989000E-03 0. -1.
     -623   -1    0    0    0    0  0.00000000000E+00  0.00000000000E+00  0.12525980253E-10  0.17130000000E+03  0.17130000000E+03 0.  1.
       11    1    1    2    0    0  0.13936809175E-01  0.31055582590E-02  0.63819450860E-01  0.65399255901E-01  0.51109989000E-03 0. -1.
     -623    1    1    2    0    0 -0.38674768333E-02  0.33153870264E-02  0.28689841668E-02  0.17130000010E+03  0.17130000000E+03 0.  1.
      622    1    1    2    0    0 -0.10069332342E-01 -0.64209452855E-02  0.39333115323E+01  0.39346006443E+01  0.10000000000E+00 0. -1.
</event>
<event>
 5   0  0.6262544E+06  0.9118800E+02  0.7818608E-02  0.1180000E+00
       11   -1    0    0    0    0  0.00000000000E+00  0.00000000000E+00  0.39999999673E+01  0.40000000000E+01  0.51109989000E-03 0. -1.
     -623   -1    0    0    0    0  0.00000000000E+00  0.00000000000E+00  0.12525980253E-10  0.17130000000E+03  0.17130000000E+03 0.  1.
       11    1    1    2    0    0  0.91241558548E-02  0.37036847123E-01  0.21019865079E+00  0.21363218924E+00  0.51109989000E-03 0. -1.
     -623    1    1    2    0    0 -0.95350372579E-02  0.27880677028E-02  0.49641629357E-02  0.17130000036E+03  0.17130000000E+03 0.  1.
      622    1    1    2    0    0  0.41088140322E-03 -0.39824914826E-01  0.37848371537E+01  0.37863674508E+01  0.10000000000E+00 0. -1.
</event>
<event>
 5   0  0.6262544E+06  0.9118800E+02  0.7818608E-02  0.1180000E+00
       11   -1    0    0    0    0  0.00000000000E+00  0.00000000000E+00  0.39999999673E+01  0.40000000000E+01  0.51109989000E-03 0.  1.
     -623   -1    0    0    0    0  0.00000000000E+00  0.00000000000E+00  0.12525980253E-10  0.17130000000E+03  0.17130000000E+03 0.  1.
       11    1    1    2    0    0 -0.30622546578E-02 -0.82649095525E-03  0.52195076316E-01  0.52293859126E-01  0.51109989000E-03 0.  1.
     -623    1    1    2    0    0  0.20599239755E-02 -0.57337006769E-02  0.13712054035E-02  0.17130000011E+03  0.17130000000E+03 0.  1.
      622    1    1    2    0    0  0.10023306824E-02  0.65601916321E-02  0.39464336856E+01  0.39477060270E+01  0.10000000000E+00 0.  1.
</event>
<event>
 5   0  0.6262544E+06  0.9118800E+02  0.7818608E-02  0.1180000E+00
       11   -1    0    0    0    0  0.00000000000E+00  0.00000000000E+00  0.39999999673E+01  0.40000000000E+01  0.51109989000E-03 0.  1.
     -623   -1    0    0    0    0  0.00000000000E+00  0.00000000000E+00  0.12525980253E-10  0.17130000000E+03  0.17130000000E+03 0. -1.
       11    1    1    2    0    0 -0.19099788559E-01 -0.11629032377E-01  0.19327775205E+01  0.19329069407E+01  0.51109989000E-03 0.  1.
     -623    1    1    2    0    0 -0.35936032434E-02 -0.27257530129E-02  0.27243647619E-02  0.17130000008E+03  0.17130000000E+03 0. -1.
      622    1    1    2    0    0  0.22693391803E-01  0.14354785390E-01  0.20644980821E+01  0.20670929783E+01  0.10000000000E+00 0.  1.
</event>
<event>
 5   0  0.6262544E+06  0.9118800E+02  0.7818608E-02  0.1180000E+00
       11   -1    0    0    0    0  0.00000000000E+00  0.00000000000E+00  0.39999999673E+01  0.40000000000E+01  0.51109989000E-03 0. -1.
     -623   -1    0    0    0    0  0.00000000000E+00  0.00000000000E+00  0.12525980253E-10  0.17130000000E+03  0.17130000000E+03 0. -1.
       11    1    1    2    0    0  0.29624279727E-01 -0.22557167774E-01  0.58802673804E+00  0.58920465854E+00  0.51109989000E-03 0. -1.
     -623    1    1    2    0    0 -0.15834568010E-01 -0.94204422626E-02  0.28230097549E-02  0.17130000101E+03  0.17130000000E+03 0. -1.
      622    1    1    2    0    0 -0.13789711717E-01  0.31977610036E-01  0.34091502196E+01  0.34107943273E+01  0.10000000000E+00 0. -1.
</event>
<event>
 5   0  0.6262544E+06  0.9118800E+02  0.7818608E-02  0.1180000E+00
       11   -1    0    0    0    0  0.00000000000E+00  0.00000000000E+00  0.39999999673E+01  0.40000000000E+01  0.51109989000E-03 0. -1.
     -623   -1    0    0    0    0  0.00000000000E+00  0.00000000000E+00  0.12525980253E-10  0.17130000000E+03  0.17130000000E+03 0.  1.
       11    1    1    2    0    0 -0.19839154303E-01  0.81606716521E-02  0.40704818072E-01  0.46014476447E-01  0.51109989000E-03 0. -1.
     -623    1    1    2    0    0 -0.95792653211E-02  0.59976754943E-02  0.67097130573E-02  0.17130000050E+03  0.17130000000E+03 0.  1.
      622    1    1    2    0    0  0.29418419624E-01 -0.14158347146E-01  0.39525854363E+01  0.39539850194E+01  0.10000000000E+00 0. -1.
</event>
<event>
 5   0  0.6262544E+06  0.9118800E+02  0.7818608E-02  0.1180000E+00
       11   -1    0    0    0    0  0.00000000000E+00  0.00000000000E+00  0.39999999673E+01  0.40000000000E+01  0.51109989000E-03 0. -1.
     -623   -1    0    0    0    0  0.00000000000E+00  0.00000000000E+00  0.12525980253E-10  0.17130000000E+03  0.17130000000E+03 0. -1.
       11    1    1    2    0    0  0.34043705897E-01  0.68575612082E-01  0.21949278606E+01  0.21962627718E+01  0.51109989000E-03 0. -1.
     -623    1    1    2    0    0 -0.18475210552E-01 -0.15068516557E-01  0.49731218358E-02  0.17130000173E+03  0.17130000000E+03 0. -1.
      622    1    1    2    0    0 -0.15568495344E-01 -0.53507095525E-01  0.18000989850E+01  0.18037354970E+01  0.10000000000E+00 0.  0.
</event>
<event>
 5   0  0.6262544E+06  0.9118800E+02  0.7818608E-02  0.1180000E+00
       11   -1    0    0    0    0  0.00000000000E+00  0.00000000000E+00  0.39999999673E+01  0.40000000000E+01  0.51109989000E-03 0.  1.
     -623   -1    0    0    0    0  0.00000000000E+00  0.00000000000E+00  0.12525980253E-10  0.17130000000E+03  0.17130000000E+03 0.  1.
       11    1    1    2    0    0  0.24701469240E-01  0.24970707594E-01  0.20898565232E+01  0.20901517283E+01  0.51109989000E-03 0.  1.
     -623    1    1    2    0    0 -0.14715616177E-01 -0.70892033070E-02  0.30257554834E-02  0.17130000081E+03  0.17130000000E+03 0.  1.
      622    1    1    2    0    0 -0.99858530634E-02 -0.17881504287E-01  0.19071176888E+01  0.19098474663E+01  0.10000000000E+00 0.  1.
</event>
<event>
 5   0  0.6262544E+06  0.9118800E+02  0.7818608E-02  0.1180000E+00
       11   -1    0    0    0    0  0.00000000000E+00  0.00000000000E+00  0.39999999673E+01  0.40000000000E+01  0.51109989000E-03 0. -1.
     -623   -1    0    0    0    0  0.00000000000E+00  0.00000000000E+00  0.12525980253E-10  0.17130000000E+03  0.17130000000E+03 0.  1.
       11    1    1    2    0    0  0.31975780541E-01  0.29267796661E-02  0.16565552052E+01  0.16568664477E+01  0.51109989000E-03 0. -1.
     -623    1    1    2    0    0 -0.25347595545E-01 -0.14994251147E-02  0.24577968699E-02  0.17130000190E+03  0.17130000000E+03 0.  1.
      622    1    1    2    0    0 -0.66281849953E-02 -0.14273545514E-02  0.23409869654E+01  0.23431316528E+01  0.10000000000E+00 0.  1.
</event>
<event>
 5   0  0.6262544E+06  0.9118800E+02  0.7818608E-02  0.1180000E+00
       11   -1    0    0    0    0  0.00000000000E+00  0.00000000000E+00  0.39999999673E+01  0.40000000000E+01  0.51109989000E-03 0.  1.
     -623   -1    0    0    0    0  0.00000000000E+00  0.00000000000E+00  0.12525980253E-10  0.17130000000E+03  0.17130000000E+03 0.  1.
       11    1    1    2    0    0  0.16476541631E-02  0.10832562211E-02  0.23396801830E-02  0.31021822541E-02  0.51109989000E-03 0.  1.
     -623    1    1    2    0    0 -0.19548381434E-02  0.22946552222E-03  0.20138860449E-02  0.17130000002E+03  0.17130000000E+03 0.  1.
      622    1    1    2    0    0  0.30718398046E-03 -0.13127217433E-02  0.39956464013E+01  0.39968977948E+01  0.10000000000E+00 0.  1.
</event>
<event>
 5   0  0.6262544E+06  0.9118800E+02  0.7818608E-02  0.1180000E+00
       11   -1    0    0    0    0  0.00000000000E+00  0.00000000000E+00  0.39999999673E+01  0.40000000000E+01  0.51109989000E-03 0.  1.
     -623   -1    0    0    0    0  0.00000000000E+00  0.00000000000E+00  0.12525980253E-10  0.17130000000E+03  0.17130000000E+03 0. -1.
       11    1    1    2    0    0  0.68738025727E-01  0.30176212270E-01  0.13448886051E+01  0.13469822350E+01  0.51109989000E-03 0.  1.
     -623    1    1    2    0    0 -0.33336405968E-02 -0.55437882682E-02  0.49004741147E-02  0.17130000019E+03  0.17130000000E+03 0. -1.
      622    1    1    2    0    0 -0.65404385130E-01 -0.24632424002E-01  0.26502108881E+01  0.26530175728E+01  0.10000000000E+00 0.  1.
</event>
<event>
 5   0  0.6262544E+06  0.9118800E+02  0.7818608E-02  0.1180000E+00
       11   -1    0    0    0    0  0.00000000000E+00  0.00000000000E+00  0.39999999673E+01  0.40000000000E+01  0.51109989000E-03 0.  1.
     -623   -1    0    0    0    0  0.00000000000E+00  0.00000000000E+00  0.12525980253E-10  0.17130000000E+03  0.17130000000E+03 0. -1.
       11    1    1    2    0    0  0.24428151022E-01  0.28916126542E-01  0.75215700771E+00  0.75310909064E+00  0.51109989000E-03 0.  1.
     -623    1    1    2    0    0  0.45369225670E-03  0.45064724306E-02  0.27599302322E-02  0.17130000008E+03  0.17130000000E+03 0. -1.
      622    1    1    2    0    0 -0.24881843278E-01 -0.33422598973E-01  0.32450830295E+01  0.32468908273E+01  0.10000000000E+00 0.  1.
</event>
<event>
 5   0  0.6262544E+06  0.9118800E+02  0.7818608E-02  0.1180000E+00
       11   -1    0    0    0    0  0.00000000000E+00  0.00000000000E+00  0.39999999673E+01  0.40000000000E+01  0.51109989000E-03 0. -1.
     -623   -1    0    0    0    0  0.00000000000E+00  0.00000000000E+00  0.12525980253E-10  0.17130000000E+03  0.17130000000E+03 0.  1.
       11    1    1    2    0    0 -0.65206641638E-02 -0.26962878952E-02 -0.30064394774E-04  0.70746841990E-02  0.51109989000E-03 0. -1.
     -623    1    1    2    0    0 -0.96264811158E-02  0.11987372645E-01  0.84014959173E-02  0.17130000090E+03  0.17130000000E+03 0.  1.
      622    1    1    2    0    0  0.16147145280E-01 -0.92910847494E-02  0.39916285358E+01  0.39929244198E+01  0.10000000000E+00 0. -1.
</event>
<event>
 5   0  0.6262544E+06  0.9118800E+02  0.7818608E-02  0.1180000E+00
       11   -1    0    0    0    0  0.00000000000E+00  0.00000000000E+00  0.39999999673E+01  0.40000000000E+01  0.51109989000E-03 0.  1.
     -623   -1    0    0    0    0  0.00000000000E+00  0.00000000000E+00  0.12525980253E-10  0.17130000000E+03  0.17130000000E+03 0.  1.
       11    1    1    2    0    0  0.13470454019E-02 -0.34119924345E-03  0.63950583193E-02  0.65642168035E-02  0.51109989000E-03 0.  1.
     -623    1    1    2    0    0 -0.24954529761E-02 -0.22513772218E-04  0.14215827027E-02  0.17130000002E+03  0.17130000000E+03 0.  1.
      622    1    1    2    0    0  0.11484075743E-02  0.36371301567E-03  0.39921833264E+01  0.39934357592E+01  0.10000000000E+00 0.  1.
</event>
<event>
 5   0  0.6262544E+06  0.9118800E+02  0.7818608E-02  0.1180000E+00
       11   -1    0    0    0    0  0.00000000000E+00  0.00000000000E+00  0.39999999673E+01  0.40000000000E+01  0.51109989000E-03 0. -1.
     -623   -1    0    0    0    0  0.00000000000E+00  0.00000000000E+00  0.12525980253E-10  0.17130000000E+03  0.17130000000E+03 0. -1.
       11    1    1    2    0    0 -0.92566402406E-02 -0.86336385574E-02  0.19829932580E-01  0.23531097562E-01  0.51109989000E-03 0. -1.
     -623    1    1    2    0    0 -0.11915175858E-01  0.12283691502E-01  0.50177130944E-02  0.17130000093E+03  0.17130000000E+03 0. -1.
      622    1    1    2    0    0  0.21171816099E-01 -0.36500529453E-02  0.39751523218E+01  0.39764679742E+01  0.10000000000E+00 0. -1.
</event>
<event>
 5   0  0.6262544E+06  0.9118800E+02  0.7818608E-02  0.1180000E+00
       11   -1    0    0    0    0  0.00000000000E+00  0.00000000000E+00  0.39999999673E+01  0.40000000000E+01  0.51109989000E-03 0.  1.
     -623   -1    0    0    0    0  0.00000000000E+00  0.00000000000E+00  0.12525980253E-10  0.17130000000E+03  0.17130000000E+03 0.  1.
       11    1    1    2    0    0  0.11658537548E-02 -0.32864908803E-02  0.41424687303E-02  0.54388884492E-02  0.51109989000E-03 0.  1.
     -623    1    1    2    0    0 -0.11936997083E-02  0.34187510471E-02  0.25483447533E-02  0.17130000006E+03  0.17130000000E+03 0.  1.
      622    1    1    2    0    0  0.27845953519E-04 -0.13226016676E-03  0.39933091539E+01  0.39945610544E+01  0.10000000000E+00 0.  1.
</event>
<event>
 5   0  0.6262544E+06  0.9118800E+02  0.7818608E-02  0.1180000E+00
       11   -1    0    0    0    0  0.00000000000E+00  0.00000000000E+00  0.39999999673E+01  0.40000000000E+01  0.51109989000E-03 0.  1.
     -623   -1    0    0    0    0  0.00000000000E+00  0.00000000000E+00  0.12525980253E-10  0.17130000000E+03  0.17130000000E+03 0. -1.
       11    1    1    2    0    0 -0.54631169400E-01 -0.86586846530E-01  0.12739585515E+01  0.12780659212E+01  0.51109989000E-03 0.  1.
     -623    1    1    2    0    0  0.57060352862E-01  0.11521150930E-02  0.72976742556E-02  0.17130000966E+03  0.17130000000E+03 0. -1.
      622    1    1    2    0    0 -0.24291834619E-02  0.85434731437E-01  0.27187437416E+01  0.27219244161E+01  0.10000000000E+00 0.  1.
</event>
<event>
 5   0  0.6262544E+06  0.9118800E+02  0.7818608E-02  0.1180000E+00
       11   -1    0    0    0    0  0.00000000000E+00  0.00000000000E+00  0.39999999673E+01  0.40000000000E+01  0.51109989000E-03 0. -1.
     -623   -1    0    0    0    0  0.00000000000E+00  0.00000000000E+00  0.12525980253E-10  0.17130000000E+03  0.17130000000E+03 0.  1.
       11    1    1    2    0    0 -0.25274918966E-01 -0.50949509338E-02  0.84700968513E+00  0.84740217606E+00  0.51109989000E-03 0. -1.
     -623    1    1    2    0    0  0.12186947609E-02  0.91175861864E-02  0.20735077579E-02  0.17130000026E+03  0.17130000000E+03 0.  1.
      622    1    1    2    0    0  0.24056224205E-01 -0.40226352525E-02  0.31509167745E+01  0.31525975644E+01  0.10000000000E+00 0. -1.
</event>
<event>
 5   0  0.6262544E+06  0.9118800E+02  0.7818608E-02  0.1180000E+00
       11   -1    0    0    0    0  0.00000000000E+00  0.00000000000E+00  0.39999999673E+01  0.40000000000E+01  0.51109989000E-03 0.  1.
     -623   -1    0    0    0    0  0.00000000000E+00  0.00000000000E+00  0.12525980253E-10  0.17130000000E+03  0.17130000000E+03 0.  1.
       11    1    1    2    0    0  0.62020577684E-02 -0.21880143436E-02  0.38258899196E-01  0.38823414561E-01  0.51109989000E-03 0.  1.
     -623    1    1    2    0    0 -0.10017458600E-01  0.68217034149E-02  0.18319229342E-02  0.17130000044E+03  0.17130000000E+03 0.  1.
      622    1    1    2    0    0  0.38154008319E-02 -0.46336890715E-02  0.39599091453E+01  0.39611761470E+01  0.10000000000E+00 0.  1.
</event>
<event>
 5   0  0.6262544E+06  0.9118800E+02  0.7818608E-02  0.1180000E+00
       11   -1    0    0    0    0  0.00000000000E+00  0.00000000000E+00  0.39999999673E+01  0.40000000000E+01  0.51109989000E-03 0. -1.
     -623   -1    0    0    0    0  0.00000000000E+00  0.00000000000E+00  0.12525980253E-10  0.17130000000E+03  0.17130000000E+03 0.  1.
       11    1    1    2    0    0  0.41098839625E-02  0.86439718245E-02  0.74159616807E-01  0.74776462762E-01  0.51109989000E-03 0. -1.
     -623    1    1    2    0    0  0.26231366667E-02 -0.26563351651E-02  0.19012289880E-02  0.17130000005E+03  0.17130000000E+03 0.  1.
      622    1    1    2    0    0 -0.67330206294E-02 -0.59876366593E-02  0.39239391217E+01  0.39252234862E+01  0.10000000000E+00 0. -1.
</event>
<event>
 5   0  0.6262544E+06  0.9118800E+02  0.7818608E-02  0.1180000E+00
       11   -1    0    0    0    0  0.00000000000E+00  0.00000000000E+00  0.39999999673E+01  0.40000000000E+01  0.51109989000E-03 0. -1.
     -623   -1    0    0    0    0  0.00000000000E+00  0.00000000000E+00  0.12525980253E-10  0.17130000000E+03  0.17130000000E+03 0. -1.
       11    1    1    2    0    0  0.16367202919E+00 -0.15094142723E+00  0.25236083015E+01  0.25334109356E+01  0.51109989000E-03 0. -1.
     -623    1    1    2    0    0 -0.11417237315E+00 -0.77657615900E-01  0.32091247784E-01  0.17130005866E+03  0.17130000000E+03 0. -1.
      622    1    1    2    0    0 -0.49499656041E-01  0.22859904313E+00  0.14443004180E+01  0.14665304075E+01  0.10000000000E+00 0. -1.
</event>
<event>
 5   0  0.6262544E+06  0.9118800E+02  0.7818608E-02  0.1180000E+00
       11   -1    0    0    0    0  0.00000000000E+00  0.00000000000E+00  0.39999999673E+01  0.40000000000E+01  0.51109989000E-03 0. -1.
     -623   -1    0    0    0    0  0.00000000000E+00  0.00000000000E+00  0.12525980253E-10  0.17130000000E+03  0.17130000000E+03 0. -1.
       11    1    1    2    0    0 -0.89870052888E-02  0.21367460568E-01  0.81880745375E-01  0.85100248645E-01  0.51109989000E-03 0. -1.
     -623    1    1    2    0    0 -0.17372209143E-01 -0.50497408331E-01  0.47024257509E-02  0.17130000839E+03  0.17130000000E+03 0. -1.
      622    1    1    2    0    0  0.26359214432E-01  0.29129947763E-01  0.39134167962E+01  0.39148913629E+01  0.10000000000E+00 0. -1.
</event>
<event>
 5   0  0.6262544E+06  0.9118800E+02  0.7818608E-02  0.1180000E+00
       11   -1    0    0    0    0  0.00000000000E+00  0.00000000000E+00  0.39999999673E+01  0.40000000000E+01  0.51109989000E-03 0. -1.
     -623   -1    0    0    0    0  0.00000000000E+00  0.00000000000E+00  0.12525980253E-10  0.17130000000E+03  0.17130000000E+03 0.  1.
       11    1    1    2    0    0  0.22934091800E-01  0.13157210974E-01  0.25216242657E+00  0.25354533197E+00  0.51109989000E-03 0. -1.
     -623    1    1    2    0    0 -0.23361927576E-01 -0.10287617945E-01  0.27207537173E-02  0.17130000192E+03  0.17130000000E+03 0.  1.
      622    1    1    2    0    0  0.42783577544E-03 -0.28695930283E-02  0.37451167871E+01  0.37464527445E+01  0.10000000000E+00 0. -1.
</event>
<event>
 5   0  0.6262544E+06  0.9118800E+02  0.7818608E-02  0.1180000E+00
       11   -1    0    0    0    0  0.00000000000E+00  0.00000000000E+00  0.39999999673E+01  0.40000000000E+01  0.51109989000E-03 0.  1.
     -623   -1    0    0    0    0  0.00000000000E+00  0.00000000000E+00  0.12525980253E-10  0.17130000000E+03  0.17130000000E+03 0.  1.
       11    1    1    2    0    0 -0.14925133867E-02  0.22292550778E-02  0.81830428943E-03  0.28509681547E-02  0.51109989000E-03 0.  1.
     -623    1    1    2    0    0 -0.14193142773E-02 -0.60368592340E-02  0.32867374333E-02  0.17130000014E+03  0.17130000000E+03 0.  1.
      622    1    1    2    0    0  0.29118276641E-02  0.38076041564E-02  0.39958949258E+01  0.39971488882E+01  0.10000000000E+00 0.  1.
</event>
<event>
 5   0  0.6262544E+06  0.9118800E+02  0.7818608E-02  0.1180000E+00
       11   -1    0    0    0    0  0.00000000000E+00  0.00000000000E+00  0.39999999673E+01  0.40000000000E+01  0.51109989000E-03 0.  1.
     -623   -1    0    0    0    0  0.00000000000E+00  0.00000000000E+00  0.12525980253E-10  0.17130000000E+03  0.17130000000E+03 0. -1.
       11    1    1    2    0    0 -0.14127807422E-01 -0.58606691537E-01  0.13352069570E+01  0.13365673266E+01  0.51109989000E-03 0.  1.
     -623    1    1    2    0    0  0.19123907489E-03  0.89566196317E-01  0.34783036107E-02  0.17130002345E+03  0.17130000000E+03 0. -1.
      622    1    1    2    0    0  0.13936568347E-01 -0.30959504782E-01  0.26613147068E+01  0.26634092227E+01  0.10000000000E+00 0.  1.
</event>
<event>
 5   0  0.6262544E+06  0.9118800E+02  0.7818608E-02  0.1180000E+00
       11   -1    0    0    0    0  0.00000000000E+00  0.00000000000E+00  0.39999999673E+01  0.40000000000E+01  0.51109989000E-03 0. -1.
     -623   -1    0    0    0    0  0.00000000000E+00  0.00000000000E+00  0.12525980253E-10  0.17130000000E+03  0.17130000000E+03 0.  1.
       11    1    1    2    0    0 -0.64890748345E-02  0.60893928166E-02  0.19809037639E-01  0.21722062341E-01  0.51109989000E-03 0. -1.
     -623    1    1    2    0    0 -0.82764747035E-02 -0.24737310280E-01  0.32431633711E-02  0.17130000202E+03  0.17130000000E+03 0.  1.
      622    1    1    2    0    0  0.14765549538E-01  0.18647917463E-01  0.39769477663E+01  0.39782759208E+01  0.10000000000E+00 0. -1.
</event>
<event>
 5   0  0.6262544E+06  0.9118800E+02  0.7818608E-02  0.1180000E+00
       11   -1    0    0    0    0  0.00000000000E+00  0.00000000000E+00  0.39999999673E+01  0.40000000000E+01  0.51109989000E-03 0. -1.
     -623   -1    0    0    0    0  0.00000000000E+00  0.00000000000E+00  0.12525980253E-10  0.17130000000E+03  0.17130000000E+03 0.  1.
       11    1    1    2    0    0  0.24071247117E-01  0.72953119003E-01  0.12629271693E+01  0.12652615851E+01  0.51109989000E-03 0. -1.
     -623    1    1    2    0    0  0.14106268114E-01  0.89772076637E-02  0.56594052807E-02  0.17130000091E+03  0.17130000000E+03 0.  1.
      622    1    1    2    0    0 -0.38177515230E-01 -0.81930326667E-01  0.27314133928E+01  0.27347375054E+01  0.10000000000E+00 0. -1.
</event>
<event>
 5   0  0.6262544E+06  0.9118800E+02  0.7818608E-02  0.1180000E+00
       11   -1    0    0    0    0  0.00000000000E+00  0.00000000000E+00  0.39999999673E+01  0.40000000000E+01  0.51109989000E-03 0.  1.
     -623   -1    0    0    0    0  0.00000000000E+00  0.00000000000E+00  0.12525980253E-10  0.17130000000E+03  0.17130000000E+03 0.  1.
       11    1    1    2    0    0 -0.81342917259E-02  0.20885834354E-02  0.48756658142E+00  0.48763917134E+00  0.51109989000E-03 0.  1.
     -623    1    1    2    0    0 -0.45239314294E-02 -0.21186302678E-02  0.15192884147E-02  0.17130000008E+03  0.17130000000E+03 0.  1.
      622    1    1    2    0    0  0.12658223155E-01  0.30046832419E-04  0.35109140974E+01  0.35123607489E+01  0.10000000000E+00 0.  1.
</event>
<event>
 5   0  0.6262544E+06  0.9118800E+02  0.7818608E-02  0.1180000E+00
       11   -1    0    0    0    0  0.00000000000E+00  0.00000000000E+00  0.39999999673E+01  0.40000000000E+01  0.51109989000E-03 0. -1.
     -623   -1    0    0    0    0  0.00000000000E+00  0.00000000000E+00  0.12525980253E-10  0.17130000000E+03  0.17130000000E+03 0. -1.
       11    1    1    2    0    0  0.47336648600E-02 -0.33272438065E-02  0.75522303320E+00  0.75524537022E+00  0.51109989000E-03 0. -1.
     -623    1    1    2    0    0  0.18649120192E-02 -0.23479204360E-02  0.15753305757E-02  0.17130000003E+03  0.17130000000E+03 0. -1.
      622    1    1    2    0    0 -0.65985768794E-02  0.56751642428E-02  0.32432016040E+01  0.32447545967E+01  0.10000000000E+00 0. -1.
</event>
<event>
 5   0  0.6262544E+06  0.9118800E+02  0.7818608E-02  0.1180000E+00
       11   -1    0    0    0    0  0.00000000000E+00  0.00000000000E+00  0.39999999673E+01  0.40000000000E+01  0.51109989000E-03 0. -1.
     -623   -1    0    0    0    0  0.00000000000E+00  0.00000000000E+00  0.12525980253E-10  0.17130000000E+03  0.17130000000E+03 0. -1.
       11    1    1    2    0    0  0.22538225717E-02 -0.73593654588E-03  0.16926664072E-01  0.17099546734E-01  0.51109989000E-03 0. -1.
     -623    1    1    2    0    0 -0.62219446187E-03 -0.89416212497E-03  0.14290918945E-02  0.17130000001E+03  0.17130000000E+03 0. -1.
      622    1    1    2    0    0 -0.16316281098E-02  0.16300986708E-02  0.39816442114E+01  0.39829004438E+01  0.10000000000E+00 0. -1.
</event>
<event>
 5   0  0.6262544E+06  0.9118800E+02  0.7818608E-02  0.1180000E+00
       11   -1    0    0    0    0  0.00000000000E+00  0.00000000000E+00  0.39999999673E+01  0.40000000000E+01  0.51109989000E-03 0.  1.
     -623   -1    0    0    0    0  0.00000000000E+00  0.00000000000E+00  0.12525980253E-10  0.17130000000E+03  0.17130000000E+03 0.  1.
       11    1    1    2    0    0 -0.12417917412E+00 -0.34919125290E-01  0.94945695277E+00  0.95817982601E+00  0.51109989000E-03 0.  1.
     -623    1    1    2    0    0 -0.15236281842E-02 -0.84176854068E-02  0.13276765538E-01  0.17130000073E+03  0.17130000000E+03 0.  1.
      622    1    1    2    0    0  0.12570280230E+00  0.43336810697E-01  0.30372662491E+01  0.30418194459E+01  0.10000000000E+00 0.  1.
</event>
<event>
 5   0  0.6262544E+06  0.9118800E+02  0.7818608E-02  0.1180000E+00
       11   -1    0    0    0    0  0.00000000000E+00  0.00000000000E+00  0.39999999673E+01  0.40000000000E+01  0.51109989000E-03 0.  1.
     -623   -1    0    0    0    0  0.00000000000E+00  0.00000000000E+00  0.12525980253E-10  0.17130000000E+03  0.17130000000E+03 0.  1.
       11    1    1    2    0    0  0.43812537282E-02 -0.73378275200E-02  0.13793423131E+00  0.13819968338E+00  0.51109989000E-03 0.  1.
     -623    1    1    2    0    0 -0.36250970263E-03 -0.18093555586E-02  0.15733151803E-02  0.17130000002E+03  0.17130000000E+03 0.  1.
      622    1    1    2    0    0 -0.40187440256E-02  0.91471830785E-02  0.38604924208E+01  0.38618002994E+01  0.10000000000E+00 0.  1.
</event>
<event>
 5   0  0.6262544E+06  0.9118800E+02  0.7818608E-02  0.1180000E+00
       11   -1    0    0    0    0  0.00000000000E+00  0.00000000000E+00  0.39999999673E+01  0.40000000000E+01  0.51109989000E-03 0. -1.
     -623   -1    0    0    0    0  0.00000000000E+00  0.00000000000E+00  0.12525980253E-10  0.17130000000E+03  0.17130000000E+03 0. -1.
       11    1    1    2    0    0  0.37934712587E-01  0.11114691932E-01  0.22240427731E+01  0.22243940966E+01  0.51109989000E-03 0. -1.
     -623    1    1    2    0    0 -0.49069279029E-01  0.74229863513E-02  0.33085945861E-02  0.17130000722E+03  0.17130000000E+03 0. -1.
      622    1    1    2    0    0  0.11134566441E-01 -0.18537678283E-01  0.17726485996E+01  0.17755986827E+01  0.10000000000E+00 0. -1.
</event>
<event>
 5   0  0.6262544E+06  0.9118800E+02  0.7818608E-02  0.1180000E+00
       11   -1    0    0    0    0  0.00000000000E+00  0.00000000000E+00  0.39999999673E+01  0.40000000000E+01  0.51109989000E-03 0. -1.
     -623   -1    0    0    0    0  0.00000000000E+00  0.00000000000E+00  0.12525980253E-10  0.17130000000E+03  0.17130000000E+03 0.  1.
       11    1    1    2    0    0 -0.16448831018E-01 -0.46684857206E-02  0.10251801360E+00  0.10393537962E+00  0.51109989000E-03 0. -1.
     -623    1    1    2    0    0  0.24187146998E-02 -0.40951119102E-02  0.27361088247E-02  0.17130000009E+03  0.17130000000E+03 0.  1.
      622    1    1    2    0    0  0.14030116318E-01  0.87635976307E-02  0.38947458448E+01  0.38960645324E+01  0.10000000000E+00 0. -1.
</event>
<event>
 5   0  0.6262544E+06  0.9118800E+02  0.7818608E-02  0.1180000E+00
       11   -1    0    0    0    0  0.00000000000E+00  0.00000000000E+00  0.39999999673E+01  0.40000000000E+01  0.51109989000E-03 0. -1.
     -623   -1    0    0    0    0  0.00000000000E+00  0.00000000000E+00  0.12525980253E-10  0.17130000000E+03  0.17130000000E+03 0.  1.
       11    1    1    2    0    0  0.57899486263E-02 -0.66309510585E-02  0.58586425504E-01  0.59246295187E-01  0.51109989000E-03 0. -1.
     -623    1    1    2    0    0 -0.65998630080E-02  0.21502669233E-02  0.19316171298E-02  0.17130000015E+03  0.17130000000E+03 0.  1.
      622    1    1    2    0    0  0.80991438186E-03  0.44806841351E-02  0.39394819249E+01  0.39407535534E+01  0.10000000000E+00 0. -1.
</event>
<event>
 5   0  0.6262544E+06  0.9118800E+02  0.7818608E-02  0.1180000E+00
       11   -1    0    0    0    0  0.00000000000E+00  0.00000000000E+00  0.39999999673E+01  0.40000000000E+01  0.51109989000E-03 0.  1.
     -623   -1    0    0    0    0  0.00000000000E+00  0.00000000000E+00  0.12525980253E-10  0.17130000000E+03  0.17130000000E+03 0. -1.
       11    1    1    2    0    0 -0.42445546691E-01 -0.20834807130E-01  0.19592680844E+00  0.20155219946E+00  0.51109989000E-03 0.  1.
     -623    1    1    2    0    0  0.68554851268E-02  0.49252784782E-01  0.72224284379E-02  0.17130000737E+03  0.17130000000E+03 0. -1.
      622    1    1    2    0    0  0.35590061565E-01 -0.28417977651E-01  0.37968507305E+01  0.37984404304E+01  0.10000000000E+00 0.  1.
</event>
<event>
 5   0  0.6262544E+06  0.9118800E+02  0.7818608E-02  0.1180000E+00
       11   -1    0    0    0    0  0.00000000000E+00  0.00000000000E+00  0.39999999673E+01  0.40000000000E+01  0.51109989000E-03 0. -1.
     -623   -1    0    0    0    0  0.00000000000E+00  0.00000000000E+00  0.12525980253E-10  0.17130000000E+03  0.17130000000E+03 0. -1.
       11    1    1    2    0    0  0.13646251021E-01 -0.39098836182E-02  0.19700908006E-01  0.24287740824E-01  0.51109989000E-03 0. -1.
     -623    1    1    2    0    0 -0.28206986220E-01  0.49325983110E-02  0.58739342043E-02  0.17130000249E+03  0.17130000000E+03 0. -1.
      622    1    1    2    0    0  0.14560735199E-01 -0.10227146928E-02  0.39744251251E+01  0.39757097651E+01  0.10000000000E+00 0. -1.
</event>
<event>
 5   0  0.6262544E+06  0.9118800E+02  0.7818608E-02  0.1180000E+00
       11   -1    0    0    0    0  0.00000000000E+00  0.00000000000E+00  0.39999999673E+01  0.40000000000E+01  0.51109989000E-03 0. -1.
     -623   -1    0    0    0    0  0.00000000000E+00  0.00000000000E+00  0.12525980253E-10  0.17130000000E+03  0.17130000000E+03 0. -1.
       11    1    1    2    0    0 -0.35397281952E-01  0.23092830867E-01  0.16152823709E+01  0.16158352780E+01  0.51109989000E-03 0. -1.
     -623    1    1    2    0    0 -0.15784772005E-01  0.50543208819E-02  0.33680681540E-02  0.17130000083E+03  0.17130000000E+03 0. -1.
      622    1    1    2    0    0  0.51182053957E-01 -0.28147151749E-01  0.23813495282E+01  0.23841638870E+01  0.10000000000E+00 0. -1.
</event>
<event>
 5   0  0.6262544E+06  0.9118800E+02  0.7818608E-02  0.1180000E+00
       11   -1    0    0    0    0  0.00000000000E+00  0.00000000000E+00  0.39999999673E+01  0.40000000000E+01  0.51109989000E-03 0.  1.
     -623   -1    0    0    0    0  0.00000000000E+00  0.00000000000E+00  0.12525980253E-10  0.17130000000E+03  0.17130000000E+03 0.  1.
       11    1    1    2    0    0 -0.41571959212E-01  0.79114174548E-01  0.17417072466E+01  0.17439987599E+01  0.51109989000E-03 0.  1.
     -623    1    1    2    0    0  0.68984042258E-01 -0.72548049741E-01  0.47145041383E-02  0.17130002932E+03  0.17130000000E+03 0.  1.
      622    1    1    2    0    0 -0.27412083047E-01 -0.65661248070E-02  0.22535782167E+01  0.22559719224E+01  0.10000000000E+00 0. -1.
</event>
<event>
 5   0  0.6262544E+06  0.9118800E+02  0.7818608E-02  0.1180000E+00
       11   -1    0    0    0    0  0.00000000000E+00  0.00000000000E+00  0.39999999673E+01  0.40000000000E+01  0.51109989000E-03 0.  1.
     -623   -1    0    0    0    0  0.00000000000E+00  0.00000000000E+00  0.12525980253E-10  0.17130000000E+03  0.17130000000E+03 0. -1.
       11    1    1    2    0    0  0.16688101749E-02 -0.42492613991E-02  0.44127709817E-01  0.44366171171E-01  0.51109989000E-03 0.  1.
     -623    1    1    2    0    0  0.94092848042E-02 -0.74442461968E-03  0.15215882171E-02  0.17130000027E+03  0.17130000000E+03 0. -1.
      622    1    1    2    0    0 -0.11078094979E-01  0.49936860187E-02  0.39543506693E+01  0.39556335620E+01  0.10000000000E+00 0.  1.
</event>
<event>
 5   0  0.6262544E+06  0.9118800E+02  0.7818608E-02  0.1180000E+00
       11   -1    0    0    0    0  0.00000000000E+00  0.00000000000E+00  0.39999999673E+01  0.40000000000E+01  0.51109989000E-03 0. -1.
     -623   -1    0    0    0    0  0.00000000000E+00  0.00000000000E+00  0.12525980253E-10  0.17130000000E+03  0.17130000000E+03 0. -1.
       11    1    1    2    0    0 -0.75209498265E-02 -0.29438793377E-03  0.25349028315E-01  0.26447794032E-01  0.51109989000E-03 0. -1.
     -623    1    1    2    0    0  0.45209463001E-02 -0.31297255510E-02  0.23599655055E-02  0.17130000010E+03  0.17130000000E+03 0. -1.
      622    1    1    2    0    0  0.30000035263E-02  0.34241134848E-02  0.39722909735E+01  0.39735521015E+01  0.10000000000E+00 0. -1.
</event>
<event>
 5   0  0.6262544E+06  0.9118800E+02  0.7818608E-02  0.1180000E+00
       11   -1    0    0    0    0  0.00000000000E+00  0.00000000000E+00  0.39999999673E+01  0.40000000000E+01  0.51109989000E-03 0. -1.
     -623   -1    0    0    0    0  0.00000000000E+00  0.00000000000E+00  0.12525980253E-10  0.17130000000E+03  0.17130000000E+03 0. -1.
       11    1    1    2    0    0  0.31329390880E-02 -0.32093330109E-02  0.18096087722E-01  0.18650596228E-01  0.51109989000E-03 0. -1.
     -623    1    1    2    0    0 -0.51796980366E-02  0.27706296887E-02  0.18111903888E-02  0.17130000011E+03  0.17130000000E+03 0. -1.
      622    1    1    2    0    0  0.20467589486E-02  0.43870332223E-03  0.39800926893E+01  0.39813492935E+01  0.10000000000E+00 0. -1.
</event>
<event>
 5   0  0.6262544E+06  0.9118800E+02  0.7818608E-02  0.1180000E+00
       11   -1    0    0    0    0  0.00000000000E+00  0.00000000000E+00  0.39999999673E+01  0.40000000000E+01  0.51109989000E-03 0. -1.
     -623   -1    0    0    0    0  0.00000000000E+00  0.00000000000E+00  0.12525980253E-10  0.17130000000E+03  0.17130000000E+03 0. -1.
       11    1    1    2    0    0  0.24434547080E-01  0.16845634907E-02  0.51337434851E+00  0.51395852730E+00  0.51109989000E-03 0. -1.
     -623    1    1    2    0    0 -0.15539362561E-01  0.38075858342E-02  0.20351740445E-02  0.17130000076E+03  0.17130000000E+03 0. -1.
      622    1    1    2    0    0 -0.88951845189E-02 -0.54921493249E-02  0.34845904448E+01  0.34860407135E+01  0.10000000000E+00 0. -1.
</event>
<event>
 5   0  0.6262544E+06  0.9118800E+02  0.7818608E-02  0.1180000E+00
       11   -1    0    0    0    0  0.00000000000E+00  0.00000000000E+00  0.39999999673E+01  0.40000000000E+01  0.51109989000E-03 0. -1.
     -623   -1    0    0    0    0  0.00000000000E+00  0.00000000000E+00  0.12525980253E-10  0.17130000000E+03  0.17130000000E+03 0. -1.
       11    1    1    2    0    0 -0.76445329544E-02 -0.90057783467E-02  0.76353899974E-01  0.77263977317E-01  0.51109989000E-03 0. -1.
     -623    1    1    2    0    0  0.77483610155E-03  0.10733346802E-01  0.21916223456E-02  0.17130000035E+03  0.17130000000E+03 0. -1.
      622    1    1    2    0    0  0.68696968529E-02 -0.17275684556E-02  0.39214544450E+01  0.39227356706E+01  0.10000000000E+00 0. -1.
</event>
<event>
 5   0  0.6262544E+06  0.9118800E+02  0.7818608E-02  0.1180000E+00
       11   -1    0    0    0    0  0.00000000000E+00  0.00000000000E+00  0.39999999673E+01  0.40000000000E+01  0.51109989000E-03 0.  1.
     -623   -1    0    0    0    0  0.00000000000E+00  0.00000000000E+00  0.12525980253E-10  0.17130000000E+03  0.17130000000E+03 0.  1.
       11    1    1    2    0    0  0.15229878354E-01  0.71280569491E-01  0.20203713541E+00  0.21478392419E+00  0.51109989000E-03 0.  1.
     -623    1    1    2    0    0 -0.50077490769E-02  0.42745661553E-02  0.14836895907E-01  0.17130000077E+03  0.17130000000E+03 0.  1.
      622    1    1    2    0    0 -0.10222129277E-01 -0.75555135647E-01  0.37831259360E+01  0.37852153067E+01  0.10000000000E+00 0.  1.
</event>
<event>
 5   0  0.6262544E+06  0.9118800E+02  0.7818608E-02  0.1180000E+00
       11   -1    0    0    0    0  0.00000000000E+00  0.00000000000E+00  0.39999999673E+01  0.40000000000E+01  0.51109989000E-03 0. -1.
     -623   -1    0    0    0    0  0.00000000000E+00  0.00000000000E+00  0.12525980253E-10  0.17130000000E+03  0.17130000000E+03 0. -1.
       11    1    1    2    0    0  0.62215723505E-02  0.21374872824E-01  0.53292296423E+00  0.53338798278E+00  0.51109989000E-03 0. -1.
     -623    1    1    2    0    0 -0.13251547698E-01  0.50826416933E-02  0.20163545243E-02  0.17130000060E+03  0.17130000000E+03 0. -1.
      622    1    1    2    0    0  0.70299753475E-02 -0.26457514518E-01  0.34650606487E+01  0.34666114175E+01  0.10000000000E+00 0. -1.
</event>
<event>
 5   0  0.6262544E+06  0.9118800E+02  0.7818608E-02  0.1180000E+00
       11   -1    0    0    0    0  0.00000000000E+00  0.00000000000E+00  0.39999999673E+01  0.40000000000E+01  0.51109989000E-03 0.  1.
     -623   -1    0    0    0    0  0.00000000000E+00  0.00000000000E+00  0.12525980253E-10  0.17130000000E+03  0.17130000000E+03 0. -1.
       11    1    1    2    0    0  0.19359151515E-03 -0.51845642333E-02  0.33173412568E-01  0.33580555511E-01  0.51109989000E-03 0.  1.
     -623    1    1    2    0    0  0.85029545781E-02 -0.13823522114E-02  0.16830931538E-02  0.17130000022E+03  0.17130000000E+03 0. -1.
      622    1    1    2    0    0 -0.86965460930E-02  0.65669164447E-02  0.39651434615E+01  0.39664192195E+01  0.10000000000E+00 0.  1.
</event>
<event>
 5   0  0.6262544E+06  0.9118800E+02  0.7818608E-02  0.1180000E+00
       11   -1    0    0    0    0  0.00000000000E+00  0.00000000000E+00  0.39999999673E+01  0.40000000000E+01  0.51109989000E-03 0.  1.
     -623   -1    0    0    0    0  0.00000000000E+00  0.00000000000E+00  0.12525980253E-10  0.17130000000E+03  0.17130000000E+03 0. -1.
       11    1    1    2    0    0 -0.23264514721E-02 -0.47072776997E-02  0.72654036010E+00  0.72655951367E+00  0.51109989000E-03 0.  1.
     -623    1    1    2    0    0 -0.66402173189E-02 -0.37520053558E-02  0.15703215181E-02  0.17130000018E+03  0.17130000000E+03 0. -1.
      622    1    1    2    0    0  0.89666687912E-02  0.84592830556E-02  0.32718892858E+01  0.32734403094E+01  0.10000000000E+00 0.  1.
</event>
<event>
 5   0  0.6262544E+06  0.9118800E+02  0.7818608E-02  0.1180000E+00
       11   -1    0    0    0    0  0.00000000000E+00  0.00000000000E+00  0.39999999673E+01  0.40000000000E+01  0.51109989000E-03 0.  1.
     -623   -1    0    0    0    0  0.00000000000E+00  0.00000000000E+00  0.12525980253E-10  0.17130000000E+03  0.17130000000E+03 0. -1.
       11    1    1    2    0    0  0.12022983318E-01  0.19356630173E-01  0.21994909164E-01  0.31674414128E-01  0.51109989000E-03 0.  1.
     -623    1    1    2    0    0 -0.21794312043E-01 -0.22487437066E-02  0.10990326952E-01  0.17130000175E+03  0.17130000000E+03 0. -1.
      622    1    1    2    0    0  0.97713287252E-02 -0.17107886466E-01  0.39670147312E+01  0.39683238321E+01  0.10000000000E+00 0.  1.
</event>
<event>
 5   0  0.6262544E+06  0.9118800E+02  0.7818608E-02  0.1180000E+00
       11   -1    0    0    0    0  0.00000000000E+00  0.00000000000E+00  0.39999999673E+01  0.40000000000E+01  0.51109989000E-03 0. -1.
     -623   -1    0    0    0    0  0.00000000000E+00  0.00000000000E+00  0.12525980253E-10  0.17130000000E+03  0.17130000000E+03 0.  1.
       11    1    1    2    0    0  0.58815675551E-02 -0.17391902567E-02  0.25378737461E+00  0.25386199077E+00  0.51109989000E-03 0. -1.
     -623    1    1    2    0    0  0.31152424468E-02 -0.51774824788E-02  0.14268367525E-02  0.17130000011E+03  0.17130000000E+03 0.  1.
      622    1    1    2    0    0 -0.89968100020E-02  0.69166727357E-02  0.37447857561E+01  0.37461378969E+01  0.10000000000E+00 0. -1.
</event>
<event>
 5   0  0.6262544E+06  0.9118800E+02  0.7818608E-02  0.1180000E+00
       11   -1    0    0    0    0  0.00000000000E+00  0.00000000000E+00  0.39999999673E+01  0.40000000000E+01  0.51109989000E-03 0. -1.
     -623   -1    0    0    0    0  0.00000000000E+00  0.00000000000E+00  0.12525980253E-10  0.17130000000E+03  0.17130000000E+03 0. -1.
       11    1    1    2    0    0  0.86115213220E-02  0.30881140118E-02  0.39189370562E+00  0.39200080673E+00  0.51109989000E-03 0. -1.
     -623    1    1    2    0    0  0.24866873928E-02 -0.45696708815E-02  0.15106099826E-02  0.17130000009E+03  0.17130000000E+03 0. -1.
      622    1    1    2    0    0 -0.11098208715E-01  0.14815568695E-02  0.36065956516E+01  0.36079991075E+01  0.10000000000E+00 0. -1.
</event>
<event>
 5   0  0.6262544E+06  0.9118800E+02  0.7818608E-02  0.1180000E+00
       11   -1    0    0    0    0  0.00000000000E+00  0.00000000000E+00  0.39999999673E+01  0.40000000000E+01  0.51109989000E-03 0. -1.
     -623   -1    0    0    0    0  0.00000000000E+00  0.00000000000E+00  0.12525980253E-10  0.17130000000E+03  0.17130000000E+03 0.  1.
       11    1    1    2    0    0  0.10384556933E-01  0.76396302585E-02  0.83307210661E+00  0.83317201046E+00  0.51109989000E-03 0. -1.
     -623    1    1    2    0    0  0.55385719697E-02 -0.22862993712E-02  0.17238242772E-02  0.17130000011E+03  0.17130000000E+03 0.  1.
      622    1    1    2    0    0 -0.15923128903E-01 -0.53533308873E-02  0.31652040365E+01  0.31668278761E+01  0.10000000000E+00 0. -1.
</event>
<event>
 5   0  0.6262544E+06  0.9118800E+02  0.7818608E-02  0.1180000E+00
       11   -1    0    0    0    0  0.00000000000E+00  0.00000000000E+00  0.39999999673E+01  0.40000000000E+01  0.51109989000E-03 0.  1.
     -623   -1    0    0    0    0  0.00000000000E+00  0.00000000000E+00  0.12525980253E-10  0.17130000000E+03  0.17130000000E+03 0. -1.
       11    1    1    2    0    0 -0.89950344441E-02 -0.12750876796E-01  0.17707356762E+00  0.17776052733E+00  0.51109989000E-03 0.  1.
     -623    1    1    2    0    0  0.61039338027E-02  0.77635438487E-02  0.19999297510E-02  0.17130000030E+03  0.17130000000E+03 0. -1.
      622    1    1    2    0    0  0.28911006414E-02  0.49873329477E-02  0.38209264700E+01  0.38222391763E+01  0.10000000000E+00 0.  1.
</event>
<event>
 5   0  0.6262544E+06  0.9118800E+02  0.7818608E-02  0.1180000E+00
       11   -1    0    0    0    0  0.00000000000E+00  0.00000000000E+00  0.39999999673E+01  0.40000000000E+01  0.51109989000E-03 0. -1.
     -623   -1    0    0    0    0  0.00000000000E+00  0.00000000000E+00  0.12525980253E-10  0.17130000000E+03  0.17130000000E+03 0.  1.
       11    1    1    2    0    0  0.26438422443E-01 -0.25878244059E-01  0.77138329526E+00  0.77227011021E+00  0.51109989000E-03 0. -1.
     -623    1    1    2    0    0  0.39904577972E-02 -0.43983763447E-01  0.33420075386E-02  0.17130000573E+03  0.17130000000E+03 0.  1.
      622    1    1    2    0    0 -0.30428880240E-01  0.69862007506E-01  0.32252746646E+01  0.32277241640E+01  0.10000000000E+00 0.  0.
</event>
<event>
 5   0  0.6262544E+06  0.9118800E+02  0.7818608E-02  0.1180000E+00
       11   -1    0    0    0    0  0.00000000000E+00  0.00000000000E+00  0.39999999673E+01  0.40000000000E+01  0.51109989000E-03 0. -1.
     -623   -1    0    0    0    0  0.00000000000E+00  0.00000000000E+00  0.12525980253E-10  0.17130000000E+03  0.17130000000E+03 0.  1.
       11    1    1    2    0    0 -0.18658990828E-01 -0.22605509663E-01  0.24497978439E+00  0.24672762915E+00  0.51109989000E-03 0. -1.
     -623    1    1    2    0    0 -0.12773116624E-01  0.20691676747E-01  0.32141288627E-02  0.17130000176E+03  0.17130000000E+03 0.  1.
      622    1    1    2    0    0  0.31432107453E-01  0.19138329162E-02  0.37518060541E+01  0.37532706148E+01  0.10000000000E+00 0. -1.
</event>
<event>
 5   0  0.6262544E+06  0.9118800E+02  0.7818608E-02  0.1180000E+00
       11   -1    0    0    0    0  0.00000000000E+00  0.00000000000E+00  0.39999999673E+01  0.40000000000E+01  0.51109989000E-03 0. -1.
     -623   -1    0    0    0    0  0.00000000000E+00  0.00000000000E+00  0.12525980253E-10  0.17130000000E+03  0.17130000000E+03 0. -1.
       11    1    1    2    0    0  0.43841292488E-02 -0.26383106077E-02  0.13107668164E-01  0.14080250705E-01  0.51109989000E-03 0. -1.
     -623    1    1    2    0    0 -0.10820856099E-01  0.34891223644E-02  0.22328446558E-02  0.17130000039E+03  0.17130000000E+03 0. -1.
      622    1    1    2    0    0  0.64367268505E-02 -0.85081175676E-03  0.39846594546E+01  0.39859193575E+01  0.10000000000E+00 0. -1.
</event>
<event>
 5   0  0.6262544E+06  0.9118800E+02  0.7818608E-02  0.1180000E+00
       11   -1    0    0    0    0  0.00000000000E+00  0.00000000000E+00  0.39999999673E+01  0.40000000000E+01  0.51109989000E-03 0.  1.
     -623   -1    0    0    0    0  0.00000000000E+00  0.00000000000E+00  0.12525980253E-10  0.17130000000E+03  0.17130000000E+03 0.  1.
       11    1    1    2    0    0  0.52472769505E-02 -0.25382156661E-01  0.12459687388E+00  0.12726519553E+00  0.51109989000E-03 0.  1.
     -623    1    1    2    0    0 -0.73692524333E-03 -0.38350538235E-02  0.40725525276E-02  0.17130000009E+03  0.17130000000E+03 0.  1.
      622    1    1    2    0    0 -0.45103517072E-02  0.29217210485E-01  0.38713305410E+01  0.38727347115E+01  0.10000000000E+00 0.  1.
</event>
<event>
 5   0  0.6262544E+06  0.9118800E+02  0.7818608E-02  0.1180000E+00
       11   -1    0    0    0    0  0.00000000000E+00  0.00000000000E+00  0.39999999673E+01  0.40000000000E+01  0.51109989000E-03 0. -1.
     -623   -1    0    0    0    0  0.00000000000E+00  0.00000000000E+00  0.12525980253E-10  0.17130000000E+03  0.17130000000E+03 0. -1.
       11    1    1    2    0    0  0.15357948797E-02  0.35746034252E-02  0.11088978236E-03  0.39255541267E-02  0.51109989000E-03 0. -1.
     -623    1    1    2    0    0 -0.13334313420E-02 -0.50933009537E-02  0.50665052836E-02  0.17130000016E+03  0.17130000000E+03 0. -1.
      622    1    1    2    0    0 -0.20236353766E-03  0.15186975286E-02  0.39948225723E+01  0.39960742901E+01  0.10000000000E+00 0. -1.
</event>
<event>
 5   0  0.6262544E+06  0.9118800E+02  0.7818608E-02  0.1180000E+00
       11   -1    0    0    0    0  0.00000000000E+00  0.00000000000E+00  0.39999999673E+01  0.40000000000E+01  0.51109989000E-03 0. -1.
     -623   -1    0    0    0    0  0.00000000000E+00  0.00000000000E+00  0.12525980253E-10  0.17130000000E+03  0.17130000000E+03 0. -1.
       11    1    1    2    0    0 -0.29553379605E-02 -0.64498977476E-03  0.25714391267E-01  0.25896740637E-01  0.51109989000E-03 0. -1.
     -623    1    1    2    0    0  0.30238756305E-02  0.49610503348E-02  0.14431111105E-02  0.17130000010E+03  0.17130000000E+03 0. -1.
      622    1    1    2    0    0 -0.68537670014E-04 -0.43160605600E-02  0.39728424650E+01  0.39741031547E+01  0.10000000000E+00 0. -1.
</event>
<event>
 5   0  0.6262544E+06  0.9118800E+02  0.7818608E-02  0.1180000E+00
       11   -1    0    0    0    0  0.00000000000E+00  0.00000000000E+00  0.39999999673E+01  0.40000000000E+01  0.51109989000E-03 0. -1.
     -623   -1    0    0    0    0  0.00000000000E+00  0.00000000000E+00  0.12525980253E-10  0.17130000000E+03  0.17130000000E+03 0.  1.
       11    1    1    2    0    0  0.34510515098E-02  0.29768160903E-01  0.22529170793E+01  0.22531164374E+01  0.51109989000E-03 0. -1.
     -623    1    1    2    0    0  0.30709579830E-01 -0.41936819108E-01  0.34489004294E-02  0.17130000792E+03  0.17130000000E+03 0.  1.
      622    1    1    2    0    0 -0.34160631340E-01  0.12168658206E-01  0.17436339878E+01  0.17468756419E+01  0.10000000000E+00 0. -1.
</event>
<event>
 5   0  0.6262544E+06  0.9118800E+02  0.7818608E-02  0.1180000E+00
       11   -1    0    0    0    0  0.00000000000E+00  0.00000000000E+00  0.39999999673E+01  0.40000000000E+01  0.51109989000E-03 0.  1.
     -623   -1    0    0    0    0  0.00000000000E+00  0.00000000000E+00  0.12525980253E-10  0.17130000000E+03  0.17130000000E+03 0. -1.
       11    1    1    2    0    0  0.46182390221E-02 -0.12198935000E-02  0.16245549612E-01  0.16940937905E-01  0.51109989000E-03 0.  1.
     -623    1    1    2    0    0  0.75600691227E-03 -0.36310447479E-02  0.19575031550E-02  0.17130000005E+03  0.17130000000E+03 0. -1.
      622    1    1    2    0    0 -0.53742459343E-02  0.48509382477E-02  0.39817969144E+01  0.39830590106E+01  0.10000000000E+00 0.  1.
</event>
<event>
 5   0  0.6262544E+06  0.9118800E+02  0.7818608E-02  0.1180000E+00
       11   -1    0    0    0    0  0.00000000000E+00  0.00000000000E+00  0.39999999673E+01  0.40000000000E+01  0.51109989000E-03 0. -1.
     -623   -1    0    0    0    0  0.00000000000E+00  0.00000000000E+00  0.12525980253E-10  0.17130000000E+03  0.17130000000E+03 0. -1.
       11    1    1    2    0    0 -0.24282318876E-01 -0.18973664539E-01  0.15163675683E+00  0.15473719074E+00  0.51109989000E-03 0. -1.
     -623    1    1    2    0    0  0.78324560609E-02 -0.48245188126E-02  0.45100961969E-02  0.17130000031E+03  0.17130000000E+03 0. -1.
      622    1    1    2    0    0  0.16449862815E-01  0.23798183352E-01  0.38438531143E+01  0.38452625029E+01  0.10000000000E+00 0. -1.
</event>
<event>
 5   0  0.6262544E+06  0.9118800E+02  0.7818608E-02  0.1180000E+00
       11   -1    0    0    0    0  0.00000000000E+00  0.00000000000E+00  0.39999999673E+01  0.40000000000E+01  0.51109989000E-03 0.  1.
     -623   -1    0    0    0    0  0.00000000000E+00  0.00000000000E+00  0.12525980253E-10  0.17130000000E+03  0.17130000000E+03 0.  1.
       11    1    1    2    0    0 -0.46666749595E-03  0.79850003765E-03  0.28877300639E-01  0.28896627751E-01  0.51109989000E-03 0.  1.
     -623    1    1    2    0    0 -0.11447879984E-02  0.11685132298E-02  0.12794170229E-02  0.17130000001E+03  0.17130000000E+03 0.  1.
      622    1    1    2    0    0  0.16114554944E-02 -0.19670132675E-02  0.39698432497E+01  0.39711033597E+01  0.10000000000E+00 0.  1.
</event>
<event>
 5   0  0.6262544E+06  0.9118800E+02  0.7818608E-02  0.1180000E+00
       11   -1    0    0    0    0  0.00000000000E+00  0.00000000000E+00  0.39999999673E+01  0.40000000000E+01  0.51109989000E-03 0. -1.
     -623   -1    0    0    0    0  0.00000000000E+00  0.00000000000E+00  0.12525980253E-10  0.17130000000E+03  0.17130000000E+03 0.  1.
       11    1    1    2    0    0  0.34141742019E-01 -0.31819709880E-01  0.22767171602E+00  0.23240659195E+00  0.51109989000E-03 0. -1.
     -623    1    1    2    0    0 -0.26930351300E-01 -0.27608200243E-01  0.65424434341E-02  0.17130000447E+03  0.17130000000E+03 0.  1.
      622    1    1    2    0    0 -0.72113907193E-02  0.59427910124E-01  0.37657858079E+01  0.37675889414E+01  0.10000000000E+00 0. -1.
</event>
<event>
 5   0  0.6262544E+06  0.9118800E+02  0.7818608E-02  0.1180000E+00
       11   -1    0    0    0    0  0.00000000000E+00  0.00000000000E+00  0.39999999673E+01  0.40000000000E+01  0.51109989000E-03 0. -1.
     -623   -1    0    0    0    0  0.00000000000E+00  0.00000000000E+00  0.12525980253E-10  0.17130000000E+03  0.17130000000E+03 0.  1.
       11    1    1    2    0    0  0.67418110189E-01  0.29350224048E-01  0.48610231959E+00  0.49163234593E+00  0.51109989000E-03 0. -1.
     -623    1    1    2    0    0 -0.33069528977E-01 -0.47872102610E-02  0.72131029639E-02  0.17130000341E+03  0.17130000000E+03 0.  1.
      622    1    1    2    0    0 -0.34348581212E-01 -0.24563013787E-01  0.35066845448E+01  0.35083642433E+01  0.10000000000E+00 0.  1.
</event>
<event>
 5   0  0.6262544E+06  0.9118800E+02  0.7818608E-02  0.1180000E+00
       11   -1    0    0    0    0  0.00000000000E+00  0.00000000000E+00  0.39999999673E+01  0.40000000000E+01  0.51109989000E-03 0.  1.
     -623   -1    0    0    0    0  0.00000000000E+00  0.00000000000E+00  0.12525980253E-10  0.17130000000E+03  0.17130000000E+03 0.  1.
       11    1    1    2    0    0  0.60912958644E-02  0.57584338658E-02  0.57155918565E-01  0.57769574138E-01  0.51109989000E-03 0.  1.
     -623    1    1    2    0    0  0.17974837975E-02 -0.51009026046E-02  0.18901909031E-02  0.17130000010E+03  0.17130000000E+03 0.  1.
      622    1    1    2    0    0 -0.78887796620E-02 -0.65753126092E-03  0.39409538581E+01  0.39422303303E+01  0.10000000000E+00 0.  1.
</event>
<event>
 5   0  0.6262544E+06  0.9118800E+02  0.7818608E-02  0.1180000E+00
       11   -1    0    0    0    0  0.00000000000E+00  0.00000000000E+00  0.39999999673E+01  0.40000000000E+01  0.51109989000E-03 0.  1.
     -623   -1    0    0    0    0  0.00000000000E+00  0.00000000000E+00  0.12525980253E-10  0.17130000000E+03  0.17130000000E+03 0. -1.
       11    1    1    2    0    0  0.53440153233E-02 -0.32956247680E-01  0.17166902120E+01  0.17170149149E+01  0.51109989000E-03 0.  1.
     -623    1    1    2    0    0  0.54451217774E-02  0.56523093635E-02  0.27049956866E-02  0.17130000020E+03  0.17130000000E+03 0. -1.
      622    1    1    2    0    0 -0.10789137101E-01  0.27303938316E-01  0.22806047597E+01  0.22829848840E+01  0.10000000000E+00 0.  1.
</event>
<event>
 5   0  0.6262544E+06  0.9118800E+02  0.7818608E-02  0.1180000E+00
       11   -1    0    0    0    0  0.00000000000E+00  0.00000000000E+00  0.39999999673E+01  0.40000000000E+01  0.51109989000E-03 0.  1.
     -623   -1    0    0    0    0  0.00000000000E+00  0.00000000000E+00  0.12525980253E-10  0.17130000000E+03  0.17130000000E+03 0.  1.
       11    1    1    2    0    0 -0.44299093693E-02  0.22598423965E-02  0.25356484198E-01  0.25844602893E-01  0.51109989000E-03 0.  1.
     -623    1    1    2    0    0  0.42662591911E-02  0.21820506045E-03  0.17472526185E-02  0.17130000006E+03  0.17130000000E+03 0.  1.
      622    1    1    2    0    0  0.16365017827E-03 -0.24780474569E-02  0.39728962304E+01  0.39741553348E+01  0.10000000000E+00 0.  1.
</event>
<event>
 5   0  0.6262544E+06  0.9118800E+02  0.7818608E-02  0.1180000E+00
       11   -1    0    0    0    0  0.00000000000E+00  0.00000000000E+00  0.39999999673E+01  0.40000000000E+01  0.51109989000E-03 0.  1.
     -623   -1    0    0    0    0  0.00000000000E+00  0.00000000000E+00  0.12525980253E-10  0.17130000000E+03  0.17130000000E+03 0. -1.
       11    1    1    2    0    0 -0.28527650393E-01  0.33226657569E-02  0.12924024437E+01  0.12927216269E+01  0.51109989000E-03 0.  1.
     -623    1    1    2    0    0  0.52193117575E-02  0.10605590572E-02  0.22707100630E-02  0.17130000010E+03  0.17130000000E+03 0. -1.
      622    1    1    2    0    0  0.23308338636E-01 -0.43832248140E-02  0.27053268136E+01  0.27072782753E+01  0.10000000000E+00 0.  0.
</event>
<event>
 5   0  0.6262544E+06  0.9118800E+02  0.7818608E-02  0.1180000E+00
       11   -1    0    0    0    0  0.00000000000E+00  0.00000000000E+00  0.39999999673E+01  0.40000000000E+01  0.51109989000E-03 0.  1.
     -623   -1    0    0    0    0  0.00000000000E+00  0.00000000000E+00  0.12525980253E-10  0.17130000000E+03  0.17130000000E+03 0. -1.
       11    1    1    2    0    0  0.12590117761E-01 -0.62008904708E-02  0.91483807417E-01  0.92555444732E-01  0.51109989000E-03 0.  1.
     -623    1    1    2    0    0  0.85605339161E-02  0.80881623792E-02  0.24095632984E-02  0.17130000042E+03  0.17130000000E+03 0. -1.
      622    1    1    2    0    0 -0.21150651678E-01 -0.18872719083E-02  0.39061065966E+01  0.39074441335E+01  0.10000000000E+00 0.  1.
</event>
<event>
 5   0  0.6262544E+06  0.9118800E+02  0.7818608E-02  0.1180000E+00
       11   -1    0    0    0    0  0.00000000000E+00  0.00000000000E+00  0.39999999673E+01  0.40000000000E+01  0.51109989000E-03 0. -1.
     -623   -1    0    0    0    0  0.00000000000E+00  0.00000000000E+00  0.12525980253E-10  0.17130000000E+03  0.17130000000E+03 0. -1.
       11    1    1    2    0    0 -0.83255073267E-02  0.27035862753E-02  0.88678751689E-01  0.89111198361E-01  0.51109989000E-03 0. -1.
     -623    1    1    2    0    0  0.15964588705E-01 -0.66547396891E-02  0.17214466306E-02  0.17130000088E+03  0.17130000000E+03 0. -1.
      622    1    1    2    0    0 -0.76390813785E-02  0.39511534139E-02  0.39095997690E+01  0.39108879198E+01  0.10000000000E+00 0. -1.
</event>
<event>
 5   0  0.6262544E+06  0.9118800E+02  0.7818608E-02  0.1180000E+00
       11   -1    0    0    0    0  0.00000000000E+00  0.00000000000E+00  0.39999999673E+01  0.40000000000E+01  0.51109989000E-03 0.  1.
     -623   -1    0    0    0    0  0.00000000000E+00  0.00000000000E+00  0.12525980253E-10  0.17130000000E+03  0.17130000000E+03 0.  1.
       11    1    1    2    0    0  0.22312999558E-02 -0.89714663385E-02  0.75431505355E-01  0.75997625825E-01  0.51109989000E-03 0.  1.
     -623    1    1    2    0    0 -0.24953776738E-02  0.30434390865E-02  0.18450472724E-02  0.17130000006E+03  0.17130000000E+03 0.  1.
      622    1    1    2    0    0  0.26407771805E-03  0.59280272519E-02  0.39227234148E+01  0.39240023191E+01  0.10000000000E+00 0.  1.
</event>
<event>
 5   0  0.6262544E+06  0.9118800E+02  0.7818608E-02  0.1180000E+00
       11   -1    0    0    0    0  0.00000000000E+00  0.00000000000E+00  0.39999999673E+01  0.40000000000E+01  0.51109989000E-03 0. -1.
     -623   -1    0    0    0    0  0.00000000000E+00  0.00000000000E+00  0.12525980253E-10  0.17130000000E+03  0.17130000000E+03 0. -1.
       11    1    1    2    0    0  0.36634883980E-02 -0.32817386402E-02  0.14412479150E-01  0.15237182616E-01  0.51109989000E-03 0. -1.
     -623    1    1    2    0    0 -0.22746875379E-02  0.73919140022E-02  0.20821981119E-02  0.17130000019E+03  0.17130000000E+03 0. -1.
      622    1    1    2    0    0 -0.13888008601E-02 -0.41101753622E-02  0.39835052902E+01  0.39847626302E+01  0.10000000000E+00 0. -1.
</event>
<event>
 5   0  0.6262544E+06  0.9118800E+02  0.7818608E-02  0.1180000E+00
       11   -1    0    0    0    0  0.00000000000E+00  0.00000000000E+00  0.39999999673E+01  0.40000000000E+01  0.51109989000E-03 0. -1.
     -623   -1    0    0    0    0  0.00000000000E+00  0.00000000000E+00  0.12525980253E-10  0.17130000000E+03  0.17130000000E+03 0.  1.
       11    1    1    2    0    0 -0.39250677784E-02  0.47458821255E-01  0.29082762187E+00  0.29470105656E+00  0.51109989000E-03 0. -1.
     -623    1    1    2    0    0  0.13152564105E-01 -0.24153102684E-01  0.53101738271E-02  0.17130000229E+03  0.17130000000E+03 0.  1.
      622    1    1    2    0    0 -0.92274963263E-02 -0.23305718571E-01  0.37038621717E+01  0.37052966534E+01  0.10000000000E+00 0. -1.
</event>
<event>
 5   0  0.6262544E+06  0.9118800E+02  0.7818608E-02  0.1180000E+00
       11   -1    0    0    0    0  0.00000000000E+00  0.00000000000E+00  0.39999999673E+01  0.40000000000E+01  0.51109989000E-03 0.  1.
     -623   -1    0    0    0    0  0.00000000000E+00  0.00000000000E+00  0.12525980253E-10  0.17130000000E+03  0.17130000000E+03 0. -1.
       11    1    1    2    0    0  0.50440625026E-01  0.49814462517E-02  0.28035655881E+00  0.28490197042E+00  0.51109989000E-03 0.  1.
     -623    1    1    2    0    0 -0.71007417077E-01 -0.11447632009E-01  0.59692710132E-02  0.17130001520E+03  0.17130000000E+03 0. -1.
      622    1    1    2    0    0  0.20566792050E-01  0.64661857571E-02  0.37136741375E+01  0.37150828260E+01  0.10000000000E+00 0.  1.
</event>
<event>
 5   0  0.6262544E+06  0.9118800E+02  0.7818608E-02  0.1180000E+00
       11   -1    0    0    0    0  0.00000000000E+00  0.00000000000E+00  0.39999999673E+01  0.40000000000E+01  0.51109989000E-03 0. -1.
     -623   -1    0    0    0    0  0.00000000000E+00  0.00000000000E+00  0.12525980253E-10  0.17130000000E+03  0.17130000000E+03 0. -1.
       11    1    1    2    0    0 -0.11155702080E-01 -0.14972431894E-01  0.22942369703E+00  0.23018279124E+00  0.51109989000E-03 0. -1.
     -623    1    1    2    0    0  0.17977203107E-01 -0.48709081399E-02  0.21450634819E-02  0.17130000103E+03  0.17130000000E+03 0. -1.
      622    1    1    2    0    0 -0.68215010266E-02  0.19843340034E-01  0.37684312069E+01  0.37698161828E+01  0.10000000000E+00 0. -1.
</event>
<event>
 5   0  0.6262544E+06  0.9118800E+02  0.7818608E-02  0.1180000E+00
       11   -1    0    0    0    0  0.00000000000E+00  0.00000000000E+00  0.39999999673E+01  0.40000000000E+01  0.51109989000E-03 0. -1.
     -623   -1    0    0    0    0  0.00000000000E+00  0.00000000000E+00  0.12525980253E-10  0.17130000000E+03  0.17130000000E+03 0. -1.
       11    1    1    2    0    0 -0.21212546716E-01 -0.44612016841E-02  0.85894077872E+00  0.85921440690E+00  0.51109989000E-03 0. -1.
     -623    1    1    2    0    0  0.18725353290E-02 -0.18696518961E-02  0.19319485854E-02  0.17130000003E+03  0.17130000000E+03 0. -1.
      622    1    1    2    0    0  0.19340011387E-01  0.63308535801E-02  0.31391272401E+01  0.31407855618E+01  0.10000000000E+00 0. -1.
</event>
<event>
 5   0  0.6262544E+06  0.9118800E+02  0.7818608E-02  0.1180000E+00
       11   -1    0    0    0    0  0.00000000000E+00  0.00000000000E+00  0.39999999673E+01  0.40000000000E+01  0.51109989000E-03 0. -1.
     -623   -1    0    0    0    0  0.00000000000E+00  0.00000000000E+00  0.12525980253E-10  0.17130000000E+03  0.17130000000E+03 0.  1.
       11    1    1    2    0    0 -0.10967361447E-02  0.77633063790E-02  0.10566363569E+00  0.10595535326E+00  0.51109989000E-03 0. -1.
     -623    1    1    2    0    0 -0.17620539394E-02 -0.77434181899E-02  0.15771498647E-02  0.17130000019E+03  0.17130000000E+03 0.  1.
      622    1    1    2    0    0  0.28587900841E-02 -0.19888189068E-04  0.38927591818E+01  0.38940444554E+01  0.10000000000E+00 0. -1.
</event>
<event>
 5   0  0.6262544E+06  0.9118800E+02  0.7818608E-02  0.1180000E+00
       11   -1    0    0    0    0  0.00000000000E+00  0.00000000000E+00  0.39999999673E+01  0.40000000000E+01  0.51109989000E-03 0. -1.
     -623   -1    0    0    0    0  0.00000000000E+00  0.00000000000E+00  0.12525980253E-10  0.17130000000E+03  0.17130000000E+03 0. -1.
       11    1    1    2    0    0 -0.15288150872E-01 -0.13171605930E-01  0.14008334203E+00  0.14153028897E+00  0.51109989000E-03 0. -1.
     -623    1    1    2    0    0 -0.32757357103E-02  0.42871080155E-02  0.27979952217E-02  0.17130000011E+03  0.17130000000E+03 0. -1.
      622    1    1    2    0    0  0.18563886582E-01  0.88844979145E-02  0.38571186301E+01  0.38584696032E+01  0.10000000000E+00 0. -1.
</event>
<event>
 5   0  0.6262544E+06  0.9118800E+02  0.7818608E-02  0.1180000E+00
       11   -1    0    0    0    0  0.00000000000E+00  0.00000000000E+00  0.39999999673E+01  0.40000000000E+01  0.51109989000E-03 0. -1.
     -623   -1    0    0    0    0  0.00000000000E+00  0.00000000000E+00  0.12525980253E-10  0.17130000000E+03  0.17130000000E+03 0. -1.
       11    1    1    2    0    0  0.54028498739E-02 -0.47636320629E-01  0.91995437538E-01  0.10373924802E+00  0.51109989000E-03 0. -1.
     -623    1    1    2    0    0  0.41767159545E-01  0.18905061069E-01  0.13425548151E-01  0.17130000666E+03  0.17130000000E+03 0. -1.
      622    1    1    2    0    0 -0.47170009419E-01  0.28731259560E-01  0.38945789817E+01  0.38962540908E+01  0.10000000000E+00 0. -1.
</event>
<event>
 5   0  0.6262544E+06  0.9118800E+02  0.7818608E-02  0.1180000E+00
       11   -1    0    0    0    0  0.00000000000E+00  0.00000000000E+00  0.39999999673E+01  0.40000000000E+01  0.51109989000E-03 0.  1.
     -623   -1    0    0    0    0  0.00000000000E+00  0.00000000000E+00  0.12525980253E-10  0.17130000000E+03  0.17130000000E+03 0.  1.
       11    1    1    2    0    0  0.73291031031E-02 -0.11609877499E-02  0.31716995065E-01  0.32577486765E-01  0.51109989000E-03 0.  1.
     -623    1    1    2    0    0 -0.80381019251E-03 -0.32200321871E-02  0.21287562211E-02  0.17130000005E+03  0.17130000000E+03 0.  1.
      622    1    1    2    0    0 -0.65252929106E-02  0.43810199370E-02  0.39661542160E+01  0.39674224678E+01  0.10000000000E+00 0.  1.
</event>
<event>
 5   0  0.6262544E+06  0.9118800E+02  0.7818608E-02  0.1180000E+00
       11   -1    0    0    0    0  0.00000000000E+00  0.00000000000E+00  0.39999999673E+01  0.40000000000E+01  0.51109989000E-03 0.  1.
     -623   -1    0    0    0    0  0.00000000000E+00  0.00000000000E+00  0.12525980253E-10  0.17130000000E+03  0.17130000000E+03 0. -1.
       11    1    1    2    0    0 -0.15535255033E-02  0.84368865804E-02 -0.91846773442E-02  0.12578315375E-01  0.51109989000E-03 0.  1.
     -623    1    1    2    0    0  0.19644381847E-01 -0.34241340788E-02  0.23064018564E-01  0.17130000271E+03  0.17130000000E+03 0. -1.
      622    1    1    2    0    0 -0.18090856343E-01 -0.50127525017E-02  0.39861206261E+01  0.39874189713E+01  0.10000000000E+00 0.  1.
</event>
<event>
 5   0  0.6262544E+06  0.9118800E+02  0.7818608E-02  0.1180000E+00
       11   -1    0    0    0    0  0.00000000000E+00  0.00000000000E+00  0.39999999673E+01  0.40000000000E+01  0.51109989000E-03 0. -1.
     -623   -1    0    0    0    0  0.00000000000E+00  0.00000000000E+00  0.12525980253E-10  0.17130000000E+03  0.17130000000E+03 0. -1.
       11    1    1    2    0    0 -0.67441482307E-01  0.37805128883E-01  0.31168931383E+00  0.32113559578E+00  0.51109989000E-03 0. -1.
     -623    1    1    2    0    0  0.39907179749E-01 -0.14537187981E-01  0.10987926912E-01  0.17130000562E+03  0.17130000000E+03 0. -1.
      622    1    1    2    0    0  0.27534302558E-01 -0.23267940902E-01  0.36773227266E+01  0.36788587864E+01  0.10000000000E+00 0.  0.
</event>
<event>
 5   0  0.6262544E+06  0.9118800E+02  0.7818608E-02  0.1180000E+00
       11   -1    0    0    0    0  0.00000000000E+00  0.00000000000E+00  0.39999999673E+01  0.40000000000E+01  0.51109989000E-03 0.  1.
     -623   -1    0    0    0    0  0.00000000000E+00  0.00000000000E+00  0.12525980253E-10  0.17130000000E+03  0.17130000000E+03 0.  1.
       11    1    1    2    0    0 -0.97939169805E-02 -0.27262154540E-01  0.90245803054E+00  0.90292297788E+00  0.51109989000E-03 0.  1.
     -623    1    1    2    0    0  0.54850797612E-02 -0.11768557244E-02  0.22135083708E-02  0.17130000011E+03  0.17130000000E+03 0.  1.
      622    1    1    2    0    0  0.43088372193E-02  0.28439010264E-01  0.30953284285E+01  0.30970769160E+01  0.10000000000E+00 0.  1.
</event>
<event>
 5   0  0.6262544E+06  0.9118800E+02  0.7818608E-02  0.1180000E+00
       11   -1    0    0    0    0  0.00000000000E+00  0.00000000000E+00  0.39999999673E+01  0.40000000000E+01  0.51109989000E-03 0.  1.
     -623   -1    0    0    0    0  0.00000000000E+00  0.00000000000E+00  0.12525980253E-10  0.17130000000E+03  0.17130000000E+03 0. -1.
       11    1    1    2    0    0 -0.19803545137E-02  0.49406786749E-02  0.97912075879E-02  0.11156212504E-01  0.51109989000E-03 0.  1.
     -623    1    1    2    0    0  0.72377608493E-02  0.60279979686E-03  0.26261585356E-02  0.17130000017E+03  0.17130000000E+03 0. -1.
      622    1    1    2    0    0 -0.52574063356E-02 -0.55434784717E-02  0.39875826012E+01  0.39888436134E+01  0.10000000000E+00 0.  1.
</event>
<event>
 5   0  0.6262544E+06  0.9118800E+02  0.7818608E-02  0.1180000E+00
       11   -1    0    0    0    0  0.00000000000E+00  0.00000000000E+00  0.39999999673E+01  0.40000000000E+01  0.51109989000E-03 0.  1.
     -623   -1    0    0    0    0  0.00000000000E+00  0.00000000000E+00  0.12525980253E-10  0.17130000000E+03  0.17130000000E+03 0. -1.
       11    1    1    2    0    0  0.89470241115E-02  0.11859210778E-01  0.90770071202E-01  0.91979112682E-01  0.51109989000E-03 0.  1.
     -623    1    1    2    0    0  0.54353074542E-02 -0.32173832609E-01  0.25710577543E-02  0.17130000313E+03  0.17130000000E+03 0. -1.
      622    1    1    2    0    0 -0.14382331566E-01  0.20314621831E-01  0.39066588383E+01  0.39080177602E+01  0.10000000000E+00 0.  1.
</event>
<event>
 5   0  0.6262544E+06  0.9118800E+02  0.7818608E-02  0.1180000E+00
       11   -1    0    0    0    0  0.00000000000E+00  0.00000000000E+00  0.39999999673E+01  0.40000000000E+01  0.51109989000E-03 0.  1.
     -623   -1    0    0    0    0  0.00000000000E+00  0.00000000000E+00  0.12525980253E-10  0.17130000000E+03  0.17130000000E+03 0.  1.
       11    1    1    2    0    0  0.27739739986E-02  0.36666960376E-03  0.56069810001E-02  0.62871963049E-02  0.51109989000E-03 0.  1.
     -623    1    1    2    0    0 -0.29445404374E-02  0.12738672823E-02  0.19327284632E-02  0.17130000004E+03  0.17130000000E+03 0.  1.
      622    1    1    2    0    0  0.17056643901E-03 -0.16405368862E-02  0.39924602582E+01  0.39937127630E+01  0.10000000000E+00 0.  1.
</event>
<event>
 5   0  0.6262544E+06  0.9118800E+02  0.7818608E-02  0.1180000E+00
       11   -1    0    0    0    0  0.00000000000E+00  0.00000000000E+00  0.39999999673E+01  0.40000000000E+01  0.51109989000E-03 0. -1.
     -623   -1    0    0    0    0  0.00000000000E+00  0.00000000000E+00  0.12525980253E-10  0.17130000000E+03  0.17130000000E+03 0.  1.
       11    1    1    2    0    0  0.71226705373E-02 -0.17122764221E-01  0.74425958303E+00  0.74449077204E+00  0.51109989000E-03 0. -1.
     -623    1    1    2    0    0  0.13726175263E-01  0.36249817042E-01  0.18947836829E-02  0.17130000440E+03  0.17130000000E+03 0.  1.
      622    1    1    2    0    0 -0.20848845800E-01 -0.19127052819E-01  0.32538456005E+01  0.32555048319E+01  0.10000000000E+00 0. -1.
</event>
<event>
 5   0  0.6262544E+06  0.9118800E+02  0.7818608E-02  0.1180000E+00
       11   -1    0    0    0    0  0.00000000000E+00  0.00000000000E+00  0.39999999673E+01  0.40000000000E+01  0.51109989000E-03 0.  1.
     -623   -1    0    0    0    0  0.00000000000E+00  0.00000000000E+00  0.12525980253E-10  0.17130000000E+03  0.17130000000E+03 0.  1.
       11    1    1    2    0    0 -0.51505813195E-02  0.49097436040E-02  0.49103067388E-01  0.49618610618E-01  0.51109989000E-03 0.  1.
     -623    1    1    2    0    0  0.12064809318E-01 -0.18418381380E-01  0.18119963478E-02  0.17130000142E+03  0.17130000000E+03 0.  1.
      622    1    1    2    0    0 -0.69142279985E-02  0.13508637776E-01  0.39490849036E+01  0.39503799647E+01  0.10000000000E+00 0.  1.
</event>
<event>
 5   0  0.6262544E+06  0.9118800E+02  0.7818608E-02  0.1180000E+00
       11   -1    0    0    0    0  0.00000000000E+00  0.00000000000E+00  0.39999999673E+01  0.40000000000E+01  0.51109989000E-03 0.  1.
     -623   -1    0    0    0    0  0.00000000000E+00  0.00000000000E+00  0.12525980253E-10  0.17130000000E+03  0.17130000000E+03 0.  1.
       11    1    1    2    0    0  0.73170083225E-02 -0.63913490056E-03  0.14891154424E+01  0.14891336438E+01  0.51109989000E-03 0.  1.
     -623    1    1    2    0    0 -0.25490615996E-02  0.72855344191E-02  0.20238238805E-02  0.17130000019E+03  0.17130000000E+03 0.  1.
      622    1    1    2    0    0 -0.47679467227E-02 -0.66463995190E-02  0.25088607013E+01  0.25108661706E+01  0.10000000000E+00 0.  1.
</event>
<event>
 5   0  0.6262544E+06  0.9118800E+02  0.7818608E-02  0.1180000E+00
       11   -1    0    0    0    0  0.00000000000E+00  0.00000000000E+00  0.39999999673E+01  0.40000000000E+01  0.51109989000E-03 0.  1.
     -623   -1    0    0    0    0  0.00000000000E+00  0.00000000000E+00  0.12525980253E-10  0.17130000000E+03  0.17130000000E+03 0. -1.
       11    1    1    2    0    0 -0.12491473638E-01 -0.71358403120E-02  0.15706993590E+00  0.15772819379E+00  0.51109989000E-03 0.  1.
     -623    1    1    2    0    0  0.16859740697E-01  0.44664938688E-02  0.19640701634E-02  0.17130000090E+03  0.17130000000E+03 0. -1.
      622    1    1    2    0    0 -0.43682670579E-02  0.26693464435E-02  0.38409659611E+01  0.38422709068E+01  0.10000000000E+00 0.  1.
</event>
<event>
 5   0  0.6262544E+06  0.9118800E+02  0.7818608E-02  0.1180000E+00
       11   -1    0    0    0    0  0.00000000000E+00  0.00000000000E+00  0.39999999673E+01  0.40000000000E+01  0.51109989000E-03 0.  1.
     -623   -1    0    0    0    0  0.00000000000E+00  0.00000000000E+00  0.12525980253E-10  0.17130000000E+03  0.17130000000E+03 0.  1.
       11    1    1    2    0    0 -0.79486006592E-02  0.58855939622E-02  0.38942274143E-02  0.10641743174E-01  0.51109989000E-03 0.  1.
     -623    1    1    2    0    0  0.72336158356E-02 -0.13448027965E-01  0.80091168083E-02  0.17130000087E+03  0.17130000000E+03 0.  1.
      622    1    1    2    0    0  0.71498482355E-03  0.75624340027E-02  0.39880966231E+01  0.39893573890E+01  0.10000000000E+00 0.  1.
</event>
<event>
 5   0  0.6262544E+06  0.9118800E+02  0.7818608E-02  0.1180000E+00
       11   -1    0    0    0    0  0.00000000000E+00  0.00000000000E+00  0.39999999673E+01  0.40000000000E+01  0.51109989000E-03 0. -1.
     -623   -1    0    0    0    0  0.00000000000E+00  0.00000000000E+00  0.12525980253E-10  0.17130000000E+03  0.17130000000E+03 0.  1.
       11    1    1    2    0    0  0.92180592355E-02  0.88211518704E-01  0.31446993145E+01  0.31459498223E+01  0.51109989000E-03 0. -1.
     -623    1    1    2    0    0 -0.16363520768E-01 -0.45727332686E-01  0.82270758370E-02  0.17130000708E+03  0.17130000000E+03 0.  1.
      622    1    1    2    0    0  0.71454615321E-02 -0.42484186018E-01  0.84707357702E+00  0.85404309526E+00  0.10000000000E+00 0.  1.
</event>
<event>
 5   0  0.6262544E+06  0.9118800E+02  0.7818608E-02  0.1180000E+00
       11   -1    0    0    0    0  0.00000000000E+00  0.00000000000E+00  0.39999999673E+01  0.40000000000E+01  0.51109989000E-03 0.  1.
     -623   -1    0    0    0    0  0.00000000000E+00  0.00000000000E+00  0.12525980253E-10  0.17130000000E+03  0.17130000000E+03 0. -1.
       11    1    1    2    0    0  0.11213190113E-03 -0.55186763953E-02  0.56659085613E-01  0.56929619429E-01  0.51109989000E-03 0.  1.
     -623    1    1    2    0    0 -0.70032451043E-02  0.30594628255E-02  0.15457207125E-02  0.17130000018E+03  0.17130000000E+03 0. -1.
      622    1    1    2    0    0  0.68911132032E-02  0.24592135698E-02  0.39417951611E+01  0.39430702031E+01  0.10000000000E+00 0.  1.
</event>
<event>
 5   0  0.6262544E+06  0.9118800E+02  0.7818608E-02  0.1180000E+00
       11   -1    0    0    0    0  0.00000000000E+00  0.00000000000E+00  0.39999999673E+01  0.40000000000E+01  0.51109989000E-03 0. -1.
     -623   -1    0    0    0    0  0.00000000000E+00  0.00000000000E+00  0.12525980253E-10  0.17130000000E+03  0.17130000000E+03 0.  1.
       11    1    1    2    0    0  0.99105609200E-02 -0.29686128893E-01  0.10063941426E+01  0.10068807859E+01  0.51109989000E-03 0. -1.
     -623    1    1    2    0    0  0.10191634426E-01  0.13361641742E-01  0.22705011313E-02  0.17130000084E+03  0.17130000000E+03 0.  1.
      622    1    1    2    0    0 -0.20102195346E-01  0.16324487151E-01  0.29913353236E+01  0.29931183748E+01  0.10000000000E+00 0. -1.
</event>
<event>
 5   0  0.6262544E+06  0.9118800E+02  0.7818608E-02  0.1180000E+00
       11   -1    0    0    0    0  0.00000000000E+00  0.00000000000E+00  0.39999999673E+01  0.40000000000E+01  0.51109989000E-03 0.  1.
     -623   -1    0    0    0    0  0.00000000000E+00  0.00000000000E+00  0.12525980253E-10  0.17130000000E+03  0.17130000000E+03 0.  1.
       11    1    1    2    0    0 -0.79719035287E-03  0.20919816798E-02 -0.83561543730E-03  0.24436395740E-02  0.51109989000E-03 0.  1.
     -623    1    1    2    0    0 -0.23768255623E-02 -0.67522172935E-02  0.45343695515E-02  0.17130000021E+03  0.17130000000E+03 0.  1.
      622    1    1    2    0    0  0.31740159151E-02  0.46602356137E-02  0.39963012132E+01  0.39975561508E+01  0.10000000000E+00 0.  1.
</event>
<event>
 5   0  0.6262544E+06  0.9118800E+02  0.7818608E-02  0.1180000E+00
       11   -1    0    0    0    0  0.00000000000E+00  0.00000000000E+00  0.39999999673E+01  0.40000000000E+01  0.51109989000E-03 0.  1.
     -623   -1    0    0    0    0  0.00000000000E+00  0.00000000000E+00  0.12525980253E-10  0.17130000000E+03  0.17130000000E+03 0.  1.
       11    1    1    2    0    0 -0.92274832570E-04  0.16799458360E-03  0.75984873245E-02  0.76180684686E-02  0.51109989000E-03 0.  1.
     -623    1    1    2    0    0  0.10952952430E-01 -0.62896716222E-02  0.12920727321E-02  0.17130000047E+03  0.17130000000E+03 0.  1.
      622    1    1    2    0    0 -0.10860677598E-01  0.61216770386E-02  0.39911094073E+01  0.39923814610E+01  0.10000000000E+00 0.  1.
</event>
<event>
 5   0  0.6262544E+06  0.9118800E+02  0.7818608E-02  0.1180000E+00
       11   -1    0    0    0    0  0.00000000000E+00  0.00000000000E+00  0.39999999673E+01  0.40000000000E+01  0.51109989000E-03 0.  1.
     -623   -1    0    0    0    0  0.00000000000E+00  0.00000000000E+00  0.12525980253E-10  0.17130000000E+03  0.17130000000E+03 0.  1.
       11    1    1    2    0    0 -0.66624942714E-03  0.45071481992E-03  0.22065257336E+00  0.22065463145E+00  0.51109989000E-03 0.  1.
     -623    1    1    2    0    0 -0.15453882490E-02 -0.61479066200E-03  0.13259016513E-02  0.17130000001E+03  0.17130000000E+03 0.  1.
      622    1    1    2    0    0  0.22116376762E-02  0.16407584207E-03  0.37780214924E+01  0.37793453553E+01  0.10000000000E+00 0.  1.
</event>
<event>
 5   0  0.6262544E+06  0.9118800E+02  0.7818608E-02  0.1180000E+00
       11   -1    0    0    0    0  0.00000000000E+00  0.00000000000E+00  0.39999999673E+01  0.40000000000E+01  0.51109989000E-03 0.  1.
     -623   -1    0    0    0    0  0.00000000000E+00  0.00000000000E+00  0.12525980253E-10  0.17130000000E+03  0.17130000000E+03 0.  1.
       11    1    1    2    0    0 -0.64811897982E-03 -0.15140084670E-02  0.16539668729E-02  0.23893742621E-02  0.51109989000E-03 0.  1.
     -623    1    1    2    0    0 -0.35583050199E-03  0.51347548853E-02  0.19881728147E-02  0.17130000009E+03  0.17130000000E+03 0.  1.
      622    1    1    2    0    0  0.10039494818E-02 -0.36207464181E-02  0.39963578276E+01  0.39976105368E+01  0.10000000000E+00 0.  1.
</event>
<event>
 5   0  0.6262544E+06  0.9118800E+02  0.7818608E-02  0.1180000E+00
       11   -1    0    0    0    0  0.00000000000E+00  0.00000000000E+00  0.39999999673E+01  0.40000000000E+01  0.51109989000E-03 0.  1.
     -623   -1    0    0    0    0  0.00000000000E+00  0.00000000000E+00  0.12525980253E-10  0.17130000000E+03  0.17130000000E+03 0. -1.
       11    1    1    2    0    0  0.62631918449E-02  0.14791648228E-01  0.34938117716E+00  0.34975060915E+00  0.51109989000E-03 0.  1.
     -623    1    1    2    0    0 -0.33655479490E-03  0.38049073732E-02  0.17916801382E-02  0.17130000005E+03  0.17130000000E+03 0. -1.
      622    1    1    2    0    0 -0.59266370500E-02 -0.18596555601E-01  0.36488271102E+01  0.36502493390E+01  0.10000000000E+00 0.  1.
</event>
<event>
 5   0  0.6262544E+06  0.9118800E+02  0.7818608E-02  0.1180000E+00
       11   -1    0    0    0    0  0.00000000000E+00  0.00000000000E+00  0.39999999673E+01  0.40000000000E+01  0.51109989000E-03 0. -1.
     -623   -1    0    0    0    0  0.00000000000E+00  0.00000000000E+00  0.12525980253E-10  0.17130000000E+03  0.17130000000E+03 0. -1.
       11    1    1    2    0    0  0.56336903936E-01  0.99963148270E-01  0.77541387709E+00  0.78385803546E+00  0.51109989000E-03 0. -1.
     -623    1    1    2    0    0 -0.14272082119E-02 -0.97073643826E-02  0.11736333231E-01  0.17130000068E+03  0.17130000000E+03 0. -1.
      622    1    1    2    0    0 -0.54909695724E-01 -0.90255783887E-01  0.32128497570E+01  0.32161412815E+01  0.10000000000E+00 0. -1.
</event>
<event>
 5   0  0.6262544E+06  0.9118800E+02  0.7818608E-02  0.1180000E+00
       11   -1    0    0    0    0  0.00000000000E+00  0.00000000000E+00  0.39999999673E+01  0.40000000000E+01  0.51109989000E-03 0. -1.
     -623   -1    0    0    0    0  0.00000000000E+00  0.00000000000E+00  0.12525980253E-10  0.17130000000E+03  0.17130000000E+03 0. -1.
       11    1    1    2    0    0 -0.18287509760E-01  0.55411368656E-02  0.69821193086E+00  0.69847354912E+00  0.51109989000E-03 0. -1.
     -623    1    1    2    0    0  0.18013351649E-01 -0.51740528058E-02  0.17774508781E-02  0.17130000103E+03  0.17130000000E+03 0. -1.
      622    1    1    2    0    0  0.27415811032E-03 -0.36708405956E-03  0.33000105858E+01  0.33015254166E+01  0.10000000000E+00 0. -1.
</event>
<event>
 5   0  0.6262544E+06  0.9118800E+02  0.7818608E-02  0.1180000E+00
       11   -1    0    0    0    0  0.00000000000E+00  0.00000000000E+00  0.39999999673E+01  0.40000000000E+01  0.51109989000E-03 0.  1.
     -623   -1    0    0    0    0  0.00000000000E+00  0.00000000000E+00  0.12525980253E-10  0.17130000000E+03  0.17130000000E+03 0.  1.
       11    1    1    2    0    0 -0.16553493466E-01 -0.86100853653E-02  0.15774776342E+00  0.15884826031E+00  0.51109989000E-03 0.  1.
     -623    1    1    2    0    0  0.68276516546E-02  0.30176076865E-01  0.24780697534E-02  0.17130000281E+03  0.17130000000E+03 0.  1.
      622    1    1    2    0    0  0.97258418115E-02 -0.21565991499E-01  0.38397741341E+01  0.38411489277E+01  0.10000000000E+00 0.  1.
</event>
<event>
 5   0  0.6262544E+06  0.9118800E+02  0.7818608E-02  0.1180000E+00
       11   -1    0    0    0    0  0.00000000000E+00  0.00000000000E+00  0.39999999673E+01  0.40000000000E+01  0.51109989000E-03 0.  1.
     -623   -1    0    0    0    0  0.00000000000E+00  0.00000000000E+00  0.12525980253E-10  0.17130000000E+03  0.17130000000E+03 0.  1.
       11    1    1    2    0    0 -0.20703357979E-01 -0.32197722051E-01  0.14565164043E+01  0.14570194301E+01  0.51109989000E-03 0.  1.
     -623    1    1    2    0    0  0.26616232480E-01  0.23846018154E-01  0.24943038159E-02  0.17130000375E+03  0.17130000000E+03 0.  1.
      622    1    1    2    0    0 -0.59128745019E-02  0.83517038955E-02  0.25409892593E+01  0.25429768243E+01  0.10000000000E+00 0.  1.
</event>
<event>
 5   0  0.6262544E+06  0.9118800E+02  0.7818608E-02  0.1180000E+00
       11   -1    0    0    0    0  0.00000000000E+00  0.00000000000E+00  0.39999999673E+01  0.40000000000E+01  0.51109989000E-03 0.  1.
     -623   -1    0    0    0    0  0.00000000000E+00  0.00000000000E+00  0.12525980253E-10  0.17130000000E+03  0.17130000000E+03 0. -1.
       11    1    1    2    0    0  0.25446188843E-02  0.60833203044E-02  0.45106705739E+00  0.45111554324E+00  0.51109989000E-03 0.  1.
     -623    1    1    2    0    0  0.70325423901E-02 -0.31209731845E-01  0.15625354586E-02  0.17130000299E+03  0.17130000000E+03 0. -1.
      622    1    1    2    0    0 -0.95771612744E-02  0.25126411541E-01  0.35473703745E+01  0.35488814622E+01  0.10000000000E+00 0.  1.
</event>
<event>
 5   0  0.6262544E+06  0.9118800E+02  0.7818608E-02  0.1180000E+00
       11   -1    0    0    0    0  0.00000000000E+00  0.00000000000E+00  0.39999999673E+01  0.40000000000E+01  0.51109989000E-03 0. -1.
     -623   -1    0    0    0    0  0.00000000000E+00  0.00000000000E+00  0.12525980253E-10  0.17130000000E+03  0.17130000000E+03 0.  1.
       11    1    1    2    0    0 -0.68139601224E-02  0.16511111710E-01  0.40477314734E+00  0.40516738379E+00  0.51109989000E-03 0. -1.
     -623    1    1    2    0    0  0.84806666436E-02 -0.15056708830E-02  0.18173010325E-02  0.17130000023E+03  0.17130000000E+03 0.  1.
      622    1    1    2    0    0 -0.16667065213E-02 -0.15005440827E-01  0.35934095191E+01  0.35948323901E+01  0.10000000000E+00 0. -1.
</event>
<event>
 5   0  0.6262544E+06  0.9118800E+02  0.7818608E-02  0.1180000E+00
       11   -1    0    0    0    0  0.00000000000E+00  0.00000000000E+00  0.39999999673E+01  0.40000000000E+01  0.51109989000E-03 0. -1.
     -623   -1    0    0    0    0  0.00000000000E+00  0.00000000000E+00  0.12525980253E-10  0.17130000000E+03  0.17130000000E+03 0. -1.
       11    1    1    2    0    0  0.12163851152E-02 -0.21937459183E-03  0.33438562854E-02  0.36014324809E-02  0.51109989000E-03 0. -1.
     -623    1    1    2    0    0  0.30355911233E-03  0.16355944509E-02  0.15094207957E-02  0.17130000001E+03  0.17130000000E+03 0. -1.
      622    1    1    2    0    0 -0.15199442275E-02 -0.14162198591E-02  0.39951466905E+01  0.39963985530E+01  0.10000000000E+00 0. -1.
</event>
<event>
 5   0  0.6262544E+06  0.9118800E+02  0.7818608E-02  0.1180000E+00
       11   -1    0    0    0    0  0.00000000000E+00  0.00000000000E+00  0.39999999673E+01  0.40000000000E+01  0.51109989000E-03 0. -1.
     -623   -1    0    0    0    0  0.00000000000E+00  0.00000000000E+00  0.12525980253E-10  0.17130000000E+03  0.17130000000E+03 0.  1.
       11    1    1    2    0    0  0.28591074809E-01 -0.12873404988E-01  0.15120860058E+01  0.15124111624E+01  0.51109989000E-03 0. -1.
     -623    1    1    2    0    0  0.97590544449E-02  0.21568811953E-02  0.26552033064E-02  0.17130000031E+03  0.17130000000E+03 0.  1.
      622    1    1    2    0    0 -0.38350129254E-01  0.10716523793E-01  0.24852587583E+01  0.24875885254E+01  0.10000000000E+00 0. -1.
</event>
<event>
 5   0  0.6262544E+06  0.9118800E+02  0.7818608E-02  0.1180000E+00
       11   -1    0    0    0    0  0.00000000000E+00  0.00000000000E+00  0.39999999673E+01  0.40000000000E+01  0.51109989000E-03 0.  1.
     -623   -1    0    0    0    0  0.00000000000E+00  0.00000000000E+00  0.12525980253E-10  0.17130000000E+03  0.17130000000E+03 0.  1.
       11    1    1    2    0    0 -0.17494924543E-02  0.18388201219E-01  0.12987171697E+00  0.13117968882E+00  0.51109989000E-03 0.  1.
     -623    1    1    2    0    0  0.31311963132E-01 -0.64863107453E-01  0.30079554099E-02  0.17130001517E+03  0.17130000000E+03 0.  1.
      622    1    1    2    0    0 -0.29562470679E-01  0.46474906237E-01  0.38671202952E+01  0.38688051429E+01  0.10000000000E+00 0.  1.
</event>
<event>
 5   0  0.6262544E+06  0.9118800E+02  0.7818608E-02  0.1180000E+00
       11   -1    0    0    0    0  0.00000000000E+00  0.00000000000E+00  0.39999999673E+01  0.40000000000E+01  0.51109989000E-03 0. -1.
     -623   -1    0    0    0    0  0.00000000000E+00  0.00000000000E+00  0.12525980253E-10  0.17130000000E+03  0.17130000000E+03 0. -1.
       11    1    1    2    0    0 -0.26253984789E-02  0.19319168846E-02  0.72744632587E-01  0.72819419187E-01  0.51109989000E-03 0. -1.
     -623    1    1    2    0    0  0.10466743362E-01  0.89918671431E-02  0.13717284719E-02  0.17130000056E+03  0.17130000000E+03 0. -1.
      622    1    1    2    0    0 -0.78413448836E-02 -0.10923784028E-01  0.39258836063E+01  0.39271800196E+01  0.10000000000E+00 0. -1.
</event>
<event>
 5   0  0.6262544E+06  0.9118800E+02  0.7818608E-02  0.1180000E+00
       11   -1    0    0    0    0  0.00000000000E+00  0.00000000000E+00  0.39999999673E+01  0.40000000000E+01  0.51109989000E-03 0.  1.
     -623   -1    0    0    0    0  0.00000000000E+00  0.00000000000E+00  0.12525980253E-10  0.17130000000E+03  0.17130000000E+03 0.  1.
       11    1    1    2    0    0 -0.20678581508E-02 -0.28303600377E-02  0.20122611147E+00  0.20125728841E+00  0.51109989000E-03 0.  1.
     -623    1    1    2    0    0 -0.13854630647E-02 -0.23307646316E-02  0.13527016517E-02  0.17130000003E+03  0.17130000000E+03 0.  1.
      622    1    1    2    0    0  0.34533212156E-02  0.51611246694E-02  0.37974211545E+01  0.37987426851E+01  0.10000000000E+00 0.  1.
</event>
<event>
 5   0  0.6262544E+06  0.9118800E+02  0.7818608E-02  0.1180000E+00
       11   -1    0    0    0    0  0.00000000000E+00  0.00000000000E+00  0.39999999673E+01  0.40000000000E+01  0.51109989000E-03 0. -1.
     -623   -1    0    0    0    0  0.00000000000E+00  0.00000000000E+00  0.12525980253E-10  0.17130000000E+03  0.17130000000E+03 0.  1.
       11    1    1    2    0    0 -0.11855484598E+00 -0.28250027207E-01  0.14194528800E+01  0.14246754210E+01  0.51109989000E-03 0. -1.
     -623    1    1    2    0    0 -0.16927033355E-01  0.14641975643E-01  0.10771436975E-01  0.17130000180E+03  0.17130000000E+03 0.  1.
      622    1    1    2    0    0  0.13548187933E+00  0.13608051563E-01  0.25697756505E+01  0.25753227783E+01  0.10000000000E+00 0. -1.
</event>
<event>
 5   0  0.6262544E+06  0.9118800E+02  0.7818608E-02  0.1180000E+00
       11   -1    0    0    0    0  0.00000000000E+00  0.00000000000E+00  0.39999999673E+01  0.40000000000E+01  0.51109989000E-03 0.  1.
     -623   -1    0    0    0    0  0.00000000000E+00  0.00000000000E+00  0.12525980253E-10  0.17130000000E+03  0.17130000000E+03 0. -1.
       11    1    1    2    0    0  0.26112610708E-03  0.11331122257E-02  0.43835497837E-01  0.43853896308E-01  0.51109989000E-03 0.  1.
     -623    1    1    2    0    0 -0.17795671687E-02 -0.38912763938E-02  0.12837355783E-02  0.17130000006E+03  0.17130000000E+03 0. -1.
      622    1    1    2    0    0  0.15184410616E-02  0.27581641680E-02  0.39548807339E+01  0.39561460454E+01  0.10000000000E+00 0.  1.
</event>
<event>
 5   0  0.6262544E+06  0.9118800E+02  0.7818608E-02  0.1180000E+00
       11   -1    0    0    0    0  0.00000000000E+00  0.00000000000E+00  0.39999999673E+01  0.40000000000E+01  0.51109989000E-03 0. -1.
     -623   -1    0    0    0    0  0.00000000000E+00  0.00000000000E+00  0.12525980253E-10  0.17130000000E+03  0.17130000000E+03 0. -1.
       11    1    1    2    0    0 -0.92000404730E-05  0.86562375005E-03  0.60607132935E-03  0.11738546210E-02  0.51109989000E-03 0. -1.
     -623    1    1    2    0    0  0.21687578704E-03  0.18494404372E-03  0.18184664665E-02  0.17130000001E+03  0.17130000000E+03 0. -1.
      622    1    1    2    0    0 -0.20767574657E-03 -0.10505677938E-02  0.39975754296E+01  0.39988261355E+01  0.10000000000E+00 0. -1.
</event>
<event>
 5   0  0.6262544E+06  0.9118800E+02  0.7818608E-02  0.1180000E+00
       11   -1    0    0    0    0  0.00000000000E+00  0.00000000000E+00  0.39999999673E+01  0.40000000000E+01  0.51109989000E-03 0. -1.
     -623   -1    0    0    0    0  0.00000000000E+00  0.00000000000E+00  0.12525980253E-10  0.17130000000E+03  0.17130000000E+03 0. -1.
       11    1    1    2    0    0  0.10053574682E-01  0.36564052699E-01  0.70142234369E-01  0.79738313104E-01  0.51109989000E-03 0. -1.
     -623    1    1    2    0    0 -0.27361560388E-01 -0.38647787153E-02  0.11048906830E-01  0.17130000259E+03  0.17130000000E+03 0. -1.
      622    1    1    2    0    0  0.17307985707E-01 -0.32699273984E-01  0.39188088262E+01  0.39202591018E+01  0.10000000000E+00 0. -1.
</event>
<event>
 5   0  0.6262544E+06  0.9118800E+02  0.7818608E-02  0.1180000E+00
       11   -1    0    0    0    0  0.00000000000E+00  0.00000000000E+00  0.39999999673E+01  0.40000000000E+01  0.51109989000E-03 0. -1.
     -623   -1    0    0    0    0  0.00000000000E+00  0.00000000000E+00  0.12525980253E-10  0.17130000000E+03  0.17130000000E+03 0. -1.
       11    1    1    2    0    0 -0.21415000529E-02 -0.40596771302E-02  0.30811587050E-01  0.31155771846E-01  0.51109989000E-03 0. -1.
     -623    1    1    2    0    0  0.54424193667E-02 -0.55201301599E-02  0.16172863403E-02  0.17130000018E+03  0.17130000000E+03 0. -1.
      622    1    1    2    0    0 -0.33009193138E-02  0.95798072900E-02  0.39675710940E+01  0.39688440451E+01  0.10000000000E+00 0. -1.
</event>
<event>
 5   0  0.6262544E+06  0.9118800E+02  0.7818608E-02  0.1180000E+00
       11   -1    0    0    0    0  0.00000000000E+00  0.00000000000E+00  0.39999999673E+01  0.40000000000E+01  0.51109989000E-03 0.  1.
     -623   -1    0    0    0    0  0.00000000000E+00  0.00000000000E+00  0.12525980253E-10  0.17130000000E+03  0.17130000000E+03 0. -1.
       11    1    1    2    0    0  0.49478946401E-02  0.18832934668E-02  0.13147272673E-02  0.54788855196E-02  0.51109989000E-03 0.  1.
     -623    1    1    2    0    0 -0.16977200229E-01  0.27326439588E-02  0.54377724019E-02  0.17130000095E+03  0.17130000000E+03 0. -1.
      622    1    1    2    0    0  0.12029305588E-01 -0.46159374256E-02  0.39932474676E+01  0.39945201650E+01  0.10000000000E+00 0.  1.
</event>
<event>
 5   0  0.6262544E+06  0.9118800E+02  0.7818608E-02  0.1180000E+00
       11   -1    0    0    0    0  0.00000000000E+00  0.00000000000E+00  0.39999999673E+01  0.40000000000E+01  0.51109989000E-03 0.  1.
     -623   -1    0    0    0    0  0.00000000000E+00  0.00000000000E+00  0.12525980253E-10  0.17130000000E+03  0.17130000000E+03 0.  1.
       11    1    1    2    0    0 -0.20086832923E-01  0.29958896812E-01  0.45532799642E+00  0.45675470649E+00  0.51109989000E-03 0.  1.
     -623    1    1    2    0    0 -0.17065363703E-01 -0.41467393121E-01  0.30575518133E-02  0.17130000590E+03  0.17130000000E+03 0.  1.
      622    1    1    2    0    0  0.37152196625E-01  0.11508496309E-01  0.35416144191E+01  0.35432393971E+01  0.10000000000E+00 0.  1.
</event>
<event>
 5   0  0.6262544E+06  0.9118800E+02  0.7818608E-02  0.1180000E+00
       11   -1    0    0    0    0  0.00000000000E+00  0.00000000000E+00  0.39999999673E+01  0.40000000000E+01  0.51109989000E-03 0.  1.
     -623   -1    0    0    0    0  0.00000000000E+00  0.00000000000E+00  0.12525980253E-10  0.17130000000E+03  0.17130000000E+03 0. -1.
       11    1    1    2    0    0 -0.20799762223E-01 -0.16147065618E-01  0.35705808590E+00  0.35802806561E+00  0.51109989000E-03 0.  1.
     -623    1    1    2    0    0  0.67469858898E-02  0.32116220481E-02  0.23933711757E-02  0.17130000018E+03  0.17130000000E+03 0. -1.
      622    1    1    2    0    0  0.14052776333E-01  0.12935443570E-01  0.36405485104E+01  0.36419717548E+01  0.10000000000E+00 0.  1.
</event>
<event>
 5   0  0.6262544E+06  0.9118800E+02  0.7818608E-02  0.1180000E+00
       11   -1    0    0    0    0  0.00000000000E+00  0.00000000000E+00  0.39999999673E+01  0.40000000000E+01  0.51109989000E-03 0. -1.
     -623   -1    0    0    0    0  0.00000000000E+00  0.00000000000E+00  0.12525980253E-10  0.17130000000E+03  0.17130000000E+03 0. -1.
       11    1    1    2    0    0 -0.52922013529E-01 -0.12163155879E-01  0.33656187192E+00  0.34091470595E+00  0.51109989000E-03 0. -1.
     -623    1    1    2    0    0  0.16446535259E-01 -0.91272131326E-02  0.59644958590E-02  0.17130000114E+03  0.17130000000E+03 0. -1.
      622    1    1    2    0    0  0.36475478270E-01  0.21290369012E-01  0.36574735996E+01  0.36590841575E+01  0.10000000000E+00 0. -1.
</event>
<event>
 5   0  0.6262544E+06  0.9118800E+02  0.7818608E-02  0.1180000E+00
       11   -1    0    0    0    0  0.00000000000E+00  0.00000000000E+00  0.39999999673E+01  0.40000000000E+01  0.51109989000E-03 0.  1.
     -623   -1    0    0    0    0  0.00000000000E+00  0.00000000000E+00  0.12525980253E-10  0.17130000000E+03  0.17130000000E+03 0.  1.
       11    1    1    2    0    0 -0.26304423964E-04 -0.29984572170E-03 -0.81554033015E-03  0.10084287318E-02  0.51109989000E-03 0.  1.
     -623    1    1    2    0    0 -0.11628642450E-02  0.57279275736E-02  0.30784365274E-02  0.17130000013E+03  0.17130000000E+03 0.  1.
      622    1    1    2    0    0  0.11891686690E-02 -0.54280818520E-02  0.39977370712E+01  0.39989914439E+01  0.10000000000E+00 0.  1.
</event>
<event>
 5   0  0.6262544E+06  0.9118800E+02  0.7818608E-02  0.1180000E+00
       11   -1    0    0    0    0  0.00000000000E+00  0.00000000000E+00  0.39999999673E+01  0.40000000000E+01  0.51109989000E-03 0.  1.
     -623   -1    0    0    0    0  0.00000000000E+00  0.00000000000E+00  0.12525980253E-10  0.17130000000E+03  0.17130000000E+03 0. -1.
       11    1    1    2    0    0 -0.40074972016E-02  0.11782187470E-01  0.13308636066E+00  0.13366794900E+00  0.51109989000E-03 0.  1.
     -623    1    1    2    0    0 -0.10905168272E-01 -0.15683310110E-01  0.19068014769E-02  0.17130000108E+03  0.17130000000E+03 0. -1.
      622    1    1    2    0    0  0.14912665473E-01  0.39011226402E-02  0.38650068052E+01  0.38663309753E+01  0.10000000000E+00 0.  1.
</event>
<event>
 5   0  0.6262544E+06  0.9118800E+02  0.7818608E-02  0.1180000E+00
       11   -1    0    0    0    0  0.00000000000E+00  0.00000000000E+00  0.39999999673E+01  0.40000000000E+01  0.51109989000E-03 0.  1.
     -623   -1    0    0    0    0  0.00000000000E+00  0.00000000000E+00  0.12525980253E-10  0.17130000000E+03  0.17130000000E+03 0.  1.
       11    1    1    2    0    0  0.80750452998E-02  0.96433458078E-02  0.75670586970E+00  0.75681056740E+00  0.51109989000E-03 0.  1.
     -623    1    1    2    0    0  0.82589431752E-02  0.18065346568E-02  0.17083146965E-02  0.17130000022E+03  0.17130000000E+03 0.  1.
      622    1    1    2    0    0 -0.16333988475E-01 -0.11449880465E-01  0.32415857830E+01  0.32431892155E+01  0.10000000000E+00 0.  1.
</event>
<event>
 5   0  0.6262544E+06  0.9118800E+02  0.7818608E-02  0.1180000E+00
       11   -1    0    0    0    0  0.00000000000E+00  0.00000000000E+00  0.39999999673E+01  0.40000000000E+01  0.51109989000E-03 0. -1.
     -623   -1    0    0    0    0  0.00000000000E+00  0.00000000000E+00  0.12525980253E-10  0.17130000000E+03  0.17130000000E+03 0.  1.
       11    1    1    2    0    0 -0.32909314188E-01 -0.55804097411E-01  0.24648758995E+01  0.24657271912E+01  0.51109989000E-03 0. -1.
     -623    1    1    2    0    0  0.15709720136E-01  0.37150313827E-01  0.43286790419E-02  0.17130000480E+03  0.17130000000E+03 0.  1.
      622    1    1    2    0    0  0.17199594052E-01  0.18653783584E-01  0.15307953888E+01  0.15342680053E+01  0.10000000000E+00 0.  0.
</event>
<event>
 5   0  0.6262544E+06  0.9118800E+02  0.7818608E-02  0.1180000E+00
       11   -1    0    0    0    0  0.00000000000E+00  0.00000000000E+00  0.39999999673E+01  0.40000000000E+01  0.51109989000E-03 0. -1.
     -623   -1    0    0    0    0  0.00000000000E+00  0.00000000000E+00  0.12525980253E-10  0.17130000000E+03  0.17130000000E+03 0. -1.
       11    1    1    2    0    0  0.83904159665E-01 -0.10242484976E+00  0.27141724381E+00  0.30199062786E+00  0.51109989000E-03 0. -1.
     -623    1    1    2    0    0  0.39072315233E-01  0.38897453257E-01  0.34530339922E-01  0.17130001235E+03  0.17130000000E+03 0. -1.
      622    1    1    2    0    0 -0.12297647490E+00  0.63527396500E-01  0.36940523836E+01  0.36979970195E+01  0.10000000000E+00 0. -1.
</event>
<event>
 5   0  0.6262544E+06  0.9118800E+02  0.7818608E-02  0.1180000E+00
       11   -1    0    0    0    0  0.00000000000E+00  0.00000000000E+00  0.39999999673E+01  0.40000000000E+01  0.51109989000E-03 0. -1.
     -623   -1    0    0    0    0  0.00000000000E+00  0.00000000000E+00  0.12525980253E-10  0.17130000000E+03  0.17130000000E+03 0.  1.
       11    1    1    2    0    0  0.12123846229E-01  0.50755652195E-02  0.13075247322E+00  0.13141240232E+00  0.51109989000E-03 0. -1.
     -623    1    1    2    0    0 -0.10403796387E-01  0.70497931889E-03  0.19576051545E-02  0.17130000033E+03  0.17130000000E+03 0.  1.
      622    1    1    2    0    0 -0.17200498413E-02 -0.57805445384E-02  0.38672898890E+01  0.38685872691E+01  0.10000000000E+00 0. -1.
</event>
<event>
 5   0  0.6262544E+06  0.9118800E+02  0.7818608E-02  0.1180000E+00
       11   -1    0    0    0    0  0.00000000000E+00  0.00000000000E+00  0.39999999673E+01  0.40000000000E+01  0.51109989000E-03 0. -1.
     -623   -1    0    0    0    0  0.00000000000E+00  0.00000000000E+00  0.12525980253E-10  0.17130000000E+03  0.17130000000E+03 0.  1.
       11    1    1    2    0    0  0.11104600078E-01 -0.54631161527E-02  0.93803978144E-01  0.94618208183E-01  0.51109989000E-03 0. -1.
     -623    1    1    2    0    0 -0.81943471303E-02 -0.39365166484E-02  0.21073462936E-02  0.17130000025E+03  0.17130000000E+03 0.  1.
      622    1    1    2    0    0 -0.29102529478E-02  0.93996328010E-02  0.39040886428E+01  0.39053815375E+01  0.10000000000E+00 0. -1.
</event>
<event>
 5   0  0.6262544E+06  0.9118800E+02  0.7818608E-02  0.1180000E+00
       11   -1    0    0    0    0  0.00000000000E+00  0.00000000000E+00  0.39999999673E+01  0.40000000000E+01  0.51109989000E-03 0. -1.
     -623   -1    0    0    0    0  0.00000000000E+00  0.00000000000E+00  0.12525980253E-10  0.17130000000E+03  0.17130000000E+03 0. -1.
       11    1    1    2    0    0 -0.15690508803E-01 -0.30644186152E-01  0.36979783313E-01  0.50527455962E-01  0.51109989000E-03 0. -1.
     -623    1    1    2    0    0 -0.92176974913E-02  0.18639815561E-01  0.14912567020E-01  0.17130000191E+03  0.17130000000E+03 0. -1.
      622    1    1    2    0    0  0.24908206294E-01  0.12004370591E-01  0.39481076170E+01  0.39494706328E+01  0.10000000000E+00 0. -1.
</event>
<event>
 5   0  0.6262544E+06  0.9118800E+02  0.7818608E-02  0.1180000E+00
       11   -1    0    0    0    0  0.00000000000E+00  0.00000000000E+00  0.39999999673E+01  0.40000000000E+01  0.51109989000E-03 0.  1.
     -623   -1    0    0    0    0  0.00000000000E+00  0.00000000000E+00  0.12525980253E-10  0.17130000000E+03  0.17130000000E+03 0. -1.
       11    1    1    2    0    0 -0.42893493279E-01  0.50189625336E-01  0.86492057594E+00  0.86743686465E+00  0.51109989000E-03 0.  1.
     -623    1    1    2    0    0  0.34315505250E-01 -0.72660330488E-02  0.44224438730E-02  0.17130000365E+03  0.17130000000E+03 0. -1.
      622    1    1    2    0    0  0.85779880283E-02 -0.42923592287E-01  0.31306569476E+01  0.31325594871E+01  0.10000000000E+00 0.  1.
</event>
<event>
 5   0  0.6262544E+06  0.9118800E+02  0.7818608E-02  0.1180000E+00
       11   -1    0    0    0    0  0.00000000000E+00  0.00000000000E+00  0.39999999673E+01  0.40000000000E+01  0.51109989000E-03 0. -1.
     -623   -1    0    0    0    0  0.00000000000E+00  0.00000000000E+00  0.12525980253E-10  0.17130000000E+03  0.17130000000E+03 0.  1.
       11    1    1    2    0    0 -0.72604441464E-02 -0.43982046774E-02  0.12406132368E+01  0.12406423831E+01  0.51109989000E-03 0. -1.
     -623    1    1    2    0    0  0.96191234248E-03 -0.39921357337E-02  0.18617422693E-02  0.17130000006E+03  0.17130000000E+03 0.  1.
      622    1    1    2    0    0  0.62985318039E-02  0.83903404111E-02  0.27575249883E+01  0.27593575576E+01  0.10000000000E+00 0. -1.
</event>
<event>
 5   0  0.6262544E+06  0.9118800E+02  0.7818608E-02  0.1180000E+00
       11   -1    0    0    0    0  0.00000000000E+00  0.00000000000E+00  0.39999999673E+01  0.40000000000E+01  0.51109989000E-03 0.  1.
     -623   -1    0    0    0    0  0.00000000000E+00  0.00000000000E+00  0.12525980253E-10  0.17130000000E+03  0.17130000000E+03 0.  1.
       11    1    1    2    0    0 -0.21712333555E-01 -0.25458911806E-01  0.48797335544E+00  0.48911945213E+00  0.51109989000E-03 0.  1.
     -623    1    1    2    0    0 -0.54408941075E-02  0.10466917777E-01  0.27079941175E-02  0.17130000043E+03  0.17130000000E+03 0.  1.
      622    1    1    2    0    0  0.27153227662E-01  0.14991994029E-01  0.35093186178E+01  0.35108801203E+01  0.10000000000E+00 0.  1.
</event>
<event>
 5   0  0.6262544E+06  0.9118800E+02  0.7818608E-02  0.1180000E+00
       11   -1    0    0    0    0  0.00000000000E+00  0.00000000000E+00  0.39999999673E+01  0.40000000000E+01  0.51109989000E-03 0.  1.
     -623   -1    0    0    0    0  0.00000000000E+00  0.00000000000E+00  0.12525980253E-10  0.17130000000E+03  0.17130000000E+03 0.  1.
       11    1    1    2    0    0 -0.37501677788E-02  0.94890522294E-03  0.14748203571E+01  0.14748255189E+01  0.51109989000E-03 0.  1.
     -623    1    1    2    0    0 -0.10708543446E-02 -0.12844313178E-01  0.20191103718E-02  0.17130000050E+03  0.17130000000E+03 0.  1.
      622    1    1    2    0    0  0.48210221233E-02  0.11895407955E-01  0.25231604998E+01  0.25251739843E+01  0.10000000000E+00 0. -1.
</event>
<event>
 5   0  0.6262544E+06  0.9118800E+02  0.7818608E-02  0.1180000E+00
       11   -1    0    0    0    0  0.00000000000E+00  0.00000000000E+00  0.39999999673E+01  0.40000000000E+01  0.51109989000E-03 0. -1.
     -623   -1    0    0    0    0  0.00000000000E+00  0.00000000000E+00  0.12525980253E-10  0.17130000000E+03  0.17130000000E+03 0. -1.
       11    1    1    2    0    0 -0.11509061651E-01 -0.66531877919E-02  0.14621101597E+00  0.14681500544E+00  0.51109989000E-03 0. -1.
     -623    1    1    2    0    0  0.17969772005E-01  0.74431185076E-02  0.19084176805E-02  0.17130000111E+03  0.17130000000E+03 0. -1.
      622    1    1    2    0    0 -0.64607103532E-02 -0.78993071570E-03  0.38518805337E+01  0.38531838797E+01  0.10000000000E+00 0. -1.
</event>
<event>
 5   0  0.6262544E+06  0.9118800E+02  0.7818608E-02  0.1180000E+00
       11   -1    0    0    0    0  0.00000000000E+00  0.00000000000E+00  0.39999999673E+01  0.40000000000E+01  0.51109989000E-03 0.  1.
     -623   -1    0    0    0    0  0.00000000000E+00  0.00000000000E+00  0.12525980253E-10  0.17130000000E+03  0.17130000000E+03 0. -1.
       11    1    1    2    0    0 -0.19575590200E-02  0.14207833191E-02  0.12063792002E-01  0.12314502147E-01  0.51109989000E-03 0.  1.
     -623    1    1    2    0    0  0.52724189624E-02  0.28935180643E-02  0.15085598981E-02  0.17130000011E+03  0.17130000000E+03 0. -1.
      622    1    1    2    0    0 -0.33148599425E-02 -0.43143013834E-02  0.39864276156E+01  0.39876853857E+01  0.10000000000E+00 0.  1.
</event>
<event>
 5   0  0.6262544E+06  0.9118800E+02  0.7818608E-02  0.1180000E+00
       11   -1    0    0    0    0  0.00000000000E+00  0.00000000000E+00  0.39999999673E+01  0.40000000000E+01  0.51109989000E-03 0. -1.
     -623   -1    0    0    0    0  0.00000000000E+00  0.00000000000E+00  0.12525980253E-10  0.17130000000E+03  0.17130000000E+03 0. -1.
       11    1    1    2    0    0  0.15091574520E-01  0.17889904217E-02  0.27870557845E-01  0.31748784637E-01  0.51109989000E-03 0. -1.
     -623    1    1    2    0    0 -0.45874454395E-02  0.60939931669E-02  0.51603819843E-02  0.17130000025E+03  0.17130000000E+03 0. -1.
      622    1    1    2    0    0 -0.10504129080E-01 -0.78829835888E-02  0.39669690276E+01  0.39682509679E+01  0.10000000000E+00 0. -1.
</event>
<event>
 5   0  0.6262544E+06  0.9118800E+02  0.7818608E-02  0.1180000E+00
       11   -1    0    0    0    0  0.00000000000E+00  0.00000000000E+00  0.39999999673E+01  0.40000000000E+01  0.51109989000E-03 0. -1.
     -623   -1    0    0    0    0  0.00000000000E+00  0.00000000000E+00  0.12525980253E-10  0.17130000000E+03  0.17130000000E+03 0. -1.
       11    1    1    2    0    0 -0.15174935913E-01 -0.11171519694E-01  0.84146002652E+00  0.84167114658E+00  0.51109989000E-03 0. -1.
     -623    1    1    2    0    0 -0.93851191432E-03  0.43114544028E-02  0.18432463450E-02  0.17130000007E+03  0.17130000000E+03 0. -1.
      622    1    1    2    0    0  0.16113447828E-01  0.68600652913E-02  0.31566966943E+01  0.31583287865E+01  0.10000000000E+00 0.  1.
</event>
<event>
 5   0  0.6262544E+06  0.9118800E+02  0.7818608E-02  0.1180000E+00
       11   -1    0    0    0    0  0.00000000000E+00  0.00000000000E+00  0.39999999673E+01  0.40000000000E+01  0.51109989000E-03 0. -1.
     -623   -1    0    0    0    0  0.00000000000E+00  0.00000000000E+00  0.12525980253E-10  0.17130000000E+03  0.17130000000E+03 0. -1.
       11    1    1    2    0    0  0.30003082010E-01 -0.10161306667E-01  0.19363379700E+01  0.19365971271E+01  0.51109989000E-03 0. -1.
     -623    1    1    2    0    0 -0.27923495836E-02 -0.19017478712E-03  0.28894130633E-02  0.17130000005E+03  0.17130000000E+03 0. -1.
      622    1    1    2    0    0 -0.27210732426E-01  0.10351481454E-01  0.20607725842E+01  0.20634028257E+01  0.10000000000E+00 0. -1.
</event>
<event>
 5   0  0.6262544E+06  0.9118800E+02  0.7818608E-02  0.1180000E+00
       11   -1    0    0    0    0  0.00000000000E+00  0.00000000000E+00  0.39999999673E+01  0.40000000000E+01  0.51109989000E-03 0. -1.
     -623   -1    0    0    0    0  0.00000000000E+00  0.00000000000E+00  0.12525980253E-10  0.17130000000E+03  0.17130000000E+03 0.  1.
       11    1    1    2    0    0 -0.13350449735E-02  0.40741468535E-02  0.11174705887E+00  0.11183044043E+00  0.51109989000E-03 0. -1.
     -623    1    1    2    0    0  0.47625804790E-02 -0.35772648811E-02  0.13711658719E-02  0.17130000011E+03  0.17130000000E+03 0.  1.
      622    1    1    2    0    0 -0.34275355060E-02 -0.49688197208E-03  0.38868817430E+01  0.38881694510E+01  0.10000000000E+00 0. -1.
</event>
<event>
 5   0  0.6262544E+06  0.9118800E+02  0.7818608E-02  0.1180000E+00
       11   -1    0    0    0    0  0.00000000000E+00  0.00000000000E+00  0.39999999673E+01  0.40000000000E+01  0.51109989000E-03 0.  1.
     -623   -1    0    0    0    0  0.00000000000E+00  0.00000000000E+00  0.12525980253E-10  0.17130000000E+03  0.17130000000E+03 0. -1.
       11    1    1    2    0    0 -0.55891904972E-02  0.15179654214E-02  0.99124162739E-02  0.11491757295E-01  0.51109989000E-03 0.  1.
     -623    1    1    2    0    0  0.37320238255E-02 -0.63640895244E-02  0.28366668980E-02  0.17130000018E+03  0.17130000000E+03 0. -1.
      622    1    1    2    0    0  0.18571666716E-02  0.48461241030E-02  0.39872508842E+01  0.39885080603E+01  0.10000000000E+00 0.  1.
</event>
<event>
 5   0  0.6262544E+06  0.9118800E+02  0.7818608E-02  0.1180000E+00
       11   -1    0    0    0    0  0.00000000000E+00  0.00000000000E+00  0.39999999673E+01  0.40000000000E+01  0.51109989000E-03 0. -1.
     -623   -1    0    0    0    0  0.00000000000E+00  0.00000000000E+00  0.12525980253E-10  0.17130000000E+03  0.17130000000E+03 0. -1.
       11    1    1    2    0    0  0.21180371719E-02  0.29608385958E-02  0.22819802340E-02  0.43268121681E-02  0.51109989000E-03 0. -1.
     -623    1    1    2    0    0 -0.50557001944E-02 -0.38082429169E-03  0.32983691753E-02  0.17130000011E+03  0.17130000000E+03 0. -1.
      622    1    1    2    0    0  0.29376630224E-02 -0.25800143041E-02  0.39944196179E+01  0.39956730810E+01  0.10000000000E+00 0. -1.
</event>
<event>
 5   0  0.6262544E+06  0.9118800E+02  0.7818608E-02  0.1180000E+00
       11   -1    0    0    0    0  0.00000000000E+00  0.00000000000E+00  0.39999999673E+01  0.40000000000E+01  0.51109989000E-03 0.  1.
     -623   -1    0    0    0    0  0.00000000000E+00  0.00000000000E+00  0.12525980253E-10  0.17130000000E+03  0.17130000000E+03 0. -1.
       11    1    1    2    0    0  0.55641456047E-02 -0.60846313351E-02  0.60137405487E+00  0.60143079199E+00  0.51109989000E-03 0.  1.
     -623    1    1    2    0    0  0.14737487789E-01  0.45131846469E-01  0.18199077120E-02  0.17130000659E+03  0.17130000000E+03 0. -1.
      622    1    1    2    0    0 -0.20301633394E-01 -0.39047215134E-01  0.33968060048E+01  0.33985626190E+01  0.10000000000E+00 0.  1.
</event>
<event>
 5   0  0.6262544E+06  0.9118800E+02  0.7818608E-02  0.1180000E+00
       11   -1    0    0    0    0  0.00000000000E+00  0.00000000000E+00  0.39999999673E+01  0.40000000000E+01  0.51109989000E-03 0. -1.
     -623   -1    0    0    0    0  0.00000000000E+00  0.00000000000E+00  0.12525980253E-10  0.17130000000E+03  0.17130000000E+03 0.  1.
       11    1    1    2    0    0 -0.14184337706E-01 -0.10222846882E-01  0.47818017301E-01  0.50916854140E-01  0.51109989000E-03 0. -1.
     -623    1    1    2    0    0  0.39258328001E-02  0.18615467891E-01  0.43884863986E-02  0.17130000111E+03  0.17130000000E+03 0.  1.
      622    1    1    2    0    0  0.10258504906E-01 -0.83926210092E-02  0.39477934637E+01  0.39490820332E+01  0.10000000000E+00 0. -1.
</event>
<event>
 5   0  0.6262544E+06  0.9118800E+02  0.7818608E-02  0.1180000E+00
       11   -1    0    0    0    0  0.00000000000E+00  0.00000000000E+00  0.39999999673E+01  0.40000000000E+01  0.51109989000E-03 0. -1.
     -623   -1    0    0    0    0  0.00000000000E+00  0.00000000000E+00  0.12525980253E-10  0.17130000000E+03  0.17130000000E+03 0. -1.
       11    1    1    2    0    0  0.80633131319E-02  0.34621198529E-02  0.35728411491E-01  0.36793802512E-01  0.51109989000E-03 0. -1.
     -623    1    1    2    0    0 -0.58544298772E-02  0.38807264132E-02  0.23347441906E-02  0.17130000016E+03  0.17130000000E+03 0. -1.
      622    1    1    2    0    0 -0.22088832546E-02 -0.73428462662E-02  0.39619368118E+01  0.39632060377E+01  0.10000000000E+00 0. -1.
</event>
<event>
 5   0  0.6262544E+06  0.9118800E+02  0.7818608E-02  0.1180000E+00
       11   -1    0    0    0    0  0.00000000000E+00  0.00000000000E+00  0.39999999673E+01  0.40000000000E+01  0.51109989000E-03 0.  1.
     -623   -1    0    0    0    0  0.00000000000E+00  0.00000000000E+00  0.12525980253E-10  0.17130000000E+03  0.17130000000E+03 0. -1.
       11    1    1    2    0    0 -0.36028571841E-02 -0.33760859437E-02  0.14500211281E+00  0.14508705138E+00  0.51109989000E-03 0.  1.
     -623    1    1    2    0    0  0.37321077164E-02  0.38049707136E-02  0.13822849160E-02  0.17130000009E+03  0.17130000000E+03 0. -1.
      622    1    1    2    0    0 -0.12925053242E-03 -0.42888476995E-03  0.38536155697E+01  0.38549128602E+01  0.10000000000E+00 0.  1.
</event>
<event>
 5   0  0.6262544E+06  0.9118800E+02  0.7818608E-02  0.1180000E+00
       11   -1    0    0    0    0  0.00000000000E+00  0.00000000000E+00  0.39999999673E+01  0.40000000000E+01  0.51109989000E-03 0.  1.
     -623   -1    0    0    0    0  0.00000000000E+00  0.00000000000E+00  0.12525980253E-10  0.17130000000E+03  0.17130000000E+03 0. -1.
       11    1    1    2    0    0  0.40565254230E-02 -0.17346470955E-01  0.18709292988E+00  0.18793983369E+00  0.51109989000E-03 0.  1.
     -623    1    1    2    0    0  0.11282216066E-01  0.95660142377E-02  0.21981897065E-02  0.17130000065E+03  0.17130000000E+03 0. -1.
      622    1    1    2    0    0 -0.15338741489E-01  0.77804567172E-02  0.38107088479E+01  0.38120595137E+01  0.10000000000E+00 0.  1.
</event>
<event>
 5   0  0.6262544E+06  0.9118800E+02  0.7818608E-02  0.1180000E+00
       11   -1    0    0    0    0  0.00000000000E+00  0.00000000000E+00  0.39999999673E+01  0.40000000000E+01  0.51109989000E-03 0.  1.
     -623   -1    0    0    0    0  0.00000000000E+00  0.00000000000E+00  0.12525980253E-10  0.17130000000E+03  0.17130000000E+03 0.  1.
       11    1    1    2    0    0 -0.41867361320E-01  0.18662828386E-01  0.10413576621E+01  0.10423661635E+01  0.51109989000E-03 0.  1.
     -623    1    1    2    0    0 -0.30896520281E-01  0.18028847938E-01  0.38267944939E-02  0.17130000378E+03  0.17130000000E+03 0.  1.
      622    1    1    2    0    0  0.72763881601E-01 -0.36691676324E-01  0.29548155108E+01  0.29576300587E+01  0.10000000000E+00 0.  0.
</event>
<event>
 5   0  0.6262544E+06  0.9118800E+02  0.7818608E-02  0.1180000E+00
       11   -1    0    0    0    0  0.00000000000E+00  0.00000000000E+00  0.39999999673E+01  0.40000000000E+01  0.51109989000E-03 0. -1.
     -623   -1    0    0    0    0  0.00000000000E+00  0.00000000000E+00  0.12525980253E-10  0.17130000000E+03  0.17130000000E+03 0.  1.
       11    1    1    2    0    0 -0.15722266285E-01 -0.36746894898E-01  0.14763450809E+00  0.15295010017E+00  0.51109989000E-03 0. -1.
     -623    1    1    2    0    0 -0.38446237027E-01  0.82987196118E-02  0.71068814923E-02  0.17130000466E+03  0.17130000000E+03 0.  1.
      622    1    1    2    0    0  0.54168503312E-01  0.28448175286E-01  0.38452585778E+01  0.38470452370E+01  0.10000000000E+00 0. -1.
</event>
<event>
 5   0  0.6262544E+06  0.9118800E+02  0.7818608E-02  0.1180000E+00
       11   -1    0    0    0    0  0.00000000000E+00  0.00000000000E+00  0.39999999673E+01  0.40000000000E+01  0.51109989000E-03 0. -1.
     -623   -1    0    0    0    0  0.00000000000E+00  0.00000000000E+00  0.12525980253E-10  0.17130000000E+03  0.17130000000E+03 0.  1.
       11    1    1    2    0    0 -0.61836276558E-02  0.62646845948E-03  0.76128568509E-02  0.98410631021E-02  0.51109989000E-03 0. -1.
     -623    1    1    2    0    0  0.17287472029E-01  0.12707396285E-01  0.35205743947E-02  0.17130000138E+03  0.17130000000E+03 0.  1.
      622    1    1    2    0    0 -0.11103844373E-01 -0.13333864744E-01  0.39888665361E+01  0.39901575571E+01  0.10000000000E+00 0. -1.
</event>
<event>
 5   0  0.6262544E+06  0.9118800E+02  0.7818608E-02  0.1180000E+00
       11   -1    0    0    0    0  0.00000000000E+00  0.00000000000E+00  0.39999999673E+01  0.40000000000E+01  0.51109989000E-03 0. -1.
     -623   -1    0    0    0    0  0.00000000000E+00  0.00000000000E+00  0.12525980253E-10  0.17130000000E+03  0.17130000000E+03 0. -1.
       11    1    1    2    0    0  0.15332243394E-02 -0.11658634353E-02  0.19206456469E-01  0.19309562568E-01  0.51109989000E-03 0. -1.
     -623    1    1    2    0    0 -0.51618469025E-02 -0.25628740298E-02  0.13628388835E-02  0.17130000010E+03  0.17130000000E+03 0. -1.
      622    1    1    2    0    0  0.36286225631E-02  0.37287374651E-02  0.39794306720E+01  0.39806903351E+01  0.10000000000E+00 0. -1.
</event>
<event>
 5   0  0.6262544E+06  0.9118800E+02  0.7818608E-02  0.1180000E+00
       11   -1    0    0    0    0  0.00000000000E+00  0.00000000000E+00  0.39999999673E+01  0.40000000000E+01  0.51109989000E-03 0.  1.
     -623   -1    0    0    0    0  0.00000000000E+00  0.00000000000E+00  0.12525980253E-10  0.17130000000E+03  0.17130000000E+03 0.  1.
       11    1    1    2    0    0  0.14851752316E-01  0.90438726406E-02  0.75957387960E+00  0.75977306215E+00  0.51109989000E-03 0.  1.
     -623    1    1    2    0    0  0.17736085914E-01  0.43974834149E-02  0.19354540498E-02  0.17130000099E+03  0.17130000000E+03 0.  1.
      622    1    1    2    0    0 -0.32587838230E-01 -0.13441356055E-01  0.32384906337E+01  0.32402259523E+01  0.10000000000E+00 0.  0.
</event>
<event>
 5   0  0.6262544E+06  0.9118800E+02  0.7818608E-02  0.1180000E+00
       11   -1    0    0    0    0  0.00000000000E+00  0.00000000000E+00  0.39999999673E+01  0.40000000000E+01  0.51109989000E-03 0. -1.
     -623   -1    0    0    0    0  0.00000000000E+00  0.00000000000E+00  0.12525980253E-10  0.17130000000E+03  0.17130000000E+03 0. -1.
       11    1    1    2    0    0  0.14157497542E-01 -0.25023271298E-01  0.52492300210E+00  0.52571001341E+00  0.51109989000E-03 0. -1.
     -623    1    1    2    0    0  0.22488841140E-01  0.35294908642E-01  0.24400988119E-02  0.17130000513E+03  0.17130000000E+03 0. -1.
      622    1    1    2    0    0 -0.36646338682E-01 -0.10271637344E-01  0.34726368664E+01  0.34742848569E+01  0.10000000000E+00 0. -1.
</event>
<event>
 5   0  0.6262544E+06  0.9118800E+02  0.7818608E-02  0.1180000E+00
       11   -1    0    0    0    0  0.00000000000E+00  0.00000000000E+00  0.39999999673E+01  0.40000000000E+01  0.51109989000E-03 0.  1.
     -623   -1    0    0    0    0  0.00000000000E+00  0.00000000000E+00  0.12525980253E-10  0.17130000000E+03  0.17130000000E+03 0.  1.
       11    1    1    2    0    0  0.67644549454E-01 -0.82752042062E-01  0.27262267795E+01  0.27283211688E+01  0.51109989000E-03 0.  1.
     -623    1    1    2    0    0  0.79762193308E-02 -0.19519189602E-01  0.12430769474E-01  0.17130000175E+03  0.17130000000E+03 0.  1.
      622    1    1    2    0    0 -0.75620768785E-01  0.10227123166E+00  0.12613424184E+01  0.12716770824E+01  0.10000000000E+00 0.  1.
</event>
<event>
 5   0  0.6262544E+06  0.9118800E+02  0.7818608E-02  0.1180000E+00
       11   -1    0    0    0    0  0.00000000000E+00  0.00000000000E+00  0.39999999673E+01  0.40000000000E+01  0.51109989000E-03 0. -1.
     -623   -1    0    0    0    0  0.00000000000E+00  0.00000000000E+00  0.12525980253E-10  0.17130000000E+03  0.17130000000E+03 0.  1.
       11    1    1    2    0    0  0.12240900826E-01 -0.31453820356E-01  0.16759376401E+00  0.17095939116E+00  0.51109989000E-03 0. -1.
     -623    1    1    2    0    0 -0.31078175576E-01  0.32076633920E-01  0.47239195182E-02  0.17130000589E+03  0.17130000000E+03 0.  1.
      622    1    1    2    0    0  0.18837274750E-01 -0.62281356451E-03  0.38276822838E+01  0.38290347213E+01  0.10000000000E+00 0. -1.
</event>
<event>
 5   0  0.6262544E+06  0.9118800E+02  0.7818608E-02  0.1180000E+00
       11   -1    0    0    0    0  0.00000000000E+00  0.00000000000E+00  0.39999999673E+01  0.40000000000E+01  0.51109989000E-03 0. -1.
     -623   -1    0    0    0    0  0.00000000000E+00  0.00000000000E+00  0.12525980253E-10  0.17130000000E+03  0.17130000000E+03 0.  1.
       11    1    1    2    0    0 -0.31276889978E-01  0.10196929525E-01  0.78398496916E-01  0.85022389742E-01  0.51109989000E-03 0. -1.
     -623    1    1    2    0    0  0.10097798891E-01 -0.12719466030E-01  0.79602891851E-02  0.17130000095E+03  0.17130000000E+03 0.  1.
      622    1    1    2    0    0  0.21179091087E-01  0.25225365051E-02  0.39136411813E+01  0.39149766555E+01  0.10000000000E+00 0. -1.
</event>
<event>
 5   0  0.6262544E+06  0.9118800E+02  0.7818608E-02  0.1180000E+00
       11   -1    0    0    0    0  0.00000000000E+00  0.00000000000E+00  0.39999999673E+01  0.40000000000E+01  0.51109989000E-03 0.  1.
     -623   -1    0    0    0    0  0.00000000000E+00  0.00000000000E+00  0.12525980253E-10  0.17130000000E+03  0.17130000000E+03 0. -1.
       11    1    1    2    0    0 -0.58955618707E-02 -0.45457287657E-02  0.83313887586E-02  0.11184568008E-01  0.51109989000E-03 0.  1.
     -623    1    1    2    0    0  0.10171737189E-01 -0.53681079689E-02  0.41219011556E-02  0.17130000044E+03  0.17130000000E+03 0. -1.
      622    1    1    2    0    0 -0.42761753187E-02  0.99138367346E-02  0.39875466775E+01  0.39888149963E+01  0.10000000000E+00 0.  1.
</event>
<event>
 5   0  0.6262544E+06  0.9118800E+02  0.7818608E-02  0.1180000E+00
       11   -1    0    0    0    0  0.00000000000E+00  0.00000000000E+00  0.39999999673E+01  0.40000000000E+01  0.51109989000E-03 0. -1.
     -623   -1    0    0    0    0  0.00000000000E+00  0.00000000000E+00  0.12525980253E-10  0.17130000000E+03  0.17130000000E+03 0. -1.
       11    1    1    2    0    0  0.18407224848E-01 -0.76989587619E-02  0.26542157229E+00  0.26617094536E+00  0.51109989000E-03 0. -1.
     -623    1    1    2    0    0 -0.67785627345E-01  0.54212068637E-02  0.24295407877E-02  0.17130001351E+03  0.17130000000E+03 0. -1.
      622    1    1    2    0    0  0.49378402497E-01  0.22777518983E-02  0.37321488543E+01  0.37338155398E+01  0.10000000000E+00 0. -1.
</event>
<event>
 5   0  0.6262544E+06  0.9118800E+02  0.7818608E-02  0.1180000E+00
       11   -1    0    0    0    0  0.00000000000E+00  0.00000000000E+00  0.39999999673E+01  0.40000000000E+01  0.51109989000E-03 0.  1.
     -623   -1    0    0    0    0  0.00000000000E+00  0.00000000000E+00  0.12525980253E-10  0.17130000000E+03  0.17130000000E+03 0.  1.
       11    1    1    2    0    0  0.19191422334E-03 -0.27905548032E-02  0.55240799785E-01  0.55313933228E-01  0.51109989000E-03 0.  1.
     -623    1    1    2    0    0 -0.13883901245E-02 -0.61045890926E-03  0.13424926010E-02  0.17130000001E+03  0.17130000000E+03 0.  1.
      622    1    1    2    0    0  0.11964759012E-02  0.34010137124E-02  0.39434166750E+01  0.39446860548E+01  0.10000000000E+00 0.  1.
</event>
<event>
 5   0  0.6262544E+06  0.9118800E+02  0.7818608E-02  0.1180000E+00
       11   -1    0    0    0    0  0.00000000000E+00  0.00000000000E+00  0.39999999673E+01  0.40000000000E+01  0.51109989000E-03 0.  1.
     -623   -1    0    0    0    0  0.00000000000E+00  0.00000000000E+00  0.12525980253E-10  0.17130000000E+03  0.17130000000E+03 0. -1.
       11    1    1    2    0    0 -0.13121561435E-01 -0.23036186179E-02  0.27395696819E-01  0.30467482018E-01  0.51109989000E-03 0.  1.
     -623    1    1    2    0    0  0.10493611785E-01  0.28496922534E-02  0.43328544123E-02  0.17130000040E+03  0.17130000000E+03 0. -1.
      622    1    1    2    0    0  0.26279496497E-02 -0.54607363552E-03  0.39682714162E+01  0.39695321182E+01  0.10000000000E+00 0.  1.
</event>
<event>
 5   0  0.6262544E+06  0.9118800E+02  0.7818608E-02  0.1180000E+00
       11   -1    0    0    0    0  0.00000000000E+00  0.00000000000E+00  0.39999999673E+01  0.40000000000E+01  0.51109989000E-03 0. -1.
     -623   -1    0    0    0    0  0.00000000000E+00  0.00000000000E+00  0.12525980253E-10  0.17130000000E+03  0.17130000000E+03 0. -1.
       11    1    1    2    0    0 -0.37379839947E-01  0.44619769376E-01  0.22092965639E+01  0.22100632897E+01  0.51109989000E-03 0. -1.
     -623    1    1    2    0    0  0.14175595949E-01 -0.10555155217E-01  0.40385894870E-02  0.17130000096E+03  0.17130000000E+03 0. -1.
      622    1    1    2    0    0  0.23204243998E-01 -0.34064614158E-01  0.17866648141E+01  0.17899357510E+01  0.10000000000E+00 0.  0.
</event>
<event>
 5   0  0.6262544E+06  0.9118800E+02  0.7818608E-02  0.1180000E+00
       11   -1    0    0    0    0  0.00000000000E+00  0.00000000000E+00  0.39999999673E+01  0.40000000000E+01  0.51109989000E-03 0.  1.
     -623   -1    0    0    0    0  0.00000000000E+00  0.00000000000E+00  0.12525980253E-10  0.17130000000E+03  0.17130000000E+03 0.  1.
       11    1    1    2    0    0 -0.40224931942E-02  0.57333317512E-02  0.35394215329E-01  0.36084113489E-01  0.51109989000E-03 0.  1.
     -623    1    1    2    0    0 -0.20619650102E-03 -0.58048815839E-02  0.19538118110E-02  0.17130000011E+03  0.17130000000E+03 0.  1.
      622    1    1    2    0    0  0.42286896953E-02  0.71549832683E-04  0.39626519402E+01  0.39639157768E+01  0.10000000000E+00 0.  1.
</event>
<event>
 5   0  0.6262544E+06  0.9118800E+02  0.7818608E-02  0.1180000E+00
       11   -1    0    0    0    0  0.00000000000E+00  0.00000000000E+00  0.39999999673E+01  0.40000000000E+01  0.51109989000E-03 0. -1.
     -623   -1    0    0    0    0  0.00000000000E+00  0.00000000000E+00  0.12525980253E-10  0.17130000000E+03  0.17130000000E+03 0.  1.
       11    1    1    2    0    0 -0.34848243246E-01  0.12744936626E+00  0.14658837529E+01  0.14718264773E+01  0.51109989000E-03 0. -1.
     -623    1    1    2    0    0 -0.13013137854E-01 -0.11689845567E-01  0.11029994996E-01  0.17130000125E+03  0.17130000000E+03 0.  1.
      622    1    1    2    0    0  0.47861381100E-01 -0.11575952069E+00  0.25230862195E+01  0.25281722745E+01  0.10000000000E+00 0. -1.
</event>
<event>
 5   0  0.6262544E+06  0.9118800E+02  0.7818608E-02  0.1180000E+00
       11   -1    0    0    0    0  0.00000000000E+00  0.00000000000E+00  0.39999999673E+01  0.40000000000E+01  0.51109989000E-03 0. -1.
     -623   -1    0    0    0    0  0.00000000000E+00  0.00000000000E+00  0.12525980253E-10  0.17130000000E+03  0.17130000000E+03 0. -1.
       11    1    1    2    0    0 -0.11170913294E-01 -0.43022361134E-03  0.15969570557E+00  0.16008733240E+00  0.51109989000E-03 0. -1.
     -623    1    1    2    0    0 -0.10706973199E-02  0.62492714397E-02  0.17179843803E-02  0.17130000013E+03  0.17130000000E+03 0. -1.
      622    1    1    2    0    0  0.12241610614E-01 -0.58190478284E-02  0.38385862774E+01  0.38399125416E+01  0.10000000000E+00 0. -1.
</event>
<event>
 5   0  0.6262544E+06  0.9118800E+02  0.7818608E-02  0.1180000E+00
       11   -1    0    0    0    0  0.00000000000E+00  0.00000000000E+00  0.39999999673E+01  0.40000000000E+01  0.51109989000E-03 0. -1.
     -623   -1    0    0    0    0  0.00000000000E+00  0.00000000000E+00  0.12525980253E-10  0.17130000000E+03  0.17130000000E+03 0. -1.
       11    1    1    2    0    0  0.14529316854E-01  0.26443497891E-03  0.28741695573E+00  0.28778453509E+00  0.51109989000E-03 0. -1.
     -623    1    1    2    0    0 -0.10546453882E-01  0.27075576654E-01  0.18200240921E-02  0.17130000247E+03  0.17130000000E+03 0. -1.
      622    1    1    2    0    0 -0.39828629719E-02 -0.27340011633E-01  0.37107629876E+01  0.37122129909E+01  0.10000000000E+00 0. -1.
</event>
<event>
 5   0  0.6262544E+06  0.9118800E+02  0.7818608E-02  0.1180000E+00
       11   -1    0    0    0    0  0.00000000000E+00  0.00000000000E+00  0.39999999673E+01  0.40000000000E+01  0.51109989000E-03 0. -1.
     -623   -1    0    0    0    0  0.00000000000E+00  0.00000000000E+00  0.12525980253E-10  0.17130000000E+03  0.17130000000E+03 0. -1.
       11    1    1    2    0    0 -0.13413785101E-02 -0.53162237923E-02 -0.71182412256E-03  0.55524272150E-02  0.51109989000E-03 0. -1.
     -623    1    1    2    0    0 -0.32349201374E-02  0.62581603287E-02  0.75191957875E-02  0.17130000031E+03  0.17130000000E+03 0. -1.
      622    1    1    2    0    0  0.45762986476E-02 -0.94193653640E-03  0.39931925957E+01  0.39944472629E+01  0.10000000000E+00 0. -1.
</event>
<event>
 5   0  0.6262544E+06  0.9118800E+02  0.7818608E-02  0.1180000E+00
       11   -1    0    0    0    0  0.00000000000E+00  0.00000000000E+00  0.39999999673E+01  0.40000000000E+01  0.51109989000E-03 0. -1.
     -623   -1    0    0    0    0  0.00000000000E+00  0.00000000000E+00  0.12525980253E-10  0.17130000000E+03  0.17130000000E+03 0. -1.
       11    1    1    2    0    0  0.11472205849E-02 -0.84093966906E-04  0.83041833854E-02  0.83990399250E-02  0.51109989000E-03 0. -1.
     -623    1    1    2    0    0 -0.69488828591E-03 -0.24624454287E-02  0.13485133617E-02  0.17130000002E+03  0.17130000000E+03 0. -1.
      622    1    1    2    0    0 -0.45233229890E-03  0.25465393958E-02  0.39903472710E+01  0.39916009360E+01  0.10000000000E+00 0. -1.
</event>
<event>
 5   0  0.6262544E+06  0.9118800E+02  0.7818608E-02  0.1180000E+00
       11   -1    0    0    0    0  0.00000000000E+00  0.00000000000E+00  0.39999999673E+01  0.40000000000E+01  0.51109989000E-03 0.  1.
     -623   -1    0    0    0    0  0.00000000000E+00  0.00000000000E+00  0.12525980253E-10  0.17130000000E+03  0.17130000000E+03 0.  1.
       11    1    1    2    0    0 -0.83073551855E-03 -0.16781443173E-02  0.54151652285E-02  0.57525235680E-02  0.51109989000E-03 0.  1.
     -623    1    1    2    0    0 -0.31664416419E-02  0.21221215880E-02  0.15913973539E-02  0.17130000005E+03  0.17130000000E+03 0.  1.
      622    1    1    2    0    0  0.39971771605E-02 -0.44397727075E-03  0.39929934049E+01  0.39942474267E+01  0.10000000000E+00 0.  1.
</event>
<event>
 5   0  0.6262544E+06  0.9118800E+02  0.7818608E-02  0.1180000E+00
       11   -1    0    0    0    0  0.00000000000E+00  0.00000000000E+00  0.39999999673E+01  0.40000000000E+01  0.51109989000E-03 0.  1.
     -623   -1    0    0    0    0  0.00000000000E+00  0.00000000000E+00  0.12525980253E-10  0.17130000000E+03  0.17130000000E+03 0. -1.
       11    1    1    2    0    0  0.44242818027E-02 -0.43322522858E-01  0.24191688044E+00  0.24580572312E+00  0.51109989000E-03 0.  1.
     -623    1    1    2    0    0 -0.28403911689E-04  0.88013681946E-02  0.53825523717E-02  0.17130000031E+03  0.17130000000E+03 0. -1.
      622    1    1    2    0    0 -0.43958778910E-02  0.34521154664E-01  0.37527005346E+01  0.37541939662E+01  0.10000000000E+00 0.  0.
</event>
<event>
 5   0  0.6262544E+06  0.9118800E+02  0.7818608E-02  0.1180000E+00
       11   -1    0    0    0    0  0.00000000000E+00  0.00000000000E+00  0.39999999673E+01  0.40000000000E+01  0.51109989000E-03 0.  1.
     -623   -1    0    0    0    0  0.00000000000E+00  0.00000000000E+00  0.12525980253E-10  0.17130000000E+03  0.17130000000E+03 0. -1.
       11    1    1    2    0    0 -0.31676779035E-01 -0.25491866406E-01  0.18867521602E+01  0.18871903001E+01  0.51109989000E-03 0.  1.
     -623    1    1    2    0    0  0.58706386315E-02 -0.30111139411E-01  0.36991824569E-02  0.17130000279E+03  0.17130000000E+03 0. -1.
      622    1    1    2    0    0  0.25806140404E-01  0.55603005816E-01  0.21095486247E+01  0.21128069129E+01  0.10000000000E+00 0.  0.
</event>
<event>
 5   0  0.6262544E+06  0.9118800E+02  0.7818608E-02  0.1180000E+00
       11   -1    0    0    0    0  0.00000000000E+00  0.00000000000E+00  0.39999999673E+01  0.40000000000E+01  0.51109989000E-03 0. -1.
     -623   -1    0    0    0    0  0.00000000000E+00  0.00000000000E+00  0.12525980253E-10  0.17130000000E+03  0.17130000000E+03 0.  1.
       11    1    1    2    0    0 -0.64443289650E-03 -0.27243546623E-03  0.49446798961E-01  0.49454389746E-01  0.51109989000E-03 0. -1.
     -623    1    1    2    0    0  0.12040551199E-02  0.16267014785E-02  0.12736974555E-02  0.17130000002E+03  0.17130000000E+03 0.  1.
      622    1    1    2    0    0 -0.55962222337E-03 -0.13542660122E-02  0.39492794709E+01  0.39505455936E+01  0.10000000000E+00 0. -1.
</event>
<event>
 5   0  0.6262544E+06  0.9118800E+02  0.7818608E-02  0.1180000E+00
       11   -1    0    0    0    0  0.00000000000E+00  0.00000000000E+00  0.39999999673E+01  0.40000000000E+01  0.51109989000E-03 0.  1.
     -623   -1    0    0    0    0  0.00000000000E+00  0.00000000000E+00  0.12525980253E-10  0.17130000000E+03  0.17130000000E+03 0.  1.
       11    1    1    2    0    0  0.10962656677E-02  0.43247420069E-01  0.16636638669E+01  0.16642263261E+01  0.51109989000E-03 0.  1.
     -623    1    1    2    0    0 -0.10115437773E-01 -0.12770284355E-01  0.29212810869E-02  0.17130000080E+03  0.17130000000E+03 0.  1.
      622    1    1    2    0    0  0.90191721055E-02 -0.30477135715E-01  0.23334148192E+01  0.23357728742E+01  0.10000000000E+00 0.  0.
</event>
<event>
 5   0  0.6262544E+06  0.9118800E+02  0.7818608E-02  0.1180000E+00
       11   -1    0    0    0    0  0.00000000000E+00  0.00000000000E+00  0.39999999673E+01  0.40000000000E+01  0.51109989000E-03 0. -1.
     -623   -1    0    0    0    0  0.00000000000E+00  0.00000000000E+00  0.12525980253E-10  0.17130000000E+03  0.17130000000E+03 0.  1.
       11    1    1    2    0    0 -0.46138111369E-02 -0.34860060557E-02  0.10287701414E-01  0.11812599789E-01  0.51109989000E-03 0. -1.
     -623    1    1    2    0    0 -0.83342829795E-03  0.20096220264E-02  0.27827962188E-02  0.17130000004E+03  0.17130000000E+03 0.  1.
      622    1    1    2    0    0  0.54472394349E-02  0.14763840293E-02  0.39869294697E+01  0.39881873638E+01  0.10000000000E+00 0. -1.
</event>
<event>
 5   0  0.6262544E+06  0.9118800E+02  0.7818608E-02  0.1180000E+00
       11   -1    0    0    0    0  0.00000000000E+00  0.00000000000E+00  0.39999999673E+01  0.40000000000E+01  0.51109989000E-03 0.  1.
     -623   -1    0    0    0    0  0.00000000000E+00  0.00000000000E+00  0.12525980253E-10  0.17130000000E+03  0.17130000000E+03 0.  1.
       11    1    1    2    0    0 -0.16581045334E-01 -0.27525463664E-02  0.13107172900E+00  0.13214600615E+00  0.51109989000E-03 0.  1.
     -623    1    1    2    0    0 -0.34242162792E-02 -0.47435992346E-01  0.27512927727E-02  0.17130000662E+03  0.17130000000E+03 0.  1.
      622    1    1    2    0    0  0.20005261613E-01  0.50188538712E-01  0.38661769456E+01  0.38678473696E+01  0.10000000000E+00 0.  1.
</event>
<event>
 5   0  0.6262544E+06  0.9118800E+02  0.7818608E-02  0.1180000E+00
       11   -1    0    0    0    0  0.00000000000E+00  0.00000000000E+00  0.39999999673E+01  0.40000000000E+01  0.51109989000E-03 0.  1.
     -623   -1    0    0    0    0  0.00000000000E+00  0.00000000000E+00  0.12525980253E-10  0.17130000000E+03  0.17130000000E+03 0.  1.
       11    1    1    2    0    0 -0.26659951661E-01  0.50823671655E-02  0.22189804496E+00  0.22355220209E+00  0.51109989000E-03 0.  1.
     -623    1    1    2    0    0  0.18984155423E-02 -0.15249332218E-01  0.30739681788E-02  0.17130000072E+03  0.17130000000E+03 0.  1.
      622    1    1    2    0    0  0.24761536119E-01  0.10166965052E-01  0.37750279543E+01  0.37764470811E+01  0.10000000000E+00 0.  1.
</event>
<event>
 5   0  0.6262544E+06  0.9118800E+02  0.7818608E-02  0.1180000E+00
       11   -1    0    0    0    0  0.00000000000E+00  0.00000000000E+00  0.39999999673E+01  0.40000000000E+01  0.51109989000E-03 0.  1.
     -623   -1    0    0    0    0  0.00000000000E+00  0.00000000000E+00  0.12525980253E-10  0.17130000000E+03  0.17130000000E+03 0. -1.
       11    1    1    2    0    0 -0.45974303458E-01 -0.69746515260E-02  0.87294890828E+00  0.87418667345E+00  0.51109989000E-03 0.  1.
     -623    1    1    2    0    0  0.37901182150E-02 -0.18515355696E-01  0.32276007716E-02  0.17130000107E+03  0.17130000000E+03 0. -1.
      622    1    1    2    0    0  0.42184185243E-01  0.25490007222E-01  0.31238234583E+01  0.31258122536E+01  0.10000000000E+00 0.  1.
</event>
<event>
 5   0  0.6262544E+06  0.9118800E+02  0.7818608E-02  0.1180000E+00
       11   -1    0    0    0    0  0.00000000000E+00  0.00000000000E+00  0.39999999673E+01  0.40000000000E+01  0.51109989000E-03 0. -1.
     -623   -1    0    0    0    0  0.00000000000E+00  0.00000000000E+00  0.12525980253E-10  0.17130000000E+03  0.17130000000E+03 0. -1.
       11    1    1    2    0    0 -0.38233525586E-02  0.22775116198E-02  0.65027026719E-02  0.78962933774E-02  0.51109989000E-03 0. -1.
     -623    1    1    2    0    0  0.44556521497E-03  0.23124471311E-02  0.26503327304E-02  0.17130000004E+03  0.17130000000E+03 0. -1.
      622    1    1    2    0    0  0.33777873436E-02 -0.45899587508E-02  0.39908469319E+01  0.39921036699E+01  0.10000000000E+00 0. -1.
</event>
<event>
 5   0  0.6262544E+06  0.9118800E+02  0.7818608E-02  0.1180000E+00
       11   -1    0    0    0    0  0.00000000000E+00  0.00000000000E+00  0.39999999673E+01  0.40000000000E+01  0.51109989000E-03 0.  1.
     -623   -1    0    0    0    0  0.00000000000E+00  0.00000000000E+00  0.12525980253E-10  0.17130000000E+03  0.17130000000E+03 0.  1.
       11    1    1    2    0    0 -0.31481926157E-02  0.87176959378E-02  0.12665383376E+00  0.12699355955E+00  0.51109989000E-03 0.  1.
     -623    1    1    2    0    0 -0.85036473460E-03 -0.10311472961E-01  0.16336083121E-02  0.17130000032E+03  0.17130000000E+03 0.  1.
      622    1    1    2    0    0  0.39985573503E-02  0.15937770237E-02  0.38717125256E+01  0.38730061205E+01  0.10000000000E+00 0.  1.
</event>
<event>
 5   0  0.6262544E+06  0.9118800E+02  0.7818608E-02  0.1180000E+00
       11   -1    0    0    0    0  0.00000000000E+00  0.00000000000E+00  0.39999999673E+01  0.40000000000E+01  0.51109989000E-03 0. -1.
     -623   -1    0    0    0    0  0.00000000000E+00  0.00000000000E+00  0.12525980253E-10  0.17130000000E+03  0.17130000000E+03 0. -1.
       11    1    1    2    0    0  0.28840366361E-01  0.56740002950E-01  0.37450871692E+00  0.37987923731E+00  0.51109989000E-03 0. -1.
     -623    1    1    2    0    0 -0.18221820711E-02 -0.12778303164E-01  0.71204664061E-02  0.17130000063E+03  0.17130000000E+03 0. -1.
      622    1    1    2    0    0 -0.27018184290E-01 -0.43961699786E-01  0.36183707840E+01  0.36201201284E+01  0.10000000000E+00 0.  0.
</event>
<event>
 5   0  0.6262544E+06  0.9118800E+02  0.7818608E-02  0.1180000E+00
       11   -1    0    0    0    0  0.00000000000E+00  0.00000000000E+00  0.39999999673E+01  0.40000000000E+01  0.51109989000E-03 0. -1.
     -623   -1    0    0    0    0  0.00000000000E+00  0.00000000000E+00  0.12525980253E-10  0.17130000000E+03  0.17130000000E+03 0.  1.
       11    1    1    2    0    0  0.10244306928E+00 -0.29298845756E-01  0.15386136858E+01  0.15422987195E+01  0.51109989000E-03 0. -1.
     -623    1    1    2    0    0  0.30429867098E-01 -0.13003592026E-01  0.96860932593E-02  0.17130000347E+03  0.17130000000E+03 0.  1.
      622    1    1    2    0    0 -0.13287293637E+00  0.42302437782E-01  0.24517001883E+01  0.24576978103E+01  0.10000000000E+00 0.  0.
</event>
<event>
 5   0  0.6262544E+06  0.9118800E+02  0.7818608E-02  0.1180000E+00
       11   -1    0    0    0    0  0.00000000000E+00  0.00000000000E+00  0.39999999673E+01  0.40000000000E+01  0.51109989000E-03 0.  1.
     -623   -1    0    0    0    0  0.00000000000E+00  0.00000000000E+00  0.12525980253E-10  0.17130000000E+03  0.17130000000E+03 0.  1.
       11    1    1    2    0    0 -0.25580836443E-02  0.29223961127E-02  0.14836672792E-01  0.15345105852E-01  0.51109989000E-03 0.  1.
     -623    1    1    2    0    0  0.30674211337E-02 -0.29030308433E-02  0.17635056420E-02  0.17130000006E+03  0.17130000000E+03 0.  1.
      622    1    1    2    0    0 -0.50933748941E-03 -0.19365269415E-04  0.39833997889E+01  0.39846548330E+01  0.10000000000E+00 0.  1.
</event>
<event>
 5   0  0.6262544E+06  0.9118800E+02  0.7818608E-02  0.1180000E+00
       11   -1    0    0    0    0  0.00000000000E+00  0.00000000000E+00  0.39999999673E+01  0.40000000000E+01  0.51109989000E-03 0.  1.
     -623   -1    0    0    0    0  0.00000000000E+00  0.00000000000E+00  0.12525980253E-10  0.17130000000E+03  0.17130000000E+03 0. -1.
       11    1    1    2    0    0  0.26060141210E-02 -0.30153266476E-01  0.37376052242E+00  0.37498426651E+00  0.51109989000E-03 0.  1.
     -623    1    1    2    0    0  0.25656173955E-02  0.42559523486E-02  0.26996045947E-02  0.17130000009E+03  0.17130000000E+03 0. -1.
      622    1    1    2    0    0 -0.51716315165E-02  0.25897314128E-01  0.36235398403E+01  0.36250156401E+01  0.10000000000E+00 0.  1.
</event>
<event>
 5   0  0.6262544E+06  0.9118800E+02  0.7818608E-02  0.1180000E+00
       11   -1    0    0    0    0  0.00000000000E+00  0.00000000000E+00  0.39999999673E+01  0.40000000000E+01  0.51109989000E-03 0. -1.
     -623   -1    0    0    0    0  0.00000000000E+00  0.00000000000E+00  0.12525980253E-10  0.17130000000E+03  0.17130000000E+03 0. -1.
       11    1    1    2    0    0  0.38474034985E-02 -0.30756817195E-02  0.27609749587E-02  0.56697916664E-02  0.51109989000E-03 0. -1.
     -623    1    1    2    0    0  0.15228354844E-02  0.49166035422E-02  0.41649181406E-02  0.17130000013E+03  0.17130000000E+03 0. -1.
      622    1    1    2    0    0 -0.53702389830E-02 -0.18409218229E-02  0.39930740744E+01  0.39943300805E+01  0.10000000000E+00 0. -1.
</event>
<event>
 5   0  0.6262544E+06  0.9118800E+02  0.7818608E-02  0.1180000E+00
       11   -1    0    0    0    0  0.00000000000E+00  0.00000000000E+00  0.39999999673E+01  0.40000000000E+01  0.51109989000E-03 0.  1.
     -623   -1    0    0    0    0  0.00000000000E+00  0.00000000000E+00  0.12525980253E-10  0.17130000000E+03  0.17130000000E+03 0. -1.
       11    1    1    2    0    0  0.22284223159E-01 -0.66043333643E-01  0.62600342887E+00  0.62987210028E+00  0.51109989000E-03 0.  1.
     -623    1    1    2    0    0  0.65756264468E-02 -0.81914604939E-03  0.61401025916E-02  0.17130000024E+03  0.17130000000E+03 0. -1.
      622    1    1    2    0    0 -0.28859849606E-01  0.66862479693E-01  0.33678564359E+01  0.33701276615E+01  0.10000000000E+00 0.  1.
</event>
<event>
 5   0  0.6262544E+06  0.9118800E+02  0.7818608E-02  0.1180000E+00
       11   -1    0    0    0    0  0.00000000000E+00  0.00000000000E+00  0.39999999673E+01  0.40000000000E+01  0.51109989000E-03 0.  1.
     -623   -1    0    0    0    0  0.00000000000E+00  0.00000000000E+00  0.12525980253E-10  0.17130000000E+03  0.17130000000E+03 0.  1.
       11    1    1    2    0    0 -0.17134945608E-01  0.15088237670E-01  0.48402940221E-01  0.53519782531E-01  0.51109989000E-03 0.  1.
     -623    1    1    2    0    0 -0.45247131438E-03 -0.23948738736E-01  0.64349127292E-02  0.17130000180E+03  0.17130000000E+03 0.  1.
      622    1    1    2    0    0  0.17587416923E-01  0.88605010660E-02  0.39451621144E+01  0.39464784219E+01  0.10000000000E+00 0.  1.
</event>
<event>
 5   0  0.6262544E+06  0.9118800E+02  0.7818608E-02  0.1180000E+00
       11   -1    0    0    0    0  0.00000000000E+00  0.00000000000E+00  0.39999999673E+01  0.40000000000E+01  0.51109989000E-03 0.  1.
     -623   -1    0    0    0    0  0.00000000000E+00  0.00000000000E+00  0.12525980253E-10  0.17130000000E+03  0.17130000000E+03 0.  1.
       11    1    1    2    0    0 -0.22373825820E-01  0.56049700350E-01  0.18952238350E+01  0.18961845382E+01  0.51109989000E-03 0.  1.
     -623    1    1    2    0    0  0.13782494326E-02  0.32443554996E-01  0.53108838323E-02  0.17130000316E+03  0.17130000000E+03 0.  1.
      622    1    1    2    0    0  0.20995576388E-01 -0.88493255346E-01  0.20994652485E+01  0.21038123016E+01  0.10000000000E+00 0.  0.
</event>
<event>
 5   0  0.6262544E+06  0.9118800E+02  0.7818608E-02  0.1180000E+00
       11   -1    0    0    0    0  0.00000000000E+00  0.00000000000E+00  0.39999999673E+01  0.40000000000E+01  0.51109989000E-03 0.  1.
     -623   -1    0    0    0    0  0.00000000000E+00  0.00000000000E+00  0.12525980253E-10  0.17130000000E+03  0.17130000000E+03 0.  1.
       11    1    1    2    0    0 -0.21522619574E-03 -0.61698871014E-02  0.12257056243E-01  0.13733553002E-01  0.51109989000E-03 0.  1.
     -623    1    1    2    0    0 -0.28176797079E-02  0.69273134727E-03  0.27359326289E-02  0.17130000005E+03  0.17130000000E+03 0.  1.
      622    1    1    2    0    0  0.30329059036E-02  0.54771557542E-02  0.39850069785E+01  0.39862664006E+01  0.10000000000E+00 0.  1.
</event>
<event>
 5   0  0.6262544E+06  0.9118800E+02  0.7818608E-02  0.1180000E+00
       11   -1    0    0    0    0  0.00000000000E+00  0.00000000000E+00  0.39999999673E+01  0.40000000000E+01  0.51109989000E-03 0. -1.
     -623   -1    0    0    0    0  0.00000000000E+00  0.00000000000E+00  0.12525980253E-10  0.17130000000E+03  0.17130000000E+03 0.  1.
       11    1    1    2    0    0 -0.48077835037E-03 -0.24422396974E-02  0.11301265005E+00  0.11304121362E+00  0.51109989000E-03 0. -1.
     -623    1    1    2    0    0  0.16187665531E-02  0.72493406774E-02  0.13184028968E-02  0.17130000017E+03  0.17130000000E+03 0.  1.
      622    1    1    2    0    0 -0.11379882028E-02 -0.48071009800E-02  0.38856689144E+01  0.38869586203E+01  0.10000000000E+00 0. -1.
</event>
<event>
 5   0  0.6262544E+06  0.9118800E+02  0.7818608E-02  0.1180000E+00
       11   -1    0    0    0    0  0.00000000000E+00  0.00000000000E+00  0.39999999673E+01  0.40000000000E+01  0.51109989000E-03 0. -1.
     -623   -1    0    0    0    0  0.00000000000E+00  0.00000000000E+00  0.12525980253E-10  0.17130000000E+03  0.17130000000E+03 0. -1.
       11    1    1    2    0    0  0.54744025511E-01 -0.59328672840E-02  0.30648414273E+00  0.31139187242E+00  0.51109989000E-03 0. -1.
     -623    1    1    2    0    0 -0.81129708753E-02 -0.65363107179E-02  0.65798726976E-02  0.17130000044E+03  0.17130000000E+03 0. -1.
      622    1    1    2    0    0 -0.46631054635E-01  0.12469178002E-01  0.36869359519E+01  0.36886076844E+01  0.10000000000E+00 0. -1.
</event>
<event>
 5   0  0.6262544E+06  0.9118800E+02  0.7818608E-02  0.1180000E+00
       11   -1    0    0    0    0  0.00000000000E+00  0.00000000000E+00  0.39999999673E+01  0.40000000000E+01  0.51109989000E-03 0.  1.
     -623   -1    0    0    0    0  0.00000000000E+00  0.00000000000E+00  0.12525980253E-10  0.17130000000E+03  0.17130000000E+03 0. -1.
       11    1    1    2    0    0 -0.92287375205E-01 -0.12068906460E+00  0.62287105774E+00  0.64113292360E+00  0.51109989000E-03 0.  1.
     -623    1    1    2    0    0  0.79771268572E-01  0.58493021088E-01  0.20380031634E-01  0.17130002977E+03  0.17130000000E+03 0. -1.
      622    1    1    2    0    0  0.12516106632E-01  0.62196043515E-01  0.33567488780E+01  0.33588373034E+01  0.10000000000E+00 0.  1.
</event>
<event>
 5   0  0.6262544E+06  0.9118800E+02  0.7818608E-02  0.1180000E+00
       11   -1    0    0    0    0  0.00000000000E+00  0.00000000000E+00  0.39999999673E+01  0.40000000000E+01  0.51109989000E-03 0.  1.
     -623   -1    0    0    0    0  0.00000000000E+00  0.00000000000E+00  0.12525980253E-10  0.17130000000E+03  0.17130000000E+03 0.  1.
       11    1    1    2    0    0 -0.91418232747E-01 -0.14489239497E-01  0.77235140250E+00  0.77787799911E+00  0.51109989000E-03 0.  1.
     -623    1    1    2    0    0  0.19440004125E-01 -0.10827015648E-01  0.79843125094E-02  0.17130000163E+03  0.17130000000E+03 0.  1.
      622    1    1    2    0    0  0.71978228622E-01  0.25316255145E-01  0.32196642524E+01  0.32221203696E+01  0.10000000000E+00 0.  1.
</event>
<event>
 5   0  0.6262544E+06  0.9118800E+02  0.7818608E-02  0.1180000E+00
       11   -1    0    0    0    0  0.00000000000E+00  0.00000000000E+00  0.39999999673E+01  0.40000000000E+01  0.51109989000E-03 0. -1.
     -623   -1    0    0    0    0  0.00000000000E+00  0.00000000000E+00  0.12525980253E-10  0.17130000000E+03  0.17130000000E+03 0.  1.
       11    1    1    2    0    0 -0.14854013582E-01  0.21634768916E-01  0.21933033988E+00  0.22089536926E+00  0.51109989000E-03 0. -1.
     -623    1    1    2    0    0  0.13659919379E-01 -0.28317032043E-01  0.28973024274E-02  0.17130000291E+03  0.17130000000E+03 0.  1.
      622    1    1    2    0    0  0.11940942038E-02  0.66822631264E-02  0.37777723250E+01  0.37791017210E+01  0.10000000000E+00 0. -1.
</event>
<event>
 5   0  0.6262544E+06  0.9118800E+02  0.7818608E-02  0.1180000E+00
       11   -1    0    0    0    0  0.00000000000E+00  0.00000000000E+00  0.39999999673E+01  0.40000000000E+01  0.51109989000E-03 0. -1.
     -623   -1    0    0    0    0  0.00000000000E+00  0.00000000000E+00  0.12525980253E-10  0.17130000000E+03  0.17130000000E+03 0. -1.
       11    1    1    2    0    0 -0.10596958210E-02 -0.90253312092E-03  0.76090728711E-03  0.16666506126E-02  0.51109989000E-03 0. -1.
     -623    1    1    2    0    0 -0.22870378317E-02 -0.13139204268E-02  0.21584768969E-02  0.17130000003E+03  0.17130000000E+03 0. -1.
      622    1    1    2    0    0  0.33467336527E-02  0.22164535477E-02  0.39970805831E+01  0.39983333155E+01  0.10000000000E+00 0. -1.
</event>
<event>
 5   0  0.6262544E+06  0.9118800E+02  0.7818608E-02  0.1180000E+00
       11   -1    0    0    0    0  0.00000000000E+00  0.00000000000E+00  0.39999999673E+01  0.40000000000E+01  0.51109989000E-03 0.  1.
     -623   -1    0    0    0    0  0.00000000000E+00  0.00000000000E+00  0.12525980253E-10  0.17130000000E+03  0.17130000000E+03 0. -1.
       11    1    1    2    0    0  0.19199778338E-01  0.34422475184E-01  0.29910582672E+00  0.30169205340E+00  0.51109989000E-03 0.  1.
     -623    1    1    2    0    0 -0.54298164254E-02 -0.23086098176E-02  0.41036893849E-02  0.17130000015E+03  0.17130000000E+03 0. -1.
      622    1    1    2    0    0 -0.13769961913E-01 -0.32113865366E-01  0.36967904513E+01  0.36983077958E+01  0.10000000000E+00 0.  1.
</event>
<event>
 5   0  0.6262544E+06  0.9118800E+02  0.7818608E-02  0.1180000E+00
       11   -1    0    0    0    0  0.00000000000E+00  0.00000000000E+00  0.39999999673E+01  0.40000000000E+01  0.51109989000E-03 0.  1.
     -623   -1    0    0    0    0  0.00000000000E+00  0.00000000000E+00  0.12525980253E-10  0.17130000000E+03  0.17130000000E+03 0.  1.
       11    1    1    2    0    0 -0.27279688475E-03  0.12131255336E-01  0.73250288801E-01  0.74250305095E-01  0.51109989000E-03 0.  1.
     -623    1    1    2    0    0  0.56306458788E-03 -0.27596306266E-01  0.23065546337E-02  0.17130000224E+03  0.17130000000E+03 0.  1.
      622    1    1    2    0    0 -0.29026770313E-03  0.15465050930E-01  0.39244431239E+01  0.39257474556E+01  0.10000000000E+00 0.  1.
</event>
<event>
 5   0  0.6262544E+06  0.9118800E+02  0.7818608E-02  0.1180000E+00
       11   -1    0    0    0    0  0.00000000000E+00  0.00000000000E+00  0.39999999673E+01  0.40000000000E+01  0.51109989000E-03 0.  1.
     -623   -1    0    0    0    0  0.00000000000E+00  0.00000000000E+00  0.12525980253E-10  0.17130000000E+03  0.17130000000E+03 0. -1.
       11    1    1    2    0    0  0.30638863798E-02 -0.23876907979E-02  0.10840315396E-01  0.11526583447E-01  0.51109989000E-03 0.  1.
     -623    1    1    2    0    0  0.19608886194E-02  0.49283402819E-02  0.19441137423E-02  0.17130000009E+03  0.17130000000E+03 0. -1.
      622    1    1    2    0    0 -0.50247749992E-02 -0.25406494839E-02  0.39872155382E+01  0.39884733234E+01  0.10000000000E+00 0.  1.
</event>
<event>
 5   0  0.6262544E+06  0.9118800E+02  0.7818608E-02  0.1180000E+00
       11   -1    0    0    0    0  0.00000000000E+00  0.00000000000E+00  0.39999999673E+01  0.40000000000E+01  0.51109989000E-03 0.  1.
     -623   -1    0    0    0    0  0.00000000000E+00  0.00000000000E+00  0.12525980253E-10  0.17130000000E+03  0.17130000000E+03 0. -1.
       11    1    1    2    0    0 -0.36751827244E-01  0.13464534603E+00  0.27074087127E+01  0.27110039220E+01  0.51109989000E-03 0.  1.
     -623    1    1    2    0    0  0.32229752316E-01  0.13919982045E-01  0.16108761134E-01  0.17130000435E+03  0.17130000000E+03 0. -1.
      622    1    1    2    0    0  0.45220749285E-02 -0.14856532807E+00  0.12764824935E+01  0.12889917230E+01  0.10000000000E+00 0. -1.
</event>
<event>
 5   0  0.6262544E+06  0.9118800E+02  0.7818608E-02  0.1180000E+00
       11   -1    0    0    0    0  0.00000000000E+00  0.00000000000E+00  0.39999999673E+01  0.40000000000E+01  0.51109989000E-03 0. -1.
     -623   -1    0    0    0    0  0.00000000000E+00  0.00000000000E+00  0.12525980253E-10  0.17130000000E+03  0.17130000000E+03 0. -1.
       11    1    1    2    0    0 -0.51274272177E-02  0.95858288652E-03  0.11525226831E-01  0.12661021526E-01  0.51109989000E-03 0. -1.
     -623    1    1    2    0    0  0.72960898763E-02  0.56536229791E-02  0.23962681290E-02  0.17130000027E+03  0.17130000000E+03 0. -1.
      622    1    1    2    0    0 -0.21686626586E-02 -0.66122058656E-02  0.39860784724E+01  0.39873387130E+01  0.10000000000E+00 0. -1.
</event>
<event>
 5   0  0.6262544E+06  0.9118800E+02  0.7818608E-02  0.1180000E+00
       11   -1    0    0    0    0  0.00000000000E+00  0.00000000000E+00  0.39999999673E+01  0.40000000000E+01  0.51109989000E-03 0. -1.
     -623   -1    0    0    0    0  0.00000000000E+00  0.00000000000E+00  0.12525980253E-10  0.17130000000E+03  0.17130000000E+03 0.  1.
       11    1    1    2    0    0 -0.20682068257E-02 -0.61594853052E-02  0.82980178840E-02  0.10551543079E-01  0.51109989000E-03 0. -1.
     -623    1    1    2    0    0  0.55635447058E-02 -0.66034661321E-02  0.35292032652E-02  0.17130000025E+03  0.17130000000E+03 0.  1.
      622    1    1    2    0    0 -0.34953378801E-02  0.12762951437E-01  0.39881727462E+01  0.39894482029E+01  0.10000000000E+00 0. -1.
</event>
<event>
 5   0  0.6262544E+06  0.9118800E+02  0.7818608E-02  0.1180000E+00
       11   -1    0    0    0    0  0.00000000000E+00  0.00000000000E+00  0.39999999673E+01  0.40000000000E+01  0.51109989000E-03 0. -1.
     -623   -1    0    0    0    0  0.00000000000E+00  0.00000000000E+00  0.12525980253E-10  0.17130000000E+03  0.17130000000E+03 0.  1.
       11    1    1    2    0    0 -0.12430132542E-01  0.16224097525E-01  0.91037579658E+00  0.91060533809E+00  0.51109989000E-03 0. -1.
     -623    1    1    2    0    0  0.98204605819E-02 -0.25097726262E-02  0.18802423961E-02  0.17130000031E+03  0.17130000000E+03 0.  1.
      622    1    1    2    0    0  0.26096719603E-02 -0.13714324898E-01  0.30877439284E+01  0.30893943517E+01  0.10000000000E+00 0. -1.
</event>
<event>
 5   0  0.6262544E+06  0.9118800E+02  0.7818608E-02  0.1180000E+00
       11   -1    0    0    0    0  0.00000000000E+00  0.00000000000E+00  0.39999999673E+01  0.40000000000E+01  0.51109989000E-03 0. -1.
     -623   -1    0    0    0    0  0.00000000000E+00  0.00000000000E+00  0.12525980253E-10  0.17130000000E+03  0.17130000000E+03 0.  1.
       11    1    1    2    0    0  0.14814679488E-01 -0.35364233710E-01  0.26030353345E+01  0.26033177519E+01  0.51109989000E-03 0. -1.
     -623    1    1    2    0    0  0.52202377706E-02  0.13311577299E-01  0.41861958481E-02  0.17130000065E+03  0.17130000000E+03 0.  1.
      622    1    1    2    0    0 -0.20034917258E-01  0.22052656411E-01  0.13927784370E+01  0.13966816002E+01  0.10000000000E+00 0.  0.
</event>
<event>
 5   0  0.6262544E+06  0.9118800E+02  0.7818608E-02  0.1180000E+00
       11   -1    0    0    0    0  0.00000000000E+00  0.00000000000E+00  0.39999999673E+01  0.40000000000E+01  0.51109989000E-03 0.  1.
     -623   -1    0    0    0    0  0.00000000000E+00  0.00000000000E+00  0.12525980253E-10  0.17130000000E+03  0.17130000000E+03 0.  1.
       11    1    1    2    0    0 -0.20923951442E-01  0.18113630183E-02  0.70462604720E-01  0.73527768000E-01  0.51109989000E-03 0.  1.
     -623    1    1    2    0    0  0.18566735917E-01 -0.13468915451E-01  0.43583554594E-02  0.17130000159E+03  0.17130000000E+03 0.  1.
      622    1    1    2    0    0  0.23572155243E-02  0.11657552433E-01  0.39251790073E+01  0.39264706409E+01  0.10000000000E+00 0.  1.
</event>
<event>
 5   0  0.6262544E+06  0.9118800E+02  0.7818608E-02  0.1180000E+00
       11   -1    0    0    0    0  0.00000000000E+00  0.00000000000E+00  0.39999999673E+01  0.40000000000E+01  0.51109989000E-03 0.  1.
     -623   -1    0    0    0    0  0.00000000000E+00  0.00000000000E+00  0.12525980253E-10  0.17130000000E+03  0.17130000000E+03 0.  1.
       11    1    1    2    0    0 -0.57746323878E-03 -0.27212402345E-02  0.18897894631E-02  0.34016377701E-02  0.51109989000E-03 0.  1.
     -623    1    1    2    0    0  0.37980580007E-02  0.17949356165E-02  0.27645547157E-02  0.17130000007E+03  0.17130000000E+03 0.  1.
      622    1    1    2    0    0 -0.32205947619E-02  0.92630461810E-03  0.39953456231E+01  0.39965982884E+01  0.10000000000E+00 0.  1.
</event>
<event>
 5   0  0.6262544E+06  0.9118800E+02  0.7818608E-02  0.1180000E+00
       11   -1    0    0    0    0  0.00000000000E+00  0.00000000000E+00  0.39999999673E+01  0.40000000000E+01  0.51109989000E-03 0.  1.
     -623   -1    0    0    0    0  0.00000000000E+00  0.00000000000E+00  0.12525980253E-10  0.17130000000E+03  0.17130000000E+03 0. -1.
       11    1    1    2    0    0  0.40319715586E-02 -0.26924821654E-02  0.11888494764E-01  0.12849271797E-01  0.51109989000E-03 0.  1.
     -623    1    1    2    0    0  0.31102852136E-02  0.65981772467E-02  0.22234523986E-02  0.17130000017E+03  0.17130000000E+03 0. -1.
      622    1    1    2    0    0 -0.71422567722E-02 -0.39056950814E-02  0.39858880202E+01  0.39871505585E+01  0.10000000000E+00 0.  1.
</event>
<event>
 5   0  0.6262544E+06  0.9118800E+02  0.7818608E-02  0.1180000E+00
       11   -1    0    0    0    0  0.00000000000E+00  0.00000000000E+00  0.39999999673E+01  0.40000000000E+01  0.51109989000E-03 0. -1.
     -623   -1    0    0    0    0  0.00000000000E+00  0.00000000000E+00  0.12525980253E-10  0.17130000000E+03  0.17130000000E+03 0. -1.
       11    1    1    2    0    0  0.19229800292E-01 -0.25228806212E-02  0.90249469368E-01  0.92311310738E-01  0.51109989000E-03 0. -1.
     -623    1    1    2    0    0 -0.16887428491E-03 -0.21935386858E-02  0.33909451656E-02  0.17130000005E+03  0.17130000000E+03 0. -1.
      622    1    1    2    0    0 -0.19060926007E-01  0.47164193070E-02  0.39063595529E+01  0.39076886416E+01  0.10000000000E+00 0. -1.
</event>
<event>
 5   0  0.6262544E+06  0.9118800E+02  0.7818608E-02  0.1180000E+00
       11   -1    0    0    0    0  0.00000000000E+00  0.00000000000E+00  0.39999999673E+01  0.40000000000E+01  0.51109989000E-03 0.  1.
     -623   -1    0    0    0    0  0.00000000000E+00  0.00000000000E+00  0.12525980253E-10  0.17130000000E+03  0.17130000000E+03 0.  1.
       11    1    1    2    0    0  0.20205128895E-01 -0.50142675783E-01  0.10934122868E+01  0.10947480190E+01  0.51109989000E-03 0.  1.
     -623    1    1    2    0    0 -0.36163622512E-01  0.52475806597E-01  0.31139149168E-02  0.17130001188E+03  0.17130000000E+03 0.  1.
      622    1    1    2    0    0  0.15958493618E-01 -0.23331308154E-02  0.29034737658E+01  0.29052400978E+01  0.10000000000E+00 0.  1.
</event>
<event>
 5   0  0.6262544E+06  0.9118800E+02  0.7818608E-02  0.1180000E+00
       11   -1    0    0    0    0  0.00000000000E+00  0.00000000000E+00  0.39999999673E+01  0.40000000000E+01  0.51109989000E-03 0.  1.
     -623   -1    0    0    0    0  0.00000000000E+00  0.00000000000E+00  0.12525980253E-10  0.17130000000E+03  0.17130000000E+03 0.  1.
       11    1    1    2    0    0 -0.63782899300E-02  0.31892674631E-02  0.25038580030E-01  0.26039311073E-01  0.51109989000E-03 0.  1.
     -623    1    1    2    0    0 -0.72600987820E-03 -0.44338082083E-02  0.22657093550E-02  0.17130000007E+03  0.17130000000E+03 0.  1.
      622    1    1    2    0    0  0.71042998082E-02  0.12445407452E-02  0.39726956780E+01  0.39739606150E+01  0.10000000000E+00 0.  1.
</event>
<event>
 5   0  0.6262544E+06  0.9118800E+02  0.7818608E-02  0.1180000E+00
       11   -1    0    0    0    0  0.00000000000E+00  0.00000000000E+00  0.39999999673E+01  0.40000000000E+01  0.51109989000E-03 0. -1.
     -623   -1    0    0    0    0  0.00000000000E+00  0.00000000000E+00  0.12525980253E-10  0.17130000000E+03  0.17130000000E+03 0.  1.
       11    1    1    2    0    0 -0.20204953083E-01 -0.40659823437E-01  0.11993407058E+01  0.12001999213E+01  0.51109989000E-03 0. -1.
     -623    1    1    2    0    0  0.45285382533E-01  0.36886535231E-01  0.27705338966E-02  0.17130000998E+03  0.17130000000E+03 0.  1.
      622    1    1    2    0    0 -0.25080429450E-01  0.37732882057E-02  0.27978887277E+01  0.27997900989E+01  0.10000000000E+00 0. -1.
</event>
<event>
 5   0  0.6262544E+06  0.9118800E+02  0.7818608E-02  0.1180000E+00
       11   -1    0    0    0    0  0.00000000000E+00  0.00000000000E+00  0.39999999673E+01  0.40000000000E+01  0.51109989000E-03 0. -1.
     -623   -1    0    0    0    0  0.00000000000E+00  0.00000000000E+00  0.12525980253E-10  0.17130000000E+03  0.17130000000E+03 0.  1.
       11    1    1    2    0    0  0.26767517142E-01 -0.20386989499E-01  0.14553060436E+01  0.14556950475E+01  0.51109989000E-03 0. -1.
     -623    1    1    2    0    0  0.40076287131E-01  0.42442341776E-02  0.32898383517E-02  0.17130000477E+03  0.17130000000E+03 0.  1.
      622    1    1    2    0    0 -0.66843804275E-01  0.16142755321E-01  0.25414040855E+01  0.25443001805E+01  0.10000000000E+00 0.  0.
</event>
<event>
 5   0  0.6262544E+06  0.9118800E+02  0.7818608E-02  0.1180000E+00
       11   -1    0    0    0    0  0.00000000000E+00  0.00000000000E+00  0.39999999673E+01  0.40000000000E+01  0.51109989000E-03 0. -1.
     -623   -1    0    0    0    0  0.00000000000E+00  0.00000000000E+00  0.12525980253E-10  0.17130000000E+03  0.17130000000E+03 0. -1.
       11    1    1    2    0    0 -0.55088381003E-01 -0.23188675775E-01  0.91930667127E+00  0.92124777420E+00  0.51109989000E-03 0. -1.
     -623    1    1    2    0    0 -0.45729794391E-03  0.35765854300E-02  0.41295032884E-02  0.17130000009E+03  0.17130000000E+03 0. -1.
      622    1    1    2    0    0  0.55545678947E-01  0.19612090345E-01  0.30765637928E+01  0.30787521381E+01  0.10000000000E+00 0. -1.
</event>
<event>
 5   0  0.6262544E+06  0.9118800E+02  0.7818608E-02  0.1180000E+00
       11   -1    0    0    0    0  0.00000000000E+00  0.00000000000E+00  0.39999999673E+01  0.40000000000E+01  0.51109989000E-03 0.  1.
     -623   -1    0    0    0    0  0.00000000000E+00  0.00000000000E+00  0.12525980253E-10  0.17130000000E+03  0.17130000000E+03 0.  1.
       11    1    1    2    0    0  0.23376759749E-01 -0.38908821118E-01  0.22965433130E+00  0.23409771969E+00  0.51109989000E-03 0.  1.
     -623    1    1    2    0    0  0.33587094936E-01  0.57496060755E-01  0.62612479013E-02  0.17130001306E+03  0.17130000000E+03 0.  1.
      622    1    1    2    0    0 -0.56963854686E-01 -0.18587239639E-01  0.37640843882E+01  0.37658892241E+01  0.10000000000E+00 0.  1.
</event>
<event>
 5   0  0.6262544E+06  0.9118800E+02  0.7818608E-02  0.1180000E+00
       11   -1    0    0    0    0  0.00000000000E+00  0.00000000000E+00  0.39999999673E+01  0.40000000000E+01  0.51109989000E-03 0. -1.
     -623   -1    0    0    0    0  0.00000000000E+00  0.00000000000E+00  0.12525980253E-10  0.17130000000E+03  0.17130000000E+03 0. -1.
       11    1    1    2    0    0 -0.24499838251E-02  0.42708292639E-02  0.11721286358E+00  0.11731734319E+00  0.51109989000E-03 0. -1.
     -623    1    1    2    0    0 -0.32206047795E-02 -0.57834398195E-02  0.13970006761E-02  0.17130000013E+03  0.17130000000E+03 0. -1.
      622    1    1    2    0    0  0.56705886045E-02  0.15126105556E-02  0.38813901031E+01  0.38826825232E+01  0.10000000000E+00 0. -1.
</event>
<event>
 5   0  0.6262544E+06  0.9118800E+02  0.7818608E-02  0.1180000E+00
       11   -1    0    0    0    0  0.00000000000E+00  0.00000000000E+00  0.39999999673E+01  0.40000000000E+01  0.51109989000E-03 0.  1.
     -623   -1    0    0    0    0  0.00000000000E+00  0.00000000000E+00  0.12525980253E-10  0.17130000000E+03  0.17130000000E+03 0.  1.
       11    1    1    2    0    0  0.49576924750E-02  0.22233871091E-03  0.16678599337E-01  0.17408763544E-01  0.51109989000E-03 0.  1.
     -623    1    1    2    0    0  0.34930177065E-02 -0.16033322087E-02  0.19950564676E-02  0.17130000005E+03  0.17130000000E+03 0.  1.
      622    1    1    2    0    0 -0.84507101816E-02  0.13809934978E-02  0.39813263117E+01  0.39825911819E+01  0.10000000000E+00 0.  1.
</event>
<event>
 5   0  0.6262544E+06  0.9118800E+02  0.7818608E-02  0.1180000E+00
       11   -1    0    0    0    0  0.00000000000E+00  0.00000000000E+00  0.39999999673E+01  0.40000000000E+01  0.51109989000E-03 0. -1.
     -623   -1    0    0    0    0  0.00000000000E+00  0.00000000000E+00  0.12525980253E-10  0.17130000000E+03  0.17130000000E+03 0. -1.
       11    1    1    2    0    0 -0.32846160486E-02  0.53080564398E-02  0.15489268506E-01  0.16707567977E-01  0.51109989000E-03 0. -1.
     -623    1    1    2    0    0  0.54968944510E-02 -0.98748646782E-02  0.24773318073E-02  0.17130000039E+03  0.17130000000E+03 0. -1.
      622    1    1    2    0    0 -0.22122784025E-02  0.45668082386E-02  0.39820333671E+01  0.39832920414E+01  0.10000000000E+00 0. -1.
</event>
<event>
 5   0  0.6262544E+06  0.9118800E+02  0.7818608E-02  0.1180000E+00
       11   -1    0    0    0    0  0.00000000000E+00  0.00000000000E+00  0.39999999673E+01  0.40000000000E+01  0.51109989000E-03 0. -1.
     -623   -1    0    0    0    0  0.00000000000E+00  0.00000000000E+00  0.12525980253E-10  0.17130000000E+03  0.17130000000E+03 0.  1.
       11    1    1    2    0    0  0.19878577059E-01  0.24639793402E-01  0.29961865019E+00  0.30128702927E+00  0.51109989000E-03 0. -1.
     -623    1    1    2    0    0 -0.13602678597E-01  0.14664085905E-01  0.32358515963E-02  0.17130000120E+03  0.17130000000E+03 0.  1.
      622    1    1    2    0    0 -0.62758984616E-02 -0.39303879307E-01  0.36971454655E+01  0.36987117724E+01  0.10000000000E+00 0. -1.
</event>
<event>
 5   0  0.6262544E+06  0.9118800E+02  0.7818608E-02  0.1180000E+00
       11   -1    0    0    0    0  0.00000000000E+00  0.00000000000E+00  0.39999999673E+01  0.40000000000E+01  0.51109989000E-03 0.  1.
     -623   -1    0    0    0    0  0.00000000000E+00  0.00000000000E+00  0.12525980253E-10  0.17130000000E+03  0.17130000000E+03 0. -1.
       11    1    1    2    0    0  0.17220029909E-02  0.17005723372E-01  0.86007396239E-01  0.87690896635E-01  0.51109989000E-03 0.  1.
     -623    1    1    2    0    0 -0.29491273480E-02  0.12918604206E-02  0.30047457866E-02  0.17130000006E+03  0.17130000000E+03 0. -1.
      622    1    1    2    0    0  0.12271243572E-02 -0.18297583792E-01  0.39109878254E+01  0.39123090468E+01  0.10000000000E+00 0.  1.
</event>
<event>
 5   0  0.6262544E+06  0.9118800E+02  0.7818608E-02  0.1180000E+00
       11   -1    0    0    0    0  0.00000000000E+00  0.00000000000E+00  0.39999999673E+01  0.40000000000E+01  0.51109989000E-03 0. -1.
     -623   -1    0    0    0    0  0.00000000000E+00  0.00000000000E+00  0.12525980253E-10  0.17130000000E+03  0.17130000000E+03 0. -1.
       11    1    1    2    0    0 -0.42977505458E-02  0.12371813170E-02  0.14517345467E-01  0.15199204494E-01  0.51109989000E-03 0. -1.
     -623    1    1    2    0    0  0.94216602616E-02  0.30515231252E-02  0.19426932491E-02  0.17130000030E+03  0.17130000000E+03 0. -1.
      622    1    1    2    0    0 -0.51239097157E-02 -0.42887044422E-02  0.39835399286E+01  0.39848004982E+01  0.10000000000E+00 0. -1.
</event>
<event>
 5   0  0.6262544E+06  0.9118800E+02  0.7818608E-02  0.1180000E+00
       11   -1    0    0    0    0  0.00000000000E+00  0.00000000000E+00  0.39999999673E+01  0.40000000000E+01  0.51109989000E-03 0. -1.
     -623   -1    0    0    0    0  0.00000000000E+00  0.00000000000E+00  0.12525980253E-10  0.17130000000E+03  0.17130000000E+03 0.  1.
       11    1    1    2    0    0 -0.13992132961E-01  0.80624140206E-02  0.11685226523E+00  0.11796395812E+00  0.51109989000E-03 0. -1.
     -623    1    1    2    0    0 -0.32872942757E-03 -0.22493050638E-02  0.24306678520E-02  0.17130000003E+03  0.17130000000E+03 0.  1.
      622    1    1    2    0    0  0.14320862389E-01 -0.58131089568E-02  0.38807170343E+01  0.38820360095E+01  0.10000000000E+00 0. -1.
</event>
<event>
 5   0  0.6262544E+06  0.9118800E+02  0.7818608E-02  0.1180000E+00
       11   -1    0    0    0    0  0.00000000000E+00  0.00000000000E+00  0.39999999673E+01  0.40000000000E+01  0.51109989000E-03 0.  1.
     -623   -1    0    0    0    0  0.00000000000E+00  0.00000000000E+00  0.12525980253E-10  0.17130000000E+03  0.17130000000E+03 0. -1.
       11    1    1    2    0    0  0.68194740906E-02 -0.95789626099E-02  0.53503903444E+00  0.53516847006E+00  0.51109989000E-03 0.  1.
     -623    1    1    2    0    0 -0.19256781393E-02 -0.69729899313E-02  0.16159453119E-02  0.17130000016E+03  0.17130000000E+03 0. -1.
      622    1    1    2    0    0 -0.48937959513E-02  0.16551952541E-01  0.34633449876E+01  0.34648313696E+01  0.10000000000E+00 0.  1.
</event>
<event>
 5   0  0.6262544E+06  0.9118800E+02  0.7818608E-02  0.1180000E+00
       11   -1    0    0    0    0  0.00000000000E+00  0.00000000000E+00  0.39999999673E+01  0.40000000000E+01  0.51109989000E-03 0. -1.
     -623   -1    0    0    0    0  0.00000000000E+00  0.00000000000E+00  0.12525980253E-10  0.17130000000E+03  0.17130000000E+03 0. -1.
       11    1    1    2    0    0  0.28534538812E-03  0.16436877407E-02  0.11654711518E-01  0.11784593970E-01  0.51109989000E-03 0. -1.
     -623    1    1    2    0    0 -0.15249516027E-02 -0.34746180316E-02  0.13844012415E-02  0.17130000005E+03  0.17130000000E+03 0. -1.
      622    1    1    2    0    0  0.12396062146E-02  0.18309302909E-02  0.39869608546E+01  0.39882153584E+01  0.10000000000E+00 0. -1.
</event>
<event>
 5   0  0.6262544E+06  0.9118800E+02  0.7818608E-02  0.1180000E+00
       11   -1    0    0    0    0  0.00000000000E+00  0.00000000000E+00  0.39999999673E+01  0.40000000000E+01  0.51109989000E-03 0. -1.
     -623   -1    0    0    0    0  0.00000000000E+00  0.00000000000E+00  0.12525980253E-10  0.17130000000E+03  0.17130000000E+03 0. -1.
       11    1    1    2    0    0  0.24313905701E-01  0.31085292586E-02  0.68191766332E-01  0.72465213608E-01  0.51109989000E-03 0. -1.
     -623    1    1    2    0    0 -0.32850921202E-01 -0.33298765940E-02  0.55592452708E-02  0.17130000327E+03  0.17130000000E+03 0. -1.
      622    1    1    2    0    0  0.85370155008E-02  0.22134733542E-03  0.39262489558E+01  0.39275315139E+01  0.10000000000E+00 0. -1.
</event>
<event>
 5   0  0.6262544E+06  0.9118800E+02  0.7818608E-02  0.1180000E+00
       11   -1    0    0    0    0  0.00000000000E+00  0.00000000000E+00  0.39999999673E+01  0.40000000000E+01  0.51109989000E-03 0.  1.
     -623   -1    0    0    0    0  0.00000000000E+00  0.00000000000E+00  0.12525980253E-10  0.17130000000E+03  0.17130000000E+03 0. -1.
       11    1    1    2    0    0 -0.82478840076E-02  0.99878512970E-02  0.49801454611E+00  0.49818323349E+00  0.51109989000E-03 0.  1.
     -623    1    1    2    0    0  0.22354617912E-04 -0.37407293687E-02  0.16120638495E-02  0.17130000005E+03  0.17130000000E+03 0. -1.
      622    1    1    2    0    0  0.82255293897E-02 -0.62471219282E-02  0.35003733574E+01  0.35018167181E+01  0.10000000000E+00 0.  1.
</event>
<event>
 5   0  0.6262544E+06  0.9118800E+02  0.7818608E-02  0.1180000E+00
       11   -1    0    0    0    0  0.00000000000E+00  0.00000000000E+00  0.39999999673E+01  0.40000000000E+01  0.51109989000E-03 0.  1.
     -623   -1    0    0    0    0  0.00000000000E+00  0.00000000000E+00  0.12525980253E-10  0.17130000000E+03  0.17130000000E+03 0.  1.
       11    1    1    2    0    0  0.13530130243E-02 -0.21746758963E-01  0.55450331431E+00  0.55493147232E+00  0.51109989000E-03 0.  1.
     -623    1    1    2    0    0 -0.10897461164E-02  0.12012093680E-01  0.18939858589E-02  0.17130000044E+03  0.17130000000E+03 0.  1.
      622    1    1    2    0    0 -0.26326690784E-03  0.97346652825E-02  0.34436026673E+01  0.34450680927E+01  0.10000000000E+00 0.  1.
</event>
<event>
 5   0  0.6262544E+06  0.9118800E+02  0.7818608E-02  0.1180000E+00
       11   -1    0    0    0    0  0.00000000000E+00  0.00000000000E+00  0.39999999673E+01  0.40000000000E+01  0.51109989000E-03 0.  1.
     -623   -1    0    0    0    0  0.00000000000E+00  0.00000000000E+00  0.12525980253E-10  0.17130000000E+03  0.17130000000E+03 0.  1.
       11    1    1    2    0    0  0.10728842872E-01  0.22179050445E-02  0.90943421812E-02  0.14247647286E-01  0.51109989000E-03 0.  1.
     -623    1    1    2    0    0  0.32533436730E-03  0.85945090500E-02  0.64382795462E-02  0.17130000034E+03  0.17130000000E+03 0.  1.
      622    1    1    2    0    0 -0.11054177239E-01 -0.10812414095E-01  0.39844673456E+01  0.39857520158E+01  0.10000000000E+00 0.  1.
</event>
<event>
 5   0  0.6262544E+06  0.9118800E+02  0.7818608E-02  0.1180000E+00
       11   -1    0    0    0    0  0.00000000000E+00  0.00000000000E+00  0.39999999673E+01  0.40000000000E+01  0.51109989000E-03 0.  1.
     -623   -1    0    0    0    0  0.00000000000E+00  0.00000000000E+00  0.12525980253E-10  0.17130000000E+03  0.17130000000E+03 0. -1.
       11    1    1    2    0    0  0.53503460014E-03  0.82702227128E-04  0.44522039476E-04  0.74585990057E-03  0.51109989000E-03 0.  1.
     -623    1    1    2    0    0  0.30276654836E-02  0.32709093013E-03  0.19533804451E-02  0.17130000004E+03  0.17130000000E+03 0. -1.
      622    1    1    2    0    0 -0.35627000837E-02 -0.40979315725E-03  0.39980020648E+01  0.39992541018E+01  0.10000000000E+00 0.  1.
</event>
<event>
 5   0  0.6262544E+06  0.9118800E+02  0.7818608E-02  0.1180000E+00
       11   -1    0    0    0    0  0.00000000000E+00  0.00000000000E+00  0.39999999673E+01  0.40000000000E+01  0.51109989000E-03 0.  1.
     -623   -1    0    0    0    0  0.00000000000E+00  0.00000000000E+00  0.12525980253E-10  0.17130000000E+03  0.17130000000E+03 0.  1.
       11    1    1    2    0    0 -0.18491034408E-03  0.18862606647E-03 -0.33032505791E-03  0.66340739349E-03  0.51109989000E-03 0.  1.
     -623    1    1    2    0    0  0.96164205851E-04 -0.47594335484E-02  0.22467973080E-02  0.17130000008E+03  0.17130000000E+03 0.  1.
      622    1    1    2    0    0  0.88746138228E-04  0.45708074818E-02  0.39980834950E+01  0.39993365116E+01  0.10000000000E+00 0.  1.
</event>
<event>
 5   0  0.6262544E+06  0.9118800E+02  0.7818608E-02  0.1180000E+00
       11   -1    0    0    0    0  0.00000000000E+00  0.00000000000E+00  0.39999999673E+01  0.40000000000E+01  0.51109989000E-03 0. -1.
     -623   -1    0    0    0    0  0.00000000000E+00  0.00000000000E+00  0.12525980253E-10  0.17130000000E+03  0.17130000000E+03 0. -1.
       11    1    1    2    0    0 -0.53041865394E-02  0.51680238033E-02  0.40840042269E-01  0.41509193417E-01  0.51109989000E-03 0. -1.
     -623    1    1    2    0    0 -0.10859355877E-02 -0.60818499175E-02  0.19378150395E-02  0.17130000012E+03  0.17130000000E+03 0. -1.
      622    1    1    2    0    0  0.63901221271E-02  0.91382611422E-03  0.39572221101E+01  0.39584906842E+01  0.10000000000E+00 0. -1.
</event>
<event>
 5   0  0.6262544E+06  0.9118800E+02  0.7818608E-02  0.1180000E+00
       11   -1    0    0    0    0  0.00000000000E+00  0.00000000000E+00  0.39999999673E+01  0.40000000000E+01  0.51109989000E-03 0. -1.
     -623   -1    0    0    0    0  0.00000000000E+00  0.00000000000E+00  0.12525980253E-10  0.17130000000E+03  0.17130000000E+03 0.  1.
       11    1    1    2    0    0 -0.20079863081E-01 -0.76185997327E-02  0.51715635364E+00  0.51760235634E+00  0.51109989000E-03 0. -1.
     -623    1    1    2    0    0  0.17029236831E-01 -0.48595837596E-02  0.19066870049E-02  0.17130000093E+03  0.17130000000E+03 0.  1.
      622    1    1    2    0    0  0.30506262489E-02  0.12478183493E-01  0.34809369269E+01  0.34823967178E+01  0.10000000000E+00 0. -1.
</event>
<event>
 5   0  0.6262544E+06  0.9118800E+02  0.7818608E-02  0.1180000E+00
       11   -1    0    0    0    0  0.00000000000E+00  0.00000000000E+00  0.39999999673E+01  0.40000000000E+01  0.51109989000E-03 0. -1.
     -623   -1    0    0    0    0  0.00000000000E+00  0.00000000000E+00  0.12525980253E-10  0.17130000000E+03  0.17130000000E+03 0.  1.
       11    1    1    2    0    0 -0.10977105683E-01 -0.11100303497E-01  0.34413550457E+00  0.34448979712E+00  0.51109989000E-03 0. -1.
     -623    1    1    2    0    0 -0.24753571316E-02  0.16695006043E-02  0.17592811704E-02  0.17130000004E+03  0.17130000000E+03 0.  1.
      622    1    1    2    0    0  0.13452462815E-01  0.94308028926E-02  0.36541051816E+01  0.36555101678E+01  0.10000000000E+00 0. -1.
</event>
<event>
 5   0  0.6262544E+06  0.9118800E+02  0.7818608E-02  0.1180000E+00
       11   -1    0    0    0    0  0.00000000000E+00  0.00000000000E+00  0.39999999673E+01  0.40000000000E+01  0.51109989000E-03 0. -1.
     -623   -1    0    0    0    0  0.00000000000E+00  0.00000000000E+00  0.12525980253E-10  0.17130000000E+03  0.17130000000E+03 0. -1.
       11    1    1    2    0    0  0.15463833201E-01  0.69217013450E-03  0.16106714391E+00  0.16181005934E+00  0.51109989000E-03 0. -1.
     -623    1    1    2    0    0 -0.85279549386E-02 -0.16047224061E-02  0.20524109528E-02  0.17130000023E+03  0.17130000000E+03 0. -1.
      622    1    1    2    0    0 -0.69358782627E-02  0.91255227157E-03  0.38368804125E+01  0.38381897086E+01  0.10000000000E+00 0. -1.
</event>
<event>
 5   0  0.6262544E+06  0.9118800E+02  0.7818608E-02  0.1180000E+00
       11   -1    0    0    0    0  0.00000000000E+00  0.00000000000E+00  0.39999999673E+01  0.40000000000E+01  0.51109989000E-03 0. -1.
     -623   -1    0    0    0    0  0.00000000000E+00  0.00000000000E+00  0.12525980253E-10  0.17130000000E+03  0.17130000000E+03 0.  1.
       11    1    1    2    0    0  0.98860075201E-02  0.36753321343E-02  0.16698297813E+00  0.16731651867E+00  0.51109989000E-03 0. -1.
     -623    1    1    2    0    0 -0.10512559039E-01 -0.16307866436E-02  0.16392340266E-02  0.17130000034E+03  0.17130000000E+03 0.  1.
      622    1    1    2    0    0  0.62655151868E-03 -0.20445454907E-02  0.38313777551E+01  0.38326831431E+01  0.10000000000E+00 0. -1.
</event>
<event>
 5   0  0.6262544E+06  0.9118800E+02  0.7818608E-02  0.1180000E+00
       11   -1    0    0    0    0  0.00000000000E+00  0.00000000000E+00  0.39999999673E+01  0.40000000000E+01  0.51109989000E-03 0.  1.
     -623   -1    0    0    0    0  0.00000000000E+00  0.00000000000E+00  0.12525980253E-10  0.17130000000E+03  0.17130000000E+03 0. -1.
       11    1    1    2    0    0  0.63242044296E-02  0.18355148437E-01  0.48569904049E-01  0.52308735762E-01  0.51109989000E-03 0.  1.
     -623    1    1    2    0    0  0.15596503637E-01 -0.41442678081E-02  0.50928689245E-02  0.17130000084E+03  0.17130000000E+03 0. -1.
      622    1    1    2    0    0 -0.21920708067E-01 -0.14210880628E-01  0.39463371944E+01  0.39476904284E+01  0.10000000000E+00 0.  1.
</event>
<event>
 5   0  0.6262544E+06  0.9118800E+02  0.7818608E-02  0.1180000E+00
       11   -1    0    0    0    0  0.00000000000E+00  0.00000000000E+00  0.39999999673E+01  0.40000000000E+01  0.51109989000E-03 0.  1.
     -623   -1    0    0    0    0  0.00000000000E+00  0.00000000000E+00  0.12525980253E-10  0.17130000000E+03  0.17130000000E+03 0. -1.
       11    1    1    2    0    0 -0.46795883476E-01 -0.59471504767E-01  0.17080648758E+01  0.17097405054E+01  0.51109989000E-03 0.  1.
     -623    1    1    2    0    0 -0.73223710998E-02  0.51526130388E-03  0.52600297654E-02  0.17130000024E+03  0.17130000000E+03 0. -1.
      622    1    1    2    0    0  0.54118254576E-01  0.58956243463E-01  0.22866750619E+01  0.22902592567E+01  0.10000000000E+00 0.  1.
</event>
<event>
 5   0  0.6262544E+06  0.9118800E+02  0.7818608E-02  0.1180000E+00
       11   -1    0    0    0    0  0.00000000000E+00  0.00000000000E+00  0.39999999673E+01  0.40000000000E+01  0.51109989000E-03 0. -1.
     -623   -1    0    0    0    0  0.00000000000E+00  0.00000000000E+00  0.12525980253E-10  0.17130000000E+03  0.17130000000E+03 0. -1.
       11    1    1    2    0    0 -0.50844690445E-02 -0.77815275223E-02  0.46497675534E-01  0.47420449694E-01  0.51109989000E-03 0. -1.
     -623    1    1    2    0    0 -0.17788589496E-01  0.44612129445E-01  0.24325543153E-02  0.17130000675E+03  0.17130000000E+03 0. -1.
      622    1    1    2    0    0  0.22873058540E-01 -0.36830601921E-01  0.39510697374E+01  0.39525728001E+01  0.10000000000E+00 0. -1.
</event>
<event>
 5   0  0.6262544E+06  0.9118800E+02  0.7818608E-02  0.1180000E+00
       11   -1    0    0    0    0  0.00000000000E+00  0.00000000000E+00  0.39999999673E+01  0.40000000000E+01  0.51109989000E-03 0. -1.
     -623   -1    0    0    0    0  0.00000000000E+00  0.00000000000E+00  0.12525980253E-10  0.17130000000E+03  0.17130000000E+03 0. -1.
       11    1    1    2    0    0 -0.56493077132E-02  0.24858826224E-02  0.36201268688E+00  0.36206565837E+00  0.51109989000E-03 0. -1.
     -623    1    1    2    0    0  0.72269496024E-02  0.11241438232E-01  0.14543839094E-02  0.17130000053E+03  0.17130000000E+03 0. -1.
      622    1    1    2    0    0 -0.15776418892E-02 -0.13727320854E-01  0.36365328966E+01  0.36379338141E+01  0.10000000000E+00 0. -1.
</event>
<event>
 5   0  0.6262544E+06  0.9118800E+02  0.7818608E-02  0.1180000E+00
       11   -1    0    0    0    0  0.00000000000E+00  0.00000000000E+00  0.39999999673E+01  0.40000000000E+01  0.51109989000E-03 0. -1.
     -623   -1    0    0    0    0  0.00000000000E+00  0.00000000000E+00  0.12525980253E-10  0.17130000000E+03  0.17130000000E+03 0.  1.
       11    1    1    2    0    0  0.15809394573E-01  0.16305087031E-01  0.55568330830E+00  0.55614745631E+00  0.51109989000E-03 0. -1.
     -623    1    1    2    0    0 -0.61314480965E-02 -0.13510278264E-02  0.19624956752E-02  0.17130000013E+03  0.17130000000E+03 0.  1.
      622    1    1    2    0    0 -0.96779464759E-02 -0.14954059205E-01  0.34423541634E+01  0.34438524174E+01  0.10000000000E+00 0. -1.
</event>
<event>
 5   0  0.6262544E+06  0.9118800E+02  0.7818608E-02  0.1180000E+00
       11   -1    0    0    0    0  0.00000000000E+00  0.00000000000E+00  0.39999999673E+01  0.40000000000E+01  0.51109989000E-03 0.  1.
     -623   -1    0    0    0    0  0.00000000000E+00  0.00000000000E+00  0.12525980253E-10  0.17130000000E+03  0.17130000000E+03 0.  1.
       11    1    1    2    0    0 -0.90289546692E-04 -0.39923473214E-02  0.11448505756E-01  0.12135752818E-01  0.51109989000E-03 0.  1.
     -623    1    1    2    0    0 -0.77296420949E-03  0.13933333622E-02  0.19421746348E-02  0.17130000002E+03  0.17130000000E+03 0.  1.
      622    1    1    2    0    0  0.86325375620E-03  0.25990139592E-02  0.39866092870E+01  0.39878642288E+01  0.10000000000E+00 0.  1.
</event>
<event>
 5   0  0.6262544E+06  0.9118800E+02  0.7818608E-02  0.1180000E+00
       11   -1    0    0    0    0  0.00000000000E+00  0.00000000000E+00  0.39999999673E+01  0.40000000000E+01  0.51109989000E-03 0. -1.
     -623   -1    0    0    0    0  0.00000000000E+00  0.00000000000E+00  0.12525980253E-10  0.17130000000E+03  0.17130000000E+03 0.  1.
       11    1    1    2    0    0  0.32569356926E-02 -0.34585521239E-02  0.44081012302E-01  0.44339216047E-01  0.51109989000E-03 0. -1.
     -623    1    1    2    0    0  0.55504661146E-02  0.13963722840E-01  0.15468127965E-02  0.17130000067E+03  0.17130000000E+03 0.  1.
      622    1    1    2    0    0 -0.88074018072E-02 -0.10505170716E-01  0.39543721423E+01  0.39556601179E+01  0.10000000000E+00 0. -1.
</event>
<event>
 5   0  0.6262544E+06  0.9118800E+02  0.7818608E-02  0.1180000E+00
       11   -1    0    0    0    0  0.00000000000E+00  0.00000000000E+00  0.39999999673E+01  0.40000000000E+01  0.51109989000E-03 0.  1.
     -623   -1    0    0    0    0  0.00000000000E+00  0.00000000000E+00  0.12525980253E-10  0.17130000000E+03  0.17130000000E+03 0. -1.
       11    1    1    2    0    0 -0.37160383473E-03  0.36093295115E-02 -0.38114724960E-02  0.52871442782E-02  0.51109989000E-03 0.  1.
     -623    1    1    2    0    0  0.59177988830E-02 -0.73412509968E-02  0.10356602577E-01  0.17130000057E+03  0.17130000000E+03 0. -1.
      622    1    1    2    0    0 -0.55461950483E-02  0.37319214853E-02  0.39934548373E+01  0.39947122832E+01  0.10000000000E+00 0.  1.
</event>
<event>
 5   0  0.6262544E+06  0.9118800E+02  0.7818608E-02  0.1180000E+00
       11   -1    0    0    0    0  0.00000000000E+00  0.00000000000E+00  0.39999999673E+01  0.40000000000E+01  0.51109989000E-03 0. -1.
     -623   -1    0    0    0    0  0.00000000000E+00  0.00000000000E+00  0.12525980253E-10  0.17130000000E+03  0.17130000000E+03 0.  1.
       11    1    1    2    0    0 -0.30050426492E-02  0.35405497831E-02  0.48147834935E-01  0.48373970324E-01  0.51109989000E-03 0. -1.
     -623    1    1    2    0    0  0.68718878055E-02  0.54352501880E-02  0.15039277832E-02  0.17130000023E+03  0.17130000000E+03 0.  1.
      622    1    1    2    0    0 -0.38668451563E-02 -0.89757999711E-02  0.39503482046E+01  0.39516257990E+01  0.10000000000E+00 0. -1.
</event>
<event>
 5   0  0.6262544E+06  0.9118800E+02  0.7818608E-02  0.1180000E+00
       11   -1    0    0    0    0  0.00000000000E+00  0.00000000000E+00  0.39999999673E+01  0.40000000000E+01  0.51109989000E-03 0. -1.
     -623   -1    0    0    0    0  0.00000000000E+00  0.00000000000E+00  0.12525980253E-10  0.17130000000E+03  0.17130000000E+03 0. -1.
       11    1    1    2    0    0 -0.19805669623E-01 -0.55744075333E-01  0.43394959979E+00  0.43796367756E+00  0.51109989000E-03 0. -1.
     -623    1    1    2    0    0  0.56175575500E-02 -0.60499682769E-02  0.59828409090E-02  0.17130000030E+03  0.17130000000E+03 0. -1.
      622    1    1    2    0    0  0.14188112073E-01  0.61794043609E-01  0.35600675267E+01  0.35620360190E+01  0.10000000000E+00 0. -1.
</event>
<event>
 5   0  0.6262544E+06  0.9118800E+02  0.7818608E-02  0.1180000E+00
       11   -1    0    0    0    0  0.00000000000E+00  0.00000000000E+00  0.39999999673E+01  0.40000000000E+01  0.51109989000E-03 0. -1.
     -623   -1    0    0    0    0  0.00000000000E+00  0.00000000000E+00  0.12525980253E-10  0.17130000000E+03  0.17130000000E+03 0. -1.
       11    1    1    2    0    0  0.98222926906E-02 -0.20986880338E-02  0.96929924846E-01  0.97450261564E-01  0.51109989000E-03 0. -1.
     -623    1    1    2    0    0 -0.86957688599E-02 -0.51921110246E-03  0.18030001772E-02  0.17130000023E+03  0.17130000000E+03 0. -1.
      622    1    1    2    0    0 -0.11265238309E-02  0.26178991362E-02  0.39012670423E+01  0.39025495074E+01  0.10000000000E+00 0. -1.
</event>
<event>
 5   0  0.6262544E+06  0.9118800E+02  0.7818608E-02  0.1180000E+00
       11   -1    0    0    0    0  0.00000000000E+00  0.00000000000E+00  0.39999999673E+01  0.40000000000E+01  0.51109989000E-03 0. -1.
     -623   -1    0    0    0    0  0.00000000000E+00  0.00000000000E+00  0.12525980253E-10  0.17130000000E+03  0.17130000000E+03 0. -1.
       11    1    1    2    0    0  0.13241966589E-01 -0.22171505315E-01  0.42442752087E-01  0.49684743672E-01  0.51109989000E-03 0. -1.
     -623    1    1    2    0    0 -0.54856184439E-02  0.24402454151E-01  0.85181692704E-02  0.17130000204E+03  0.17130000000E+03 0. -1.
      622    1    1    2    0    0 -0.77563481451E-02 -0.22309488361E-02  0.39490390460E+01  0.39503132186E+01  0.10000000000E+00 0. -1.
</event>
<event>
 5   0  0.6262544E+06  0.9118800E+02  0.7818608E-02  0.1180000E+00
       11   -1    0    0    0    0  0.00000000000E+00  0.00000000000E+00  0.39999999673E+01  0.40000000000E+01  0.51109989000E-03 0. -1.
     -623   -1    0    0    0    0  0.00000000000E+00  0.00000000000E+00  0.12525980253E-10  0.17130000000E+03  0.17130000000E+03 0. -1.
       11    1    1    2    0    0  0.34606025525E-01 -0.18428085528E-01  0.80086618856E-01  0.89170057092E-01  0.51109989000E-03 0. -1.
     -623    1    1    2    0    0  0.13297863074E-01  0.51553915525E-01  0.10804580712E-01  0.17130000861E+03  0.17130000000E+03 0. -1.
      622    1    1    2    0    0 -0.47903888599E-01 -0.33125829998E-01  0.39091087678E+01  0.39108213283E+01  0.10000000000E+00 0. -1.
</event>
<event>
 5   0  0.6262544E+06  0.9118800E+02  0.7818608E-02  0.1180000E+00
       11   -1    0    0    0    0  0.00000000000E+00  0.00000000000E+00  0.39999999673E+01  0.40000000000E+01  0.51109989000E-03 0. -1.
     -623   -1    0    0    0    0  0.00000000000E+00  0.00000000000E+00  0.12525980253E-10  0.17130000000E+03  0.17130000000E+03 0.  1.
       11    1    1    2    0    0  0.27061162206E-02 -0.47044376796E-02  0.13655553979E+00  0.13666430210E+00  0.51109989000E-03 0. -1.
     -623    1    1    2    0    0  0.41742167188E-02  0.88400640168E-05  0.14122048820E-02  0.17130000006E+03  0.17130000000E+03 0.  1.
      622    1    1    2    0    0 -0.68803329392E-02  0.46955976156E-02  0.38620322225E+01  0.38633356411E+01  0.10000000000E+00 0. -1.
</event>
<event>
 5   0  0.6262544E+06  0.9118800E+02  0.7818608E-02  0.1180000E+00
       11   -1    0    0    0    0  0.00000000000E+00  0.00000000000E+00  0.39999999673E+01  0.40000000000E+01  0.51109989000E-03 0. -1.
     -623   -1    0    0    0    0  0.00000000000E+00  0.00000000000E+00  0.12525980253E-10  0.17130000000E+03  0.17130000000E+03 0. -1.
       11    1    1    2    0    0 -0.12771970922E-01 -0.30993769177E-02  0.18067331900E-01  0.22347686314E-01  0.51109989000E-03 0. -1.
     -623    1    1    2    0    0  0.47815953264E-02 -0.24147943326E-02  0.55495685331E-02  0.17130000017E+03  0.17130000000E+03 0. -1.
      622    1    1    2    0    0  0.79903755959E-02  0.55141712502E-02  0.39763830669E+01  0.39776521400E+01  0.10000000000E+00 0. -1.
</event>
<event>
 5   0  0.6262544E+06  0.9118800E+02  0.7818608E-02  0.1180000E+00
       11   -1    0    0    0    0  0.00000000000E+00  0.00000000000E+00  0.39999999673E+01  0.40000000000E+01  0.51109989000E-03 0.  1.
     -623   -1    0    0    0    0  0.00000000000E+00  0.00000000000E+00  0.12525980253E-10  0.17130000000E+03  0.17130000000E+03 0. -1.
       11    1    1    2    0    0 -0.25827224429E-01 -0.10657129361E-01  0.63959291421E+00  0.64020307486E+00  0.51109989000E-03 0.  1.
     -623    1    1    2    0    0  0.15510834012E-01 -0.69000476644E-02  0.21612384949E-02  0.17130000085E+03  0.17130000000E+03 0. -1.
      622    1    1    2    0    0  0.10316390417E-01  0.17557177026E-01  0.33582458148E+01  0.33597960704E+01  0.10000000000E+00 0.  1.
</event>
<event>
 5   0  0.6262544E+06  0.9118800E+02  0.7818608E-02  0.1180000E+00
       11   -1    0    0    0    0  0.00000000000E+00  0.00000000000E+00  0.39999999673E+01  0.40000000000E+01  0.51109989000E-03 0. -1.
     -623   -1    0    0    0    0  0.00000000000E+00  0.00000000000E+00  0.12525980253E-10  0.17130000000E+03  0.17130000000E+03 0. -1.
       11    1    1    2    0    0  0.43710090906E-02  0.17180354619E-02  0.34072933036E-01  0.34398885953E-01  0.51109989000E-03 0. -1.
     -623    1    1    2    0    0 -0.94636724218E-02 -0.17377802891E-01  0.16223150965E-02  0.17130000115E+03  0.17130000000E+03 0. -1.
      622    1    1    2    0    0  0.50926633312E-02  0.15659767429E-01  0.39643047192E+01  0.39655999635E+01  0.10000000000E+00 0. -1.
</event>
<event>
 5   0  0.6262544E+06  0.9118800E+02  0.7818608E-02  0.1180000E+00
       11   -1    0    0    0    0  0.00000000000E+00  0.00000000000E+00  0.39999999673E+01  0.40000000000E+01  0.51109989000E-03 0.  1.
     -623   -1    0    0    0    0  0.00000000000E+00  0.00000000000E+00  0.12525980253E-10  0.17130000000E+03  0.17130000000E+03 0.  1.
       11    1    1    2    0    0 -0.24766913891E-02 -0.18312508308E-02  0.62801085602E+00  0.62801861754E+00  0.51109989000E-03 0.  1.
     -623    1    1    2    0    0  0.56916798968E-02 -0.79845165960E-03  0.14935249296E-02  0.17130000010E+03  0.17130000000E+03 0.  1.
      622    1    1    2    0    0 -0.32149885077E-02  0.26297024904E-02  0.33704955864E+01  0.33719812795E+01  0.10000000000E+00 0.  1.
</event>
<event>
 5   0  0.6262544E+06  0.9118800E+02  0.7818608E-02  0.1180000E+00
       11   -1    0    0    0    0  0.00000000000E+00  0.00000000000E+00  0.39999999673E+01  0.40000000000E+01  0.51109989000E-03 0. -1.
     -623   -1    0    0    0    0  0.00000000000E+00  0.00000000000E+00  0.12525980253E-10  0.17130000000E+03  0.17130000000E+03 0.  1.
       11    1    1    2    0    0  0.18544300286E-02 -0.38915795176E-01  0.52218163406E+00  0.52363326689E+00  0.51109989000E-03 0. -1.
     -623    1    1    2    0    0 -0.10662340887E-01  0.16367098624E-01  0.29756437936E-02  0.17130000114E+03  0.17130000000E+03 0.  1.
      622    1    1    2    0    0  0.88079108589E-02  0.22548696553E-01  0.34748426895E+01  0.34763655935E+01  0.10000000000E+00 0. -1.
</event>
<event>
 5   0  0.6262544E+06  0.9118800E+02  0.7818608E-02  0.1180000E+00
       11   -1    0    0    0    0  0.00000000000E+00  0.00000000000E+00  0.39999999673E+01  0.40000000000E+01  0.51109989000E-03 0. -1.
     -623   -1    0    0    0    0  0.00000000000E+00  0.00000000000E+00  0.12525980253E-10  0.17130000000E+03  0.17130000000E+03 0.  1.
       11    1    1    2    0    0 -0.18198754185E-01 -0.33609174377E-02  0.86905435297E-01  0.88855536277E-01  0.51109989000E-03 0. -1.
     -623    1    1    2    0    0  0.84426614969E-02  0.97901668177E-02  0.32466522845E-02  0.17130000052E+03  0.17130000000E+03 0.  1.
      622    1    1    2    0    0  0.97560926876E-02 -0.64292493800E-02  0.39098478798E+01  0.39111439452E+01  0.10000000000E+00 0. -1.
</event>
<event>
 5   0  0.6262544E+06  0.9118800E+02  0.7818608E-02  0.1180000E+00
       11   -1    0    0    0    0  0.00000000000E+00  0.00000000000E+00  0.39999999673E+01  0.40000000000E+01  0.51109989000E-03 0.  1.
     -623   -1    0    0    0    0  0.00000000000E+00  0.00000000000E+00  0.12525980253E-10  0.17130000000E+03  0.17130000000E+03 0. -1.
       11    1    1    2    0    0 -0.36712340825E-02 -0.26788921111E-02  0.49335953072E+00  0.49338072743E+00  0.51109989000E-03 0.  1.
     -623    1    1    2    0    0  0.36960034927E-02  0.19189270776E-04  0.14483840488E-02  0.17130000005E+03  0.17130000000E+03 0. -1.
      622    1    1    2    0    0 -0.24769410206E-04  0.26597028403E-02  0.35051920526E+01  0.35066192266E+01  0.10000000000E+00 0.  1.
</event>
<event>
 5   0  0.6262544E+06  0.9118800E+02  0.7818608E-02  0.1180000E+00
       11   -1    0    0    0    0  0.00000000000E+00  0.00000000000E+00  0.39999999673E+01  0.40000000000E+01  0.51109989000E-03 0.  1.
     -623   -1    0    0    0    0  0.00000000000E+00  0.00000000000E+00  0.12525980253E-10  0.17130000000E+03  0.17130000000E+03 0. -1.
       11    1    1    2    0    0  0.63803645113E-03 -0.21708313849E-01  0.59269217797E+00  0.59309015927E+00  0.51109989000E-03 0.  1.
     -623    1    1    2    0    0  0.73010507951E-03 -0.69060312661E-02  0.19865163492E-02  0.17130000015E+03  0.17130000000E+03 0. -1.
      622    1    1    2    0    0 -0.13681415306E-02  0.28614345115E-01  0.34053212729E+01  0.34069096883E+01  0.10000000000E+00 0.  0.
</event>
<event>
 5   0  0.6262544E+06  0.9118800E+02  0.7818608E-02  0.1180000E+00
       11   -1    0    0    0    0  0.00000000000E+00  0.00000000000E+00  0.39999999673E+01  0.40000000000E+01  0.51109989000E-03 0.  1.
     -623   -1    0    0    0    0  0.00000000000E+00  0.00000000000E+00  0.12525980253E-10  0.17130000000E+03  0.17130000000E+03 0. -1.
       11    1    1    2    0    0 -0.37446141826E-02  0.57322321453E-02  0.38331795101E-01  0.38941858706E-01  0.51109989000E-03 0.  1.
     -623    1    1    2    0    0  0.20547099358E-02  0.27595917363E-02  0.18820320441E-02  0.17130000004E+03  0.17130000000E+03 0. -1.
      622    1    1    2    0    0  0.16899042469E-02 -0.84918238816E-02  0.39597861402E+01  0.39610580964E+01  0.10000000000E+00 0.  1.
</event>
<event>
 5   0  0.6262544E+06  0.9118800E+02  0.7818608E-02  0.1180000E+00
       11   -1    0    0    0    0  0.00000000000E+00  0.00000000000E+00  0.39999999673E+01  0.40000000000E+01  0.51109989000E-03 0. -1.
     -623   -1    0    0    0    0  0.00000000000E+00  0.00000000000E+00  0.12525980253E-10  0.17130000000E+03  0.17130000000E+03 0. -1.
       11    1    1    2    0    0  0.41688401060E-01 -0.29777682996E-02  0.56102830974E+00  0.56258316313E+00  0.51109989000E-03 0. -1.
     -623    1    1    2    0    0 -0.26727637058E-01  0.28715333163E-01  0.31432008803E-02  0.17130000452E+03  0.17130000000E+03 0. -1.
      622    1    1    2    0    0 -0.14960764001E-01 -0.25737564865E-01  0.34358284569E+01  0.34374123163E+01  0.10000000000E+00 0. -1.
</event>
<event>
 5   0  0.6262544E+06  0.9118800E+02  0.7818608E-02  0.1180000E+00
       11   -1    0    0    0    0  0.00000000000E+00  0.00000000000E+00  0.39999999673E+01  0.40000000000E+01  0.51109989000E-03 0.  1.
     -623   -1    0    0    0    0  0.00000000000E+00  0.00000000000E+00  0.12525980253E-10  0.17130000000E+03  0.17130000000E+03 0. -1.
       11    1    1    2    0    0  0.14788328157E-01 -0.57853626869E-01  0.12252483359E+01  0.12267026871E+01  0.51109989000E-03 0.  1.
     -623    1    1    2    0    0 -0.17715178240E-01  0.11720300006E-01  0.36447018253E-02  0.17130000136E+03  0.17130000000E+03 0. -1.
      622    1    1    2    0    0  0.29268500831E-02  0.46133326863E-01  0.27711069296E+01  0.27732959571E+01  0.10000000000E+00 0.  0.
</event>
<event>
 5   0  0.6262544E+06  0.9118800E+02  0.7818608E-02  0.1180000E+00
       11   -1    0    0    0    0  0.00000000000E+00  0.00000000000E+00  0.39999999673E+01  0.40000000000E+01  0.51109989000E-03 0.  1.
     -623   -1    0    0    0    0  0.00000000000E+00  0.00000000000E+00  0.12525980253E-10  0.17130000000E+03  0.17130000000E+03 0. -1.
       11    1    1    2    0    0  0.27466485038E-02 -0.56280860559E-01  0.11163740281E+01  0.11177952904E+01  0.51109989000E-03 0.  1.
     -623    1    1    2    0    0  0.72718447276E-02  0.41196791239E-01  0.32185949686E-02  0.17130000514E+03  0.17130000000E+03 0. -1.
      622    1    1    2    0    0 -0.10018493231E-01  0.15084069320E-01  0.28804073443E+01  0.28821995712E+01  0.10000000000E+00 0.  0.
</event>
<event>
 5   0  0.6262544E+06  0.9118800E+02  0.7818608E-02  0.1180000E+00
       11   -1    0    0    0    0  0.00000000000E+00  0.00000000000E+00  0.39999999673E+01  0.40000000000E+01  0.51109989000E-03 0. -1.
     -623   -1    0    0    0    0  0.00000000000E+00  0.00000000000E+00  0.12525980253E-10  0.17130000000E+03  0.17130000000E+03 0.  1.
       11    1    1    2    0    0  0.13585464934E-01 -0.19672753861E-01  0.22275429287E+00  0.22403419007E+00  0.51109989000E-03 0. -1.
     -623    1    1    2    0    0  0.62953002149E-03  0.16706619089E-01  0.26330294921E-02  0.17130000084E+03  0.17130000000E+03 0.  1.
      622    1    1    2    0    0 -0.14214994955E-01  0.29661347711E-02  0.37746126451E+01  0.37759649740E+01  0.10000000000E+00 0. -1.
</event>
<event>
 5   0  0.6262544E+06  0.9118800E+02  0.7818608E-02  0.1180000E+00
       11   -1    0    0    0    0  0.00000000000E+00  0.00000000000E+00  0.39999999673E+01  0.40000000000E+01  0.51109989000E-03 0.  1.
     -623   -1    0    0    0    0  0.00000000000E+00  0.00000000000E+00  0.12525980253E-10  0.17130000000E+03  0.17130000000E+03 0.  1.
       11    1    1    2    0    0  0.14214480315E-01 -0.28572900251E-05  0.13808992652E+00  0.13882053338E+00  0.51109989000E-03 0.  1.
     -623    1    1    2    0    0  0.41822919442E-02  0.77142871382E-03  0.20697154805E-02  0.17130000007E+03  0.17130000000E+03 0.  1.
      622    1    1    2    0    0 -0.18396772259E-01 -0.76857142381E-03  0.38598403255E+01  0.38611794014E+01  0.10000000000E+00 0.  0.
</event>
<event>
 5   0  0.6262544E+06  0.9118800E+02  0.7818608E-02  0.1180000E+00
       11   -1    0    0    0    0  0.00000000000E+00  0.00000000000E+00  0.39999999673E+01  0.40000000000E+01  0.51109989000E-03 0. -1.
     -623   -1    0    0    0    0  0.00000000000E+00  0.00000000000E+00  0.12525980253E-10  0.17130000000E+03  0.17130000000E+03 0. -1.
       11    1    1    2    0    0 -0.19186988017E-04 -0.27217179123E-02  0.17980184186E-01  0.18192206090E-01  0.51109989000E-03 0. -1.
     -623    1    1    2    0    0 -0.14003373423E-01  0.63629571260E-02  0.14949602877E-02  0.17130000070E+03  0.17130000000E+03 0. -1.
      622    1    1    2    0    0  0.14022560411E-01 -0.36412392137E-02  0.39805248229E+01  0.39818070968E+01  0.10000000000E+00 0. -1.
</event>
<event>
 5   0  0.6262544E+06  0.9118800E+02  0.7818608E-02  0.1180000E+00
       11   -1    0    0    0    0  0.00000000000E+00  0.00000000000E+00  0.39999999673E+01  0.40000000000E+01  0.51109989000E-03 0. -1.
     -623   -1    0    0    0    0  0.00000000000E+00  0.00000000000E+00  0.12525980253E-10  0.17130000000E+03  0.17130000000E+03 0.  1.
       11    1    1    2    0    0  0.90081965036E-02  0.11952702371E-01  0.14834397280E+00  0.14909798854E+00  0.51109989000E-03 0. -1.
     -623    1    1    2    0    0 -0.24980335810E-01 -0.11478054810E-01  0.20879825062E-02  0.17130000222E+03  0.17130000000E+03 0.  1.
      622    1    1    2    0    0  0.15972139307E-01 -0.47464756050E-03  0.38495680121E+01  0.38508997929E+01  0.10000000000E+00 0. -1.
</event>
<event>
 5   0  0.6262544E+06  0.9118800E+02  0.7818608E-02  0.1180000E+00
       11   -1    0    0    0    0  0.00000000000E+00  0.00000000000E+00  0.39999999673E+01  0.40000000000E+01  0.51109989000E-03 0. -1.
     -623   -1    0    0    0    0  0.00000000000E+00  0.00000000000E+00  0.12525980253E-10  0.17130000000E+03  0.17130000000E+03 0.  1.
       11    1    1    2    0    0  0.24972855680E-01  0.11230843723E-02  0.72516141347E+00  0.72559233847E+00  0.51109989000E-03 0. -1.
     -623    1    1    2    0    0 -0.46309335190E-02  0.15581353453E-01  0.20648724868E-02  0.17130000078E+03  0.17130000000E+03 0.  1.
      622    1    1    2    0    0 -0.20341922161E-01 -0.16704437826E-01  0.32727736814E+01  0.32744068779E+01  0.10000000000E+00 0. -1.
</event>
<event>
 5   0  0.6262544E+06  0.9118800E+02  0.7818608E-02  0.1180000E+00
       11   -1    0    0    0    0  0.00000000000E+00  0.00000000000E+00  0.39999999673E+01  0.40000000000E+01  0.51109989000E-03 0.  1.
     -623   -1    0    0    0    0  0.00000000000E+00  0.00000000000E+00  0.12525980253E-10  0.17130000000E+03  0.17130000000E+03 0.  1.
       11    1    1    2    0    0  0.54903442070E-03 -0.99226860361E-03  0.11299709465E-02  0.16805038573E-02  0.51109989000E-03 0.  1.
     -623    1    1    2    0    0  0.57064626327E-02  0.24801419256E-02  0.18065157556E-02  0.17130000012E+03  0.17130000000E+03 0.  1.
      622    1    1    2    0    0 -0.62554970537E-02 -0.14878733221E-02  0.39970634808E+01  0.39983193738E+01  0.10000000000E+00 0.  1.
</event>
<event>
 5   0  0.6262544E+06  0.9118800E+02  0.7818608E-02  0.1180000E+00
       11   -1    0    0    0    0  0.00000000000E+00  0.00000000000E+00  0.39999999673E+01  0.40000000000E+01  0.51109989000E-03 0.  1.
     -623   -1    0    0    0    0  0.00000000000E+00  0.00000000000E+00  0.12525980253E-10  0.17130000000E+03  0.17130000000E+03 0. -1.
       11    1    1    2    0    0  0.21141208677E-02  0.37605723206E-02  0.90821538031E-02  0.10067678582E-01  0.51109989000E-03 0.  1.
     -623    1    1    2    0    0 -0.79737167994E-02  0.52173436968E-02  0.22535310641E-02  0.17130000028E+03  0.17130000000E+03 0. -1.
      622    1    1    2    0    0  0.58595959318E-02 -0.89779160175E-02  0.39886642825E+01  0.39899320416E+01  0.10000000000E+00 0.  1.
</event>
<event>
 5   0  0.6262544E+06  0.9118800E+02  0.7818608E-02  0.1180000E+00
       11   -1    0    0    0    0  0.00000000000E+00  0.00000000000E+00  0.39999999673E+01  0.40000000000E+01  0.51109989000E-03 0.  1.
     -623   -1    0    0    0    0  0.00000000000E+00  0.00000000000E+00  0.12525980253E-10  0.17130000000E+03  0.17130000000E+03 0.  1.
       11    1    1    2    0    0 -0.33753567369E-02 -0.54979859302E-03  0.45859403348E-01  0.45989579342E-01  0.51109989000E-03 0.  1.
     -623    1    1    2    0    0 -0.69399879866E-03 -0.27854000827E-02  0.13984160681E-02  0.17130000003E+03  0.17130000000E+03 0.  1.
      622    1    1    2    0    0  0.40693555356E-02  0.33351986757E-02  0.39527421479E+01  0.39540103909E+01  0.10000000000E+00 0.  1.
</event>
<event>
 5   0  0.6262544E+06  0.9118800E+02  0.7818608E-02  0.1180000E+00
       11   -1    0    0    0    0  0.00000000000E+00  0.00000000000E+00  0.39999999673E+01  0.40000000000E+01  0.51109989000E-03 0. -1.
     -623   -1    0    0    0    0  0.00000000000E+00  0.00000000000E+00  0.12525980253E-10  0.17130000000E+03  0.17130000000E+03 0.  1.
       11    1    1    2    0    0 -0.15529080930E-01  0.16048330456E-01  0.68129690926E-01  0.71698098111E-01  0.51109989000E-03 0. -1.
     -623    1    1    2    0    0 -0.80079321855E-02 -0.66853892512E-02  0.49234821273E-02  0.17130000039E+03  0.17130000000E+03 0.  1.
      622    1    1    2    0    0  0.23537013115E-01 -0.93629412051E-02  0.39269467943E+01  0.39283015135E+01  0.10000000000E+00 0. -1.
</event>
<event>
 5   0  0.6262544E+06  0.9118800E+02  0.7818608E-02  0.1180000E+00
       11   -1    0    0    0    0  0.00000000000E+00  0.00000000000E+00  0.39999999673E+01  0.40000000000E+01  0.51109989000E-03 0. -1.
     -623   -1    0    0    0    0  0.00000000000E+00  0.00000000000E+00  0.12525980253E-10  0.17130000000E+03  0.17130000000E+03 0. -1.
       11    1    1    2    0    0 -0.48571358055E-01  0.10874105056E-01  0.10962958414E+01  0.10974252850E+01  0.51109989000E-03 0. -1.
     -623    1    1    2    0    0  0.45214551876E-01  0.27661258047E-01  0.31186740235E-02  0.17130000823E+03  0.17130000000E+03 0. -1.
      622    1    1    2    0    0  0.33568061783E-02 -0.38535363103E-01  0.29005854520E+01  0.29025664862E+01  0.10000000000E+00 0. -1.
</event>
<event>
 5   0  0.6262544E+06  0.9118800E+02  0.7818608E-02  0.1180000E+00
       11   -1    0    0    0    0  0.00000000000E+00  0.00000000000E+00  0.39999999673E+01  0.40000000000E+01  0.51109989000E-03 0.  1.
     -623   -1    0    0    0    0  0.00000000000E+00  0.00000000000E+00  0.12525980253E-10  0.17130000000E+03  0.17130000000E+03 0. -1.
       11    1    1    2    0    0 -0.10570822151E-01  0.32785030729E-01  0.36588556641E+00  0.36750389039E+00  0.51109989000E-03 0.  1.
     -623    1    1    2    0    0 -0.46988758055E-01 -0.20005948819E-01  0.34813967071E-02  0.17130000765E+03  0.17130000000E+03 0. -1.
      622    1    1    2    0    0  0.57559580206E-01 -0.12779081910E-01  0.36306330042E+01  0.36324884613E+01  0.10000000000E+00 0.  1.
</event>
<event>
 5   0  0.6262544E+06  0.9118800E+02  0.7818608E-02  0.1180000E+00
       11   -1    0    0    0    0  0.00000000000E+00  0.00000000000E+00  0.39999999673E+01  0.40000000000E+01  0.51109989000E-03 0.  1.
     -623   -1    0    0    0    0  0.00000000000E+00  0.00000000000E+00  0.12525980253E-10  0.17130000000E+03  0.17130000000E+03 0. -1.
       11    1    1    2    0    0  0.41505461229E-01  0.99404357611E-02  0.20074430422E+00  0.20523170435E+00  0.51109989000E-03 0.  1.
     -623    1    1    2    0    0 -0.12350599607E-01  0.98134161670E-02  0.59695026889E-02  0.17130000083E+03  0.17130000000E+03 0. -1.
      622    1    1    2    0    0 -0.29154861621E-01 -0.19753851928E-01  0.37932861605E+01  0.37947674653E+01  0.10000000000E+00 0.  1.
</event>
<event>
 5   0  0.6262544E+06  0.9118800E+02  0.7818608E-02  0.1180000E+00
       11   -1    0    0    0    0  0.00000000000E+00  0.00000000000E+00  0.39999999673E+01  0.40000000000E+01  0.51109989000E-03 0.  1.
     -623   -1    0    0    0    0  0.00000000000E+00  0.00000000000E+00  0.12525980253E-10  0.17130000000E+03  0.17130000000E+03 0. -1.
       11    1    1    2    0    0  0.47807851612E-01 -0.88572879262E-01  0.92892456319E+00  0.93436173452E+00  0.51109989000E-03 0.  1.
     -623    1    1    2    0    0  0.69036853361E-02  0.12518531522E-01  0.85020732121E-02  0.17130000081E+03  0.17130000000E+03 0. -1.
      622    1    1    2    0    0 -0.54711536948E-01  0.76054347740E-01  0.30625733310E+01  0.30656374580E+01  0.10000000000E+00 0.  1.
</event>
<event>
 5   0  0.6262544E+06  0.9118800E+02  0.7818608E-02  0.1180000E+00
       11   -1    0    0    0    0  0.00000000000E+00  0.00000000000E+00  0.39999999673E+01  0.40000000000E+01  0.51109989000E-03 0.  1.
     -623   -1    0    0    0    0  0.00000000000E+00  0.00000000000E+00  0.12525980253E-10  0.17130000000E+03  0.17130000000E+03 0.  1.
       11    1    1    2    0    0 -0.32214432563E-01 -0.11631492199E-01  0.66343433962E+00  0.66431803038E+00  0.51109989000E-03 0.  1.
     -623    1    1    2    0    0  0.36836603772E-01  0.58639465945E-02  0.23952108507E-02  0.17130000408E+03  0.17130000000E+03 0.  1.
      622    1    1    2    0    0 -0.46221712096E-02  0.57675456048E-02  0.33341704169E+01  0.33356778918E+01  0.10000000000E+00 0.  1.
</event>
<event>
 5   0  0.6262544E+06  0.9118800E+02  0.7818608E-02  0.1180000E+00
       11   -1    0    0    0    0  0.00000000000E+00  0.00000000000E+00  0.39999999673E+01  0.40000000000E+01  0.51109989000E-03 0. -1.
     -623   -1    0    0    0    0  0.00000000000E+00  0.00000000000E+00  0.12525980253E-10  0.17130000000E+03  0.17130000000E+03 0. -1.
       11    1    1    2    0    0 -0.64680775458E-02  0.13459010367E-02  0.39015462532E+00  0.39021089215E+00  0.51109989000E-03 0. -1.
     -623    1    1    2    0    0  0.52749417951E-02 -0.25991094891E-01  0.15280440630E-02  0.17130000206E+03  0.17130000000E+03 0. -1.
      622    1    1    2    0    0  0.11931357507E-02  0.24645193854E-01  0.36083172980E+01  0.36097870480E+01  0.10000000000E+00 0. -1.
</event>
<event>
 5   0  0.6262544E+06  0.9118800E+02  0.7818608E-02  0.1180000E+00
       11   -1    0    0    0    0  0.00000000000E+00  0.00000000000E+00  0.39999999673E+01  0.40000000000E+01  0.51109989000E-03 0. -1.
     -623   -1    0    0    0    0  0.00000000000E+00  0.00000000000E+00  0.12525980253E-10  0.17130000000E+03  0.17130000000E+03 0.  1.
       11    1    1    2    0    0  0.45601071520E-02  0.22928094232E-02  0.15202001409E-01  0.16044114809E-01  0.51109989000E-03 0. -1.
     -623    1    1    2    0    0 -0.58685062152E-02 -0.81501363307E-02  0.21021419671E-02  0.17130000031E+03  0.17130000000E+03 0.  1.
      622    1    1    2    0    0  0.13083990632E-02  0.58573269075E-02  0.39826958240E+01  0.39839555779E+01  0.10000000000E+00 0. -1.
</event>
<event>
 5   0  0.6262544E+06  0.9118800E+02  0.7818608E-02  0.1180000E+00
       11   -1    0    0    0    0  0.00000000000E+00  0.00000000000E+00  0.39999999673E+01  0.40000000000E+01  0.51109989000E-03 0.  1.
     -623   -1    0    0    0    0  0.00000000000E+00  0.00000000000E+00  0.12525980253E-10  0.17130000000E+03  0.17130000000E+03 0.  1.
       11    1    1    2    0    0  0.14815901236E-01 -0.18685091354E-02  0.10815739925E+00  0.10918464402E+00  0.51109989000E-03 0.  1.
     -623    1    1    2    0    0 -0.11593003252E-01 -0.13649234239E-02  0.23155948842E-02  0.17130000041E+03  0.17130000000E+03 0.  1.
      622    1    1    2    0    0 -0.32228979842E-02  0.32334325593E-02  0.38895269732E+01  0.38908149426E+01  0.10000000000E+00 0.  1.
</event>
<event>
 5   0  0.6262544E+06  0.9118800E+02  0.7818608E-02  0.1180000E+00
       11   -1    0    0    0    0  0.00000000000E+00  0.00000000000E+00  0.39999999673E+01  0.40000000000E+01  0.51109989000E-03 0. -1.
     -623   -1    0    0    0    0  0.00000000000E+00  0.00000000000E+00  0.12525980253E-10  0.17130000000E+03  0.17130000000E+03 0. -1.
       11    1    1    2    0    0 -0.10622953856E+00 -0.51913638601E-01  0.51270598379E+00  0.52616292892E+00  0.51109989000E-03 0. -1.
     -623    1    1    2    0    0  0.20762646822E-01 -0.21436856240E-01  0.16726972761E-01  0.17130000342E+03  0.17130000000E+03 0. -1.
      622    1    1    2    0    0  0.85466891739E-01  0.73350494841E-01  0.34705670108E+01  0.34738336548E+01  0.10000000000E+00 0. -1.
</event>
<event>
 5   0  0.6262544E+06  0.9118800E+02  0.7818608E-02  0.1180000E+00
       11   -1    0    0    0    0  0.00000000000E+00  0.00000000000E+00  0.39999999673E+01  0.40000000000E+01  0.51109989000E-03 0. -1.
     -623   -1    0    0    0    0  0.00000000000E+00  0.00000000000E+00  0.12525980253E-10  0.17130000000E+03  0.17130000000E+03 0.  1.
       11    1    1    2    0    0 -0.24994850580E-01 -0.91489681381E-02  0.21485766911E+00  0.21650063596E+00  0.51109989000E-03 0. -1.
     -623    1    1    2    0    0  0.77188849368E-02  0.22549107959E-01  0.30295730845E-02  0.17130000168E+03  0.17130000000E+03 0.  1.
      622    1    1    2    0    0  0.17275965643E-01 -0.13400139821E-01  0.37821127252E+01  0.37834976793E+01  0.10000000000E+00 0. -1.
</event>
<event>
 5   0  0.6262544E+06  0.9118800E+02  0.7818608E-02  0.1180000E+00
       11   -1    0    0    0    0  0.00000000000E+00  0.00000000000E+00  0.39999999673E+01  0.40000000000E+01  0.51109989000E-03 0. -1.
     -623   -1    0    0    0    0  0.00000000000E+00  0.00000000000E+00  0.12525980253E-10  0.17130000000E+03  0.17130000000E+03 0. -1.
       11    1    1    2    0    0  0.53044995088E-01  0.80568230011E-01  0.88509123899E+00  0.89033239509E+00  0.51109989000E-03 0. -1.
     -623    1    1    2    0    0  0.77831023089E-02 -0.15065637018E-02  0.84510397598E-02  0.17130000039E+03  0.17130000000E+03 0. -1.
      622    1    1    2    0    0 -0.60828097397E-01 -0.79061666309E-01  0.31064576886E+01  0.31096672130E+01  0.10000000000E+00 0. -1.
</event>
<event>
 5   0  0.6262544E+06  0.9118800E+02  0.7818608E-02  0.1180000E+00
       11   -1    0    0    0    0  0.00000000000E+00  0.00000000000E+00  0.39999999673E+01  0.40000000000E+01  0.51109989000E-03 0. -1.
     -623   -1    0    0    0    0  0.00000000000E+00  0.00000000000E+00  0.12525980253E-10  0.17130000000E+03  0.17130000000E+03 0.  1.
       11    1    1    2    0    0 -0.74381372404E-01  0.82140080916E-01  0.20443671698E+01  0.20473683029E+01  0.51109989000E-03 0. -1.
     -623    1    1    2    0    0  0.74000453917E-02  0.14935923694E-01  0.91343573901E-02  0.17130000105E+03  0.17130000000E+03 0.  1.
      622    1    1    2    0    0  0.66981327013E-01 -0.97076004609E-01  0.19464984401E+01  0.19526306426E+01  0.10000000000E+00 0. -1.
</event>
<event>
 5   0  0.6262544E+06  0.9118800E+02  0.7818608E-02  0.1180000E+00
       11   -1    0    0    0    0  0.00000000000E+00  0.00000000000E+00  0.39999999673E+01  0.40000000000E+01  0.51109989000E-03 0.  1.
     -623   -1    0    0    0    0  0.00000000000E+00  0.00000000000E+00  0.12525980253E-10  0.17130000000E+03  0.17130000000E+03 0.  1.
       11    1    1    2    0    0 -0.33393841622E-03 -0.31109032361E-02  0.87315058201E-02  0.92892221838E-02  0.51109989000E-03 0.  1.
     -623    1    1    2    0    0 -0.46912531499E-02  0.44632904840E-02  0.18143162722E-02  0.17130000013E+03  0.17130000000E+03 0.  1.
      622    1    1    2    0    0  0.50251915661E-02 -0.13523872480E-02  0.39894541453E+01  0.39907106458E+01  0.10000000000E+00 0.  1.
</event>
<event>
 5   0  0.6262544E+06  0.9118800E+02  0.7818608E-02  0.1180000E+00
       11   -1    0    0    0    0  0.00000000000E+00  0.00000000000E+00  0.39999999673E+01  0.40000000000E+01  0.51109989000E-03 0.  1.
     -623   -1    0    0    0    0  0.00000000000E+00  0.00000000000E+00  0.12525980253E-10  0.17130000000E+03  0.17130000000E+03 0.  1.
       11    1    1    2    0    0 -0.11649190703E-01 -0.33466026967E-01  0.12099479406E+01  0.12104668351E+01  0.51109989000E-03 0.  1.
     -623    1    1    2    0    0  0.15495261239E-01 -0.10656443416E-01  0.26647521293E-02  0.17130000105E+03  0.17130000000E+03 0.  1.
      622    1    1    2    0    0 -0.38460705359E-02  0.44122470384E-01  0.27873872747E+01  0.27895321120E+01  0.10000000000E+00 0.  0.
</event>
<event>
 5   0  0.6262544E+06  0.9118800E+02  0.7818608E-02  0.1180000E+00
       11   -1    0    0    0    0  0.00000000000E+00  0.00000000000E+00  0.39999999673E+01  0.40000000000E+01  0.51109989000E-03 0. -1.
     -623   -1    0    0    0    0  0.00000000000E+00  0.00000000000E+00  0.12525980253E-10  0.17130000000E+03  0.17130000000E+03 0. -1.
       11    1    1    2    0    0 -0.10270568846E-01 -0.51898105093E-02  0.20223716937E+01  0.20224044965E+01  0.51109989000E-03 0. -1.
     -623    1    1    2    0    0 -0.12602781188E-01  0.37574464120E-02  0.26962107405E-02  0.17130000053E+03  0.17130000000E+03 0. -1.
      622    1    1    2    0    0  0.22873350034E-01  0.14323640973E-02  0.19749320629E+01  0.19775949775E+01  0.10000000000E+00 0. -1.
</event>
<event>
 5   0  0.6262544E+06  0.9118800E+02  0.7818608E-02  0.1180000E+00
       11   -1    0    0    0    0  0.00000000000E+00  0.00000000000E+00  0.39999999673E+01  0.40000000000E+01  0.51109989000E-03 0. -1.
     -623   -1    0    0    0    0  0.00000000000E+00  0.00000000000E+00  0.12525980253E-10  0.17130000000E+03  0.17130000000E+03 0. -1.
       11    1    1    2    0    0  0.26613149377E-01 -0.21007015914E-01  0.11681096288E+01  0.11686016945E+01  0.51109989000E-03 0. -1.
     -623    1    1    2    0    0 -0.15887742081E-01 -0.26040290058E-02  0.23781066739E-02  0.17130000077E+03  0.17130000000E+03 0. -1.
      622    1    1    2    0    0 -0.10725407297E-01  0.23611044920E-01  0.28295122319E+01  0.28313975323E+01  0.10000000000E+00 0. -1.
</event>
<event>
 5   0  0.6262544E+06  0.9118800E+02  0.7818608E-02  0.1180000E+00
       11   -1    0    0    0    0  0.00000000000E+00  0.00000000000E+00  0.39999999673E+01  0.40000000000E+01  0.51109989000E-03 0.  1.
     -623   -1    0    0    0    0  0.00000000000E+00  0.00000000000E+00  0.12525980253E-10  0.17130000000E+03  0.17130000000E+03 0. -1.
       11    1    1    2    0    0  0.17693796700E-01 -0.49700271055E-01  0.22659867776E+01  0.22666008746E+01  0.51109989000E-03 0.  1.
     -623    1    1    2    0    0 -0.11487095914E-01  0.45590862991E-02  0.41014687904E-02  0.17130000049E+03  0.17130000000E+03 0. -1.
      622    1    1    2    0    0 -0.62067007857E-02  0.45141184756E-01  0.17299117210E+01  0.17333986305E+01  0.10000000000E+00 0.  1.
</event>
<event>
 5   0  0.6262544E+06  0.9118800E+02  0.7818608E-02  0.1180000E+00
       11   -1    0    0    0    0  0.00000000000E+00  0.00000000000E+00  0.39999999673E+01  0.40000000000E+01  0.51109989000E-03 0.  1.
     -623   -1    0    0    0    0  0.00000000000E+00  0.00000000000E+00  0.12525980253E-10  0.17130000000E+03  0.17130000000E+03 0.  1.
       11    1    1    2    0    0 -0.15837301679E+00  0.41843736516E-01  0.14030065251E+01  0.14125368956E+01  0.51109989000E-03 0.  1.
     -623    1    1    2    0    0 -0.89221530207E-02 -0.18363878585E-01  0.16990403031E-01  0.17130000206E+03  0.17130000000E+03 0.  1.
      622    1    1    2    0    0  0.16729516981E+00 -0.23479857930E-01  0.25800030392E+01  0.25874610451E+01  0.10000000000E+00 0. -1.
</event>
<event>
 5   0  0.6262544E+06  0.9118800E+02  0.7818608E-02  0.1180000E+00
       11   -1    0    0    0    0  0.00000000000E+00  0.00000000000E+00  0.39999999673E+01  0.40000000000E+01  0.51109989000E-03 0.  1.
     -623   -1    0    0    0    0  0.00000000000E+00  0.00000000000E+00  0.12525980253E-10  0.17130000000E+03  0.17130000000E+03 0.  1.
       11    1    1    2    0    0  0.33153406037E-01  0.27873558188E-01  0.55032809126E+00  0.55203021007E+00  0.51109989000E-03 0.  1.
     -623    1    1    2    0    0 -0.31643445196E-01 -0.22639174741E-01  0.31612752993E-02  0.17130000445E+03  0.17130000000E+03 0.  1.
      622    1    1    2    0    0 -0.15099608406E-02 -0.52343834470E-02  0.34465106008E+01  0.34479653421E+01  0.10000000000E+00 0.  0.
</event>
<event>
 5   0  0.6262544E+06  0.9118800E+02  0.7818608E-02  0.1180000E+00
       11   -1    0    0    0    0  0.00000000000E+00  0.00000000000E+00  0.39999999673E+01  0.40000000000E+01  0.51109989000E-03 0.  1.
     -623   -1    0    0    0    0  0.00000000000E+00  0.00000000000E+00  0.12525980253E-10  0.17130000000E+03  0.17130000000E+03 0. -1.
       11    1    1    2    0    0  0.43906289481E-02  0.18140541957E-02 -0.46650064796E-02  0.66777184529E-02  0.51109989000E-03 0.  1.
     -623    1    1    2    0    0  0.22490782990E-02  0.74255994511E-02  0.12611833397E-01  0.17130000064E+03  0.17130000000E+03 0. -1.
      622    1    1    2    0    0 -0.66397072471E-02 -0.92396536468E-02  0.39920531404E+01  0.39933216415E+01  0.10000000000E+00 0.  1.
</event>
<event>
 5   0  0.6262544E+06  0.9118800E+02  0.7818608E-02  0.1180000E+00
       11   -1    0    0    0    0  0.00000000000E+00  0.00000000000E+00  0.39999999673E+01  0.40000000000E+01  0.51109989000E-03 0.  1.
     -623   -1    0    0    0    0  0.00000000000E+00  0.00000000000E+00  0.12525980253E-10  0.17130000000E+03  0.17130000000E+03 0.  1.
       11    1    1    2    0    0  0.87742193519E-02  0.88659630025E-02  0.25067314835E-01  0.28003994719E-01  0.51109989000E-03 0.  1.
     -623    1    1    2    0    0 -0.19135169252E-01 -0.51661993273E-02  0.42120997755E-02  0.17130000120E+03  0.17130000000E+03 0.  1.
      622    1    1    2    0    0  0.10360949900E-01 -0.36997636752E-02  0.39707205527E+01  0.39719948068E+01  0.10000000000E+00 0.  1.
</event>
<event>
 5   0  0.6262544E+06  0.9118800E+02  0.7818608E-02  0.1180000E+00
       11   -1    0    0    0    0  0.00000000000E+00  0.00000000000E+00  0.39999999673E+01  0.40000000000E+01  0.51109989000E-03 0. -1.
     -623   -1    0    0    0    0  0.00000000000E+00  0.00000000000E+00  0.12525980253E-10  0.17130000000E+03  0.17130000000E+03 0.  1.
       11    1    1    2    0    0 -0.43236860363E-01  0.37117546447E-01  0.48275355300E+00  0.48610533067E+00  0.51109989000E-03 0. -1.
     -623    1    1    2    0    0  0.75775441044E-02  0.66319901538E-02  0.52288321930E-02  0.17130000038E+03  0.17130000000E+03 0.  1.
      622    1    1    2    0    0  0.35659316259E-01 -0.43749536601E-01  0.35120175822E+01  0.35138942936E+01  0.10000000000E+00 0. -1.
</event>
<event>
 5   0  0.6262544E+06  0.9118800E+02  0.7818608E-02  0.1180000E+00
       11   -1    0    0    0    0  0.00000000000E+00  0.00000000000E+00  0.39999999673E+01  0.40000000000E+01  0.51109989000E-03 0.  1.
     -623   -1    0    0    0    0  0.00000000000E+00  0.00000000000E+00  0.12525980253E-10  0.17130000000E+03  0.17130000000E+03 0.  1.
       11    1    1    2    0    0  0.18481385902E-01  0.44403411026E-01  0.73575336338E+00  0.73732387557E+00  0.51109989000E-03 0.  1.
     -623    1    1    2    0    0 -0.11648972789E-02  0.41129732665E-02  0.35103052462E-02  0.17130000009E+03  0.17130000000E+03 0.  1.
      622    1    1    2    0    0 -0.17316488623E-01 -0.48516384293E-01  0.32607362987E+01  0.32626760351E+01  0.10000000000E+00 0.  1.
</event>
<event>
 5   0  0.6262544E+06  0.9118800E+02  0.7818608E-02  0.1180000E+00
       11   -1    0    0    0    0  0.00000000000E+00  0.00000000000E+00  0.39999999673E+01  0.40000000000E+01  0.51109989000E-03 0.  1.
     -623   -1    0    0    0    0  0.00000000000E+00  0.00000000000E+00  0.12525980253E-10  0.17130000000E+03  0.17130000000E+03 0.  1.
       11    1    1    2    0    0 -0.41246853415E-02 -0.23618580789E-02  0.68985785928E-02  0.83930334684E-02  0.51109989000E-03 0.  1.
     -623    1    1    2    0    0  0.13181443583E-01 -0.84249495709E-02  0.27728417240E-02  0.17130000074E+03  0.17130000000E+03 0.  1.
      622    1    1    2    0    0 -0.90567582412E-02  0.10786807650E-01  0.39903285470E+01  0.39916062298E+01  0.10000000000E+00 0.  1.
</event>
<event>
 5   0  0.6262544E+06  0.9118800E+02  0.7818608E-02  0.1180000E+00
       11   -1    0    0    0    0  0.00000000000E+00  0.00000000000E+00  0.39999999673E+01  0.40000000000E+01  0.51109989000E-03 0. -1.
     -623   -1    0    0    0    0  0.00000000000E+00  0.00000000000E+00  0.12525980253E-10  0.17130000000E+03  0.17130000000E+03 0.  1.
       11    1    1    2    0    0 -0.74711167391E-01  0.28281977240E-01  0.98532328245E+00  0.98855645308E+00  0.51109989000E-03 0. -1.
     -623    1    1    2    0    0  0.73366516370E-02 -0.46393867179E-02  0.57413192572E-02  0.17130000032E+03  0.17130000000E+03 0.  1.
      622    1    1    2    0    0  0.67374515754E-01 -0.23642590522E-01  0.30089353657E+01  0.30114432308E+01  0.10000000000E+00 0.  0.
</event>
<event>
 5   0  0.6262544E+06  0.9118800E+02  0.7818608E-02  0.1180000E+00
       11   -1    0    0    0    0  0.00000000000E+00  0.00000000000E+00  0.39999999673E+01  0.40000000000E+01  0.51109989000E-03 0.  1.
     -623   -1    0    0    0    0  0.00000000000E+00  0.00000000000E+00  0.12525980253E-10  0.17130000000E+03  0.17130000000E+03 0.  1.
       11    1    1    2    0    0  0.11874322153E-02  0.21516027298E-03  0.45127430231E-02  0.46991873659E-02  0.51109989000E-03 0. -1.
     -623    1    1    2    0    0  0.13735879833E-02 -0.14521663692E-03  0.14389112924E-02  0.17130000001E+03  0.17130000000E+03 0.  1.
      622    1    1    2    0    0 -0.25610201987E-02 -0.69943636049E-04  0.39940483133E+01  0.39953008012E+01  0.10000000000E+00 0.  1.
</event>
<event>
 5   0  0.6262544E+06  0.9118800E+02  0.7818608E-02  0.1180000E+00
       11   -1    0    0    0    0  0.00000000000E+00  0.00000000000E+00  0.39999999673E+01  0.40000000000E+01  0.51109989000E-03 0. -1.
     -623   -1    0    0    0    0  0.00000000000E+00  0.00000000000E+00  0.12525980253E-10  0.17130000000E+03  0.17130000000E+03 0.  1.
       11    1    1    2    0    0 -0.18138875161E-02 -0.37399764896E-01  0.62995781673E+00  0.63106984136E+00  0.51109989000E-03 0. -1.
     -623    1    1    2    0    0 -0.32868561246E-01  0.12152171168E-01  0.28733418365E-02  0.17130000361E+03  0.17130000000E+03 0.  1.
      622    1    1    2    0    0  0.34682448762E-01  0.25247593727E-01  0.33671688088E+01  0.33689265501E+01  0.10000000000E+00 0. -1.
</event>
<event>
 5   0  0.6262544E+06  0.9118800E+02  0.7818608E-02  0.1180000E+00
       11   -1    0    0    0    0  0.00000000000E+00  0.00000000000E+00  0.39999999673E+01  0.40000000000E+01  0.51109989000E-03 0.  1.
     -623   -1    0    0    0    0  0.00000000000E+00  0.00000000000E+00  0.12525980253E-10  0.17130000000E+03  0.17130000000E+03 0.  1.
       11    1    1    2    0    0 -0.72579688058E-01 -0.47295846069E-01  0.49673546634E+00  0.50423317316E+00  0.51109989000E-03 0.  1.
     -623    1    1    2    0    0  0.11862968242E-01 -0.17955820024E-02  0.98014167648E-02  0.17130000070E+03  0.17130000000E+03 0.  1.
      622    1    1    2    0    0  0.60716719816E-01  0.49091428071E-01  0.34934630843E+01  0.34957661262E+01  0.10000000000E+00 0.  0.
</event>
<event>
 5   0  0.6262544E+06  0.9118800E+02  0.7818608E-02  0.1180000E+00
       11   -1    0    0    0    0  0.00000000000E+00  0.00000000000E+00  0.39999999673E+01  0.40000000000E+01  0.51109989000E-03 0.  1.
     -623   -1    0    0    0    0  0.00000000000E+00  0.00000000000E+00  0.12525980253E-10  0.17130000000E+03  0.17130000000E+03 0. -1.
       11    1    1    2    0    0 -0.68434006864E-01 -0.19544416777E-01  0.11469556453E+01  0.11491617427E+01  0.51109989000E-03 0.  1.
     -623    1    1    2    0    0  0.47579565352E-02  0.74832064509E-03  0.47342832423E-02  0.17130000013E+03  0.17130000000E+03 0. -1.
      622    1    1    2    0    0  0.63676050329E-01  0.18796096132E-01  0.28483100389E+01  0.28508381241E+01  0.10000000000E+00 0.  0.
</event>
<event>
 5   0  0.6262544E+06  0.9118800E+02  0.7818608E-02  0.1180000E+00
       11   -1    0    0    0    0  0.00000000000E+00  0.00000000000E+00  0.39999999673E+01  0.40000000000E+01  0.51109989000E-03 0.  1.
     -623   -1    0    0    0    0  0.00000000000E+00  0.00000000000E+00  0.12525980253E-10  0.17130000000E+03  0.17130000000E+03 0.  1.
       11    1    1    2    0    0  0.47757466318E-01  0.39330405503E-01  0.13003714175E+01  0.13018424409E+01  0.51109989000E-03 0.  1.
     -623    1    1    2    0    0  0.13365663485E-01 -0.69505425153E-02  0.42128367162E-02  0.17130000071E+03  0.17130000000E+03 0.  1.
      622    1    1    2    0    0 -0.61123129802E-01 -0.32379862988E-01  0.26954157131E+01  0.26981568448E+01  0.10000000000E+00 0.  1.
</event>
<event>
 5   0  0.6262544E+06  0.9118800E+02  0.7818608E-02  0.1180000E+00
       11   -1    0    0    0    0  0.00000000000E+00  0.00000000000E+00  0.39999999673E+01  0.40000000000E+01  0.51109989000E-03 0. -1.
     -623   -1    0    0    0    0  0.00000000000E+00  0.00000000000E+00  0.12525980253E-10  0.17130000000E+03  0.17130000000E+03 0.  1.
       11    1    1    2    0    0  0.19336158176E-01 -0.56346064892E-02  0.22718486974E+00  0.22807643909E+00  0.51109989000E-03 0. -1.
     -623    1    1    2    0    0 -0.95733243670E-02 -0.50897918904E-02  0.22456016099E-02  0.17130000036E+03  0.17130000000E+03 0.  1.
      622    1    1    2    0    0 -0.97628338086E-02  0.10724398380E-01  0.37705694960E+01  0.37719232031E+01  0.10000000000E+00 0. -1.
</event>
<event>
 5   0  0.6262544E+06  0.9118800E+02  0.7818608E-02  0.1180000E+00
       11   -1    0    0    0    0  0.00000000000E+00  0.00000000000E+00  0.39999999673E+01  0.40000000000E+01  0.51109989000E-03 0.  1.
     -623   -1    0    0    0    0  0.00000000000E+00  0.00000000000E+00  0.12525980253E-10  0.17130000000E+03  0.17130000000E+03 0.  1.
       11    1    1    2    0    0 -0.36194630183E-01  0.70385159439E-02  0.42426953535E+00  0.42586910174E+00  0.51109989000E-03 0.  1.
     -623    1    1    2    0    0  0.30232170850E-01 -0.61969251261E-02  0.30066309219E-02  0.17130000281E+03  0.17130000000E+03 0.  1.
      622    1    1    2    0    0  0.59624593325E-02 -0.84159081768E-03  0.35727238011E+01  0.35741280921E+01  0.10000000000E+00 0.  1.
</event>
<event>
 5   0  0.6262544E+06  0.9118800E+02  0.7818608E-02  0.1180000E+00
       11   -1    0    0    0    0  0.00000000000E+00  0.00000000000E+00  0.39999999673E+01  0.40000000000E+01  0.51109989000E-03 0.  1.
     -623   -1    0    0    0    0  0.00000000000E+00  0.00000000000E+00  0.12525980253E-10  0.17130000000E+03  0.17130000000E+03 0.  1.
       11    1    1    2    0    0 -0.38276921365E-02 -0.57418559189E-02  0.35469415301E-02  0.77757413666E-02  0.51109989000E-03 0.  1.
     -623    1    1    2    0    0  0.12773574518E-01  0.13751239930E-01  0.55005784254E-02  0.17130000112E+03  0.17130000000E+03 0.  1.
      622    1    1    2    0    0 -0.89458823819E-02 -0.80093840116E-02  0.39909524475E+01  0.39922231422E+01  0.10000000000E+00 0.  1.
</event>
<event>
 5   0  0.6262544E+06  0.9118800E+02  0.7818608E-02  0.1180000E+00
       11   -1    0    0    0    0  0.00000000000E+00  0.00000000000E+00  0.39999999673E+01  0.40000000000E+01  0.51109989000E-03 0. -1.
     -623   -1    0    0    0    0  0.00000000000E+00  0.00000000000E+00  0.12525980253E-10  0.17130000000E+03  0.17130000000E+03 0. -1.
       11    1    1    2    0    0 -0.38346939770E-01  0.50288035505E-02  0.99543063106E+00  0.99618180024E+00  0.51109989000E-03 0. -1.
     -623    1    1    2    0    0  0.21820453182E-01  0.21862125765E-01  0.25848788218E-02  0.17130000280E+03  0.17130000000E+03 0. -1.
      622    1    1    2    0    0  0.16526486588E-01 -0.26890929315E-01  0.30019844575E+01  0.30038153954E+01  0.10000000000E+00 0. -1.
</event>
<event>
 5   0  0.6262544E+06  0.9118800E+02  0.7818608E-02  0.1180000E+00
       11   -1    0    0    0    0  0.00000000000E+00  0.00000000000E+00  0.39999999673E+01  0.40000000000E+01  0.51109989000E-03 0.  1.
     -623   -1    0    0    0    0  0.00000000000E+00  0.00000000000E+00  0.12525980253E-10  0.17130000000E+03  0.17130000000E+03 0.  1.
       11    1    1    2    0    0 -0.19283947125E-01 -0.37556211344E-02  0.45180693924E+00  0.45223417261E+00  0.51109989000E-03 0.  1.
     -623    1    1    2    0    0 -0.62196333995E-02  0.60565006007E-02  0.19295013397E-02  0.17130000023E+03  0.17130000000E+03 0.  1.
      622    1    1    2    0    0  0.25503580525E-01 -0.23008794663E-02  0.35462635268E+01  0.35477655965E+01  0.10000000000E+00 0.  1.
</event>
<event>
 5   0  0.6262544E+06  0.9118800E+02  0.7818608E-02  0.1180000E+00
       11   -1    0    0    0    0  0.00000000000E+00  0.00000000000E+00  0.39999999673E+01  0.40000000000E+01  0.51109989000E-03 0.  1.
     -623   -1    0    0    0    0  0.00000000000E+00  0.00000000000E+00  0.12525980253E-10  0.17130000000E+03  0.17130000000E+03 0.  1.
       11    1    1    2    0    0 -0.49340193422E-02 -0.21190103743E-02  0.26852437021E+00  0.26857854228E+00  0.51109989000E-03 0.  1.
     -623    1    1    2    0    0  0.55664519935E-02 -0.12551814385E-02  0.13960325441E-02  0.17130000010E+03  0.17130000000E+03 0.  1.
      622    1    1    2    0    0 -0.63243265142E-03  0.33741918128E-02  0.37300795647E+01  0.37314213571E+01  0.10000000000E+00 0.  1.
</event>
<event>
 5   0  0.6262544E+06  0.9118800E+02  0.7818608E-02  0.1180000E+00
       11   -1    0    0    0    0  0.00000000000E+00  0.00000000000E+00  0.39999999673E+01  0.40000000000E+01  0.51109989000E-03 0. -1.
     -623   -1    0    0    0    0  0.00000000000E+00  0.00000000000E+00  0.12525980253E-10  0.17130000000E+03  0.17130000000E+03 0. -1.
       11    1    1    2    0    0  0.21514754607E-01 -0.23230713420E-01  0.23674074713E+01  0.23676192572E+01  0.51109989000E-03 0. -1.
     -623    1    1    2    0    0 -0.60270128338E-02  0.18951087710E-01  0.33580660060E-02  0.17130000119E+03  0.17130000000E+03 0. -1.
      622    1    1    2    0    0 -0.15487741774E-01  0.42796257096E-02  0.16292344300E+01  0.16323795555E+01  0.10000000000E+00 0.  1.
</event>
<event>
 5   0  0.6262544E+06  0.9118800E+02  0.7818608E-02  0.1180000E+00
       11   -1    0    0    0    0  0.00000000000E+00  0.00000000000E+00  0.39999999673E+01  0.40000000000E+01  0.51109989000E-03 0.  1.
     -623   -1    0    0    0    0  0.00000000000E+00  0.00000000000E+00  0.12525980253E-10  0.17130000000E+03  0.17130000000E+03 0.  1.
       11    1    1    2    0    0 -0.28061222922E-02  0.25378716341E-02  0.52685271208E-02  0.65064364955E-02  0.51109989000E-03 0.  1.
     -623    1    1    2    0    0  0.24306144542E-02 -0.29919538446E-02  0.24902146155E-02  0.17130000006E+03  0.17130000000E+03 0.  1.
      622    1    1    2    0    0  0.37550783783E-03  0.45408221075E-03  0.39922412259E+01  0.39934935023E+01  0.10000000000E+00 0.  1.
</event>
<event>
 5   0  0.6262544E+06  0.9118800E+02  0.7818608E-02  0.1180000E+00
       11   -1    0    0    0    0  0.00000000000E+00  0.00000000000E+00  0.39999999673E+01  0.40000000000E+01  0.51109989000E-03 0. -1.
     -623   -1    0    0    0    0  0.00000000000E+00  0.00000000000E+00  0.12525980253E-10  0.17130000000E+03  0.17130000000E+03 0.  1.
       11    1    1    2    0    0  0.25259571736E-01  0.17453243829E-01  0.16845096594E+01  0.16847895167E+01  0.51109989000E-03 0. -1.
     -623    1    1    2    0    0  0.22366849070E-01 -0.14193424704E-01  0.29352104519E-02  0.17130000207E+03  0.17130000000E+03 0.  1.
      622    1    1    2    0    0 -0.47626420807E-01 -0.32598191254E-02  0.23125550975E+01  0.23152084099E+01  0.10000000000E+00 0. -1.
</event>
<event>
 5   0  0.6262544E+06  0.9118800E+02  0.7818608E-02  0.1180000E+00
       11   -1    0    0    0    0  0.00000000000E+00  0.00000000000E+00  0.39999999673E+01  0.40000000000E+01  0.51109989000E-03 0. -1.
     -623   -1    0    0    0    0  0.00000000000E+00  0.00000000000E+00  0.12525980253E-10  0.17130000000E+03  0.17130000000E+03 0. -1.
       11    1    1    2    0    0  0.84764240193E-02  0.42277892481E-01  0.32770688709E+00  0.33053189714E+00  0.51109989000E-03 0. -1.
     -623    1    1    2    0    0  0.23790495222E-01 -0.53499491068E-02  0.45174387696E-02  0.17130000180E+03  0.17130000000E+03 0. -1.
      622    1    1    2    0    0 -0.32266919242E-01 -0.36927943374E-01  0.36677756416E+01  0.36694663078E+01  0.10000000000E+00 0. -1.
</event>
<event>
 5   0  0.6262544E+06  0.9118800E+02  0.7818608E-02  0.1180000E+00
       11   -1    0    0    0    0  0.00000000000E+00  0.00000000000E+00  0.39999999673E+01  0.40000000000E+01  0.51109989000E-03 0.  1.
     -623   -1    0    0    0    0  0.00000000000E+00  0.00000000000E+00  0.12525980253E-10  0.17130000000E+03  0.17130000000E+03 0. -1.
       11    1    1    2    0    0 -0.46625021337E-03 -0.38551813433E-03  0.35700322520E-03  0.86872774431E-03  0.51109989000E-03 0.  1.
     -623    1    1    2    0    0  0.21093325751E-03 -0.40794260231E-03  0.17622554915E-02  0.17130000001E+03  0.17130000000E+03 0. -1.
      622    1    1    2    0    0  0.25531695586E-03  0.79346073664E-03  0.39978807086E+01  0.39991312626E+01  0.10000000000E+00 0.  1.
</event>
<event>
 5   0  0.6262544E+06  0.9118800E+02  0.7818608E-02  0.1180000E+00
       11   -1    0    0    0    0  0.00000000000E+00  0.00000000000E+00  0.39999999673E+01  0.40000000000E+01  0.51109989000E-03 0. -1.
     -623   -1    0    0    0    0  0.00000000000E+00  0.00000000000E+00  0.12525980253E-10  0.17130000000E+03  0.17130000000E+03 0.  1.
       11    1    1    2    0    0  0.22806848702E-01 -0.14126219968E-01  0.42116134170E+00  0.42201521229E+00  0.51109989000E-03 0. -1.
     -623    1    1    2    0    0 -0.23384170961E-03  0.23922462877E-02  0.23420607140E-02  0.17130000003E+03  0.17130000000E+03 0.  1.
      622    1    1    2    0    0 -0.22573006992E-01  0.11733973681E-01  0.35764965649E+01  0.35779847548E+01  0.10000000000E+00 0. -1.
</event>
<event>
 5   0  0.6262544E+06  0.9118800E+02  0.7818608E-02  0.1180000E+00
       11   -1    0    0    0    0  0.00000000000E+00  0.00000000000E+00  0.39999999673E+01  0.40000000000E+01  0.51109989000E-03 0.  1.
     -623   -1    0    0    0    0  0.00000000000E+00  0.00000000000E+00  0.12525980253E-10  0.17130000000E+03  0.17130000000E+03 0.  1.
       11    1    1    2    0    0  0.32094857116E-03  0.49335770265E-02  0.71725399919E-02  0.87263820278E-02  0.51109989000E-03 0.  1.
     -623    1    1    2    0    0 -0.60628538886E-02 -0.40363951697E-01  0.29730705185E-02  0.17130000489E+03  0.17130000000E+03 0.  1.
      622    1    1    2    0    0  0.57419053177E-02  0.35430374672E-01  0.39898543570E+01  0.39912687295E+01  0.10000000000E+00 0.  1.
</event>
<event>
 5   0  0.6262544E+06  0.9118800E+02  0.7818608E-02  0.1180000E+00
       11   -1    0    0    0    0  0.00000000000E+00  0.00000000000E+00  0.39999999673E+01  0.40000000000E+01  0.51109989000E-03 0. -1.
     -623   -1    0    0    0    0  0.00000000000E+00  0.00000000000E+00  0.12525980253E-10  0.17130000000E+03  0.17130000000E+03 0. -1.
       11    1    1    2    0    0  0.94612300033E-01  0.30448955273E-01  0.71061072953E+00  0.71752804568E+00  0.51109989000E-03 0. -1.
     -623    1    1    2    0    0  0.11583233847E-02 -0.10449208360E-01  0.99005379751E-02  0.17130000061E+03  0.17130000000E+03 0. -1.
      622    1    1    2    0    0 -0.95770623418E-01 -0.19999746913E-01  0.32794886999E+01  0.32824713456E+01  0.10000000000E+00 0. -1.
</event>
<event>
 5   0  0.6262544E+06  0.9118800E+02  0.7818608E-02  0.1180000E+00
       11   -1    0    0    0    0  0.00000000000E+00  0.00000000000E+00  0.39999999673E+01  0.40000000000E+01  0.51109989000E-03 0.  1.
     -623   -1    0    0    0    0  0.00000000000E+00  0.00000000000E+00  0.12525980253E-10  0.17130000000E+03  0.17130000000E+03 0.  1.
       11    1    1    2    0    0 -0.34920118301E-01  0.23916184032E-01  0.53644751773E+00  0.53811485672E+00  0.51109989000E-03 0.  1.
     -623    1    1    2    0    0  0.35104484841E-01  0.40391938346E-01  0.37179130079E-02  0.17130000840E+03  0.17130000000E+03 0.  1.
      622    1    1    2    0    0 -0.18436654009E-03 -0.64308122378E-01  0.34598345366E+01  0.34618767438E+01  0.10000000000E+00 0.  1.
</event>
<event>
 5   0  0.6262544E+06  0.9118800E+02  0.7818608E-02  0.1180000E+00
       11   -1    0    0    0    0  0.00000000000E+00  0.00000000000E+00  0.39999999673E+01  0.40000000000E+01  0.51109989000E-03 0. -1.
     -623   -1    0    0    0    0  0.00000000000E+00  0.00000000000E+00  0.12525980253E-10  0.17130000000E+03  0.17130000000E+03 0.  1.
       11    1    1    2    0    0 -0.21944148886E-02  0.12275591073E-01  0.34939384865E-01  0.37101582570E-01  0.51109989000E-03 0. -1.
     -623    1    1    2    0    0 -0.21135839292E-02 -0.58932943676E-02  0.34317009560E-02  0.17130000015E+03  0.17130000000E+03 0.  1.
      622    1    1    2    0    0  0.43079988178E-02 -0.63822967058E-02  0.39616288815E+01  0.39628982686E+01  0.10000000000E+00 0. -1.
</event>
<event>
 5   0  0.6262544E+06  0.9118800E+02  0.7818608E-02  0.1180000E+00
       11   -1    0    0    0    0  0.00000000000E+00  0.00000000000E+00  0.39999999673E+01  0.40000000000E+01  0.51109989000E-03 0.  1.
     -623   -1    0    0    0    0  0.00000000000E+00  0.00000000000E+00  0.12525980253E-10  0.17130000000E+03  0.17130000000E+03 0.  1.
       11    1    1    2    0    0  0.11618367014E-02 -0.26650049717E-02  0.22299519072E-01  0.22494041189E-01  0.51109989000E-03 0.  1.
     -623    1    1    2    0    0  0.80308725612E-02  0.44297355122E-02  0.14630271399E-02  0.17130000025E+03  0.17130000000E+03 0.  1.
      622    1    1    2    0    0 -0.91927092625E-02 -0.17647305405E-02  0.39762374211E+01  0.39775057070E+01  0.10000000000E+00 0.  1.
</event>
<event>
 5   0  0.6262544E+06  0.9118800E+02  0.7818608E-02  0.1180000E+00
       11   -1    0    0    0    0  0.00000000000E+00  0.00000000000E+00  0.39999999673E+01  0.40000000000E+01  0.51109989000E-03 0.  1.
     -623   -1    0    0    0    0  0.00000000000E+00  0.00000000000E+00  0.12525980253E-10  0.17130000000E+03  0.17130000000E+03 0. -1.
       11    1    1    2    0    0 -0.28501345559E-02  0.23771030175E-02  0.22386117752E+01  0.22386149100E+01  0.51109989000E-03 0.  1.
     -623    1    1    2    0    0 -0.23712178258E-02 -0.92932440808E-02  0.28657130504E-02  0.17130000029E+03  0.17130000000E+03 0. -1.
      622    1    1    2    0    0  0.52213523817E-02  0.69161410632E-02  0.17585224791E+01  0.17613847976E+01  0.10000000000E+00 0.  1.
</event>
<event>
 5   0  0.6262544E+06  0.9118800E+02  0.7818608E-02  0.1180000E+00
       11   -1    0    0    0    0  0.00000000000E+00  0.00000000000E+00  0.39999999673E+01  0.40000000000E+01  0.51109989000E-03 0.  1.
     -623   -1    0    0    0    0  0.00000000000E+00  0.00000000000E+00  0.12525980253E-10  0.17130000000E+03  0.17130000000E+03 0. -1.
       11    1    1    2    0    0 -0.12431974547E-02  0.56417704144E-02  0.57775344976E-01  0.58065711254E-01  0.51109989000E-03 0.  1.
     -623    1    1    2    0    0  0.34275814753E-02 -0.55299080108E-02  0.15596883013E-02  0.17130000013E+03  0.17130000000E+03 0. -1.
      622    1    1    2    0    0 -0.21843840206E-02 -0.11186240368E-03  0.39406649340E+01  0.39419341580E+01  0.10000000000E+00 0.  1.
</event>
<event>
 5   0  0.6262544E+06  0.9118800E+02  0.7818608E-02  0.1180000E+00
       11   -1    0    0    0    0  0.00000000000E+00  0.00000000000E+00  0.39999999673E+01  0.40000000000E+01  0.51109989000E-03 0.  1.
     -623   -1    0    0    0    0  0.00000000000E+00  0.00000000000E+00  0.12525980253E-10  0.17130000000E+03  0.17130000000E+03 0. -1.
       11    1    1    2    0    0  0.87178050137E-02  0.20913411316E-02  0.76337538919E-01  0.76863872550E-01  0.51109989000E-03 0.  1.
     -623    1    1    2    0    0  0.36106833320E-02  0.14320522066E-01  0.18553628772E-02  0.17130000065E+03  0.17130000000E+03 0. -1.
      622    1    1    2    0    0 -0.12328488345E-01 -0.16411863196E-01  0.39218070654E+01  0.39231354805E+01  0.10000000000E+00 0.  1.
</event>
<event>
 5   0  0.6262544E+06  0.9118800E+02  0.7818608E-02  0.1180000E+00
       11   -1    0    0    0    0  0.00000000000E+00  0.00000000000E+00  0.39999999673E+01  0.40000000000E+01  0.51109989000E-03 0. -1.
     -623   -1    0    0    0    0  0.00000000000E+00  0.00000000000E+00  0.12525980253E-10  0.17130000000E+03  0.17130000000E+03 0.  1.
       11    1    1    2    0    0 -0.43284981771E-02  0.39824199795E-01  0.25701595723E+01  0.25704717838E+01  0.51109989000E-03 0. -1.
     -623    1    1    2    0    0 -0.11907319771E-02 -0.58611754164E-02  0.42294648584E-02  0.17130000016E+03  0.17130000000E+03 0.  1.
      622    1    1    2    0    0  0.55192301542E-02 -0.33963024378E-01  0.14256109302E+01  0.14295280596E+01  0.10000000000E+00 0. -1.
</event>
<event>
 5   0  0.6262544E+06  0.9118800E+02  0.7818608E-02  0.1180000E+00
       11   -1    0    0    0    0  0.00000000000E+00  0.00000000000E+00  0.39999999673E+01  0.40000000000E+01  0.51109989000E-03 0. -1.
     -623   -1    0    0    0    0  0.00000000000E+00  0.00000000000E+00  0.12525980253E-10  0.17130000000E+03  0.17130000000E+03 0. -1.
       11    1    1    2    0    0  0.28564695102E-01 -0.13931286303E-01  0.31236840851E+00  0.31398137907E+00  0.51109989000E-03 0. -1.
     -623    1    1    2    0    0 -0.33219106009E-01  0.26343276038E-01  0.29987845556E-02  0.17130000527E+03  0.17130000000E+03 0. -1.
      622    1    1    2    0    0  0.46544109068E-02 -0.12411989735E-01  0.36846327743E+01  0.36860133481E+01  0.10000000000E+00 0. -1.
</event>
<event>
 5   0  0.6262544E+06  0.9118800E+02  0.7818608E-02  0.1180000E+00
       11   -1    0    0    0    0  0.00000000000E+00  0.00000000000E+00  0.39999999673E+01  0.40000000000E+01  0.51109989000E-03 0.  1.
     -623   -1    0    0    0    0  0.00000000000E+00  0.00000000000E+00  0.12525980253E-10  0.17130000000E+03  0.17130000000E+03 0. -1.
       11    1    1    2    0    0 -0.65786384469E-02 -0.49908176941E-02  0.32928540722E-01  0.33951977295E-01  0.51109989000E-03 0.  1.
     -623    1    1    2    0    0  0.89462298227E-02  0.76110937417E-02  0.22862960389E-02  0.17130000042E+03  0.17130000000E+03 0. -1.
      622    1    1    2    0    0 -0.23675913762E-02 -0.26202760479E-02  0.39647851308E+01  0.39660476049E+01  0.10000000000E+00 0.  1.
</event>
<event>
 5   0  0.6262544E+06  0.9118800E+02  0.7818608E-02  0.1180000E+00
       11   -1    0    0    0    0  0.00000000000E+00  0.00000000000E+00  0.39999999673E+01  0.40000000000E+01  0.51109989000E-03 0. -1.
     -623   -1    0    0    0    0  0.00000000000E+00  0.00000000000E+00  0.12525980253E-10  0.17130000000E+03  0.17130000000E+03 0. -1.
       11    1    1    2    0    0  0.77450120267E-01  0.42768600307E-02  0.12209910932E+01  0.12234526242E+01  0.51109989000E-03 0. -1.
     -623    1    1    2    0    0 -0.68729450323E-01 -0.89741126813E-03  0.42924954162E-02  0.17130001384E+03  0.17130000000E+03 0. -1.
      622    1    1    2    0    0 -0.87206699438E-02 -0.33794487626E-02  0.27747163787E+01  0.27765335318E+01  0.10000000000E+00 0.  0.
</event>
<event>
 5   0  0.6262544E+06  0.9118800E+02  0.7818608E-02  0.1180000E+00
       11   -1    0    0    0    0  0.00000000000E+00  0.00000000000E+00  0.39999999673E+01  0.40000000000E+01  0.51109989000E-03 0.  1.
     -623   -1    0    0    0    0  0.00000000000E+00  0.00000000000E+00  0.12525980253E-10  0.17130000000E+03  0.17130000000E+03 0.  1.
       11    1    1    2    0    0 -0.21605956801E-01  0.16129716339E-01  0.20073044474E+00  0.20253384356E+00  0.51109989000E-03 0.  1.
     -623    1    1    2    0    0 -0.18048807805E-02 -0.64099803483E-02  0.32050529402E-02  0.17130000016E+03  0.17130000000E+03 0.  1.
      622    1    1    2    0    0  0.23410837582E-01 -0.97197359912E-02  0.37960644697E+01  0.37974659970E+01  0.10000000000E+00 0.  1.
</event>
<event>
 5   0  0.6262544E+06  0.9118800E+02  0.7818608E-02  0.1180000E+00
       11   -1    0    0    0    0  0.00000000000E+00  0.00000000000E+00  0.39999999673E+01  0.40000000000E+01  0.51109989000E-03 0. -1.
     -623   -1    0    0    0    0  0.00000000000E+00  0.00000000000E+00  0.12525980253E-10  0.17130000000E+03  0.17130000000E+03 0.  1.
       11    1    1    2    0    0 -0.34365248450E-03 -0.15422811000E-01  0.97425713956E-01  0.98640823987E-01  0.51109989000E-03 0. -1.
     -623    1    1    2    0    0  0.84919956921E-02  0.13550690191E-01  0.25066190601E-02  0.17130000076E+03  0.17130000000E+03 0.  1.
      622    1    1    2    0    0 -0.81483432076E-02  0.18721208093E-02  0.39000676343E+01  0.39013584112E+01  0.10000000000E+00 0. -1.
</event>
<event>
 5   0  0.6262544E+06  0.9118800E+02  0.7818608E-02  0.1180000E+00
       11   -1    0    0    0    0  0.00000000000E+00  0.00000000000E+00  0.39999999673E+01  0.40000000000E+01  0.51109989000E-03 0. -1.
     -623   -1    0    0    0    0  0.00000000000E+00  0.00000000000E+00  0.12525980253E-10  0.17130000000E+03  0.17130000000E+03 0. -1.
       11    1    1    2    0    0  0.35940541737E-03 -0.21701588842E-01  0.12743054927E+00  0.12926675613E+00  0.51109989000E-03 0. -1.
     -623    1    1    2    0    0  0.17191545596E-02  0.17892199640E-01  0.31315401536E-02  0.17130000097E+03  0.17130000000E+03 0. -1.
      622    1    1    2    0    0 -0.20785599771E-02  0.38093892014E-02  0.38694378781E+01  0.38707322723E+01  0.10000000000E+00 0. -1.
</event>
<event>
 5   0  0.6262544E+06  0.9118800E+02  0.7818608E-02  0.1180000E+00
       11   -1    0    0    0    0  0.00000000000E+00  0.00000000000E+00  0.39999999673E+01  0.40000000000E+01  0.51109989000E-03 0.  1.
     -623   -1    0    0    0    0  0.00000000000E+00  0.00000000000E+00  0.12525980253E-10  0.17130000000E+03  0.17130000000E+03 0. -1.
       11    1    1    2    0    0  0.10352157367E-03  0.19201136877E-01  0.47720269189E+00  0.47758911707E+00  0.51109989000E-03 0.  1.
     -623    1    1    2    0    0  0.49991364797E-02 -0.48262360140E-02  0.18393531336E-02  0.17130000015E+03  0.17130000000E+03 0. -1.
      622    1    1    2    0    0 -0.51026580532E-02 -0.14374900864E-01  0.35209579222E+01  0.35224107320E+01  0.10000000000E+00 0.  1.
</event>
<event>
 5   0  0.6262544E+06  0.9118800E+02  0.7818608E-02  0.1180000E+00
       11   -1    0    0    0    0  0.00000000000E+00  0.00000000000E+00  0.39999999673E+01  0.40000000000E+01  0.51109989000E-03 0. -1.
     -623   -1    0    0    0    0  0.00000000000E+00  0.00000000000E+00  0.12525980253E-10  0.17130000000E+03  0.17130000000E+03 0.  1.
       11    1    1    2    0    0  0.45468172447E-02 -0.55006432513E-02  0.43803092282E-01  0.44383586378E-01  0.51109989000E-03 0. -1.
     -623    1    1    2    0    0 -0.24215014241E-02 -0.48102207948E-03  0.18498120767E-02  0.17130000003E+03  0.17130000000E+03 0.  1.
      622    1    1    2    0    0 -0.21253158205E-02  0.59816653308E-02  0.39543470631E+01  0.39556163860E+01  0.10000000000E+00 0. -1.
</event>
<event>
 5   0  0.6262544E+06  0.9118800E+02  0.7818608E-02  0.1180000E+00
       11   -1    0    0    0    0  0.00000000000E+00  0.00000000000E+00  0.39999999673E+01  0.40000000000E+01  0.51109989000E-03 0. -1.
     -623   -1    0    0    0    0  0.00000000000E+00  0.00000000000E+00  0.12525980253E-10  0.17130000000E+03  0.17130000000E+03 0.  1.
       11    1    1    2    0    0 -0.38481995722E-02 -0.98091344898E-02  0.45015581107E+00  0.45027940572E+00  0.51109989000E-03 0. -1.
     -623    1    1    2    0    0 -0.76984610904E-02  0.68407566913E-03  0.15631052899E-02  0.17130000018E+03  0.17130000000E+03 0.  1.
      622    1    1    2    0    0  0.11546660663E-01  0.91250588207E-02  0.35482810510E+01  0.35497204128E+01  0.10000000000E+00 0. -1.
</event>
<event>
 5   0  0.6262544E+06  0.9118800E+02  0.7818608E-02  0.1180000E+00
       11   -1    0    0    0    0  0.00000000000E+00  0.00000000000E+00  0.39999999673E+01  0.40000000000E+01  0.51109989000E-03 0. -1.
     -623   -1    0    0    0    0  0.00000000000E+00  0.00000000000E+00  0.12525980253E-10  0.17130000000E+03  0.17130000000E+03 0.  1.
       11    1    1    2    0    0  0.37614691625E-01 -0.29474984789E-01  0.24203802985E+01  0.24208520588E+01  0.51109989000E-03 0. -1.
     -623    1    1    2    0    0 -0.38031028445E-02 -0.65560653080E-02  0.44161737836E-02  0.17130000022E+03  0.17130000000E+03 0.  1.
      622    1    1    2    0    0 -0.33811588780E-01  0.36031050097E-01  0.15752034951E+01  0.15791477166E+01  0.10000000000E+00 0.  1.
</event>
<event>
 5   0  0.6262544E+06  0.9118800E+02  0.7818608E-02  0.1180000E+00
       11   -1    0    0    0    0  0.00000000000E+00  0.00000000000E+00  0.39999999673E+01  0.40000000000E+01  0.51109989000E-03 0.  1.
     -623   -1    0    0    0    0  0.00000000000E+00  0.00000000000E+00  0.12525980253E-10  0.17130000000E+03  0.17130000000E+03 0. -1.
       11    1    1    2    0    0  0.42615733752E-02  0.31411489959E-01  0.19592491718E+01  0.19595056574E+01  0.51109989000E-03 0.  1.
     -623    1    1    2    0    0  0.25315171357E-02  0.29323949793E-03  0.29663014772E-02  0.17130000004E+03  0.17130000000E+03 0. -1.
      622    1    1    2    0    0 -0.67930905109E-02 -0.31704729457E-01  0.20377844940E+01  0.20404942980E+01  0.10000000000E+00 0.  1.
</event>
<event>
 5   0  0.6262544E+06  0.9118800E+02  0.7818608E-02  0.1180000E+00
       11   -1    0    0    0    0  0.00000000000E+00  0.00000000000E+00  0.39999999673E+01  0.40000000000E+01  0.51109989000E-03 0.  1.
     -623   -1    0    0    0    0  0.00000000000E+00  0.00000000000E+00  0.12525980253E-10  0.17130000000E+03  0.17130000000E+03 0. -1.
       11    1    1    2    0    0  0.12811029356E-01  0.16112653077E-02  0.70816594336E+00  0.70828382955E+00  0.51109989000E-03 0.  1.
     -623    1    1    2    0    0 -0.19994232048E-02 -0.13798169240E-02  0.16549655982E-02  0.17130000003E+03  0.17130000000E+03 0. -1.
      622    1    1    2    0    0 -0.10811606152E-01 -0.23144838379E-03  0.32901790582E+01  0.32917161451E+01  0.10000000000E+00 0.  1.
</event>
<event>
 5   0  0.6262544E+06  0.9118800E+02  0.7818608E-02  0.1180000E+00
       11   -1    0    0    0    0  0.00000000000E+00  0.00000000000E+00  0.39999999673E+01  0.40000000000E+01  0.51109989000E-03 0.  1.
     -623   -1    0    0    0    0  0.00000000000E+00  0.00000000000E+00  0.12525980253E-10  0.17130000000E+03  0.17130000000E+03 0. -1.
       11    1    1    2    0    0 -0.77529294409E-03  0.57097665797E-02  0.27217953967E+00  0.27224100638E+00  0.51109989000E-03 0.  1.
     -623    1    1    2    0    0  0.34108684012E-02 -0.48112251448E-02  0.14041115612E-02  0.17130000011E+03  0.17130000000E+03 0. -1.
      622    1    1    2    0    0 -0.26355754570E-02 -0.89854143509E-03  0.37264163160E+01  0.37277588862E+01  0.10000000000E+00 0.  1.
</event>
<event>
 5   0  0.6262544E+06  0.9118800E+02  0.7818608E-02  0.1180000E+00
       11   -1    0    0    0    0  0.00000000000E+00  0.00000000000E+00  0.39999999673E+01  0.40000000000E+01  0.51109989000E-03 0.  1.
     -623   -1    0    0    0    0  0.00000000000E+00  0.00000000000E+00  0.12525980253E-10  0.17130000000E+03  0.17130000000E+03 0. -1.
       11    1    1    2    0    0  0.16020553658E-03  0.33803408843E-01  0.12914894663E+01  0.12919318863E+01  0.51109989000E-03 0.  1.
     -623    1    1    2    0    0 -0.46488895980E-02 -0.51679467582E-02  0.24447383774E-02  0.17130000016E+03  0.17130000000E+03 0. -1.
      622    1    1    2    0    0  0.44886840615E-02 -0.28635462084E-01  0.27060657628E+01  0.27080679553E+01  0.10000000000E+00 0.  0.
</event>
<event>
 5   0  0.6262544E+06  0.9118800E+02  0.7818608E-02  0.1180000E+00
       11   -1    0    0    0    0  0.00000000000E+00  0.00000000000E+00  0.39999999673E+01  0.40000000000E+01  0.51109989000E-03 0. -1.
     -623   -1    0    0    0    0  0.00000000000E+00  0.00000000000E+00  0.12525980253E-10  0.17130000000E+03  0.17130000000E+03 0.  1.
       11    1    1    2    0    0  0.16347569217E-02  0.24462406460E-03 -0.50644053816E-02  0.53517937266E-02  0.51109989000E-03 0. -1.
     -623    1    1    2    0    0 -0.15689275869E-02 -0.23395091173E-02  0.11669008063E-01  0.17130000042E+03  0.17130000000E+03 0.  1.
      622    1    1    2    0    0 -0.65829334737E-04  0.20948850527E-02  0.39933953647E+01  0.39946477857E+01  0.10000000000E+00 0. -1.
</event>
<event>
 5   0  0.6262544E+06  0.9118800E+02  0.7818608E-02  0.1180000E+00
       11   -1    0    0    0    0  0.00000000000E+00  0.00000000000E+00  0.39999999673E+01  0.40000000000E+01  0.51109989000E-03 0. -1.
     -623   -1    0    0    0    0  0.00000000000E+00  0.00000000000E+00  0.12525980253E-10  0.17130000000E+03  0.17130000000E+03 0. -1.
       11    1    1    2    0    0  0.13349650358E-02  0.23617098137E-02  0.39397912414E+00  0.39398879588E+00  0.51109989000E-03 0. -1.
     -623    1    1    2    0    0  0.10052049630E-02  0.86407349717E-02  0.14142573482E-02  0.17130000023E+03  0.17130000000E+03 0. -1.
      622    1    1    2    0    0 -0.23401699988E-02 -0.11002444785E-01  0.36046065859E+01  0.36060109774E+01  0.10000000000E+00 0. -1.
</event>
<event>
 5   0  0.6262544E+06  0.9118800E+02  0.7818608E-02  0.1180000E+00
       11   -1    0    0    0    0  0.00000000000E+00  0.00000000000E+00  0.39999999673E+01  0.40000000000E+01  0.51109989000E-03 0.  1.
     -623   -1    0    0    0    0  0.00000000000E+00  0.00000000000E+00  0.12525980253E-10  0.17130000000E+03  0.17130000000E+03 0. -1.
       11    1    1    2    0    0 -0.40063258326E-01  0.23700529017E-01  0.16742937508E+00  0.17378042642E+00  0.51109989000E-03 0.  1.
     -623    1    1    2    0    0 -0.83260489403E-02 -0.22078376290E-01  0.79662709242E-02  0.17130000181E+03  0.17130000000E+03 0. -1.
      622    1    1    2    0    0  0.48389307267E-01 -0.16221527274E-02  0.38246043213E+01  0.38262177632E+01  0.10000000000E+00 0.  1.
</event>
<event>
 5   0  0.6262544E+06  0.9118800E+02  0.7818608E-02  0.1180000E+00
       11   -1    0    0    0    0  0.00000000000E+00  0.00000000000E+00  0.39999999673E+01  0.40000000000E+01  0.51109989000E-03 0. -1.
     -623   -1    0    0    0    0  0.00000000000E+00  0.00000000000E+00  0.12525980253E-10  0.17130000000E+03  0.17130000000E+03 0.  1.
       11    1    1    2    0    0  0.48964092771E-02 -0.19147756650E-01  0.66594697646E+00  0.66624038311E+00  0.51109989000E-03 0. -1.
     -623    1    1    2    0    0 -0.42248377485E-02  0.29376690211E-02  0.18331025176E-02  0.17130000009E+03  0.17130000000E+03 0.  1.
      622    1    1    2    0    0 -0.67157152852E-03  0.16210087629E-01  0.33322198884E+01  0.33337595298E+01  0.10000000000E+00 0. -1.
</event>
<event>
 5   0  0.6262544E+06  0.9118800E+02  0.7818608E-02  0.1180000E+00
       11   -1    0    0    0    0  0.00000000000E+00  0.00000000000E+00  0.39999999673E+01  0.40000000000E+01  0.51109989000E-03 0. -1.
     -623   -1    0    0    0    0  0.00000000000E+00  0.00000000000E+00  0.12525980253E-10  0.17130000000E+03  0.17130000000E+03 0.  1.
       11    1    1    2    0    0  0.59719431446E-01  0.57805967838E-01  0.10132776763E+01  0.10166808009E+01  0.51109989000E-03 0. -1.
     -623    1    1    2    0    0  0.14059587606E-03  0.11366088348E-01  0.64836319723E-02  0.17130000050E+03  0.17130000000E+03 0.  1.
      622    1    1    2    0    0 -0.59860027323E-01 -0.69172056186E-01  0.29802386592E+01  0.29833186993E+01  0.10000000000E+00 0. -1.
</event>
<event>
 5   0  0.6262544E+06  0.9118800E+02  0.7818608E-02  0.1180000E+00
       11   -1    0    0    0    0  0.00000000000E+00  0.00000000000E+00  0.39999999673E+01  0.40000000000E+01  0.51109989000E-03 0. -1.
     -623   -1    0    0    0    0  0.00000000000E+00  0.00000000000E+00  0.12525980253E-10  0.17130000000E+03  0.17130000000E+03 0. -1.
       11    1    1    2    0    0 -0.38175290142E-02 -0.21867742968E-02  0.77422853191E-01  0.77549435387E-01  0.51109989000E-03 0. -1.
     -623    1    1    2    0    0  0.90173301333E-02  0.40539712907E-03  0.14055660609E-02  0.17130000024E+03  0.17130000000E+03 0. -1.
      622    1    1    2    0    0 -0.51998011189E-02  0.17813771677E-02  0.39211715480E+01  0.39224503209E+01  0.10000000000E+00 0. -1.
</event>
<event>
 5   0  0.6262544E+06  0.9118800E+02  0.7818608E-02  0.1180000E+00
       11   -1    0    0    0    0  0.00000000000E+00  0.00000000000E+00  0.39999999673E+01  0.40000000000E+01  0.51109989000E-03 0. -1.
     -623   -1    0    0    0    0  0.00000000000E+00  0.00000000000E+00  0.12525980253E-10  0.17130000000E+03  0.17130000000E+03 0.  1.
       11    1    1    2    0    0 -0.23376783897E-01  0.22057913901E-01  0.55273213358E+00  0.55366605306E+00  0.51109989000E-03 0. -1.
     -623    1    1    2    0    0 -0.91073280333E-02  0.38293339751E-02  0.26357484575E-02  0.17130000031E+03  0.17130000000E+03 0.  1.
      622    1    1    2    0    0  0.32484111930E-01 -0.25887247876E-01  0.34446320853E+01  0.34463336417E+01  0.10000000000E+00 0. -1.
</event>
<event>
 5   0  0.6262544E+06  0.9118800E+02  0.7818608E-02  0.1180000E+00
       11   -1    0    0    0    0  0.00000000000E+00  0.00000000000E+00  0.39999999673E+01  0.40000000000E+01  0.51109989000E-03 0.  1.
     -623   -1    0    0    0    0  0.00000000000E+00  0.00000000000E+00  0.12525980253E-10  0.17130000000E+03  0.17130000000E+03 0.  1.
       11    1    1    2    0    0 -0.38887903609E-02  0.69824352844E-03  0.12175707180E-01  0.12810905625E-01  0.51109989000E-03 0.  1.
     -623    1    1    2    0    0  0.14509707686E-02 -0.21595851811E-02  0.18904229114E-02  0.17130000003E+03  0.17130000000E+03 0.  1.
      622    1    1    2    0    0  0.24378195922E-02  0.14613416528E-02  0.39859338375E+01  0.39871890644E+01  0.10000000000E+00 0.  1.
</event>
<event>
 5   0  0.6262544E+06  0.9118800E+02  0.7818608E-02  0.1180000E+00
       11   -1    0    0    0    0  0.00000000000E+00  0.00000000000E+00  0.39999999673E+01  0.40000000000E+01  0.51109989000E-03 0.  1.
     -623   -1    0    0    0    0  0.00000000000E+00  0.00000000000E+00  0.12525980253E-10  0.17130000000E+03  0.17130000000E+03 0.  1.
       11    1    1    2    0    0  0.51849570979E-01  0.40459876874E-02  0.43635128711E+00  0.43943993334E+00  0.51109989000E-03 0.  1.
     -623    1    1    2    0    0 -0.20050322435E-01 -0.21460039656E-01  0.46804079770E-02  0.17130000258E+03  0.17130000000E+03 0.  1.
      622    1    1    2    0    0 -0.31799248545E-01  0.17414051969E-01  0.35589682723E+01  0.35605574851E+01  0.10000000000E+00 0.  1.
</event>
<event>
 5   0  0.6262544E+06  0.9118800E+02  0.7818608E-02  0.1180000E+00
       11   -1    0    0    0    0  0.00000000000E+00  0.00000000000E+00  0.39999999673E+01  0.40000000000E+01  0.51109989000E-03 0. -1.
     -623   -1    0    0    0    0  0.00000000000E+00  0.00000000000E+00  0.12525980253E-10  0.17130000000E+03  0.17130000000E+03 0. -1.
       11    1    1    2    0    0 -0.22856584619E-01 -0.22390457019E-01  0.10615721914E+01  0.10620543935E+01  0.51109989000E-03 0. -1.
     -623    1    1    2    0    0  0.39989942529E-02 -0.73920432527E-02  0.23963608266E-02  0.17130000022E+03  0.17130000000E+03 0. -1.
      622    1    1    2    0    0  0.18857590366E-01  0.29782500272E-01  0.29360314154E+01  0.29379453838E+01  0.10000000000E+00 0. -1.
</event>
<event>
 5   0  0.6262544E+06  0.9118800E+02  0.7818608E-02  0.1180000E+00
       11   -1    0    0    0    0  0.00000000000E+00  0.00000000000E+00  0.39999999673E+01  0.40000000000E+01  0.51109989000E-03 0.  1.
     -623   -1    0    0    0    0  0.00000000000E+00  0.00000000000E+00  0.12525980253E-10  0.17130000000E+03  0.17130000000E+03 0.  1.
       11    1    1    2    0    0 -0.39304975055E-01  0.21708123932E-02  0.91496830596E+00  0.91581485882E+00  0.51109989000E-03 0.  1.
     -623    1    1    2    0    0  0.16663580869E-01  0.17669321173E-01  0.26168649053E-02  0.17130000174E+03  0.17130000000E+03 0.  1.
      622    1    1    2    0    0  0.22641394185E-01 -0.19840133567E-01  0.30824147966E+01  0.30841833995E+01  0.10000000000E+00 0.  1.
</event>
<event>
 5   0  0.6262544E+06  0.9118800E+02  0.7818608E-02  0.1180000E+00
       11   -1    0    0    0    0  0.00000000000E+00  0.00000000000E+00  0.39999999673E+01  0.40000000000E+01  0.51109989000E-03 0. -1.
     -623   -1    0    0    0    0  0.00000000000E+00  0.00000000000E+00  0.12525980253E-10  0.17130000000E+03  0.17130000000E+03 0. -1.
       11    1    1    2    0    0 -0.20803163930E-01  0.19327099368E-01  0.71154205706E-01  0.76612600872E-01  0.51109989000E-03 0. -1.
     -623    1    1    2    0    0 -0.12399860119E-01 -0.12804121179E-01  0.68800130861E-02  0.17130000107E+03  0.17130000000E+03 0. -1.
      622    1    1    2    0    0  0.33203024049E-01 -0.65229781890E-02  0.39219657485E+01  0.39233863336E+01  0.10000000000E+00 0. -1.
</event>
<event>
 5   0  0.6262544E+06  0.9118800E+02  0.7818608E-02  0.1180000E+00
       11   -1    0    0    0    0  0.00000000000E+00  0.00000000000E+00  0.39999999673E+01  0.40000000000E+01  0.51109989000E-03 0.  1.
     -623   -1    0    0    0    0  0.00000000000E+00  0.00000000000E+00  0.12525980253E-10  0.17130000000E+03  0.17130000000E+03 0. -1.
       11    1    1    2    0    0 -0.17832978694E-03 -0.59900405379E-02  0.24575301656E+00  0.24582660303E+00  0.51109989000E-03 0.  1.
     -623    1    1    2    0    0 -0.23868461557E-02  0.13092221747E-02  0.14094645277E-02  0.17130000003E+03  0.17130000000E+03 0. -1.
      622    1    1    2    0    0  0.25651759427E-02  0.46808183632E-02  0.37528374863E+01  0.37541733695E+01  0.10000000000E+00 0.  1.
</event>
<event>
 5   0  0.6262544E+06  0.9118800E+02  0.7818608E-02  0.1180000E+00
       11   -1    0    0    0    0  0.00000000000E+00  0.00000000000E+00  0.39999999673E+01  0.40000000000E+01  0.51109989000E-03 0.  1.
     -623   -1    0    0    0    0  0.00000000000E+00  0.00000000000E+00  0.12525980253E-10  0.17130000000E+03  0.17130000000E+03 0.  1.
       11    1    1    2    0    0  0.10925558199E-01 -0.11620345882E-02  0.40109440603E-01  0.41590222325E-01  0.51109989000E-03 0.  1.
     -623    1    1    2    0    0 -0.76122975260E-03  0.76076633578E-02  0.27625807419E-02  0.17130000019E+03  0.17130000000E+03 0.  1.
      622    1    1    2    0    0 -0.10164328446E-01 -0.64456287697E-02  0.39571279460E+01  0.39584095848E+01  0.10000000000E+00 0.  1.
</event>
<event>
 5   0  0.6262544E+06  0.9118800E+02  0.7818608E-02  0.1180000E+00
       11   -1    0    0    0    0  0.00000000000E+00  0.00000000000E+00  0.39999999673E+01  0.40000000000E+01  0.51109989000E-03 0.  1.
     -623   -1    0    0    0    0  0.00000000000E+00  0.00000000000E+00  0.12525980253E-10  0.17130000000E+03  0.17130000000E+03 0.  1.
       11    1    1    2    0    0  0.47621346192E-02 -0.32906005561E-02  0.77207790171E-01  0.77426158772E-01  0.51109989000E-03 0.  1.
     -623    1    1    2    0    0 -0.90149163570E-03  0.59098070864E-02  0.14961024897E-02  0.17130000011E+03  0.17130000000E+03 0.  1.
      622    1    1    2    0    0 -0.38606429835E-02 -0.26192065303E-02  0.39212960747E+01  0.39225737304E+01  0.10000000000E+00 0.  1.
</event>
<event>
 5   0  0.6262544E+06  0.9118800E+02  0.7818608E-02  0.1180000E+00
       11   -1    0    0    0    0  0.00000000000E+00  0.00000000000E+00  0.39999999673E+01  0.40000000000E+01  0.51109989000E-03 0. -1.
     -623   -1    0    0    0    0  0.00000000000E+00  0.00000000000E+00  0.12525980253E-10  0.17130000000E+03  0.17130000000E+03 0.  1.
       11    1    1    2    0    0 -0.10146705997E+00  0.20301242654E-01  0.22592967444E+01  0.22616652593E+01  0.51109989000E-03 0. -1.
     -623    1    1    2    0    0  0.32897719810E-01  0.12936839640E-01  0.69246965835E-02  0.17130000379E+03  0.17130000000E+03 0.  1.
      622    1    1    2    0    0  0.68569340162E-01 -0.33238082295E-01  0.17337785264E+01  0.17383309533E+01  0.10000000000E+00 0. -1.
</event>
<event>
 5   0  0.6262544E+06  0.9118800E+02  0.7818608E-02  0.1180000E+00
       11   -1    0    0    0    0  0.00000000000E+00  0.00000000000E+00  0.39999999673E+01  0.40000000000E+01  0.51109989000E-03 0. -1.
     -623   -1    0    0    0    0  0.00000000000E+00  0.00000000000E+00  0.12525980253E-10  0.17130000000E+03  0.17130000000E+03 0.  1.
       11    1    1    2    0    0 -0.29731643507E-01 -0.13060221321E-01  0.87954665065E+00  0.88014607418E+00  0.51109989000E-03 0. -1.
     -623    1    1    2    0    0  0.52489616114E-01  0.15563542012E-01  0.22952642901E-02  0.17130000876E+03  0.17130000000E+03 0.  1.
      622    1    1    2    0    0 -0.22757972607E-01 -0.25033206908E-02  0.31181580524E+01  0.31198451615E+01  0.10000000000E+00 0. -1.
</event>
<event>
 5   0  0.6262544E+06  0.9118800E+02  0.7818608E-02  0.1180000E+00
       11   -1    0    0    0    0  0.00000000000E+00  0.00000000000E+00  0.39999999673E+01  0.40000000000E+01  0.51109989000E-03 0.  1.
     -623   -1    0    0    0    0  0.00000000000E+00  0.00000000000E+00  0.12525980253E-10  0.17130000000E+03  0.17130000000E+03 0. -1.
       11    1    1    2    0    0  0.26653337730E-02  0.26069131752E-02  0.60827940155E-02  0.71527342015E-02  0.51109989000E-03 0.  1.
     -623    1    1    2    0    0 -0.85335627104E-02 -0.12647589689E-01  0.23399809170E-02  0.17130000070E+03  0.17130000000E+03 0. -1.
      622    1    1    2    0    0  0.58682289379E-02  0.10040676514E-01  0.39915771926E+01  0.39928465706E+01  0.10000000000E+00 0.  1.
</event>
<event>
 5   0  0.6262544E+06  0.9118800E+02  0.7818608E-02  0.1180000E+00
       11   -1    0    0    0    0  0.00000000000E+00  0.00000000000E+00  0.39999999673E+01  0.40000000000E+01  0.51109989000E-03 0.  1.
     -623   -1    0    0    0    0  0.00000000000E+00  0.00000000000E+00  0.12525980253E-10  0.17130000000E+03  0.17130000000E+03 0. -1.
       11    1    1    2    0    0  0.49895799199E-02  0.17702433287E-03  0.23912371632E-01  0.24433378460E-01  0.51109989000E-03 0.  1.
     -623    1    1    2    0    0  0.76952161584E-03  0.62158547521E-02  0.17882937753E-02  0.17130000012E+03  0.17130000000E+03 0. -1.
      622    1    1    2    0    0 -0.57591015358E-02 -0.63928790850E-02  0.39742993020E+01  0.39755664977E+01  0.10000000000E+00 0.  1.
</event>
<event>
 5   0  0.6262544E+06  0.9118800E+02  0.7818608E-02  0.1180000E+00
       11   -1    0    0    0    0  0.00000000000E+00  0.00000000000E+00  0.39999999673E+01  0.40000000000E+01  0.51109989000E-03 0.  1.
     -623   -1    0    0    0    0  0.00000000000E+00  0.00000000000E+00  0.12525980253E-10  0.17130000000E+03  0.17130000000E+03 0. -1.
       11    1    1    2    0    0  0.78165709948E-03 -0.58115544667E-03  0.57279449122E-02  0.58326070919E-02  0.51109989000E-03 0.  1.
     -623    1    1    2    0    0 -0.48989186886E-02  0.62907273646E-02  0.13630470408E-02  0.17130000019E+03  0.17130000000E+03 0. -1.
      622    1    1    2    0    0  0.41172615893E-02 -0.57095719181E-02  0.39929089755E+01  0.39941672020E+01  0.10000000000E+00 0.  1.
</event>
<event>
 5   0  0.6262544E+06  0.9118800E+02  0.7818608E-02  0.1180000E+00
       11   -1    0    0    0    0  0.00000000000E+00  0.00000000000E+00  0.39999999673E+01  0.40000000000E+01  0.51109989000E-03 0.  1.
     -623   -1    0    0    0    0  0.00000000000E+00  0.00000000000E+00  0.12525980253E-10  0.17130000000E+03  0.17130000000E+03 0. -1.
       11    1    1    2    0    0 -0.34515693153E-03 -0.10960587100E-01  0.38171689605E+00  0.38187472233E+00  0.51109989000E-03 0.  1.
     -623    1    1    2    0    0  0.14353779513E-02 -0.35028297452E-02  0.15691219886E-02  0.17130000005E+03  0.17130000000E+03 0. -1.
      622    1    1    2    0    0 -0.10902210199E-02  0.14463416845E-01  0.36167139496E+01  0.36181252289E+01  0.10000000000E+00 0.  1.
</event>
<event>
 5   0  0.6262544E+06  0.9118800E+02  0.7818608E-02  0.1180000E+00
       11   -1    0    0    0    0  0.00000000000E+00  0.00000000000E+00  0.39999999673E+01  0.40000000000E+01  0.51109989000E-03 0. -1.
     -623   -1    0    0    0    0  0.00000000000E+00  0.00000000000E+00  0.12525980253E-10  0.17130000000E+03  0.17130000000E+03 0. -1.
       11    1    1    2    0    0  0.55879890766E-01  0.54518414996E-02  0.26495227940E+01  0.26501176543E+01  0.51109989000E-03 0. -1.
     -623    1    1    2    0    0 -0.39880004660E-02  0.10545944832E-01  0.54000684669E-02  0.17130000046E+03  0.17130000000E+03 0. -1.
      622    1    1    2    0    0 -0.51891890300E-01 -0.15997786332E-01  0.13450771049E+01  0.13498818895E+01  0.10000000000E+00 0. -1.
</event>
<event>
 5   0  0.6262544E+06  0.9118800E+02  0.7818608E-02  0.1180000E+00
       11   -1    0    0    0    0  0.00000000000E+00  0.00000000000E+00  0.39999999673E+01  0.40000000000E+01  0.51109989000E-03 0.  1.
     -623   -1    0    0    0    0  0.00000000000E+00  0.00000000000E+00  0.12525980253E-10  0.17130000000E+03  0.17130000000E+03 0. -1.
       11    1    1    2    0    0 -0.18171580964E-01 -0.26742086304E-02  0.34601072181E+00  0.34649825191E+00  0.51109989000E-03 0.  1.
     -623    1    1    2    0    0  0.19948343011E-02  0.17947815683E-02  0.18922680828E-02  0.17130000003E+03  0.17130000000E+03 0. -1.
      622    1    1    2    0    0  0.16176746663E-01  0.87942706210E-03  0.36520969776E+01  0.36535017167E+01  0.10000000000E+00 0.  1.
</event>
<event>
 5   0  0.6262544E+06  0.9118800E+02  0.7818608E-02  0.1180000E+00
       11   -1    0    0    0    0  0.00000000000E+00  0.00000000000E+00  0.39999999673E+01  0.40000000000E+01  0.51109989000E-03 0.  1.
     -623   -1    0    0    0    0  0.00000000000E+00  0.00000000000E+00  0.12525980253E-10  0.17130000000E+03  0.17130000000E+03 0.  1.
       11    1    1    2    0    0  0.21810654409E-01 -0.29985412231E-02  0.37509573907E+00  0.37574162743E+00  0.51109989000E-03 0.  1.
     -623    1    1    2    0    0 -0.22501393108E-02 -0.33852070679E-02  0.20842018943E-02  0.17130000006E+03  0.17130000000E+03 0.  1.
      622    1    1    2    0    0 -0.19560515098E-01  0.63837482910E-02  0.36228200264E+01  0.36242583117E+01  0.10000000000E+00 0.  1.
</event>
<event>
 5   0  0.6262544E+06  0.9118800E+02  0.7818608E-02  0.1180000E+00
       11   -1    0    0    0    0  0.00000000000E+00  0.00000000000E+00  0.39999999673E+01  0.40000000000E+01  0.51109989000E-03 0.  1.
     -623   -1    0    0    0    0  0.00000000000E+00  0.00000000000E+00  0.12525980253E-10  0.17130000000E+03  0.17130000000E+03 0. -1.
       11    1    1    2    0    0 -0.37363775780E-02  0.35440883333E-01  0.30944877212E+00  0.31149449516E+00  0.51109989000E-03 0.  1.
     -623    1    1    2    0    0 -0.49682972964E-02  0.65785290509E-02  0.36514534003E-02  0.17130000024E+03  0.17130000000E+03 0. -1.
      622    1    1    2    0    0  0.87046748745E-02 -0.42019412384E-01  0.36868997418E+01  0.36885052676E+01  0.10000000000E+00 0.  1.
</event>
<event>
 5   0  0.6262544E+06  0.9118800E+02  0.7818608E-02  0.1180000E+00
       11   -1    0    0    0    0  0.00000000000E+00  0.00000000000E+00  0.39999999673E+01  0.40000000000E+01  0.51109989000E-03 0.  1.
     -623   -1    0    0    0    0  0.00000000000E+00  0.00000000000E+00  0.12525980253E-10  0.17130000000E+03  0.17130000000E+03 0. -1.
       11    1    1    2    0    0  0.46349543260E-01  0.46201738984E-01  0.11969170919E+01  0.11987049958E+01  0.51109989000E-03 0.  1.
     -623    1    1    2    0    0  0.37090923684E-01  0.24098031318E-02  0.52434832099E-02  0.17130000411E+03  0.17130000000E+03 0. -1.
      622    1    1    2    0    0 -0.83440466944E-01 -0.48611542116E-01  0.27978393922E+01  0.28012908914E+01  0.10000000000E+00 0.  0.
</event>
<event>
 5   0  0.6262544E+06  0.9118800E+02  0.7818608E-02  0.1180000E+00
       11   -1    0    0    0    0  0.00000000000E+00  0.00000000000E+00  0.39999999673E+01  0.40000000000E+01  0.51109989000E-03 0.  1.
     -623   -1    0    0    0    0  0.00000000000E+00  0.00000000000E+00  0.12525980253E-10  0.17130000000E+03  0.17130000000E+03 0. -1.
       11    1    1    2    0    0  0.78579109015E-02  0.64938401342E-02  0.38963118724E+00  0.38976485220E+00  0.51109989000E-03 0.  1.
     -623    1    1    2    0    0  0.20774240955E-02 -0.36180138696E-02  0.15337292067E-02  0.17130000006E+03  0.17130000000E+03 0. -1.
      622    1    1    2    0    0 -0.99353349971E-02 -0.28758262646E-02  0.36088350509E+01  0.36102350901E+01  0.10000000000E+00 0.  1.
</event>
<event>
 5   0  0.6262544E+06  0.9118800E+02  0.7818608E-02  0.1180000E+00
       11   -1    0    0    0    0  0.00000000000E+00  0.00000000000E+00  0.39999999673E+01  0.40000000000E+01  0.51109989000E-03 0. -1.
     -623   -1    0    0    0    0  0.00000000000E+00  0.00000000000E+00  0.12525980253E-10  0.17130000000E+03  0.17130000000E+03 0. -1.
       11    1    1    2    0    0  0.42955534473E-01 -0.20562236149E-01  0.73775130541E+00  0.73928697632E+00  0.51109989000E-03 0. -1.
     -623    1    1    2    0    0 -0.66153800879E-02  0.57717493505E-02  0.33058299409E-02  0.17130000026E+03  0.17130000000E+03 0. -1.
      622    1    1    2    0    0 -0.36340154385E-01  0.14790486799E-01  0.32589428321E+01  0.32607127669E+01  0.10000000000E+00 0. -1.
</event>
<event>
 5   0  0.6262544E+06  0.9118800E+02  0.7818608E-02  0.1180000E+00
       11   -1    0    0    0    0  0.00000000000E+00  0.00000000000E+00  0.39999999673E+01  0.40000000000E+01  0.51109989000E-03 0. -1.
     -623   -1    0    0    0    0  0.00000000000E+00  0.00000000000E+00  0.12525980253E-10  0.17130000000E+03  0.17130000000E+03 0. -1.
       11    1    1    2    0    0 -0.18914865202E+00  0.20542601118E-01  0.16954039503E+01  0.17060463144E+01  0.51109989000E-03 0. -1.
     -623    1    1    2    0    0  0.47070149040E-01  0.68811245103E-01  0.18998679552E-01  0.17130002134E+03  0.17130000000E+03 0. -1.
      622    1    1    2    0    0  0.14207850298E+00 -0.89353846221E-01  0.22855973375E+01  0.22939323443E+01  0.10000000000E+00 0.  0.
</event>
<event>
 5   0  0.6262544E+06  0.9118800E+02  0.7818608E-02  0.1180000E+00
       11   -1    0    0    0    0  0.00000000000E+00  0.00000000000E+00  0.39999999673E+01  0.40000000000E+01  0.51109989000E-03 0.  1.
     -623   -1    0    0    0    0  0.00000000000E+00  0.00000000000E+00  0.12525980253E-10  0.17130000000E+03  0.17130000000E+03 0. -1.
       11    1    1    2    0    0 -0.15743455147E-01  0.25853911069E-01  0.24527082978E+00  0.24713219592E+00  0.51109989000E-03 0.  1.
     -623    1    1    2    0    0 -0.15689016132E-01 -0.17392771541E-01  0.33367427705E-02  0.17130000163E+03  0.17130000000E+03 0. -1.
      622    1    1    2    0    0  0.31432471279E-01 -0.84611395284E-02  0.37513923949E+01  0.37528661702E+01  0.10000000000E+00 0.  1.
</event>
<event>
 5   0  0.6262544E+06  0.9118800E+02  0.7818608E-02  0.1180000E+00
       11   -1    0    0    0    0  0.00000000000E+00  0.00000000000E+00  0.39999999673E+01  0.40000000000E+01  0.51109989000E-03 0.  1.
     -623   -1    0    0    0    0  0.00000000000E+00  0.00000000000E+00  0.12525980253E-10  0.17130000000E+03  0.17130000000E+03 0. -1.
       11    1    1    2    0    0  0.27101554487E-01  0.45653122287E-01  0.66738086027E+00  0.66948948887E+00  0.51109989000E-03 0.  1.
     -623    1    1    2    0    0  0.42812387909E-02 -0.11022111151E-01  0.39387292079E-02  0.17130000045E+03  0.17130000000E+03 0. -1.
      622    1    1    2    0    0 -0.31382793278E-01 -0.34631011136E-01  0.33286803780E+01  0.33305100579E+01  0.10000000000E+00 0.  1.
</event>
<event>
 5   0  0.6262544E+06  0.9118800E+02  0.7818608E-02  0.1180000E+00
       11   -1    0    0    0    0  0.00000000000E+00  0.00000000000E+00  0.39999999673E+01  0.40000000000E+01  0.51109989000E-03 0.  1.
     -623   -1    0    0    0    0  0.00000000000E+00  0.00000000000E+00  0.12525980253E-10  0.17130000000E+03  0.17130000000E+03 0. -1.
       11    1    1    2    0    0 -0.31528737600E-01 -0.13090548517E-01  0.25411220734E+00  0.25639559064E+00  0.51109989000E-03 0.  1.
     -623    1    1    2    0    0  0.49212918761E-02  0.61841333157E-02  0.37203864886E-02  0.17130000022E+03  0.17130000000E+03 0. -1.
      622    1    1    2    0    0  0.26607445723E-01  0.69064152012E-02  0.37421673736E+01  0.37436041867E+01  0.10000000000E+00 0.  0.
</event>
<event>
 5   0  0.6262544E+06  0.9118800E+02  0.7818608E-02  0.1180000E+00
       11   -1    0    0    0    0  0.00000000000E+00  0.00000000000E+00  0.39999999673E+01  0.40000000000E+01  0.51109989000E-03 0.  1.
     -623   -1    0    0    0    0  0.00000000000E+00  0.00000000000E+00  0.12525980253E-10  0.17130000000E+03  0.17130000000E+03 0. -1.
       11    1    1    2    0    0  0.98167778146E-03 -0.24337847025E-02  0.79129780789E-02  0.83524513766E-02  0.51109989000E-03 0.  1.
     -623    1    1    2    0    0  0.89035313830E-02  0.21137109298E-01  0.17498742864E-02  0.17130000154E+03  0.17130000000E+03 0. -1.
      622    1    1    2    0    0 -0.98852091645E-02 -0.18703324596E-01  0.39903371150E+01  0.39916460042E+01  0.10000000000E+00 0.  1.
</event>
<event>
 5   0  0.6262544E+06  0.9118800E+02  0.7818608E-02  0.1180000E+00
       11   -1    0    0    0    0  0.00000000000E+00  0.00000000000E+00  0.39999999673E+01  0.40000000000E+01  0.51109989000E-03 0. -1.
     -623   -1    0    0    0    0  0.00000000000E+00  0.00000000000E+00  0.12525980253E-10  0.17130000000E+03  0.17130000000E+03 0.  1.
       11    1    1    2    0    0  0.24377413416E-01 -0.18525556785E-03  0.83277090800E+00  0.83312780475E+00  0.51109989000E-03 0. -1.
     -623    1    1    2    0    0 -0.79609360539E-02 -0.61976795693E-02  0.19854188422E-02  0.17130000031E+03  0.17130000000E+03 0.  1.
      622    1    1    2    0    0 -0.16416477362E-01  0.63829351373E-02  0.31652436406E+01  0.31668718867E+01  0.10000000000E+00 0. -1.
</event>
<event>
 5   0  0.6262544E+06  0.9118800E+02  0.7818608E-02  0.1180000E+00
       11   -1    0    0    0    0  0.00000000000E+00  0.00000000000E+00  0.39999999673E+01  0.40000000000E+01  0.51109989000E-03 0.  1.
     -623   -1    0    0    0    0  0.00000000000E+00  0.00000000000E+00  0.12525980253E-10  0.17130000000E+03  0.17130000000E+03 0.  1.
       11    1    1    2    0    0 -0.15889925972E-03 -0.75985904684E-02  0.59361196564E-03  0.76405120308E-02  0.51109989000E-03 0.  1.
     -623    1    1    2    0    0 -0.46872107845E-02  0.22853945353E-02  0.83062157578E-02  0.17130000028E+03  0.17130000000E+03 0.  1.
      622    1    1    2    0    0  0.48461100442E-02  0.53131959330E-02  0.39911001396E+01  0.39923592072E+01  0.10000000000E+00 0.  1.
</event>
<event>
 5   0  0.6262544E+06  0.9118800E+02  0.7818608E-02  0.1180000E+00
       11   -1    0    0    0    0  0.00000000000E+00  0.00000000000E+00  0.39999999673E+01  0.40000000000E+01  0.51109989000E-03 0.  1.
     -623   -1    0    0    0    0  0.00000000000E+00  0.00000000000E+00  0.12525980253E-10  0.17130000000E+03  0.17130000000E+03 0. -1.
       11    1    1    2    0    0  0.16435799685E-02 -0.87177975837E-02  0.38406563488E-01  0.39421145213E-01  0.51109989000E-03 0.  1.
     -623    1    1    2    0    0 -0.55754067571E-02 -0.55883828017E-02  0.23051881325E-02  0.17130000020E+03  0.17130000000E+03 0. -1.
      622    1    1    2    0    0  0.39318267887E-02  0.14306180385E-01  0.39592882157E+01  0.39605786574E+01  0.10000000000E+00 0.  1.
</event>
<event>
 5   0  0.6262544E+06  0.9118800E+02  0.7818608E-02  0.1180000E+00
       11   -1    0    0    0    0  0.00000000000E+00  0.00000000000E+00  0.39999999673E+01  0.40000000000E+01  0.51109989000E-03 0. -1.
     -623   -1    0    0    0    0  0.00000000000E+00  0.00000000000E+00  0.12525980253E-10  0.17130000000E+03  0.17130000000E+03 0. -1.
       11    1    1    2    0    0 -0.11907183679E-01 -0.39447910768E-02  0.22991654075E+00  0.23025902661E+00  0.51109989000E-03 0. -1.
     -623    1    1    2    0    0 -0.59152741166E-02  0.36573846429E-02  0.17113437284E-02  0.17130000015E+03  0.17130000000E+03 0. -1.
      622    1    1    2    0    0  0.17822457796E-01  0.28740643373E-03  0.37683720831E+01  0.37697408239E+01  0.10000000000E+00 0. -1.
</event>
<event>
 5   0  0.6262544E+06  0.9118800E+02  0.7818608E-02  0.1180000E+00
       11   -1    0    0    0    0  0.00000000000E+00  0.00000000000E+00  0.39999999673E+01  0.40000000000E+01  0.51109989000E-03 0.  1.
     -623   -1    0    0    0    0  0.00000000000E+00  0.00000000000E+00  0.12525980253E-10  0.17130000000E+03  0.17130000000E+03 0. -1.
       11    1    1    2    0    0  0.30719425604E-04 -0.13383657443E-01  0.13550136599E+00  0.13616168564E+00  0.51109989000E-03 0.  1.
     -623    1    1    2    0    0  0.24758760359E-02  0.35875404689E-02  0.19678563006E-02  0.17130000007E+03  0.17130000000E+03 0. -1.
      622    1    1    2    0    0 -0.25065954614E-02  0.97961169743E-02  0.38625307449E+01  0.38638382474E+01  0.10000000000E+00 0.  1.
</event>
<event>
 5   0  0.6262544E+06  0.9118800E+02  0.7818608E-02  0.1180000E+00
       11   -1    0    0    0    0  0.00000000000E+00  0.00000000000E+00  0.39999999673E+01  0.40000000000E+01  0.51109989000E-03 0.  1.
     -623   -1    0    0    0    0  0.00000000000E+00  0.00000000000E+00  0.12525980253E-10  0.17130000000E+03  0.17130000000E+03 0. -1.
       11    1    1    2    0    0 -0.28056026884E-01 -0.46076802979E-01  0.13186005041E+01  0.13197036648E+01  0.51109989000E-03 0.  1.
     -623    1    1    2    0    0 -0.75958731942E-02 -0.11145957685E-01  0.38184902405E-02  0.17130000057E+03  0.17130000000E+03 0. -1.
      622    1    1    2    0    0  0.35651900078E-01  0.57222760664E-01  0.26775809731E+01  0.26802957616E+01  0.10000000000E+00 0.  0.
</event>
<event>
 5   0  0.6262544E+06  0.9118800E+02  0.7818608E-02  0.1180000E+00
       11   -1    0    0    0    0  0.00000000000E+00  0.00000000000E+00  0.39999999673E+01  0.40000000000E+01  0.51109989000E-03 0.  1.
     -623   -1    0    0    0    0  0.00000000000E+00  0.00000000000E+00  0.12525980253E-10  0.17130000000E+03  0.17130000000E+03 0.  1.
       11    1    1    2    0    0  0.11071203135E-01  0.10393997781E-01  0.17119666275E-01  0.22889974338E-01  0.51109989000E-03 0.  1.
     -623    1    1    2    0    0  0.27772296564E-02 -0.18493916608E-01  0.70612042346E-02  0.17130000117E+03  0.17130000000E+03 0.  1.
      622    1    1    2    0    0 -0.13848432791E-01  0.80999188266E-02  0.39758190969E+01  0.39771088593E+01  0.10000000000E+00 0.  1.
</event>
<event>
 5   0  0.6262544E+06  0.9118800E+02  0.7818608E-02  0.1180000E+00
       11   -1    0    0    0    0  0.00000000000E+00  0.00000000000E+00  0.39999999673E+01  0.40000000000E+01  0.51109989000E-03 0.  1.
     -623   -1    0    0    0    0  0.00000000000E+00  0.00000000000E+00  0.12525980253E-10  0.17130000000E+03  0.17130000000E+03 0. -1.
       11    1    1    2    0    0 -0.64733296473E-01 -0.26515101503E-02  0.12515829311E+01  0.12532587621E+01  0.51109989000E-03 0.  1.
     -623    1    1    2    0    0  0.35779416953E-02 -0.95538493089E-02  0.42055780777E-02  0.17130000036E+03  0.17130000000E+03 0. -1.
      622    1    1    2    0    0  0.61155354778E-01  0.12205359459E-01  0.27442114582E+01  0.27467408825E+01  0.10000000000E+00 0.  1.
</event>
<event>
 5   0  0.6262544E+06  0.9118800E+02  0.7818608E-02  0.1180000E+00
       11   -1    0    0    0    0  0.00000000000E+00  0.00000000000E+00  0.39999999673E+01  0.40000000000E+01  0.51109989000E-03 0. -1.
     -623   -1    0    0    0    0  0.00000000000E+00  0.00000000000E+00  0.12525980253E-10  0.17130000000E+03  0.17130000000E+03 0.  1.
       11    1    1    2    0    0  0.52180782982E-02 -0.17611727688E-01 -0.39483290019E-02  0.18794994501E-01  0.51109989000E-03 0. -1.
     -623    1    1    2    0    0  0.43407563003E-01 -0.94640662042E-02  0.24396055354E-01  0.17130000750E+03  0.17130000000E+03 0.  1.
      622    1    1    2    0    0 -0.48625641301E-01  0.27075793892E-01  0.39795522410E+01  0.39811975071E+01  0.10000000000E+00 0. -1.
</event>
<event>
 5   0  0.6262544E+06  0.9118800E+02  0.7818608E-02  0.1180000E+00
       11   -1    0    0    0    0  0.00000000000E+00  0.00000000000E+00  0.39999999673E+01  0.40000000000E+01  0.51109989000E-03 0. -1.
     -623   -1    0    0    0    0  0.00000000000E+00  0.00000000000E+00  0.12525980253E-10  0.17130000000E+03  0.17130000000E+03 0.  1.
       11    1    1    2    0    0 -0.66584823999E-01  0.89310167994E-02  0.74725926611E+00  0.75027326612E+00  0.51109989000E-03 0. -1.
     -623    1    1    2    0    0  0.51426810334E-01 -0.20330821067E-01  0.46172883761E-02  0.17130000899E+03  0.17130000000E+03 0.  1.
      622    1    1    2    0    0  0.15158013665E-01  0.11399804268E-01  0.32481234129E+01  0.32497177456E+01  0.10000000000E+00 0.  0.
</event>
<event>
 5   0  0.6262544E+06  0.9118800E+02  0.7818608E-02  0.1180000E+00
       11   -1    0    0    0    0  0.00000000000E+00  0.00000000000E+00  0.39999999673E+01  0.40000000000E+01  0.51109989000E-03 0.  1.
     -623   -1    0    0    0    0  0.00000000000E+00  0.00000000000E+00  0.12525980253E-10  0.17130000000E+03  0.17130000000E+03 0. -1.
       11    1    1    2    0    0 -0.44632057684E-03 -0.26339609887E-02  0.86924634178E-03  0.28554797928E-02  0.51109989000E-03 0.  1.
     -623    1    1    2    0    0 -0.22308310053E-02  0.75446055982E-02  0.32414151998E-02  0.17130000021E+03  0.17130000000E+03 0. -1.
      622    1    1    2    0    0  0.26771515822E-02 -0.49106446097E-02  0.39958893059E+01  0.39971443090E+01  0.10000000000E+00 0.  1.
</event>
<event>
 5   0  0.6262544E+06  0.9118800E+02  0.7818608E-02  0.1180000E+00
       11   -1    0    0    0    0  0.00000000000E+00  0.00000000000E+00  0.39999999673E+01  0.40000000000E+01  0.51109989000E-03 0.  1.
     -623   -1    0    0    0    0  0.00000000000E+00  0.00000000000E+00  0.12525980253E-10  0.17130000000E+03  0.17130000000E+03 0. -1.
       11    1    1    2    0    0 -0.22593584509E-01  0.68926408759E-02  0.62290303084E+00  0.62335096504E+00  0.51109989000E-03 0.  1.
     -623    1    1    2    0    0  0.13438718807E-01  0.46005942598E-03  0.19499482404E-02  0.17130000054E+03  0.17130000000E+03 0. -1.
      622    1    1    2    0    0  0.91548657024E-02 -0.73527003019E-02  0.33751469883E+01  0.33766484961E+01  0.10000000000E+00 0.  1.
</event>
<event>
 5   0  0.6262544E+06  0.9118800E+02  0.7818608E-02  0.1180000E+00
       11   -1    0    0    0    0  0.00000000000E+00  0.00000000000E+00  0.39999999673E+01  0.40000000000E+01  0.51109989000E-03 0.  1.
     -623   -1    0    0    0    0  0.00000000000E+00  0.00000000000E+00  0.12525980253E-10  0.17130000000E+03  0.17130000000E+03 0. -1.
       11    1    1    2    0    0 -0.10557100153E-02 -0.13394412920E-01  0.49343176840E+00  0.49361492695E+00  0.51109989000E-03 0.  1.
     -623    1    1    2    0    0 -0.17539022558E-02 -0.52628028826E-03  0.16381743659E-02  0.17130000002E+03  0.17130000000E+03 0. -1.
      622    1    1    2    0    0  0.28096122711E-02  0.13920693208E-01  0.35049300246E+01  0.35063850554E+01  0.10000000000E+00 0.  1.
</event>
<event>
 5   0  0.6262544E+06  0.9118800E+02  0.7818608E-02  0.1180000E+00
       11   -1    0    0    0    0  0.00000000000E+00  0.00000000000E+00  0.39999999673E+01  0.40000000000E+01  0.51109989000E-03 0. -1.
     -623   -1    0    0    0    0  0.00000000000E+00  0.00000000000E+00  0.12525980253E-10  0.17130000000E+03  0.17130000000E+03 0. -1.
       11    1    1    2    0    0  0.79337919077E-02 -0.14209750239E-01  0.42227642421E+00  0.42259022909E+00  0.51109989000E-03 0. -1.
     -623    1    1    2    0    0  0.60281864807E-02  0.48792440687E-02  0.17513181908E-02  0.17130000018E+03  0.17130000000E+03 0. -1.
      622    1    1    2    0    0 -0.13961978389E-01  0.93305061702E-02  0.35759722251E+01  0.35774095866E+01  0.10000000000E+00 0. -1.
</event>
<event>
 5   0  0.6262544E+06  0.9118800E+02  0.7818608E-02  0.1180000E+00
       11   -1    0    0    0    0  0.00000000000E+00  0.00000000000E+00  0.39999999673E+01  0.40000000000E+01  0.51109989000E-03 0.  1.
     -623   -1    0    0    0    0  0.00000000000E+00  0.00000000000E+00  0.12525980253E-10  0.17130000000E+03  0.17130000000E+03 0. -1.
       11    1    1    2    0    0 -0.22264269214E-02  0.18619305236E-02  0.84541453330E-01  0.84592802974E-01  0.51109989000E-03 0.  1.
     -623    1    1    2    0    0  0.84176976788E-02  0.33908213675E-02  0.13371985851E-02  0.17130000025E+03  0.17130000000E+03 0. -1.
      622    1    1    2    0    0 -0.61912707574E-02 -0.52527518911E-02  0.39141213154E+01  0.39154069514E+01  0.10000000000E+00 0.  1.
</event>
<event>
 5   0  0.6262544E+06  0.9118800E+02  0.7818608E-02  0.1180000E+00
       11   -1    0    0    0    0  0.00000000000E+00  0.00000000000E+00  0.39999999673E+01  0.40000000000E+01  0.51109989000E-03 0.  1.
     -623   -1    0    0    0    0  0.00000000000E+00  0.00000000000E+00  0.12525980253E-10  0.17130000000E+03  0.17130000000E+03 0.  1.
       11    1    1    2    0    0 -0.33560255809E-02  0.61546420669E-02  0.14792075036E+00  0.14808765018E+00  0.51109989000E-03 0.  1.
     -623    1    1    2    0    0  0.29567028525E-02  0.44459209380E-02  0.14798442972E-02  0.17130000009E+03  0.17130000000E+03 0.  1.
      622    1    1    2    0    0  0.39932272838E-03 -0.10600563005E-01  0.38505993727E+01  0.38519122602E+01  0.10000000000E+00 0.  1.
</event>
<event>
 5   0  0.6262544E+06  0.9118800E+02  0.7818608E-02  0.1180000E+00
       11   -1    0    0    0    0  0.00000000000E+00  0.00000000000E+00  0.39999999673E+01  0.40000000000E+01  0.51109989000E-03 0.  1.
     -623   -1    0    0    0    0  0.00000000000E+00  0.00000000000E+00  0.12525980253E-10  0.17130000000E+03  0.17130000000E+03 0. -1.
       11    1    1    2    0    0 -0.50577040338E-02 -0.89188990330E-02  0.32912498736E-01  0.34476382151E-01  0.51109989000E-03 0.  1.
     -623    1    1    2    0    0  0.14033141467E-02  0.16732195470E-01  0.28351496129E-02  0.17130000085E+03  0.17130000000E+03 0. -1.
      622    1    1    2    0    0  0.36543898871E-02 -0.78132964366E-02  0.39642523190E+01  0.39655227715E+01  0.10000000000E+00 0.  1.
</event>
<event>
 5   0  0.6262544E+06  0.9118800E+02  0.7818608E-02  0.1180000E+00
       11   -1    0    0    0    0  0.00000000000E+00  0.00000000000E+00  0.39999999673E+01  0.40000000000E+01  0.51109989000E-03 0.  1.
     -623   -1    0    0    0    0  0.00000000000E+00  0.00000000000E+00  0.12525980253E-10  0.17130000000E+03  0.17130000000E+03 0. -1.
       11    1    1    2    0    0 -0.16687766564E+00  0.25357930366E-01  0.15199088469E+01  0.15292528712E+01  0.51109989000E-03 0.  1.
     -623    1    1    2    0    0  0.49927026038E-01  0.66462323289E-02  0.14355917162E-01  0.17130000801E+03  0.17130000000E+03 0. -1.
      622    1    1    2    0    0  0.11695063961E+00 -0.32004162695E-01  0.24657352033E+01  0.24707391225E+01  0.10000000000E+00 0.  1.
</event>
<event>
 5   0  0.6262544E+06  0.9118800E+02  0.7818608E-02  0.1180000E+00
       11   -1    0    0    0    0  0.00000000000E+00  0.00000000000E+00  0.39999999673E+01  0.40000000000E+01  0.51109989000E-03 0. -1.
     -623   -1    0    0    0    0  0.00000000000E+00  0.00000000000E+00  0.12525980253E-10  0.17130000000E+03  0.17130000000E+03 0.  1.
       11    1    1    2    0    0  0.16161886735E-01  0.86811740665E-02  0.23329558447E-01  0.29683309897E-01  0.51109989000E-03 0. -1.
     -623    1    1    2    0    0 -0.83034570279E-02  0.76175148408E-02  0.76550503654E-02  0.17130000054E+03  0.17130000000E+03 0.  1.
      622    1    1    2    0    0 -0.78584297074E-02 -0.16298688907E-01  0.39690153586E+01  0.39703161485E+01  0.10000000000E+00 0. -1.
</event>
<event>
 5   0  0.6262544E+06  0.9118800E+02  0.7818608E-02  0.1180000E+00
       11   -1    0    0    0    0  0.00000000000E+00  0.00000000000E+00  0.39999999673E+01  0.40000000000E+01  0.51109989000E-03 0. -1.
     -623   -1    0    0    0    0  0.00000000000E+00  0.00000000000E+00  0.12525980253E-10  0.17130000000E+03  0.17130000000E+03 0. -1.
       11    1    1    2    0    0  0.41342698893E-02  0.15129293723E-01  0.14118286675E+00  0.14205228193E+00  0.51109989000E-03 0. -1.
     -623    1    1    2    0    0 -0.24145770949E-02  0.22580523434E-02  0.22052504863E-02  0.17130000005E+03  0.17130000000E+03 0. -1.
      622    1    1    2    0    0 -0.17196927943E-02 -0.17387346067E-01  0.38566118502E+01  0.38579476721E+01  0.10000000000E+00 0. -1.
</event>
<event>
 5   0  0.6262544E+06  0.9118800E+02  0.7818608E-02  0.1180000E+00
       11   -1    0    0    0    0  0.00000000000E+00  0.00000000000E+00  0.39999999673E+01  0.40000000000E+01  0.51109989000E-03 0. -1.
     -623   -1    0    0    0    0  0.00000000000E+00  0.00000000000E+00  0.12525980253E-10  0.17130000000E+03  0.17130000000E+03 0. -1.
       11    1    1    2    0    0  0.16439399098E-01 -0.56014822070E-02  0.10970459563E+00  0.11107200354E+00  0.51109989000E-03 0. -1.
     -623    1    1    2    0    0 -0.29186979209E-02  0.50070253092E-02  0.26769653472E-02  0.17130000012E+03  0.17130000000E+03 0. -1.
      622    1    1    2    0    0 -0.13520701177E-01  0.59445689768E-03  0.38876184065E+01  0.38889278776E+01  0.10000000000E+00 0. -1.
</event>
<event>
 5   0  0.6262544E+06  0.9118800E+02  0.7818608E-02  0.1180000E+00
       11   -1    0    0    0    0  0.00000000000E+00  0.00000000000E+00  0.39999999673E+01  0.40000000000E+01  0.51109989000E-03 0.  1.
     -623   -1    0    0    0    0  0.00000000000E+00  0.00000000000E+00  0.12525980253E-10  0.17130000000E+03  0.17130000000E+03 0. -1.
       11    1    1    2    0    0 -0.52572243163E-02 -0.13829802537E-01  0.15252556987E-01  0.21255671278E-01  0.51109989000E-03 0.  1.
     -623    1    1    2    0    0 -0.10735765608E-01  0.14415103318E-01  0.72932527339E-02  0.17130000110E+03  0.17130000000E+03 0. -1.
      622    1    1    2    0    0  0.15992989924E-01 -0.58530078078E-03  0.39774541576E+01  0.39787432305E+01  0.10000000000E+00 0.  1.
</event>
<event>
 5   0  0.6262544E+06  0.9118800E+02  0.7818608E-02  0.1180000E+00
       11   -1    0    0    0    0  0.00000000000E+00  0.00000000000E+00  0.39999999673E+01  0.40000000000E+01  0.51109989000E-03 0.  1.
     -623   -1    0    0    0    0  0.00000000000E+00  0.00000000000E+00  0.12525980253E-10  0.17130000000E+03  0.17130000000E+03 0.  1.
       11    1    1    2    0    0 -0.13672814364E-01 -0.79168275560E-04  0.50070446878E-01  0.51906290504E-01  0.51109989000E-03 0.  1.
     -623    1    1    2    0    0  0.78794760738E-02  0.78093359033E-02  0.31146577636E-02  0.17130000039E+03  0.17130000000E+03 0.  1.
      622    1    1    2    0    0  0.57933382895E-02 -0.77301676281E-02  0.39468148629E+01  0.39480933221E+01  0.10000000000E+00 0.  1.
</event>
<event>
 5   0  0.6262544E+06  0.9118800E+02  0.7818608E-02  0.1180000E+00
       11   -1    0    0    0    0  0.00000000000E+00  0.00000000000E+00  0.39999999673E+01  0.40000000000E+01  0.51109989000E-03 0. -1.
     -623   -1    0    0    0    0  0.00000000000E+00  0.00000000000E+00  0.12525980253E-10  0.17130000000E+03  0.17130000000E+03 0. -1.
       11    1    1    2    0    0  0.12943668101E-02  0.37102789809E-02  0.17441800688E+00  0.17446301586E+00  0.51109989000E-03 0. -1.
     -623    1    1    2    0    0 -0.53332773745E-03 -0.41148783157E-04  0.13540478158E-02  0.17130000001E+03  0.17130000000E+03 0. -1.
      622    1    1    2    0    0 -0.76103907259E-03 -0.36691301978E-02  0.38242279128E+01  0.38255369781E+01  0.10000000000E+00 0. -1.
</event>
<event>
 5   0  0.6262544E+06  0.9118800E+02  0.7818608E-02  0.1180000E+00
       11   -1    0    0    0    0  0.00000000000E+00  0.00000000000E+00  0.39999999673E+01  0.40000000000E+01  0.51109989000E-03 0.  1.
     -623   -1    0    0    0    0  0.00000000000E+00  0.00000000000E+00  0.12525980253E-10  0.17130000000E+03  0.17130000000E+03 0. -1.
       11    1    1    2    0    0  0.17022003252E-01  0.30518421564E-02  0.38279384859E-01  0.42007557207E-01  0.51109989000E-03 0.  1.
     -623    1    1    2    0    0  0.61328161505E-02 -0.21919986121E-01  0.51059372057E-02  0.17130000159E+03  0.17130000000E+03 0. -1.
      622    1    1    2    0    0 -0.23154819402E-01  0.18868143965E-01  0.39566146453E+01  0.39579908544E+01  0.10000000000E+00 0.  1.
</event>
<event>
 5   0  0.6262544E+06  0.9118800E+02  0.7818608E-02  0.1180000E+00
       11   -1    0    0    0    0  0.00000000000E+00  0.00000000000E+00  0.39999999673E+01  0.40000000000E+01  0.51109989000E-03 0. -1.
     -623   -1    0    0    0    0  0.00000000000E+00  0.00000000000E+00  0.12525980253E-10  0.17130000000E+03  0.17130000000E+03 0.  1.
       11    1    1    2    0    0 -0.61604570896E-02 -0.78416833188E-03  0.13833586018E-01  0.15172194197E-01  0.51109989000E-03 0. -1.
     -623    1    1    2    0    0  0.52436364264E-02  0.10180139463E-02  0.25937478330E-02  0.17130000010E+03  0.17130000000E+03 0.  1.
      622    1    1    2    0    0  0.91682066319E-03 -0.23384561437E-03  0.39835726335E+01  0.39848277029E+01  0.10000000000E+00 0. -1.
</event>
<event>
 5   0  0.6262544E+06  0.9118800E+02  0.7818608E-02  0.1180000E+00
       11   -1    0    0    0    0  0.00000000000E+00  0.00000000000E+00  0.39999999673E+01  0.40000000000E+01  0.51109989000E-03 0. -1.
     -623   -1    0    0    0    0  0.00000000000E+00  0.00000000000E+00  0.12525980253E-10  0.17130000000E+03  0.17130000000E+03 0.  1.
       11    1    1    2    0    0 -0.87758432365E-02 -0.37922675713E-02  0.21057985528E+00  0.21079737520E+00  0.51109989000E-03 0. -1.
     -623    1    1    2    0    0  0.10698068393E-01  0.71042919941E-02  0.15396801182E-02  0.17130000049E+03  0.17130000000E+03 0.  1.
      622    1    1    2    0    0 -0.19222251558E-02 -0.33120244224E-02  0.37878804317E+01  0.37892021363E+01  0.10000000000E+00 0. -1.
</event>
<event>
 5   0  0.6262544E+06  0.9118800E+02  0.7818608E-02  0.1180000E+00
       11   -1    0    0    0    0  0.00000000000E+00  0.00000000000E+00  0.39999999673E+01  0.40000000000E+01  0.51109989000E-03 0. -1.
     -623   -1    0    0    0    0  0.00000000000E+00  0.00000000000E+00  0.12525980253E-10  0.17130000000E+03  0.17130000000E+03 0.  1.
       11    1    1    2    0    0  0.19937458102E-01 -0.52020075686E-02  0.68467659520E+00  0.68498676217E+00  0.51109989000E-03 0. -1.
     -623    1    1    2    0    0 -0.25710681453E-02  0.46881979910E-02  0.18644104525E-02  0.17130000009E+03  0.17130000000E+03 0.  1.
      622    1    1    2    0    0 -0.17366389957E-01  0.51380957763E-03  0.33134589617E+01  0.33150131442E+01  0.10000000000E+00 0. -1.
</event>
<event>
 5   0  0.6262544E+06  0.9118800E+02  0.7818608E-02  0.1180000E+00
       11   -1    0    0    0    0  0.00000000000E+00  0.00000000000E+00  0.39999999673E+01  0.40000000000E+01  0.51109989000E-03 0. -1.
     -623   -1    0    0    0    0  0.00000000000E+00  0.00000000000E+00  0.12525980253E-10  0.17130000000E+03  0.17130000000E+03 0. -1.
       11    1    1    2    0    0  0.27919530034E-03  0.13395772673E-01  0.46797884203E-01  0.48680877811E-01  0.51109989000E-03 0. -1.
     -623    1    1    2    0    0  0.25249512430E-01 -0.19317894015E-02  0.32495983778E-02  0.17130000190E+03  0.17130000000E+03 0. -1.
      622    1    1    2    0    0 -0.25528707730E-01 -0.11463983272E-01  0.39499524848E+01  0.39513172196E+01  0.10000000000E+00 0. -1.
</event>
<event>
 5   0  0.6262544E+06  0.9118800E+02  0.7818608E-02  0.1180000E+00
       11   -1    0    0    0    0  0.00000000000E+00  0.00000000000E+00  0.39999999673E+01  0.40000000000E+01  0.51109989000E-03 0.  1.
     -623   -1    0    0    0    0  0.00000000000E+00  0.00000000000E+00  0.12525980253E-10  0.17130000000E+03  0.17130000000E+03 0.  1.
       11    1    1    2    0    0  0.41325891892E-02  0.73479771734E-02  0.10500527735E+01  0.10500867390E+01  0.51109989000E-03 0.  1.
     -623    1    1    2    0    0  0.41191146839E-02 -0.15447825027E-01  0.17528151400E-02  0.17130000076E+03  0.17130000000E+03 0.  1.
      622    1    1    2    0    0 -0.82517038731E-02  0.80998478536E-02  0.29481943787E+01  0.29499125059E+01  0.10000000000E+00 0.  1.
</event>
<event>
 5   0  0.6262544E+06  0.9118800E+02  0.7818608E-02  0.1180000E+00
       11   -1    0    0    0    0  0.00000000000E+00  0.00000000000E+00  0.39999999673E+01  0.40000000000E+01  0.51109989000E-03 0.  1.
     -623   -1    0    0    0    0  0.00000000000E+00  0.00000000000E+00  0.12525980253E-10  0.17130000000E+03  0.17130000000E+03 0.  1.
       11    1    1    2    0    0  0.69990580373E-04 -0.21928061830E-02  0.68626790538E-02  0.72229414917E-02  0.51109989000E-03 0.  1.
     -623    1    1    2    0    0 -0.63853334892E-02 -0.18338767936E-03  0.16185175997E-02  0.17130000013E+03  0.17130000000E+03 0.  1.
      622    1    1    2    0    0  0.63153429088E-02  0.23761938623E-02  0.39915187707E+01  0.39927769318E+01  0.10000000000E+00 0.  1.
</event>
<event>
 5   0  0.6262544E+06  0.9118800E+02  0.7818608E-02  0.1180000E+00
       11   -1    0    0    0    0  0.00000000000E+00  0.00000000000E+00  0.39999999673E+01  0.40000000000E+01  0.51109989000E-03 0.  1.
     -623   -1    0    0    0    0  0.00000000000E+00  0.00000000000E+00  0.12525980253E-10  0.17130000000E+03  0.17130000000E+03 0. -1.
       11    1    1    2    0    0 -0.83546029786E-02 -0.58413815616E-03  0.24699076287E+00  0.24713324093E+00  0.51109989000E-03 0.  1.
     -623    1    1    2    0    0  0.22232333979E-02 -0.14662683156E-02  0.14805947059E-02  0.17130000003E+03  0.17130000000E+03 0. -1.
      622    1    1    2    0    0  0.61313695808E-02  0.20504064717E-02  0.37515286096E+01  0.37528667318E+01  0.10000000000E+00 0.  1.
</event>
<event>
 5   0  0.6262544E+06  0.9118800E+02  0.7818608E-02  0.1180000E+00
       11   -1    0    0    0    0  0.00000000000E+00  0.00000000000E+00  0.39999999673E+01  0.40000000000E+01  0.51109989000E-03 0. -1.
     -623   -1    0    0    0    0  0.00000000000E+00  0.00000000000E+00  0.12525980253E-10  0.17130000000E+03  0.17130000000E+03 0.  1.
       11    1    1    2    0    0  0.52347882842E-01  0.68773441508E-01  0.22134069800E+01  0.22150938598E+01  0.51109989000E-03 0. -1.
     -623    1    1    2    0    0  0.38627860720E-02 -0.15173061620E-01  0.61845126918E-02  0.17130000083E+03  0.17130000000E+03 0.  1.
      622    1    1    2    0    0 -0.56210668914E-01 -0.53600379888E-01  0.17804084746E+01  0.17849053130E+01  0.10000000000E+00 0.  1.
</event>
<event>
 5   0  0.6262544E+06  0.9118800E+02  0.7818608E-02  0.1180000E+00
       11   -1    0    0    0    0  0.00000000000E+00  0.00000000000E+00  0.39999999673E+01  0.40000000000E+01  0.51109989000E-03 0.  1.
     -623   -1    0    0    0    0  0.00000000000E+00  0.00000000000E+00  0.12525980253E-10  0.17130000000E+03  0.17130000000E+03 0. -1.
       11    1    1    2    0    0  0.56112011117E-02  0.15501297849E-01  0.79433720596E-01  0.81128003820E-01  0.51109989000E-03 0.  1.
     -623    1    1    2    0    0  0.15362824866E-02 -0.18898417401E-02  0.30005456534E-02  0.17130000004E+03  0.17130000000E+03 0. -1.
      622    1    1    2    0    0 -0.71474835983E-02 -0.13611456109E-01  0.39175657010E+01  0.39188719525E+01  0.10000000000E+00 0.  0.
</event>
<event>
 5   0  0.6262544E+06  0.9118800E+02  0.7818608E-02  0.1180000E+00
       11   -1    0    0    0    0  0.00000000000E+00  0.00000000000E+00  0.39999999673E+01  0.40000000000E+01  0.51109989000E-03 0.  1.
     -623   -1    0    0    0    0  0.00000000000E+00  0.00000000000E+00  0.12525980253E-10  0.17130000000E+03  0.17130000000E+03 0.  1.
       11    1    1    2    0    0  0.16928275506E-01  0.58281986588E-01  0.65419612867E+00  0.65700547370E+00  0.51109989000E-03 0.  1.
     -623    1    1    2    0    0 -0.16681638574E-02 -0.36763699046E-02  0.47864796553E-02  0.17130000011E+03  0.17130000000E+03 0.  1.
      622    1    1    2    0    0 -0.15260111649E-01 -0.54605616683E-01  0.33410173590E+01  0.33429944119E+01  0.10000000000E+00 0.  0.
</event>
<event>
 5   0  0.6262544E+06  0.9118800E+02  0.7818608E-02  0.1180000E+00
       11   -1    0    0    0    0  0.00000000000E+00  0.00000000000E+00  0.39999999673E+01  0.40000000000E+01  0.51109989000E-03 0. -1.
     -623   -1    0    0    0    0  0.00000000000E+00  0.00000000000E+00  0.12525980253E-10  0.17130000000E+03  0.17130000000E+03 0.  1.
       11    1    1    2    0    0 -0.40418840856E-02  0.43352702520E-02  0.26989227276E-01  0.27637130950E-01  0.51109989000E-03 0. -1.
     -623    1    1    2    0    0  0.71295597767E-03  0.61847669135E-03  0.19112655470E-02  0.17130000001E+03  0.17130000000E+03 0.  1.
      622    1    1    2    0    0  0.33289281079E-02 -0.49537469434E-02  0.39710994749E+01  0.39723628561E+01  0.10000000000E+00 0. -1.
</event>
<event>
 5   0  0.6262544E+06  0.9118800E+02  0.7818608E-02  0.1180000E+00
       11   -1    0    0    0    0  0.00000000000E+00  0.00000000000E+00  0.39999999673E+01  0.40000000000E+01  0.51109989000E-03 0.  1.
     -623   -1    0    0    0    0  0.00000000000E+00  0.00000000000E+00  0.12525980253E-10  0.17130000000E+03  0.17130000000E+03 0.  1.
       11    1    1    2    0    0 -0.45502518658E-02  0.40788115914E-02  0.43205269345E+00  0.43209620762E+00  0.51109989000E-03 0.  1.
     -623    1    1    2    0    0 -0.69827881295E-02  0.63085028727E-03  0.14670466993E-02  0.17130000015E+03  0.17130000000E+03 0.  1.
      622    1    1    2    0    0  0.11533039996E-01 -0.47096618786E-02  0.35664802273E+01  0.35679036427E+01  0.10000000000E+00 0.  1.
</event>
<event>
 5   0  0.6262544E+06  0.9118800E+02  0.7818608E-02  0.1180000E+00
       11   -1    0    0    0    0  0.00000000000E+00  0.00000000000E+00  0.39999999673E+01  0.40000000000E+01  0.51109989000E-03 0.  1.
     -623   -1    0    0    0    0  0.00000000000E+00  0.00000000000E+00  0.12525980253E-10  0.17130000000E+03  0.17130000000E+03 0. -1.
       11    1    1    2    0    0  0.64869783681E-02 -0.42896242319E-01  0.99324370766E+00  0.99419087328E+00  0.51109989000E-03 0.  1.
     -623    1    1    2    0    0 -0.69618417635E-03 -0.17467837889E-02  0.29483832558E-02  0.17130000004E+03  0.17130000000E+03 0. -1.
      622    1    1    2    0    0 -0.57907941918E-02  0.44643026108E-01  0.30038078766E+01  0.30058090912E+01  0.10000000000E+00 0.  1.
</event>
<event>
 5   0  0.6262544E+06  0.9118800E+02  0.7818608E-02  0.1180000E+00
       11   -1    0    0    0    0  0.00000000000E+00  0.00000000000E+00  0.39999999673E+01  0.40000000000E+01  0.51109989000E-03 0. -1.
     -623   -1    0    0    0    0  0.00000000000E+00  0.00000000000E+00  0.12525980253E-10  0.17130000000E+03  0.17130000000E+03 0.  1.
       11    1    1    2    0    0  0.48595782127E-01  0.88592341231E-02  0.63174717633E+00  0.63367562056E+00  0.51109989000E-03 0. -1.
     -623    1    1    2    0    0 -0.13559285946E-01  0.47417119293E-01  0.40742702014E-02  0.17130000715E+03  0.17130000000E+03 0.  1.
      622    1    1    2    0    0 -0.35036496181E-01 -0.56276353416E-01  0.33641785208E+01  0.33663172316E+01  0.10000000000E+00 0. -1.
</event>
<event>
 5   0  0.6262544E+06  0.9118800E+02  0.7818608E-02  0.1180000E+00
       11   -1    0    0    0    0  0.00000000000E+00  0.00000000000E+00  0.39999999673E+01  0.40000000000E+01  0.51109989000E-03 0.  1.
     -623   -1    0    0    0    0  0.00000000000E+00  0.00000000000E+00  0.12525980253E-10  0.17130000000E+03  0.17130000000E+03 0. -1.
       11    1    1    2    0    0 -0.79493894359E-01  0.29355142686E-01  0.49378186194E+00  0.50100079047E+00  0.51109989000E-03 0.  1.
     -623    1    1    2    0    0  0.32199379477E-01 -0.18515592139E-01  0.89890064897E-02  0.17130000426E+03  0.17130000000E+03 0. -1.
      622    1    1    2    0    0  0.47294514882E-01 -0.10839550546E-01  0.34972290990E+01  0.34989949468E+01  0.10000000000E+00 0.  0.
</event>
<event>
 5   0  0.6262544E+06  0.9118800E+02  0.7818608E-02  0.1180000E+00
       11   -1    0    0    0    0  0.00000000000E+00  0.00000000000E+00  0.39999999673E+01  0.40000000000E+01  0.51109989000E-03 0.  1.
     -623   -1    0    0    0    0  0.00000000000E+00  0.00000000000E+00  0.12525980253E-10  0.17130000000E+03  0.17130000000E+03 0.  1.
       11    1    1    2    0    0 -0.80140203302E-03  0.16041739786E-03  0.15598645461E+00  0.15598943305E+00  0.51109989000E-03 0.  1.
     -623    1    1    2    0    0  0.48437732020E-02 -0.41506428691E-02  0.13082124873E-02  0.17130000012E+03  0.17130000000E+03 0.  1.
      622    1    1    2    0    0 -0.40423711690E-02  0.39902254712E-02  0.38427053003E+01  0.38440104432E+01  0.10000000000E+00 0.  1.
</event>
<event>
 5   0  0.6262544E+06  0.9118800E+02  0.7818608E-02  0.1180000E+00
       11   -1    0    0    0    0  0.00000000000E+00  0.00000000000E+00  0.39999999673E+01  0.40000000000E+01  0.51109989000E-03 0. -1.
     -623   -1    0    0    0    0  0.00000000000E+00  0.00000000000E+00  0.12525980253E-10  0.17130000000E+03  0.17130000000E+03 0. -1.
       11    1    1    2    0    0  0.13017200622E-01 -0.24187679335E-02  0.55087625886E-01  0.56658677175E-01  0.51109989000E-03 0. -1.
     -623    1    1    2    0    0 -0.16491020700E-01 -0.13553796907E-02  0.28433431066E-02  0.17130000082E+03  0.17130000000E+03 0. -1.
      622    1    1    2    0    0  0.34738200790E-02  0.37741476243E-02  0.39420689984E+01  0.39433405001E+01  0.10000000000E+00 0. -1.
</event>
<event>
 5   0  0.6262544E+06  0.9118800E+02  0.7818608E-02  0.1180000E+00
       11   -1    0    0    0    0  0.00000000000E+00  0.00000000000E+00  0.39999999673E+01  0.40000000000E+01  0.51109989000E-03 0.  1.
     -623   -1    0    0    0    0  0.00000000000E+00  0.00000000000E+00  0.12525980253E-10  0.17130000000E+03  0.17130000000E+03 0. -1.
       11    1    1    2    0    0 -0.51858951957E-04 -0.30016211518E-02  0.97548489800E-02  0.10219134888E-01  0.51109989000E-03 0.  1.
     -623    1    1    2    0    0  0.40314447288E-02  0.63238780977E-02  0.17211936516E-02  0.17130000017E+03  0.17130000000E+03 0. -1.
      622    1    1    2    0    0 -0.39795857768E-02 -0.33222569459E-02  0.39885239247E+01  0.39897806923E+01  0.10000000000E+00 0.  1.
</event>
<event>
 5   0  0.6262544E+06  0.9118800E+02  0.7818608E-02  0.1180000E+00
       11   -1    0    0    0    0  0.00000000000E+00  0.00000000000E+00  0.39999999673E+01  0.40000000000E+01  0.51109989000E-03 0.  1.
     -623   -1    0    0    0    0  0.00000000000E+00  0.00000000000E+00  0.12525980253E-10  0.17130000000E+03  0.17130000000E+03 0. -1.
       11    1    1    2    0    0  0.53546284621E-02  0.57871095913E-01  0.15701740535E+01  0.15712493613E+01  0.51109989000E-03 0.  1.
     -623    1    1    2    0    0 -0.54587532176E-02  0.18418716710E-02  0.38697450723E-02  0.17130000014E+03  0.17130000000E+03 0. -1.
      622    1    1    2    0    0  0.10412475538E-03 -0.59712967584E-01  0.24259561687E+01  0.24287504981E+01  0.10000000000E+00 0.  1.
</event>
<event>
 5   0  0.6262544E+06  0.9118800E+02  0.7818608E-02  0.1180000E+00
       11   -1    0    0    0    0  0.00000000000E+00  0.00000000000E+00  0.39999999673E+01  0.40000000000E+01  0.51109989000E-03 0. -1.
     -623   -1    0    0    0    0  0.00000000000E+00  0.00000000000E+00  0.12525980253E-10  0.17130000000E+03  0.17130000000E+03 0. -1.
       11    1    1    2    0    0  0.20424076753E-01  0.12029062045E-01  0.15818488031E+00  0.15995173906E+00  0.51109989000E-03 0. -1.
     -623    1    1    2    0    0  0.97240554933E-02 -0.15959433973E-01  0.31905637241E-02  0.17130000105E+03  0.17130000000E+03 0. -1.
      622    1    1    2    0    0 -0.30148132247E-01  0.39303719289E-02  0.38386245235E+01  0.38400472120E+01  0.10000000000E+00 0. -1.
</event>
<event>
 5   0  0.6262544E+06  0.9118800E+02  0.7818608E-02  0.1180000E+00
       11   -1    0    0    0    0  0.00000000000E+00  0.00000000000E+00  0.39999999673E+01  0.40000000000E+01  0.51109989000E-03 0. -1.
     -623   -1    0    0    0    0  0.00000000000E+00  0.00000000000E+00  0.12525980253E-10  0.17130000000E+03  0.17130000000E+03 0.  1.
       11    1    1    2    0    0  0.39057094901E-01  0.75855646403E-01  0.19467997199E+01  0.19486685061E+01  0.51109989000E-03 0. -1.
     -623    1    1    2    0    0  0.32938049179E-02 -0.51922707027E-02  0.59647680949E-02  0.17130000021E+03  0.17130000000E+03 0.  1.
      622    1    1    2    0    0 -0.42350899819E-01 -0.70663375700E-01  0.20472354793E+01  0.20513312797E+01  0.10000000000E+00 0. -1.
</event>
<event>
 5   0  0.6262544E+06  0.9118800E+02  0.7818608E-02  0.1180000E+00
       11   -1    0    0    0    0  0.00000000000E+00  0.00000000000E+00  0.39999999673E+01  0.40000000000E+01  0.51109989000E-03 0. -1.
     -623   -1    0    0    0    0  0.00000000000E+00  0.00000000000E+00  0.12525980253E-10  0.17130000000E+03  0.17130000000E+03 0.  1.
       11    1    1    2    0    0  0.32652752448E-01  0.50500867074E-01  0.14370563156E+01  0.14383141712E+01  0.51109989000E-03 0. -1.
     -623    1    1    2    0    0 -0.72979698566E-01 -0.38230899274E-01  0.35773679779E-02  0.17130001985E+03  0.17130000000E+03 0.  1.
      622    1    1    2    0    0  0.40326946119E-01 -0.12269967800E-01  0.25593662838E+01  0.25616659793E+01  0.10000000000E+00 0.  1.
</event>
<event>
 5   0  0.6262544E+06  0.9118800E+02  0.7818608E-02  0.1180000E+00
       11   -1    0    0    0    0  0.00000000000E+00  0.00000000000E+00  0.39999999673E+01  0.40000000000E+01  0.51109989000E-03 0. -1.
     -623   -1    0    0    0    0  0.00000000000E+00  0.00000000000E+00  0.12525980253E-10  0.17130000000E+03  0.17130000000E+03 0. -1.
       11    1    1    2    0    0 -0.55211968531E-02 -0.13295243816E-02  0.60996410602E-01  0.61262342260E-01  0.51109989000E-03 0. -1.
     -623    1    1    2    0    0  0.13693733724E-02 -0.44125678758E-03  0.15381459636E-02  0.17130000001E+03  0.17130000000E+03 0. -1.
      622    1    1    2    0    0  0.41518234806E-02  0.17707811691E-02  0.39374654109E+01  0.39387376449E+01  0.10000000000E+00 0. -1.
</event>
<event>
 5   0  0.6262544E+06  0.9118800E+02  0.7818608E-02  0.1180000E+00
       11   -1    0    0    0    0  0.00000000000E+00  0.00000000000E+00  0.39999999673E+01  0.40000000000E+01  0.51109989000E-03 0.  1.
     -623   -1    0    0    0    0  0.00000000000E+00  0.00000000000E+00  0.12525980253E-10  0.17130000000E+03  0.17130000000E+03 0. -1.
       11    1    1    2    0    0  0.31270347016E-01 -0.21864619145E-01  0.95660658646E+00  0.95736738959E+00  0.51109989000E-03 0.  1.
     -623    1    1    2    0    0  0.39130120709E-03  0.15065072438E-02  0.26375336404E-02  0.17130000003E+03  0.17130000000E+03 0. -1.
      622    1    1    2    0    0 -0.31661648223E-01  0.20358111902E-01  0.30407558473E+01  0.30426325830E+01  0.10000000000E+00 0.  1.
</event>
<event>
 5   0  0.6262544E+06  0.9118800E+02  0.7818608E-02  0.1180000E+00
       11   -1    0    0    0    0  0.00000000000E+00  0.00000000000E+00  0.39999999673E+01  0.40000000000E+01  0.51109989000E-03 0.  1.
     -623   -1    0    0    0    0  0.00000000000E+00  0.00000000000E+00  0.12525980253E-10  0.17130000000E+03  0.17130000000E+03 0.  1.
       11    1    1    2    0    0 -0.43259180331E-02  0.37347789776E-01  0.60674610131E+00  0.60791007859E+00  0.51109989000E-03 0.  1.
     -623    1    1    2    0    0  0.38490528490E-02  0.53566493691E-02  0.29074074284E-02  0.17130000015E+03  0.17130000000E+03 0.  1.
      622    1    1    2    0    0  0.47686518406E-03 -0.42704439145E-01  0.33903464587E+01  0.33920897699E+01  0.10000000000E+00 0.  0.
</event>
<event>
 5   0  0.6262544E+06  0.9118800E+02  0.7818608E-02  0.1180000E+00
       11   -1    0    0    0    0  0.00000000000E+00  0.00000000000E+00  0.39999999673E+01  0.40000000000E+01  0.51109989000E-03 0.  1.
     -623   -1    0    0    0    0  0.00000000000E+00  0.00000000000E+00  0.12525980253E-10  0.17130000000E+03  0.17130000000E+03 0. -1.
       11    1    1    2    0    0  0.22478347094E-01  0.25523259656E-01  0.15637887405E+01  0.15641586233E+01  0.51109989000E-03 0.  1.
     -623    1    1    2    0    0  0.24204454339E-02  0.32880626918E-04  0.26849869816E-02  0.17130000004E+03  0.17130000000E+03 0. -1.
      622    1    1    2    0    0 -0.24898792528E-01 -0.25556140283E-01  0.24335262400E+01  0.24358413386E+01  0.10000000000E+00 0. -1.
</event>
<event>
 5   0  0.6262544E+06  0.9118800E+02  0.7818608E-02  0.1180000E+00
       11   -1    0    0    0    0  0.00000000000E+00  0.00000000000E+00  0.39999999673E+01  0.40000000000E+01  0.51109989000E-03 0.  1.
     -623   -1    0    0    0    0  0.00000000000E+00  0.00000000000E+00  0.12525980253E-10  0.17130000000E+03  0.17130000000E+03 0. -1.
       11    1    1    2    0    0 -0.90048056106E-03  0.39710827772E-02  0.14755197015E-01  0.15315267652E-01  0.51109989000E-03 0.  1.
     -623    1    1    2    0    0 -0.29505347350E-02 -0.29961877549E-02  0.18170821175E-02  0.17130000006E+03  0.17130000000E+03 0. -1.
      622    1    1    2    0    0  0.38510152961E-02 -0.97489502238E-03  0.39834276882E+01  0.39846846711E+01  0.10000000000E+00 0.  1.
</event>
<event>
 5   0  0.6262544E+06  0.9118800E+02  0.7818608E-02  0.1180000E+00
       11   -1    0    0    0    0  0.00000000000E+00  0.00000000000E+00  0.39999999673E+01  0.40000000000E+01  0.51109989000E-03 0.  1.
     -623   -1    0    0    0    0  0.00000000000E+00  0.00000000000E+00  0.12525980253E-10  0.17130000000E+03  0.17130000000E+03 0. -1.
       11    1    1    2    0    0  0.13532317410E-02 -0.20547854196E-03  0.55990691922E-02  0.57865582597E-02  0.51109989000E-03 0.  1.
     -623    1    1    2    0    0 -0.11481677687E-03 -0.33874481813E-03  0.14396991307E-02  0.17130000001E+03  0.17130000000E+03 0. -1.
      622    1    1    2    0    0 -0.12384149642E-02  0.54422336009E-03  0.39929611990E+01  0.39942134353E+01  0.10000000000E+00 0.  1.
</event>
<event>
 5   0  0.6262544E+06  0.9118800E+02  0.7818608E-02  0.1180000E+00
       11   -1    0    0    0    0  0.00000000000E+00  0.00000000000E+00  0.39999999673E+01  0.40000000000E+01  0.51109989000E-03 0. -1.
     -623   -1    0    0    0    0  0.00000000000E+00  0.00000000000E+00  0.12525980253E-10  0.17130000000E+03  0.17130000000E+03 0.  1.
       11    1    1    2    0    0 -0.34902383362E-02  0.23326147168E-02  0.66190757648E+00  0.66192108584E+00  0.51109989000E-03 0. -1.
     -623    1    1    2    0    0  0.35919009440E-03  0.16568832662E-02  0.15155497398E-02  0.17130000002E+03  0.17130000000E+03 0.  1.
      622    1    1    2    0    0  0.31310482418E-02 -0.39894979831E-02  0.33365768412E+01  0.33380788991E+01  0.10000000000E+00 0. -1.
</event>
<event>
 5   0  0.6262544E+06  0.9118800E+02  0.7818608E-02  0.1180000E+00
       11   -1    0    0    0    0  0.00000000000E+00  0.00000000000E+00  0.39999999673E+01  0.40000000000E+01  0.51109989000E-03 0.  1.
     -623   -1    0    0    0    0  0.00000000000E+00  0.00000000000E+00  0.12525980253E-10  0.17130000000E+03  0.17130000000E+03 0.  1.
       11    1    1    2    0    0 -0.94372367113E-03  0.20448928361E-02  0.10291156554E+00  0.10293747493E+00  0.51109989000E-03 0.  1.
     -623    1    1    2    0    0 -0.12016221669E-02 -0.81044879212E-03  0.13099030909E-02  0.17130000001E+03  0.17130000000E+03 0.  1.
      622    1    1    2    0    0  0.21453458380E-02 -0.12344440439E-02  0.38957784987E+01  0.38970625139E+01  0.10000000000E+00 0.  1.
</event>
<event>
 5   0  0.6262544E+06  0.9118800E+02  0.7818608E-02  0.1180000E+00
       11   -1    0    0    0    0  0.00000000000E+00  0.00000000000E+00  0.39999999673E+01  0.40000000000E+01  0.51109989000E-03 0. -1.
     -623   -1    0    0    0    0  0.00000000000E+00  0.00000000000E+00  0.12525980253E-10  0.17130000000E+03  0.17130000000E+03 0. -1.
       11    1    1    2    0    0  0.47724228944E-02  0.10989060491E-02  0.11020445801E+00  0.11031440251E+00  0.51109989000E-03 0. -1.
     -623    1    1    2    0    0 -0.52628030383E-02 -0.20435314947E-02  0.13958196985E-02  0.17130000010E+03  0.17130000000E+03 0. -1.
      622    1    1    2    0    0  0.49038014378E-03  0.94462544562E-03  0.38883996896E+01  0.38896854987E+01  0.10000000000E+00 0. -1.
</event>
<event>
 5   0  0.6262544E+06  0.9118800E+02  0.7818608E-02  0.1180000E+00
       11   -1    0    0    0    0  0.00000000000E+00  0.00000000000E+00  0.39999999673E+01  0.40000000000E+01  0.51109989000E-03 0. -1.
     -623   -1    0    0    0    0  0.00000000000E+00  0.00000000000E+00  0.12525980253E-10  0.17130000000E+03  0.17130000000E+03 0.  1.
       11    1    1    2    0    0  0.17034784882E-02  0.42718333621E-02  0.22699269150E+00  0.22703985028E+00  0.51109989000E-03 0. -1.
     -623    1    1    2    0    0 -0.10946981273E-01 -0.11299022141E-01  0.13911801257E-02  0.17130000073E+03  0.17130000000E+03 0.  1.
      622    1    1    2    0    0  0.92435027851E-02  0.70271887786E-02  0.37716160957E+01  0.37729594216E+01  0.10000000000E+00 0. -1.
</event>
<event>
 5   0  0.6262544E+06  0.9118800E+02  0.7818608E-02  0.1180000E+00
       11   -1    0    0    0    0  0.00000000000E+00  0.00000000000E+00  0.39999999673E+01  0.40000000000E+01  0.51109989000E-03 0.  1.
     -623   -1    0    0    0    0  0.00000000000E+00  0.00000000000E+00  0.12525980253E-10  0.17130000000E+03  0.17130000000E+03 0. -1.
       11    1    1    2    0    0 -0.13773278333E-01 -0.25529340640E-02  0.47781389894E-01  0.49795010892E-01  0.51109989000E-03 0.  1.
     -623    1    1    2    0    0 -0.17592138651E-01  0.32615020279E-02  0.34051461799E-02  0.17130000097E+03  0.17130000000E+03 0. -1.
      622    1    1    2    0    0  0.31365416984E-01 -0.70856796389E-03  0.39488134313E+01  0.39502040209E+01  0.10000000000E+00 0.  1.
</event>
<event>
 5   0  0.6262544E+06  0.9118800E+02  0.7818608E-02  0.1180000E+00
       11   -1    0    0    0    0  0.00000000000E+00  0.00000000000E+00  0.39999999673E+01  0.40000000000E+01  0.51109989000E-03 0.  1.
     -623   -1    0    0    0    0  0.00000000000E+00  0.00000000000E+00  0.12525980253E-10  0.17130000000E+03  0.17130000000E+03 0. -1.
       11    1    1    2    0    0 -0.37957537877E-03 -0.29298008160E-02  0.14096343715E-01  0.14411659846E-01  0.51109989000E-03 0.  1.
     -623    1    1    2    0    0 -0.27928875949E-02 -0.29369945528E-02  0.15756384740E-02  0.17130000006E+03  0.17130000000E+03 0. -1.
      622    1    1    2    0    0  0.31724629735E-02  0.58667953687E-02  0.39843279851E+01  0.39855882848E+01  0.10000000000E+00 0.  1.
</event>
<event>
 5   0  0.6262544E+06  0.9118800E+02  0.7818608E-02  0.1180000E+00
       11   -1    0    0    0    0  0.00000000000E+00  0.00000000000E+00  0.39999999673E+01  0.40000000000E+01  0.51109989000E-03 0.  1.
     -623   -1    0    0    0    0  0.00000000000E+00  0.00000000000E+00  0.12525980253E-10  0.17130000000E+03  0.17130000000E+03 0.  1.
       11    1    1    2    0    0 -0.88426123253E-02 -0.17380612135E-01  0.33452209450E-01  0.38724527242E-01  0.51109989000E-03 0.  1.
     -623    1    1    2    0    0  0.32714162867E-01  0.17219266194E-01  0.66107788111E-02  0.17130000412E+03  0.17130000000E+03 0.  1.
      622    1    1    2    0    0 -0.23871550542E-01  0.16134594138E-03  0.39599369791E+01  0.39612713559E+01  0.10000000000E+00 0.  1.
</event>
<event>
 5   0  0.6262544E+06  0.9118800E+02  0.7818608E-02  0.1180000E+00
       11   -1    0    0    0    0  0.00000000000E+00  0.00000000000E+00  0.39999999673E+01  0.40000000000E+01  0.51109989000E-03 0.  1.
     -623   -1    0    0    0    0  0.00000000000E+00  0.00000000000E+00  0.12525980253E-10  0.17130000000E+03  0.17130000000E+03 0.  1.
       11    1    1    2    0    0  0.36661948703E-01  0.65323813255E-02  0.39454960176E+00  0.39630344429E+00  0.51109989000E-03 0.  1.
     -623    1    1    2    0    0 -0.27780814270E-02 -0.81754883930E-02  0.33015275370E-02  0.17130000025E+03  0.17130000000E+03 0.  1.
      622    1    1    2    0    0 -0.33883867276E-01  0.16431070676E-02  0.36021488381E+01  0.36036963063E+01  0.10000000000E+00 0.  1.
</event>
<event>
 5   0  0.6262544E+06  0.9118800E+02  0.7818608E-02  0.1180000E+00
       11   -1    0    0    0    0  0.00000000000E+00  0.00000000000E+00  0.39999999673E+01  0.40000000000E+01  0.51109989000E-03 0.  1.
     -623   -1    0    0    0    0  0.00000000000E+00  0.00000000000E+00  0.12525980253E-10  0.17130000000E+03  0.17130000000E+03 0.  1.
       11    1    1    2    0    0 -0.24419219962E-02 -0.37271059203E-02  0.18326240852E+00  0.18331728205E+00  0.51109989000E-03 0.  1.
     -623    1    1    2    0    0 -0.45762360257E-02  0.15629401884E-02  0.13722462744E-02  0.17130000007E+03  0.17130000000E+03 0.  1.
      622    1    1    2    0    0  0.70181580219E-02  0.21641657319E-02  0.38153653126E+01  0.38166826442E+01  0.10000000000E+00 0.  1.
</event>
<event>
 5   0  0.6262544E+06  0.9118800E+02  0.7818608E-02  0.1180000E+00
       11   -1    0    0    0    0  0.00000000000E+00  0.00000000000E+00  0.39999999673E+01  0.40000000000E+01  0.51109989000E-03 0.  1.
     -623   -1    0    0    0    0  0.00000000000E+00  0.00000000000E+00  0.12525980253E-10  0.17130000000E+03  0.17130000000E+03 0. -1.
       11    1    1    2    0    0  0.18472593145E-01  0.25426987228E-02  0.11867750247E+00  0.12013456135E+00  0.51109989000E-03 0.  1.
     -623    1    1    2    0    0 -0.16482384005E-01  0.11981517151E-01  0.27748850334E-02  0.17130000123E+03  0.17130000000E+03 0. -1.
      622    1    1    2    0    0 -0.19902091394E-02 -0.14524215874E-01  0.38785475799E+01  0.38798642043E+01  0.10000000000E+00 0.  1.
</event>
<event>
 5   0  0.6262544E+06  0.9118800E+02  0.7818608E-02  0.1180000E+00
       11   -1    0    0    0    0  0.00000000000E+00  0.00000000000E+00  0.39999999673E+01  0.40000000000E+01  0.51109989000E-03 0. -1.
     -623   -1    0    0    0    0  0.00000000000E+00  0.00000000000E+00  0.12525980253E-10  0.17130000000E+03  0.17130000000E+03 0. -1.
       11    1    1    2    0    0 -0.38531527930E-02  0.10292846588E-01  0.21455024778E-01  0.24111590290E-01  0.51109989000E-03 0. -1.
     -623    1    1    2    0    0  0.65593498724E-02 -0.88008652549E-02  0.39159102460E-02  0.17130000040E+03  0.17130000000E+03 0. -1.
      622    1    1    2    0    0 -0.27061970794E-02 -0.14919813327E-02  0.39746290323E+01  0.39758880133E+01  0.10000000000E+00 0. -1.
</event>
<event>
 5   0  0.6262544E+06  0.9118800E+02  0.7818608E-02  0.1180000E+00
       11   -1    0    0    0    0  0.00000000000E+00  0.00000000000E+00  0.39999999673E+01  0.40000000000E+01  0.51109989000E-03 0. -1.
     -623   -1    0    0    0    0  0.00000000000E+00  0.00000000000E+00  0.12525980253E-10  0.17130000000E+03  0.17130000000E+03 0.  1.
       11    1    1    2    0    0  0.11198215130E-01  0.10696595043E-01  0.12195613125E+00  0.12293647277E+00  0.51109989000E-03 0. -1.
     -623    1    1    2    0    0  0.51704661169E-03 -0.42049330283E-02  0.22933694495E-02  0.17130000007E+03  0.17130000000E+03 0.  1.
      622    1    1    2    0    0 -0.11715261742E-01 -0.64916620149E-02  0.38757504667E+01  0.38770634595E+01  0.10000000000E+00 0. -1.
</event>
<event>
 5   0  0.6262544E+06  0.9118800E+02  0.7818608E-02  0.1180000E+00
       11   -1    0    0    0    0  0.00000000000E+00  0.00000000000E+00  0.39999999673E+01  0.40000000000E+01  0.51109989000E-03 0. -1.
     -623   -1    0    0    0    0  0.00000000000E+00  0.00000000000E+00  0.12525980253E-10  0.17130000000E+03  0.17130000000E+03 0.  1.
       11    1    1    2    0    0  0.48638639629E-02 -0.22966161106E-02  0.26051568481E+00  0.26057170773E+00  0.51109989000E-03 0. -1.
     -623    1    1    2    0    0  0.27666476578E-02  0.91491328837E-03  0.14014061320E-02  0.17130000003E+03  0.17130000000E+03 0.  1.
      622    1    1    2    0    0 -0.76305116207E-02  0.13817028223E-02  0.37380828764E+01  0.37394282618E+01  0.10000000000E+00 0. -1.
</event>
<event>
 5   0  0.6262544E+06  0.9118800E+02  0.7818608E-02  0.1180000E+00
       11   -1    0    0    0    0  0.00000000000E+00  0.00000000000E+00  0.39999999673E+01  0.40000000000E+01  0.51109989000E-03 0. -1.
     -623   -1    0    0    0    0  0.00000000000E+00  0.00000000000E+00  0.12525980253E-10  0.17130000000E+03  0.17130000000E+03 0. -1.
       11    1    1    2    0    0  0.19013969360E-01  0.14144873249E-01  0.25066111421E+00  0.25177939524E+00  0.51109989000E-03 0. -1.
     -623    1    1    2    0    0 -0.17604945899E-01 -0.24055089830E-01  0.24684353518E-02  0.17130000261E+03  0.17130000000E+03 0. -1.
      622    1    1    2    0    0 -0.14090234613E-02  0.99102165803E-02  0.37468704178E+01  0.37482179933E+01  0.10000000000E+00 0. -1.
</event>
<event>
 5   0  0.6262544E+06  0.9118800E+02  0.7818608E-02  0.1180000E+00
       11   -1    0    0    0    0  0.00000000000E+00  0.00000000000E+00  0.39999999673E+01  0.40000000000E+01  0.51109989000E-03 0. -1.
     -623   -1    0    0    0    0  0.00000000000E+00  0.00000000000E+00  0.12525980253E-10  0.17130000000E+03  0.17130000000E+03 0. -1.
       11    1    1    2    0    0  0.62820346850E-02  0.44288129782E-02  0.32029912858E+00  0.32039174667E+00  0.51109989000E-03 0. -1.
     -623    1    1    2    0    0 -0.35035309268E-02  0.10349225586E-01  0.14827680491E-02  0.17130000035E+03  0.17130000000E+03 0. -1.
      622    1    1    2    0    0 -0.27785037579E-02 -0.14778038564E-01  0.36782180710E+01  0.36796078987E+01  0.10000000000E+00 0. -1.
</event>
<event>
 5   0  0.6262544E+06  0.9118800E+02  0.7818608E-02  0.1180000E+00
       11   -1    0    0    0    0  0.00000000000E+00  0.00000000000E+00  0.39999999673E+01  0.40000000000E+01  0.51109989000E-03 0.  1.
     -623   -1    0    0    0    0  0.00000000000E+00  0.00000000000E+00  0.12525980253E-10  0.17130000000E+03  0.17130000000E+03 0. -1.
       11    1    1    2    0    0  0.17235743116E-01 -0.52877883933E-02  0.96306034468E-01  0.97980329874E-01  0.51109989000E-03 0.  1.
     -623    1    1    2    0    0  0.63744747764E-01  0.17096192511E-01  0.38271817101E-02  0.17130001276E+03  0.17130000000E+03 0. -1.
      622    1    1    2    0    0 -0.80980490879E-01 -0.11808404118E-01  0.38998667512E+01  0.39020069138E+01  0.10000000000E+00 0.  0.
</event>
<event>
 5   0  0.6262544E+06  0.9118800E+02  0.7818608E-02  0.1180000E+00
       11   -1    0    0    0    0  0.00000000000E+00  0.00000000000E+00  0.39999999673E+01  0.40000000000E+01  0.51109989000E-03 0.  1.
     -623   -1    0    0    0    0  0.00000000000E+00  0.00000000000E+00  0.12525980253E-10  0.17130000000E+03  0.17130000000E+03 0.  1.
       11    1    1    2    0    0 -0.71028139100E-02 -0.10418703648E-02  0.15548413578E-01  0.17133296394E-01  0.51109989000E-03 0.  1.
     -623    1    1    2    0    0  0.10412177822E-02  0.21201616950E-02  0.28452252892E-02  0.17130000004E+03  0.17130000000E+03 0.  1.
      622    1    1    2    0    0  0.60615961278E-02 -0.10782913302E-02  0.39816063285E+01  0.39828666637E+01  0.10000000000E+00 0.  1.
</event>
<event>
 5   0  0.6262544E+06  0.9118800E+02  0.7818608E-02  0.1180000E+00
       11   -1    0    0    0    0  0.00000000000E+00  0.00000000000E+00  0.39999999673E+01  0.40000000000E+01  0.51109989000E-03 0.  1.
     -623   -1    0    0    0    0  0.00000000000E+00  0.00000000000E+00  0.12525980253E-10  0.17130000000E+03  0.17130000000E+03 0.  1.
       11    1    1    2    0    0 -0.96953088228E-02 -0.53960064608E-01  0.19830597670E+00  0.20574549619E+00  0.51109989000E-03 0.  1.
     -623    1    1    2    0    0  0.23046641624E-01 -0.12737660315E-02  0.91849878812E-02  0.17130000180E+03  0.17130000000E+03 0.  1.
      622    1    1    2    0    0 -0.13351332801E-01  0.55233830639E-01  0.37925090028E+01  0.37942527025E+01  0.10000000000E+00 0.  1.
</event>
<event>
 5   0  0.6262544E+06  0.9118800E+02  0.7818608E-02  0.1180000E+00
       11   -1    0    0    0    0  0.00000000000E+00  0.00000000000E+00  0.39999999673E+01  0.40000000000E+01  0.51109989000E-03 0.  1.
     -623   -1    0    0    0    0  0.00000000000E+00  0.00000000000E+00  0.12525980253E-10  0.17130000000E+03  0.17130000000E+03 0. -1.
       11    1    1    2    0    0  0.79634197696E-02  0.27927214934E-02  0.15429977727E+00  0.15453121961E+00  0.51109989000E-03 0.  1.
     -623    1    1    2    0    0 -0.20062498265E-02 -0.79786607597E-02  0.15401795770E-02  0.17130000020E+03  0.17130000000E+03 0. -1.
      622    1    1    2    0    0 -0.59571699431E-02  0.51859392663E-02  0.38441600105E+01  0.38454685759E+01  0.10000000000E+00 0.  1.
</event>
<event>
 5   0  0.6262544E+06  0.9118800E+02  0.7818608E-02  0.1180000E+00
       11   -1    0    0    0    0  0.00000000000E+00  0.00000000000E+00  0.39999999673E+01  0.40000000000E+01  0.51109989000E-03 0. -1.
     -623   -1    0    0    0    0  0.00000000000E+00  0.00000000000E+00  0.12525980253E-10  0.17130000000E+03  0.17130000000E+03 0.  1.
       11    1    1    2    0    0 -0.10493136189E-01 -0.66917843863E-02  0.63537069185E+00  0.63549277193E+00  0.51109989000E-03 0. -1.
     -623    1    1    2    0    0 -0.27602399417E-02  0.53460992750E-02  0.16349755710E-02  0.17130000011E+03  0.17130000000E+03 0.  1.
      622    1    1    2    0    0  0.13253376130E-01  0.13456851113E-02  0.33629942999E+01  0.33645071146E+01  0.10000000000E+00 0. -1.
</event>
<event>
 5   0  0.6262544E+06  0.9118800E+02  0.7818608E-02  0.1180000E+00
       11   -1    0    0    0    0  0.00000000000E+00  0.00000000000E+00  0.39999999673E+01  0.40000000000E+01  0.51109989000E-03 0. -1.
     -623   -1    0    0    0    0  0.00000000000E+00  0.00000000000E+00  0.12525980253E-10  0.17130000000E+03  0.17130000000E+03 0. -1.
       11    1    1    2    0    0 -0.73393953243E-02  0.86612984849E-02  0.71096685407E-01  0.71999199386E-01  0.51109989000E-03 0. -1.
     -623    1    1    2    0    0  0.35064309964E-03 -0.99327391295E-02  0.21823272549E-02  0.17130000030E+03  0.17130000000E+03 0. -1.
      622    1    1    2    0    0  0.69887522247E-02  0.12714406446E-02  0.39267209547E+01  0.39280004984E+01  0.10000000000E+00 0. -1.
</event>
<event>
 5   0  0.6262544E+06  0.9118800E+02  0.7818608E-02  0.1180000E+00
       11   -1    0    0    0    0  0.00000000000E+00  0.00000000000E+00  0.39999999673E+01  0.40000000000E+01  0.51109989000E-03 0. -1.
     -623   -1    0    0    0    0  0.00000000000E+00  0.00000000000E+00  0.12525980253E-10  0.17130000000E+03  0.17130000000E+03 0. -1.
       11    1    1    2    0    0  0.57565740368E-01 -0.53352725534E-01  0.65060974135E+00  0.65532711263E+00  0.51109989000E-03 0. -1.
     -623    1    1    2    0    0 -0.15918749731E-01  0.44691379481E-02  0.68303689819E-02  0.17130000093E+03  0.17130000000E+03 0. -1.
      622    1    1    2    0    0 -0.41646990637E-01  0.48883587586E-01  0.33425598570E+01  0.33446719532E+01  0.10000000000E+00 0. -1.
</event>
<event>
 5   0  0.6262544E+06  0.9118800E+02  0.7818608E-02  0.1180000E+00
       11   -1    0    0    0    0  0.00000000000E+00  0.00000000000E+00  0.39999999673E+01  0.40000000000E+01  0.51109989000E-03 0.  1.
     -623   -1    0    0    0    0  0.00000000000E+00  0.00000000000E+00  0.12525980253E-10  0.17130000000E+03  0.17130000000E+03 0.  1.
       11    1    1    2    0    0 -0.90432910362E-02 -0.64356447859E-02  0.17337445472E-01  0.20592398435E-01  0.51109989000E-03 0.  1.
     -623    1    1    2    0    0 -0.11095284135E-02  0.15270464382E-02  0.45276415298E-02  0.17130000007E+03  0.17130000000E+03 0.  1.
      622    1    1    2    0    0  0.10152819450E-01  0.49085983477E-02  0.39781348804E+01  0.39794075313E+01  0.10000000000E+00 0.  1.
</event>
<event>
 5   0  0.6262544E+06  0.9118800E+02  0.7818608E-02  0.1180000E+00
       11   -1    0    0    0    0  0.00000000000E+00  0.00000000000E+00  0.39999999673E+01  0.40000000000E+01  0.51109989000E-03 0. -1.
     -623   -1    0    0    0    0  0.00000000000E+00  0.00000000000E+00  0.12525980253E-10  0.17130000000E+03  0.17130000000E+03 0.  1.
       11    1    1    2    0    0  0.15502309011E-01 -0.12517317794E-01  0.39292798615E+00  0.39343318156E+00  0.51109989000E-03 0. -1.
     -623    1    1    2    0    0 -0.12667740396E-01  0.28680861823E-02  0.19063199488E-02  0.17130000050E+03  0.17130000000E+03 0.  1.
      622    1    1    2    0    0 -0.28345686151E-02  0.96492316117E-02  0.36051656613E+01  0.36065663154E+01  0.10000000000E+00 0. -1.
</event>
<event>
 5   0  0.6262544E+06  0.9118800E+02  0.7818608E-02  0.1180000E+00
       11   -1    0    0    0    0  0.00000000000E+00  0.00000000000E+00  0.39999999673E+01  0.40000000000E+01  0.51109989000E-03 0.  1.
     -623   -1    0    0    0    0  0.00000000000E+00  0.00000000000E+00  0.12525980253E-10  0.17130000000E+03  0.17130000000E+03 0.  1.
       11    1    1    2    0    0  0.20127294099E-03 -0.19887598915E-02  0.19288572519E-01  0.19398606383E-01  0.51109989000E-03 0.  1.
     -623    1    1    2    0    0 -0.95083893394E-02 -0.31688126658E-02  0.13808162950E-02  0.17130000030E+03  0.17130000000E+03 0.  1.
      622    1    1    2    0    0  0.93071163991E-02  0.51575725575E-02  0.39793305788E+01  0.39806010951E+01  0.10000000000E+00 0.  1.
</event>
<event>
 5   0  0.6262544E+06  0.9118800E+02  0.7818608E-02  0.1180000E+00
       11   -1    0    0    0    0  0.00000000000E+00  0.00000000000E+00  0.39999999673E+01  0.40000000000E+01  0.51109989000E-03 0. -1.
     -623   -1    0    0    0    0  0.00000000000E+00  0.00000000000E+00  0.12525980253E-10  0.17130000000E+03  0.17130000000E+03 0.  1.
       11    1    1    2    0    0  0.23927965385E-02 -0.31732114968E-01  0.14881228409E+00  0.15217755983E+00  0.51109989000E-03 0. -1.
     -623    1    1    2    0    0 -0.49512185984E-02 -0.36052147517E-02  0.48282496697E-02  0.17130000018E+03  0.17130000000E+03 0.  1.
      622    1    1    2    0    0  0.25584220598E-02  0.35337329720E-01  0.38463594336E+01  0.38478222626E+01  0.10000000000E+00 0. -1.
</event>
<event>
 5   0  0.6262544E+06  0.9118800E+02  0.7818608E-02  0.1180000E+00
       11   -1    0    0    0    0  0.00000000000E+00  0.00000000000E+00  0.39999999673E+01  0.40000000000E+01  0.51109989000E-03 0. -1.
     -623   -1    0    0    0    0  0.00000000000E+00  0.00000000000E+00  0.12525980253E-10  0.17130000000E+03  0.17130000000E+03 0.  1.
       11    1    1    2    0    0  0.12939191105E-02  0.64157946192E-03  0.62862245839E-02  0.64702158764E-02  0.51109989000E-03 0. -1.
     -623    1    1    2    0    0  0.37787776895E-03 -0.12016231325E-02  0.14365801750E-02  0.17130000001E+03  0.17130000000E+03 0.  1.
      622    1    1    2    0    0 -0.16717968795E-02  0.56004367062E-03  0.39922771626E+01  0.39935297735E+01  0.10000000000E+00 0. -1.
</event>
<event>
 5   0  0.6262544E+06  0.9118800E+02  0.7818608E-02  0.1180000E+00
       11   -1    0    0    0    0  0.00000000000E+00  0.00000000000E+00  0.39999999673E+01  0.40000000000E+01  0.51109989000E-03 0. -1.
     -623   -1    0    0    0    0  0.00000000000E+00  0.00000000000E+00  0.12525980253E-10  0.17130000000E+03  0.17130000000E+03 0.  1.
       11    1    1    2    0    0  0.21580685932E-02  0.56948154913E-03  0.41719541860E-02  0.47589908716E-02  0.51109989000E-03 0. -1.
     -623    1    1    2    0    0 -0.69846478763E-02 -0.30939198956E-03  0.18417665352E-02  0.17130000015E+03  0.17130000000E+03 0.  1.
      622    1    1    2    0    0  0.48265792833E-02 -0.26008955956E-03  0.39939862467E+01  0.39952408567E+01  0.10000000000E+00 0. -1.
</event>
<event>
 5   0  0.6262544E+06  0.9118800E+02  0.7818608E-02  0.1180000E+00
       11   -1    0    0    0    0  0.00000000000E+00  0.00000000000E+00  0.39999999673E+01  0.40000000000E+01  0.51109989000E-03 0. -1.
     -623   -1    0    0    0    0  0.00000000000E+00  0.00000000000E+00  0.12525980253E-10  0.17130000000E+03  0.17130000000E+03 0.  1.
       11    1    1    2    0    0  0.70791559497E-02 -0.15284912226E-01  0.32397347442E+00  0.32441149231E+00  0.51109989000E-03 0. -1.
     -623    1    1    2    0    0  0.98514363201E-02  0.27123193781E-02  0.18593970701E-02  0.17130000031E+03  0.17130000000E+03 0.  1.
      622    1    1    2    0    0 -0.16930592270E-01  0.12572592848E-01  0.36741670958E+01  0.36755881928E+01  0.10000000000E+00 0. -1.
</event>
<event>
 5   0  0.6262544E+06  0.9118800E+02  0.7818608E-02  0.1180000E+00
       11   -1    0    0    0    0  0.00000000000E+00  0.00000000000E+00  0.39999999673E+01  0.40000000000E+01  0.51109989000E-03 0.  1.
     -623   -1    0    0    0    0  0.00000000000E+00  0.00000000000E+00  0.12525980253E-10  0.17130000000E+03  0.17130000000E+03 0. -1.
       11    1    1    2    0    0  0.16065758162E-03 -0.81952812073E-02  0.28066351154E-01  0.29243285300E-01  0.51109989000E-03 0.  1.
     -623    1    1    2    0    0  0.79428607099E-02  0.61916190438E-02  0.24453978079E-02  0.17130000031E+03  0.17130000000E+03 0. -1.
      622    1    1    2    0    0 -0.81035182915E-02  0.20036621635E-02  0.39694882184E+01  0.39707564012E+01  0.10000000000E+00 0.  1.
</event>
<event>
 5   0  0.6262544E+06  0.9118800E+02  0.7818608E-02  0.1180000E+00
       11   -1    0    0    0    0  0.00000000000E+00  0.00000000000E+00  0.39999999673E+01  0.40000000000E+01  0.51109989000E-03 0.  1.
     -623   -1    0    0    0    0  0.00000000000E+00  0.00000000000E+00  0.12525980253E-10  0.17130000000E+03  0.17130000000E+03 0. -1.
       11    1    1    2    0    0 -0.89597131454E-02  0.19059396965E-01  0.36222597032E+00  0.36283805185E+00  0.51109989000E-03 0.  1.
     -623    1    1    2    0    0  0.56281235198E-02  0.23381669368E-03  0.20398280687E-02  0.17130000010E+03  0.17130000000E+03 0. -1.
      622    1    1    2    0    0  0.33315896253E-02 -0.19293213659E-01  0.36357341691E+01  0.36371618435E+01  0.10000000000E+00 0.  1.
</event>
<event>
 5   0  0.6262544E+06  0.9118800E+02  0.7818608E-02  0.1180000E+00
       11   -1    0    0    0    0  0.00000000000E+00  0.00000000000E+00  0.39999999673E+01  0.40000000000E+01  0.51109989000E-03 0.  1.
     -623   -1    0    0    0    0  0.00000000000E+00  0.00000000000E+00  0.12525980253E-10  0.17130000000E+03  0.17130000000E+03 0. -1.
       11    1    1    2    0    0 -0.62841443514E-02  0.34066513503E-02  0.15373208105E+00  0.15389902439E+00  0.51109989000E-03 0.  1.
     -623    1    1    2    0    0  0.33033780798E-02 -0.68966035467E-03  0.14693033722E-02  0.17130000004E+03  0.17130000000E+03 0. -1.
      622    1    1    2    0    0  0.29807662716E-02 -0.27169909956E-02  0.38447985830E+01  0.38461009361E+01  0.10000000000E+00 0.  1.
</event>
<event>
 5   0  0.6262544E+06  0.9118800E+02  0.7818608E-02  0.1180000E+00
       11   -1    0    0    0    0  0.00000000000E+00  0.00000000000E+00  0.39999999673E+01  0.40000000000E+01  0.51109989000E-03 0.  1.
     -623   -1    0    0    0    0  0.00000000000E+00  0.00000000000E+00  0.12525980253E-10  0.17130000000E+03  0.17130000000E+03 0. -1.
       11    1    1    2    0    0  0.50133639742E-02 -0.35123949933E-02  0.12288810111E-01  0.13738515639E-01  0.51109989000E-03 0.  1.
     -623    1    1    2    0    0 -0.14756456774E-01  0.17836140912E-02  0.27171306451E-02  0.17130000067E+03  0.17130000000E+03 0. -1.
      622    1    1    2    0    0  0.97430928002E-02  0.17287809020E-02  0.39849940266E+01  0.39862608179E+01  0.10000000000E+00 0.  1.
</event>
<event>
 5   0  0.6262544E+06  0.9118800E+02  0.7818608E-02  0.1180000E+00
       11   -1    0    0    0    0  0.00000000000E+00  0.00000000000E+00  0.39999999673E+01  0.40000000000E+01  0.51109989000E-03 0. -1.
     -623   -1    0    0    0    0  0.00000000000E+00  0.00000000000E+00  0.12525980253E-10  0.17130000000E+03  0.17130000000E+03 0. -1.
       11    1    1    2    0    0  0.11713789261E-02 -0.60080264634E-02  0.61654440570E-01  0.61959662489E-01  0.51109989000E-03 0. -1.
     -623    1    1    2    0    0 -0.14130652310E-02 -0.60632098854E-02  0.15936959935E-02  0.17130000012E+03  0.17130000000E+03 0. -1.
      622    1    1    2    0    0  0.24168630491E-03  0.12071236349E-01  0.39367518310E+01  0.39380402171E+01  0.10000000000E+00 0. -1.
</event>
<event>
 5   0  0.6262544E+06  0.9118800E+02  0.7818608E-02  0.1180000E+00
       11   -1    0    0    0    0  0.00000000000E+00  0.00000000000E+00  0.39999999673E+01  0.40000000000E+01  0.51109989000E-03 0. -1.
     -623   -1    0    0    0    0  0.00000000000E+00  0.00000000000E+00  0.12525980253E-10  0.17130000000E+03  0.17130000000E+03 0. -1.
       11    1    1    2    0    0  0.48885893594E-02  0.83019523144E-03  0.10947351319E+00  0.10958694649E+00  0.51109989000E-03 0. -1.
     -623    1    1    2    0    0  0.44718419952E-03  0.52353706760E-02  0.14073002530E-02  0.17130000009E+03  0.17130000000E+03 0. -1.
      622    1    1    2    0    0 -0.53357735589E-02 -0.60655659074E-02  0.38891191539E+01  0.38904129671E+01  0.10000000000E+00 0. -1.
</event>
<event>
 5   0  0.6262544E+06  0.9118800E+02  0.7818608E-02  0.1180000E+00
       11   -1    0    0    0    0  0.00000000000E+00  0.00000000000E+00  0.39999999673E+01  0.40000000000E+01  0.51109989000E-03 0. -1.
     -623   -1    0    0    0    0  0.00000000000E+00  0.00000000000E+00  0.12525980253E-10  0.17130000000E+03  0.17130000000E+03 0. -1.
       11    1    1    2    0    0 -0.47020327848E-02 -0.18858794197E-02  0.55854057948E-02  0.75580178940E-02  0.51109989000E-03 0. -1.
     -623    1    1    2    0    0  0.58531273189E-02  0.92239504424E-03  0.32255574742E-02  0.17130000013E+03  0.17130000000E+03 0. -1.
      622    1    1    2    0    0 -0.11510945340E-02  0.96348437546E-03  0.39911890040E+01  0.39924418492E+01  0.10000000000E+00 0. -1.
</event>
<event>
 5   0  0.6262544E+06  0.9118800E+02  0.7818608E-02  0.1180000E+00
       11   -1    0    0    0    0  0.00000000000E+00  0.00000000000E+00  0.39999999673E+01  0.40000000000E+01  0.51109989000E-03 0.  1.
     -623   -1    0    0    0    0  0.00000000000E+00  0.00000000000E+00  0.12525980253E-10  0.17130000000E+03  0.17130000000E+03 0.  1.
       11    1    1    2    0    0 -0.36605991693E-01 -0.30181009088E-02  0.16215198873E+01  0.16219359155E+01  0.51109989000E-03 0.  1.
     -623    1    1    2    0    0 -0.17922090865E-01 -0.21230690144E-04  0.31481781049E-02  0.17130000097E+03  0.17130000000E+03 0.  1.
      622    1    1    2    0    0  0.54528082558E-01  0.30393315990E-02  0.23753319019E+01  0.23780631181E+01  0.10000000000E+00 0.  0.
</event>
<event>
 5   0  0.6262544E+06  0.9118800E+02  0.7818608E-02  0.1180000E+00
       11   -1    0    0    0    0  0.00000000000E+00  0.00000000000E+00  0.39999999673E+01  0.40000000000E+01  0.51109989000E-03 0. -1.
     -623   -1    0    0    0    0  0.00000000000E+00  0.00000000000E+00  0.12525980253E-10  0.17130000000E+03  0.17130000000E+03 0.  1.
       11    1    1    2    0    0  0.10767329762E-01 -0.28062140750E-02  0.13737828931E+00  0.13782911820E+00  0.51109989000E-03 0. -1.
     -623    1    1    2    0    0 -0.12826735115E-01  0.27545602291E-03  0.17474902092E-02  0.17130000049E+03  0.17130000000E+03 0.  1.
      622    1    1    2    0    0  0.20594053529E-02  0.25307580521E-02  0.38608741878E+01  0.38621703924E+01  0.10000000000E+00 0. -1.
</event>
<event>
 5   0  0.6262544E+06  0.9118800E+02  0.7818608E-02  0.1180000E+00
       11   -1    0    0    0    0  0.00000000000E+00  0.00000000000E+00  0.39999999673E+01  0.40000000000E+01  0.51109989000E-03 0.  1.
     -623   -1    0    0    0    0  0.00000000000E+00  0.00000000000E+00  0.12525980253E-10  0.17130000000E+03  0.17130000000E+03 0.  1.
       11    1    1    2    0    0  0.47139193708E-02  0.18933457694E-02 -0.18869969030E-02  0.54431401274E-02  0.51109989000E-03 0.  1.
     -623    1    1    2    0    0 -0.84829315199E-02  0.17477528894E-02  0.85858767651E-02  0.17130000043E+03  0.17130000000E+03 0.  1.
      622    1    1    2    0    0  0.37690121491E-02 -0.36410986588E-02  0.39933010875E+01  0.39945564258E+01  0.10000000000E+00 0.  1.
</event>
<event>
 5   0  0.6262544E+06  0.9118800E+02  0.7818608E-02  0.1180000E+00
       11   -1    0    0    0    0  0.00000000000E+00  0.00000000000E+00  0.39999999673E+01  0.40000000000E+01  0.51109989000E-03 0. -1.
     -623   -1    0    0    0    0  0.00000000000E+00  0.00000000000E+00  0.12525980253E-10  0.17130000000E+03  0.17130000000E+03 0. -1.
       11    1    1    2    0    0  0.53619048841E-01 -0.18534786392E-01  0.15018879849E+01  0.15029591881E+01  0.51109989000E-03 0. -1.
     -623    1    1    2    0    0 -0.15362614627E-01  0.63106798940E-01  0.37782244203E-02  0.17130001235E+03  0.17130000000E+03 0. -1.
      622    1    1    2    0    0 -0.38256434214E-01 -0.44572012550E-01  0.24943337581E+01  0.24970284572E+01  0.10000000000E+00 0. -1.
</event>
<event>
 5   0  0.6262544E+06  0.9118800E+02  0.7818608E-02  0.1180000E+00
       11   -1    0    0    0    0  0.00000000000E+00  0.00000000000E+00  0.39999999673E+01  0.40000000000E+01  0.51109989000E-03 0.  1.
     -623   -1    0    0    0    0  0.00000000000E+00  0.00000000000E+00  0.12525980253E-10  0.17130000000E+03  0.17130000000E+03 0. -1.
       11    1    1    2    0    0 -0.53676284277E-02  0.22273568528E-02  0.17280973290E+00  0.17290817667E+00  0.51109989000E-03 0.  1.
     -623    1    1    2    0    0  0.38696488076E-03 -0.55571731381E-02  0.14098968292E-02  0.17130000010E+03  0.17130000000E+03 0. -1.
      622    1    1    2    0    0  0.49806635469E-02  0.33298162853E-02  0.38257803376E+01  0.38270917270E+01  0.10000000000E+00 0.  1.
</event>
<event>
 5   0  0.6262544E+06  0.9118800E+02  0.7818608E-02  0.1180000E+00
       11   -1    0    0    0    0  0.00000000000E+00  0.00000000000E+00  0.39999999673E+01  0.40000000000E+01  0.51109989000E-03 0. -1.
     -623   -1    0    0    0    0  0.00000000000E+00  0.00000000000E+00  0.12525980253E-10  0.17130000000E+03  0.17130000000E+03 0. -1.
       11    1    1    2    0    0  0.18426881643E-03 -0.48938914783E-03  0.13569185746E-01  0.13588873367E-01  0.51109989000E-03 0. -1.
     -623    1    1    2    0    0 -0.59059995492E-03  0.24094856344E-02  0.12746193488E-02  0.17130000002E+03  0.17130000000E+03 0. -1.
      622    1    1    2    0    0  0.40633113850E-03 -0.19200964866E-02  0.39851561623E+01  0.39864111039E+01  0.10000000000E+00 0. -1.
</event>
<event>
 5   0  0.6262544E+06  0.9118800E+02  0.7818608E-02  0.1180000E+00
       11   -1    0    0    0    0  0.00000000000E+00  0.00000000000E+00  0.39999999673E+01  0.40000000000E+01  0.51109989000E-03 0. -1.
     -623   -1    0    0    0    0  0.00000000000E+00  0.00000000000E+00  0.12525980253E-10  0.17130000000E+03  0.17130000000E+03 0. -1.
       11    1    1    2    0    0  0.16260685363E-01  0.59571230993E-01  0.17368353278E+01  0.17379327831E+01  0.51109989000E-03 0. -1.
     -623    1    1    2    0    0 -0.19261204773E-01  0.12587962084E-02  0.41308520497E-02  0.17130000114E+03  0.17130000000E+03 0. -1.
      622    1    1    2    0    0  0.30005194098E-02 -0.60830027202E-01  0.22590337876E+01  0.22620660796E+01  0.10000000000E+00 0.  1.
</event>
<event>
 5   0  0.6262544E+06  0.9118800E+02  0.7818608E-02  0.1180000E+00
       11   -1    0    0    0    0  0.00000000000E+00  0.00000000000E+00  0.39999999673E+01  0.40000000000E+01  0.51109989000E-03 0. -1.
     -623   -1    0    0    0    0  0.00000000000E+00  0.00000000000E+00  0.12525980253E-10  0.17130000000E+03  0.17130000000E+03 0.  1.
       11    1    1    2    0    0  0.31205813369E-03 -0.15976189259E-01  0.27415424040E+00  0.27462000065E+00  0.51109989000E-03 0. -1.
     -623    1    1    2    0    0 -0.19558404050E-02  0.52866238841E-02  0.18239215199E-02  0.17130000010E+03  0.17130000000E+03 0.  1.
      622    1    1    2    0    0  0.16437822714E-02  0.10689565375E-01  0.37240218056E+01  0.37253798971E+01  0.10000000000E+00 0. -1.
</event>
<event>
 5   0  0.6262544E+06  0.9118800E+02  0.7818608E-02  0.1180000E+00
       11   -1    0    0    0    0  0.00000000000E+00  0.00000000000E+00  0.39999999673E+01  0.40000000000E+01  0.51109989000E-03 0. -1.
     -623   -1    0    0    0    0  0.00000000000E+00  0.00000000000E+00  0.12525980253E-10  0.17130000000E+03  0.17130000000E+03 0.  1.
       11    1    1    2    0    0 -0.58696249482E-02  0.50878954590E-03  0.57085528471E-01  0.57391028460E-01  0.51109989000E-03 0. -1.
     -623    1    1    2    0    0 -0.62596531012E-02 -0.74132531667E-02  0.15988608204E-02  0.17130000028E+03  0.17130000000E+03 0.  1.
      622    1    1    2    0    0  0.12129278050E-01  0.69044636210E-02  0.39413155782E+01  0.39426086894E+01  0.10000000000E+00 0. -1.
</event>
<event>
 5   0  0.6262544E+06  0.9118800E+02  0.7818608E-02  0.1180000E+00
       11   -1    0    0    0    0  0.00000000000E+00  0.00000000000E+00  0.39999999673E+01  0.40000000000E+01  0.51109989000E-03 0.  1.
     -623   -1    0    0    0    0  0.00000000000E+00  0.00000000000E+00  0.12525980253E-10  0.17130000000E+03  0.17130000000E+03 0.  1.
       11    1    1    2    0    0  0.21925386060E-02 -0.26225755672E-02  0.87778187813E-02  0.94337931819E-02  0.51109989000E-03 0.  1.
     -623    1    1    2    0    0 -0.73735586195E-02  0.76095024854E-02  0.19159134580E-02  0.17130000034E+03  0.17130000000E+03 0.  1.
      622    1    1    2    0    0  0.51810200139E-02 -0.49869269187E-02  0.39893062354E+01  0.39905658686E+01  0.10000000000E+00 0.  1.
</event>
<event>
 5   0  0.6262544E+06  0.9118800E+02  0.7818608E-02  0.1180000E+00
       11   -1    0    0    0    0  0.00000000000E+00  0.00000000000E+00  0.39999999673E+01  0.40000000000E+01  0.51109989000E-03 0. -1.
     -623   -1    0    0    0    0  0.00000000000E+00  0.00000000000E+00  0.12525980253E-10  0.17130000000E+03  0.17130000000E+03 0.  1.
       11    1    1    2    0    0 -0.21373262980E-02 -0.65599948247E-03  0.37169986896E-02  0.43675853033E-02  0.51109989000E-03 0. -1.
     -623    1    1    2    0    0  0.21471930624E-02  0.45402327311E-03  0.19021460970E-02  0.17130000002E+03  0.17130000000E+03 0.  1.
      622    1    1    2    0    0 -0.98667644219E-05  0.20197620934E-03  0.39943808227E+01  0.39956323902E+01  0.10000000000E+00 0. -1.
</event>
<event>
 5   0  0.6262544E+06  0.9118800E+02  0.7818608E-02  0.1180000E+00
       11   -1    0    0    0    0  0.00000000000E+00  0.00000000000E+00  0.39999999673E+01  0.40000000000E+01  0.51109989000E-03 0.  1.
     -623   -1    0    0    0    0  0.00000000000E+00  0.00000000000E+00  0.12525980253E-10  0.17130000000E+03  0.17130000000E+03 0.  1.
       11    1    1    2    0    0 -0.37874916791E-02 -0.49016105422E-02  0.13655129510E-01  0.15003155110E-01  0.51109989000E-03 0.  1.
     -623    1    1    2    0    0 -0.70381786426E-02 -0.38599303121E-03  0.26212801452E-02  0.17130000017E+03  0.17130000000E+03 0.  1.
      622    1    1    2    0    0  0.10825670322E-01  0.52876035734E-02  0.39837235577E+01  0.39849966798E+01  0.10000000000E+00 0.  1.
</event>
<event>
 5   0  0.6262544E+06  0.9118800E+02  0.7818608E-02  0.1180000E+00
       11   -1    0    0    0    0  0.00000000000E+00  0.00000000000E+00  0.39999999673E+01  0.40000000000E+01  0.51109989000E-03 0. -1.
     -623   -1    0    0    0    0  0.00000000000E+00  0.00000000000E+00  0.12525980253E-10  0.17130000000E+03  0.17130000000E+03 0. -1.
       11    1    1    2    0    0 -0.20363464401E-01 -0.15798374761E-01  0.62597987665E-01  0.67698069472E-01  0.51109989000E-03 0. -1.
     -623    1    1    2    0    0  0.11274099416E-01 -0.37992181236E-02  0.64316679386E-02  0.17130000053E+03  0.17130000000E+03 0. -1.
      622    1    1    2    0    0  0.90893649845E-02  0.19597592884E-01  0.39309703118E+01  0.39323013967E+01  0.10000000000E+00 0. -1.
</event>
<event>
 5   0  0.6262544E+06  0.9118800E+02  0.7818608E-02  0.1180000E+00
       11   -1    0    0    0    0  0.00000000000E+00  0.00000000000E+00  0.39999999673E+01  0.40000000000E+01  0.51109989000E-03 0.  1.
     -623   -1    0    0    0    0  0.00000000000E+00  0.00000000000E+00  0.12525980253E-10  0.17130000000E+03  0.17130000000E+03 0.  1.
       11    1    1    2    0    0  0.37090642920E-01  0.30093174611E-01  0.45505233009E+00  0.45755240060E+00  0.51109989000E-03 0.  1.
     -623    1    1    2    0    0 -0.13150136271E-01 -0.30035108425E-01  0.39958892746E-02  0.17130000318E+03  0.17130000000E+03 0.  1.
      622    1    1    2    0    0 -0.23940506649E-01 -0.58066185766E-04  0.35409517480E+01  0.35424444149E+01  0.10000000000E+00 0.  1.
</event>
<event>
 5   0  0.6262544E+06  0.9118800E+02  0.7818608E-02  0.1180000E+00
       11   -1    0    0    0    0  0.00000000000E+00  0.00000000000E+00  0.39999999673E+01  0.40000000000E+01  0.51109989000E-03 0. -1.
     -623   -1    0    0    0    0  0.00000000000E+00  0.00000000000E+00  0.12525980253E-10  0.17130000000E+03  0.17130000000E+03 0. -1.
       11    1    1    2    0    0  0.18650285634E-02 -0.14183675718E-02  0.11206414060E-01  0.11460149919E-01  0.51109989000E-03 0. -1.
     -623    1    1    2    0    0 -0.11669896633E-02 -0.86306079474E-02  0.15204441915E-02  0.17130000023E+03  0.17130000000E+03 0. -1.
      622    1    1    2    0    0 -0.69803890014E-03  0.10048975519E-01  0.39872731091E+01  0.39885396219E+01  0.10000000000E+00 0. -1.
</event>
<event>
 5   0  0.6262544E+06  0.9118800E+02  0.7818608E-02  0.1180000E+00
       11   -1    0    0    0    0  0.00000000000E+00  0.00000000000E+00  0.39999999673E+01  0.40000000000E+01  0.51109989000E-03 0.  1.
     -623   -1    0    0    0    0  0.00000000000E+00  0.00000000000E+00  0.12525980253E-10  0.17130000000E+03  0.17130000000E+03 0. -1.
       11    1    1    2    0    0  0.16596227430E-01 -0.44257822114E-02  0.22335839727E+00  0.22401843042E+00  0.51109989000E-03 0.  1.
     -623    1    1    2    0    0 -0.48078306451E-03  0.48854406148E-02  0.20189036595E-02  0.17130000008E+03  0.17130000000E+03 0. -1.
      622    1    1    2    0    0 -0.16115444365E-01 -0.45965840360E-03  0.37746226665E+01  0.37759814874E+01  0.10000000000E+00 0.  1.
</event>
<event>
 5   0  0.6262544E+06  0.9118800E+02  0.7818608E-02  0.1180000E+00
       11   -1    0    0    0    0  0.00000000000E+00  0.00000000000E+00  0.39999999673E+01  0.40000000000E+01  0.51109989000E-03 0.  1.
     -623   -1    0    0    0    0  0.00000000000E+00  0.00000000000E+00  0.12525980253E-10  0.17130000000E+03  0.17130000000E+03 0.  1.
       11    1    1    2    0    0  0.26908246064E-01 -0.22262491860E-03  0.24519040055E+01  0.24520517157E+01  0.51109989000E-03 0.  1.
     -623    1    1    2    0    0 -0.13470754769E-01 -0.26566652786E-01  0.36745428293E-02  0.17130000263E+03  0.17130000000E+03 0.  1.
      622    1    1    2    0    0 -0.13437491296E-01  0.26789277704E-01  0.15444214190E+01  0.15479456551E+01  0.10000000000E+00 0.  1.
</event>
<event>
 5   0  0.6262544E+06  0.9118800E+02  0.7818608E-02  0.1180000E+00
       11   -1    0    0    0    0  0.00000000000E+00  0.00000000000E+00  0.39999999673E+01  0.40000000000E+01  0.51109989000E-03 0.  1.
     -623   -1    0    0    0    0  0.00000000000E+00  0.00000000000E+00  0.12525980253E-10  0.17130000000E+03  0.17130000000E+03 0.  1.
       11    1    1    2    0    0  0.28411682685E-01 -0.26700939983E-01  0.62895074832E+00  0.63015828880E+00  0.51109989000E-03 0.  1.
     -623    1    1    2    0    0 -0.34655700232E-01  0.12039605096E-01  0.27332316419E-02  0.17130000395E+03  0.17130000000E+03 0.  1.
      622    1    1    2    0    0  0.62440175479E-02  0.14661334887E-01  0.33683159875E+01  0.33698377608E+01  0.10000000000E+00 0.  1.
</event>
<event>
 5   0  0.6262544E+06  0.9118800E+02  0.7818608E-02  0.1180000E+00
       11   -1    0    0    0    0  0.00000000000E+00  0.00000000000E+00  0.39999999673E+01  0.40000000000E+01  0.51109989000E-03 0. -1.
     -623   -1    0    0    0    0  0.00000000000E+00  0.00000000000E+00  0.12525980253E-10  0.17130000000E+03  0.17130000000E+03 0. -1.
       11    1    1    2    0    0 -0.74676071878E-02 -0.95515704876E-02  0.19644330575E+01  0.19644705384E+01  0.51109989000E-03 0. -1.
     -623    1    1    2    0    0 -0.37601738141E-03 -0.36491401238E-02  0.25533411857E-02  0.17130000006E+03  0.17130000000E+03 0. -1.
      622    1    1    2    0    0  0.78436245692E-02  0.13200710611E-01  0.20330135687E+01  0.20355294033E+01  0.10000000000E+00 0.  1.
</event>
<event>
 5   0  0.6262544E+06  0.9118800E+02  0.7818608E-02  0.1180000E+00
       11   -1    0    0    0    0  0.00000000000E+00  0.00000000000E+00  0.39999999673E+01  0.40000000000E+01  0.51109989000E-03 0. -1.
     -623   -1    0    0    0    0  0.00000000000E+00  0.00000000000E+00  0.12525980253E-10  0.17130000000E+03  0.17130000000E+03 0. -1.
       11    1    1    2    0    0 -0.16370498225E-01  0.68904288180E-01  0.10647494246E+01  0.10671023346E+01  0.51109989000E-03 0. -1.
     -623    1    1    2    0    0 -0.10287811545E-01 -0.22521505108E-02  0.49377222125E-02  0.17130000039E+03  0.17130000000E+03 0. -1.
      622    1    1    2    0    0  0.26658309770E-01 -0.66652137669E-01  0.29303128206E+01  0.29328972705E+01  0.10000000000E+00 0. -1.
</event>
<event>
 5   0  0.6262544E+06  0.9118800E+02  0.7818608E-02  0.1180000E+00
       11   -1    0    0    0    0  0.00000000000E+00  0.00000000000E+00  0.39999999673E+01  0.40000000000E+01  0.51109989000E-03 0. -1.
     -623   -1    0    0    0    0  0.00000000000E+00  0.00000000000E+00  0.12525980253E-10  0.17130000000E+03  0.17130000000E+03 0. -1.
       11    1    1    2    0    0 -0.11995765450E-02  0.10951467066E-02  0.37799855408E-01  0.37838189996E-01  0.51109989000E-03 0. -1.
     -623    1    1    2    0    0 -0.63088729723E-03 -0.70485144138E-02  0.13054885478E-02  0.17130000015E+03  0.17130000000E+03 0. -1.
      622    1    1    2    0    0  0.18304638422E-02  0.59533677069E-02  0.39608946232E+01  0.39621616587E+01  0.10000000000E+00 0. -1.
</event>
<event>
 5   0  0.6262544E+06  0.9118800E+02  0.7818608E-02  0.1180000E+00
       11   -1    0    0    0    0  0.00000000000E+00  0.00000000000E+00  0.39999999673E+01  0.40000000000E+01  0.51109989000E-03 0.  1.
     -623   -1    0    0    0    0  0.00000000000E+00  0.00000000000E+00  0.12525980253E-10  0.17130000000E+03  0.17130000000E+03 0.  1.
       11    1    1    2    0    0 -0.96532129302E-01 -0.76859640020E-02  0.25768641813E+01  0.25786831516E+01  0.51109989000E-03 0.  1.
     -623    1    1    2    0    0  0.31500561964E-01 -0.17367868224E-01  0.70589396441E-02  0.17130000392E+03  0.17130000000E+03 0.  1.
      622    1    1    2    0    0  0.65031567338E-01  0.25053832226E-01  0.14160768464E+01  0.14213129262E+01  0.10000000000E+00 0.  1.
</event>
<event>
 5   0  0.6262544E+06  0.9118800E+02  0.7818608E-02  0.1180000E+00
       11   -1    0    0    0    0  0.00000000000E+00  0.00000000000E+00  0.39999999673E+01  0.40000000000E+01  0.51109989000E-03 0.  1.
     -623   -1    0    0    0    0  0.00000000000E+00  0.00000000000E+00  0.12525980253E-10  0.17130000000E+03  0.17130000000E+03 0.  1.
       11    1    1    2    0    0  0.19823830733E-01  0.25727406852E-01  0.80175155110E+00  0.80240930618E+00  0.51109989000E-03 0.  1.
     -623    1    1    2    0    0  0.11676649052E-01 -0.10634621737E-01  0.24134067640E-02  0.17130000075E+03  0.17130000000E+03 0.  1.
      622    1    1    2    0    0 -0.31500479785E-01 -0.15092785115E-01  0.31958350095E+01  0.31975899487E+01  0.10000000000E+00 0.  1.
</event>
<event>
 5   0  0.6262544E+06  0.9118800E+02  0.7818608E-02  0.1180000E+00
       11   -1    0    0    0    0  0.00000000000E+00  0.00000000000E+00  0.39999999673E+01  0.40000000000E+01  0.51109989000E-03 0. -1.
     -623   -1    0    0    0    0  0.00000000000E+00  0.00000000000E+00  0.12525980253E-10  0.17130000000E+03  0.17130000000E+03 0.  1.
       11    1    1    2    0    0  0.15537836895E-01  0.17799660272E-01  0.15660946029E+00  0.15838256393E+00  0.51109989000E-03 0. -1.
     -623    1    1    2    0    0  0.28510205983E-02 -0.41919086816E-02  0.31430663137E-02  0.17130000010E+03  0.17130000000E+03 0.  1.
      622    1    1    2    0    0 -0.18388857493E-01 -0.13607751591E-01  0.38402474408E+01  0.38416173323E+01  0.10000000000E+00 0. -1.
</event>
<event>
 5   0  0.6262544E+06  0.9118800E+02  0.7818608E-02  0.1180000E+00
       11   -1    0    0    0    0  0.00000000000E+00  0.00000000000E+00  0.39999999673E+01  0.40000000000E+01  0.51109989000E-03 0.  1.
     -623   -1    0    0    0    0  0.00000000000E+00  0.00000000000E+00  0.12525980253E-10  0.17130000000E+03  0.17130000000E+03 0. -1.
       11    1    1    2    0    0 -0.78526856138E-02 -0.96653719559E-03  0.84538477374E-01  0.84909447327E-01  0.51109989000E-03 0.  1.
     -623    1    1    2    0    0  0.83603968758E-02 -0.26931850480E-03  0.16486956317E-02  0.17130000021E+03  0.17130000000E+03 0. -1.
      622    1    1    2    0    0 -0.50771126244E-03  0.12358557004E-02  0.39138127946E+01  0.39150903407E+01  0.10000000000E+00 0.  1.
</event>
<event>
 5   0  0.6262544E+06  0.9118800E+02  0.7818608E-02  0.1180000E+00
       11   -1    0    0    0    0  0.00000000000E+00  0.00000000000E+00  0.39999999673E+01  0.40000000000E+01  0.51109989000E-03 0. -1.
     -623   -1    0    0    0    0  0.00000000000E+00  0.00000000000E+00  0.12525980253E-10  0.17130000000E+03  0.17130000000E+03 0.  1.
       11    1    1    2    0    0  0.34243930365E-01  0.20229552916E-01  0.53421965956E+00  0.53569841092E+00  0.51109989000E-03 0. -1.
     -623    1    1    2    0    0 -0.37542562595E-02  0.45708325082E-02  0.31454854273E-02  0.17130000013E+03  0.17130000000E+03 0.  1.
      622    1    1    2    0    0 -0.30489674106E-01 -0.24800385425E-01  0.34626348225E+01  0.34643014582E+01  0.10000000000E+00 0. -1.
</event>
<event>
 5   0  0.6262544E+06  0.9118800E+02  0.7818608E-02  0.1180000E+00
       11   -1    0    0    0    0  0.00000000000E+00  0.00000000000E+00  0.39999999673E+01  0.40000000000E+01  0.51109989000E-03 0. -1.
     -623   -1    0    0    0    0  0.00000000000E+00  0.00000000000E+00  0.12525980253E-10  0.17130000000E+03  0.17130000000E+03 0.  1.
       11    1    1    2    0    0  0.26396308583E-01 -0.60305002828E-01  0.84759305260E+00  0.85014569488E+00  0.51109989000E-03 0. -1.
     -623    1    1    2    0    0 -0.86654815880E-02  0.80093828182E-03  0.47529916527E-02  0.17130000029E+03  0.17130000000E+03 0.  1.
      622    1    1    2    0    0 -0.17730826995E-01  0.59504064547E-01  0.31476539231E+01  0.31498540181E+01  0.10000000000E+00 0. -1.
</event>
<event>
 5   0  0.6262544E+06  0.9118800E+02  0.7818608E-02  0.1180000E+00
       11   -1    0    0    0    0  0.00000000000E+00  0.00000000000E+00  0.39999999673E+01  0.40000000000E+01  0.51109989000E-03 0.  1.
     -623   -1    0    0    0    0  0.00000000000E+00  0.00000000000E+00  0.12525980253E-10  0.17130000000E+03  0.17130000000E+03 0.  1.
       11    1    1    2    0    0  0.34092771088E-01  0.92292537189E-01  0.66217350540E+00  0.66944323279E+00  0.51109989000E-03 0.  1.
     -623    1    1    2    0    0 -0.10179031578E-01 -0.20648655692E-02  0.10080767551E-01  0.17130000061E+03  0.17130000000E+03 0.  1.
      622    1    1    2    0    0 -0.23913739510E-01 -0.90227671620E-01  0.33277456944E+01  0.33305561557E+01  0.10000000000E+00 0.  1.
</event>
<event>
 5   0  0.6262544E+06  0.9118800E+02  0.7818608E-02  0.1180000E+00
       11   -1    0    0    0    0  0.00000000000E+00  0.00000000000E+00  0.39999999673E+01  0.40000000000E+01  0.51109989000E-03 0.  1.
     -623   -1    0    0    0    0  0.00000000000E+00  0.00000000000E+00  0.12525980253E-10  0.17130000000E+03  0.17130000000E+03 0.  1.
       11    1    1    2    0    0  0.24671360469E-01  0.24526851987E-01  0.21795728636E+00  0.22071674697E+00  0.51109989000E-03 0.  1.
     -623    1    1    2    0    0 -0.14090816387E-01 -0.85403486515E-03  0.41722788066E-02  0.17130000063E+03  0.17130000000E+03 0.  1.
      622    1    1    2    0    0 -0.10580544082E-01 -0.23672817121E-01  0.37778704022E+01  0.37792826205E+01  0.10000000000E+00 0.  1.
</event>
<event>
 5   0  0.6262544E+06  0.9118800E+02  0.7818608E-02  0.1180000E+00
       11   -1    0    0    0    0  0.00000000000E+00  0.00000000000E+00  0.39999999673E+01  0.40000000000E+01  0.51109989000E-03 0. -1.
     -623   -1    0    0    0    0  0.00000000000E+00  0.00000000000E+00  0.12525980253E-10  0.17130000000E+03  0.17130000000E+03 0.  1.
       11    1    1    2    0    0 -0.37943052592E-01 -0.65798598148E-01  0.64843967673E+00  0.65287319315E+00  0.51109989000E-03 0. -1.
     -623    1    1    2    0    0  0.12095422230E-01 -0.35660382527E-02  0.67472447791E-02  0.17130000060E+03  0.17130000000E+03 0.  1.
      622    1    1    2    0    0  0.25847630362E-01  0.69364636400E-01  0.33448130459E+01  0.33471262098E+01  0.10000000000E+00 0. -1.
</event>
<event>
 5   0  0.6262544E+06  0.9118800E+02  0.7818608E-02  0.1180000E+00
       11   -1    0    0    0    0  0.00000000000E+00  0.00000000000E+00  0.39999999673E+01  0.40000000000E+01  0.51109989000E-03 0. -1.
     -623   -1    0    0    0    0  0.00000000000E+00  0.00000000000E+00  0.12525980253E-10  0.17130000000E+03  0.17130000000E+03 0.  1.
       11    1    1    2    0    0  0.66787178227E-02  0.17674475962E-02  0.14359347949E+00  0.14376048733E+00  0.51109989000E-03 0. -1.
     -623    1    1    2    0    0 -0.30047377280E-02  0.11285626392E-02  0.14666681412E-02  0.17130000004E+03  0.17130000000E+03 0.  1.
      622    1    1    2    0    0 -0.36739800946E-02 -0.28960102353E-02  0.38549398197E+01  0.38562394763E+01  0.10000000000E+00 0. -1.
</event>
<event>
 5   0  0.6262544E+06  0.9118800E+02  0.7818608E-02  0.1180000E+00
       11   -1    0    0    0    0  0.00000000000E+00  0.00000000000E+00  0.39999999673E+01  0.40000000000E+01  0.51109989000E-03 0. -1.
     -623   -1    0    0    0    0  0.00000000000E+00  0.00000000000E+00  0.12525980253E-10  0.17130000000E+03  0.17130000000E+03 0.  1.
       11    1    1    2    0    0  0.51666289831E-02 -0.17924336498E-01  0.88501350233E-02  0.20653377616E-01  0.51109989000E-03 0. -1.
     -623    1    1    2    0    0 -0.29560820840E-02 -0.22873994281E-01  0.13271792295E-01  0.17130000207E+03  0.17130000000E+03 0.  1.
      622    1    1    2    0    0 -0.22105468991E-02  0.40798330778E-01  0.39778780400E+01  0.39793445555E+01  0.10000000000E+00 0. -1.
</event>
<event>
 5   0  0.6262544E+06  0.9118800E+02  0.7818608E-02  0.1180000E+00
       11   -1    0    0    0    0  0.00000000000E+00  0.00000000000E+00  0.39999999673E+01  0.40000000000E+01  0.51109989000E-03 0. -1.
     -623   -1    0    0    0    0  0.00000000000E+00  0.00000000000E+00  0.12525980253E-10  0.17130000000E+03  0.17130000000E+03 0.  1.
       11    1    1    2    0    0  0.28121711316E-02  0.18359855518E-02  0.40612220060E-01  0.40754052414E-01  0.51109989000E-03 0. -1.
     -623    1    1    2    0    0 -0.49467120316E-02 -0.11248458393E-04  0.14059413430E-02  0.17130000008E+03  0.17130000000E+03 0.  1.
      622    1    1    2    0    0  0.21345409000E-02 -0.18247370934E-02  0.39579818060E+01  0.39592458704E+01  0.10000000000E+00 0. -1.
</event>
<event>
 5   0  0.6262544E+06  0.9118800E+02  0.7818608E-02  0.1180000E+00
       11   -1    0    0    0    0  0.00000000000E+00  0.00000000000E+00  0.39999999673E+01  0.40000000000E+01  0.51109989000E-03 0. -1.
     -623   -1    0    0    0    0  0.00000000000E+00  0.00000000000E+00  0.12525980253E-10  0.17130000000E+03  0.17130000000E+03 0.  1.
       11    1    1    2    0    0 -0.23744377221E-02  0.86907027483E-03  0.48194409535E-04  0.25800743085E-02  0.51109989000E-03 0. -1.
     -623    1    1    2    0    0 -0.11600673200E-02  0.30794092664E-02  0.37864370515E-02  0.17130000007E+03  0.17130000000E+03 0.  1.
      622    1    1    2    0    0  0.35345050422E-02 -0.39484795412E-02  0.39961653360E+01  0.39974198523E+01  0.10000000000E+00 0. -1.
</event>
<event>
 5   0  0.6262544E+06  0.9118800E+02  0.7818608E-02  0.1180000E+00
       11   -1    0    0    0    0  0.00000000000E+00  0.00000000000E+00  0.39999999673E+01  0.40000000000E+01  0.51109989000E-03 0.  1.
     -623   -1    0    0    0    0  0.00000000000E+00  0.00000000000E+00  0.12525980253E-10  0.17130000000E+03  0.17130000000E+03 0.  1.
       11    1    1    2    0    0 -0.11958566994E-02 -0.24272889105E-01  0.28297721841E+00  0.28401931375E+00  0.51109989000E-03 0.  1.
     -623    1    1    2    0    0 -0.11702243889E-01 -0.14083140717E-01  0.26092698410E-02  0.17130000100E+03  0.17130000000E+03 0.  1.
      622    1    1    2    0    0  0.12898100588E-01  0.38356029821E-01  0.37144134791E+01  0.37159796878E+01  0.10000000000E+00 0.  1.
</event>
<event>
 5   0  0.6262544E+06  0.9118800E+02  0.7818608E-02  0.1180000E+00
       11   -1    0    0    0    0  0.00000000000E+00  0.00000000000E+00  0.39999999673E+01  0.40000000000E+01  0.51109989000E-03 0.  1.
     -623   -1    0    0    0    0  0.00000000000E+00  0.00000000000E+00  0.12525980253E-10  0.17130000000E+03  0.17130000000E+03 0. -1.
       11    1    1    2    0    0 -0.44439067556E-01 -0.12362536862E-01  0.71226873630E+00  0.71376093825E+00  0.51109989000E-03 0.  1.
     -623    1    1    2    0    0 -0.10099494623E-02  0.11888262641E-01  0.33289430627E-02  0.17130000045E+03  0.17130000000E+03 0. -1.
      622    1    1    2    0    0  0.45449017018E-01  0.47427422105E-03  0.32844022880E+01  0.32862386139E+01  0.10000000000E+00 0.  1.
</event>
<event>
 5   0  0.6262544E+06  0.9118800E+02  0.7818608E-02  0.1180000E+00
       11   -1    0    0    0    0  0.00000000000E+00  0.00000000000E+00  0.39999999673E+01  0.40000000000E+01  0.51109989000E-03 0.  1.
     -623   -1    0    0    0    0  0.00000000000E+00  0.00000000000E+00  0.12525980253E-10  0.17130000000E+03  0.17130000000E+03 0.  1.
       11    1    1    2    0    0 -0.72531575666E-02  0.70478913949E-03  0.47719485331E+00  0.47725076665E+00  0.51109989000E-03 0.  1.
     -623    1    1    2    0    0  0.24536376621E-02  0.92137356981E-03  0.14791855116E-02  0.17130000003E+03  0.17130000000E+03 0.  1.
      622    1    1    2    0    0  0.47995199045E-02 -0.16261627093E-02  0.35213259285E+01  0.35227492069E+01  0.10000000000E+00 0.  1.
</event>
<event>
 5   0  0.6262544E+06  0.9118800E+02  0.7818608E-02  0.1180000E+00
       11   -1    0    0    0    0  0.00000000000E+00  0.00000000000E+00  0.39999999673E+01  0.40000000000E+01  0.51109989000E-03 0.  1.
     -623   -1    0    0    0    0  0.00000000000E+00  0.00000000000E+00  0.12525980253E-10  0.17130000000E+03  0.17130000000E+03 0. -1.
       11    1    1    2    0    0 -0.17878964618E-02  0.38833270905E-02  0.20383874621E+00  0.20388421342E+00  0.51109989000E-03 0.  1.
     -623    1    1    2    0    0 -0.40705777863E-03  0.17718524820E-02  0.13676626568E-02  0.17130000002E+03  0.17130000000E+03 0. -1.
      622    1    1    2    0    0  0.21949542405E-02 -0.56551795725E-02  0.37947935585E+01  0.37961157715E+01  0.10000000000E+00 0.  1.
</event>
<event>
 5   0  0.6262544E+06  0.9118800E+02  0.7818608E-02  0.1180000E+00
       11   -1    0    0    0    0  0.00000000000E+00  0.00000000000E+00  0.39999999673E+01  0.40000000000E+01  0.51109989000E-03 0.  1.
     -623   -1    0    0    0    0  0.00000000000E+00  0.00000000000E+00  0.12525980253E-10  0.17130000000E+03  0.17130000000E+03 0. -1.
       11    1    1    2    0    0  0.28989723020E-01 -0.71152374862E-01  0.62326716338E+00  0.62798509749E+00  0.51109989000E-03 0.  1.
     -623    1    1    2    0    0 -0.28171827679E-01  0.38007385979E-01  0.63707483881E-02  0.17130000665E+03  0.17130000000E+03 0. -1.
      622    1    1    2    0    0 -0.81789534090E-03  0.33144988883E-01  0.33703620556E+01  0.33720082511E+01  0.10000000000E+00 0.  1.
</event>
<event>
 5   0  0.6262544E+06  0.9118800E+02  0.7818608E-02  0.1180000E+00
       11   -1    0    0    0    0  0.00000000000E+00  0.00000000000E+00  0.39999999673E+01  0.40000000000E+01  0.51109989000E-03 0.  1.
     -623   -1    0    0    0    0  0.00000000000E+00  0.00000000000E+00  0.12525980253E-10  0.17130000000E+03  0.17130000000E+03 0.  1.
       11    1    1    2    0    0 -0.13410005404E-02 -0.45252082158E-02  0.11979972656E-01  0.12886301245E-01  0.51109989000E-03 0.  1.
     -623    1    1    2    0    0 -0.42081773084E-02  0.34464798213E-02  0.21646420787E-02  0.17130000010E+03  0.17130000000E+03 0.  1.
      622    1    1    2    0    0  0.55491778488E-02  0.10787283946E-02  0.39858553526E+01  0.39871135987E+01  0.10000000000E+00 0.  1.
</event>
<event>
 5   0  0.6262544E+06  0.9118800E+02  0.7818608E-02  0.1180000E+00
       11   -1    0    0    0    0  0.00000000000E+00  0.00000000000E+00  0.39999999673E+01  0.40000000000E+01  0.51109989000E-03 0. -1.
     -623   -1    0    0    0    0  0.00000000000E+00  0.00000000000E+00  0.12525980253E-10  0.17130000000E+03  0.17130000000E+03 0. -1.
       11    1    1    2    0    0 -0.16093020337E-02 -0.69719924617E-02  0.96345801715E-01  0.96612490186E-01  0.51109989000E-03 0. -1.
     -623    1    1    2    0    0 -0.26081251877E-02  0.38031574280E-04  0.15562715579E-02  0.17130000003E+03  0.17130000000E+03 0. -1.
      622    1    1    2    0    0  0.42174272214E-02  0.69339608874E-02  0.39020978941E+01  0.39033874829E+01  0.10000000000E+00 0. -1.
</event>
<event>
 5   0  0.6262544E+06  0.9118800E+02  0.7818608E-02  0.1180000E+00
       11   -1    0    0    0    0  0.00000000000E+00  0.00000000000E+00  0.39999999673E+01  0.40000000000E+01  0.51109989000E-03 0.  1.
     -623   -1    0    0    0    0  0.00000000000E+00  0.00000000000E+00  0.12525980253E-10  0.17130000000E+03  0.17130000000E+03 0.  1.
       11    1    1    2    0    0  0.10293055773E-01 -0.39330403760E-01  0.31863998800E+01  0.31866592671E+01  0.51109989000E-03 0.  1.
     -623    1    1    2    0    0 -0.29552962971E-01  0.11999079483E-01  0.71261999742E-02  0.17130000312E+03  0.17130000000E+03 0.  1.
      622    1    1    2    0    0  0.19259907198E-01  0.27331324277E-01  0.80647388736E+00  0.81333761520E+00  0.10000000000E+00 0. -1.
</event>
<event>
 5   0  0.6262544E+06  0.9118800E+02  0.7818608E-02  0.1180000E+00
       11   -1    0    0    0    0  0.00000000000E+00  0.00000000000E+00  0.39999999673E+01  0.40000000000E+01  0.51109989000E-03 0. -1.
     -623   -1    0    0    0    0  0.00000000000E+00  0.00000000000E+00  0.12525980253E-10  0.17130000000E+03  0.17130000000E+03 0.  1.
       11    1    1    2    0    0 -0.16392178223E-01  0.18072186786E-01  0.37686736015E+00  0.37765669041E+00  0.51109989000E-03 0. -1.
     -623    1    1    2    0    0  0.84906501108E-03 -0.53304570720E-02  0.22257606228E-02  0.17130000010E+03  0.17130000000E+03 0.  1.
      622    1    1    2    0    0  0.15543113212E-01 -0.12741729714E-01  0.36209068466E+01  0.36223432101E+01  0.10000000000E+00 0. -1.
</event>
<event>
 5   0  0.6262544E+06  0.9118800E+02  0.7818608E-02  0.1180000E+00
       11   -1    0    0    0    0  0.00000000000E+00  0.00000000000E+00  0.39999999673E+01  0.40000000000E+01  0.51109989000E-03 0.  1.
     -623   -1    0    0    0    0  0.00000000000E+00  0.00000000000E+00  0.12525980253E-10  0.17130000000E+03  0.17130000000E+03 0. -1.
       11    1    1    2    0    0 -0.39552031432E-01 -0.19261369216E-01  0.25442774287E+00  0.25820360396E+00  0.51109989000E-03 0.  1.
     -623    1    1    2    0    0  0.52176082445E-01 -0.10146868577E-01  0.52575666064E-02  0.17130000833E+03  0.17130000000E+03 0. -1.
      622    1    1    2    0    0 -0.12624051013E-01  0.29408237794E-01  0.37403146579E+01  0.37417880688E+01  0.10000000000E+00 0.  1.
</event>
<event>
 5   0  0.6262544E+06  0.9118800E+02  0.7818608E-02  0.1180000E+00
       11   -1    0    0    0    0  0.00000000000E+00  0.00000000000E+00  0.39999999673E+01  0.40000000000E+01  0.51109989000E-03 0.  1.
     -623   -1    0    0    0    0  0.00000000000E+00  0.00000000000E+00  0.12525980253E-10  0.17130000000E+03  0.17130000000E+03 0. -1.
       11    1    1    2    0    0  0.13577571091E-01  0.66106824553E-02  0.11154622289E+00  0.11256497067E+00  0.51109989000E-03 0.  1.
     -623    1    1    2    0    0 -0.16194531075E-01 -0.19160147207E-01  0.23281206865E-02  0.17130000185E+03  0.17130000000E+03 0. -1.
      622    1    1    2    0    0  0.26169599840E-02  0.12549464753E-01  0.38861256240E+01  0.38874331766E+01  0.10000000000E+00 0.  1.
</event>
<event>
 5   0  0.6262544E+06  0.9118800E+02  0.7818608E-02  0.1180000E+00
       11   -1    0    0    0    0  0.00000000000E+00  0.00000000000E+00  0.39999999673E+01  0.40000000000E+01  0.51109989000E-03 0.  1.
     -623   -1    0    0    0    0  0.00000000000E+00  0.00000000000E+00  0.12525980253E-10  0.17130000000E+03  0.17130000000E+03 0. -1.
       11    1    1    2    0    0  0.20064010762E-01  0.30689471188E-01  0.49476950818E-01  0.61584397821E-01  0.51109989000E-03 0.  1.
     -623    1    1    2    0    0  0.20957974241E-01 -0.30483751323E-01  0.13595420462E-01  0.17130000453E+03  0.17130000000E+03 0. -1.
      622    1    1    2    0    0 -0.41021985003E-01 -0.20571986492E-03  0.39369275961E+01  0.39384110683E+01  0.10000000000E+00 0.  1.
</event>
<event>
 5   0  0.6262544E+06  0.9118800E+02  0.7818608E-02  0.1180000E+00
       11   -1    0    0    0    0  0.00000000000E+00  0.00000000000E+00  0.39999999673E+01  0.40000000000E+01  0.51109989000E-03 0.  1.
     -623   -1    0    0    0    0  0.00000000000E+00  0.00000000000E+00  0.12525980253E-10  0.17130000000E+03  0.17130000000E+03 0.  1.
       11    1    1    2    0    0 -0.22236082195E-02  0.45171132184E-02  0.70545789436E+00  0.70547604544E+00  0.51109989000E-03 0.  1.
     -623    1    1    2    0    0 -0.41004058888E-02 -0.73397055220E-02  0.15436336213E-02  0.17130000021E+03  0.17130000000E+03 0.  1.
      622    1    1    2    0    0  0.63240141082E-02  0.28225923035E-02  0.32929984393E+01  0.32945237413E+01  0.10000000000E+00 0.  1.
</event>
<event>
 5   0  0.6262544E+06  0.9118800E+02  0.7818608E-02  0.1180000E+00
       11   -1    0    0    0    0  0.00000000000E+00  0.00000000000E+00  0.39999999673E+01  0.40000000000E+01  0.51109989000E-03 0. -1.
     -623   -1    0    0    0    0  0.00000000000E+00  0.00000000000E+00  0.12525980253E-10  0.17130000000E+03  0.17130000000E+03 0. -1.
       11    1    1    2    0    0 -0.23640825758E-02 -0.43913013374E-02  0.13754897776E-01  0.14640042677E-01  0.51109989000E-03 0. -1.
     -623    1    1    2    0    0 -0.71400232581E-04  0.29305702246E-02  0.21409522752E-02  0.17130000004E+03  0.17130000000E+03 0. -1.
      622    1    1    2    0    0  0.24354828084E-02  0.14607311128E-02  0.39841041173E+01  0.39853599189E+01  0.10000000000E+00 0. -1.
</event>
<event>
 5   0  0.6262544E+06  0.9118800E+02  0.7818608E-02  0.1180000E+00
       11   -1    0    0    0    0  0.00000000000E+00  0.00000000000E+00  0.39999999673E+01  0.40000000000E+01  0.51109989000E-03 0.  1.
     -623   -1    0    0    0    0  0.00000000000E+00  0.00000000000E+00  0.12525980253E-10  0.17130000000E+03  0.17130000000E+03 0.  1.
       11    1    1    2    0    0  0.21841941280E-01 -0.15619968423E-01  0.27612840701E+01  0.27614146793E+01  0.51109989000E-03 0.  1.
     -623    1    1    2    0    0 -0.17062359942E-01  0.15568169513E-01  0.41849071136E-02  0.17130000161E+03  0.17130000000E+03 0.  1.
      622    1    1    2    0    0 -0.47795813378E-02  0.51798909950E-04  0.12345309902E+01  0.12385837125E+01  0.10000000000E+00 0.  1.
</event>
<event>
 5   0  0.6262544E+06  0.9118800E+02  0.7818608E-02  0.1180000E+00
       11   -1    0    0    0    0  0.00000000000E+00  0.00000000000E+00  0.39999999673E+01  0.40000000000E+01  0.51109989000E-03 0.  1.
     -623   -1    0    0    0    0  0.00000000000E+00  0.00000000000E+00  0.12525980253E-10  0.17130000000E+03  0.17130000000E+03 0.  1.
       11    1    1    2    0    0  0.16130410641E-01  0.47308899615E-02  0.28826972195E-01  0.33374047047E-01  0.51109989000E-03 0.  1.
     -623    1    1    2    0    0 -0.28071982172E-01  0.84356855649E-02  0.58502084664E-02  0.17130000261E+03  0.17130000000E+03 0.  1.
      622    1    1    2    0    0  0.11941571531E-01 -0.13166575527E-01  0.39653227867E+01  0.39666233452E+01  0.10000000000E+00 0.  1.
</event>
<event>
 5   0  0.6262544E+06  0.9118800E+02  0.7818608E-02  0.1180000E+00
       11   -1    0    0    0    0  0.00000000000E+00  0.00000000000E+00  0.39999999673E+01  0.40000000000E+01  0.51109989000E-03 0. -1.
     -623   -1    0    0    0    0  0.00000000000E+00  0.00000000000E+00  0.12525980253E-10  0.17130000000E+03  0.17130000000E+03 0.  1.
       11    1    1    2    0    0 -0.71031034235E-02 -0.94946298141E-03  0.50245059806E-01  0.50756111122E-01  0.51109989000E-03 0. -1.
     -623    1    1    2    0    0 -0.15608319867E-04 -0.34410145043E-02  0.17861899786E-02  0.17130000004E+03  0.17130000000E+03 0.  1.
      622    1    1    2    0    0  0.71187117434E-02  0.43904774857E-02  0.39479687176E+01  0.39492438450E+01  0.10000000000E+00 0. -1.
</event>
<event>
 5   0  0.6262544E+06  0.9118800E+02  0.7818608E-02  0.1180000E+00
       11   -1    0    0    0    0  0.00000000000E+00  0.00000000000E+00  0.39999999673E+01  0.40000000000E+01  0.51109989000E-03 0.  1.
     -623   -1    0    0    0    0  0.00000000000E+00  0.00000000000E+00  0.12525980253E-10  0.17130000000E+03  0.17130000000E+03 0. -1.
       11    1    1    2    0    0 -0.57440840980E-01 -0.71744955254E-02  0.83831993797E+00  0.84031631141E+00  0.51109989000E-03 0.  1.
     -623    1    1    2    0    0  0.74539070653E-01 -0.40943431436E-02  0.36618793582E-02  0.17130001631E+03  0.17130000000E+03 0. -1.
      622    1    1    2    0    0 -0.17098229674E-01  0.11268838669E-01  0.31580181501E+01  0.31596673832E+01  0.10000000000E+00 0.  1.
</event>
<event>
 5   0  0.6262544E+06  0.9118800E+02  0.7818608E-02  0.1180000E+00
       11   -1    0    0    0    0  0.00000000000E+00  0.00000000000E+00  0.39999999673E+01  0.40000000000E+01  0.51109989000E-03 0.  1.
     -623   -1    0    0    0    0  0.00000000000E+00  0.00000000000E+00  0.12525980253E-10  0.17130000000E+03  0.17130000000E+03 0.  1.
       11    1    1    2    0    0  0.10355527842E-01  0.43989110720E-03  0.57304233408E-01  0.58236301828E-01  0.51109989000E-03 0.  1.
     -623    1    1    2    0    0 -0.72384510308E-02  0.18865693202E-02  0.22028048347E-02  0.17130000018E+03  0.17130000000E+03 0.  1.
      622    1    1    2    0    0 -0.31170768116E-02 -0.23264604274E-02  0.39404929292E+01  0.39417635207E+01  0.10000000000E+00 0.  1.
</event>
<event>
 5   0  0.6262544E+06  0.9118800E+02  0.7818608E-02  0.1180000E+00
       11   -1    0    0    0    0  0.00000000000E+00  0.00000000000E+00  0.39999999673E+01  0.40000000000E+01  0.51109989000E-03 0.  1.
     -623   -1    0    0    0    0  0.00000000000E+00  0.00000000000E+00  0.12525980253E-10  0.17130000000E+03  0.17130000000E+03 0.  1.
       11    1    1    2    0    0 -0.38217545100E-01  0.42377071096E-01  0.29210110206E+00  0.29762343986E+00  0.51109989000E-03 0.  1.
     -623    1    1    2    0    0  0.24853020526E-01 -0.93837346579E-01  0.72826177900E-02  0.17130002766E+03  0.17130000000E+03 0.  1.
      622    1    1    2    0    0  0.13364524573E-01  0.51460275484E-01  0.37006162476E+01  0.37023489007E+01  0.10000000000E+00 0.  1.
</event>
<event>
 5   0  0.6262544E+06  0.9118800E+02  0.7818608E-02  0.1180000E+00
       11   -1    0    0    0    0  0.00000000000E+00  0.00000000000E+00  0.39999999673E+01  0.40000000000E+01  0.51109989000E-03 0. -1.
     -623   -1    0    0    0    0  0.00000000000E+00  0.00000000000E+00  0.12525980253E-10  0.17130000000E+03  0.17130000000E+03 0. -1.
       11    1    1    2    0    0 -0.15087394272E-02 -0.85783289573E-02  0.19045313366E-01  0.20948728044E-01  0.51109989000E-03 0. -1.
     -623    1    1    2    0    0  0.16664757137E-01 -0.50860527721E-02  0.32134214572E-02  0.17130000092E+03  0.17130000000E+03 0. -1.
      622    1    1    2    0    0 -0.15156017710E-01  0.13664381730E-01  0.39777412327E+01  0.39790503558E+01  0.10000000000E+00 0. -1.
</event>
<event>
 5   0  0.6262544E+06  0.9118800E+02  0.7818608E-02  0.1180000E+00
       11   -1    0    0    0    0  0.00000000000E+00  0.00000000000E+00  0.39999999673E+01  0.40000000000E+01  0.51109989000E-03 0. -1.
     -623   -1    0    0    0    0  0.00000000000E+00  0.00000000000E+00  0.12525980253E-10  0.17130000000E+03  0.17130000000E+03 0. -1.
       11    1    1    2    0    0  0.47416523096E-01 -0.28007111800E-01  0.35403122096E+01  0.35407405338E+01  0.51109989000E-03 0. -1.
     -623    1    1    2    0    0  0.42210381441E-02  0.12000043994E-01  0.14720816818E-01  0.17130000110E+03  0.17130000000E+03 0. -1.
      622    1    1    2    0    0 -0.51637561240E-01  0.16007067805E-01  0.44496694098E+00  0.45925836140E+00  0.10000000000E+00 0. -1.
</event>
<event>
 5   0  0.6262544E+06  0.9118800E+02  0.7818608E-02  0.1180000E+00
       11   -1    0    0    0    0  0.00000000000E+00  0.00000000000E+00  0.39999999673E+01  0.40000000000E+01  0.51109989000E-03 0.  1.
     -623   -1    0    0    0    0  0.00000000000E+00  0.00000000000E+00  0.12525980253E-10  0.17130000000E+03  0.17130000000E+03 0.  1.
       11    1    1    2    0    0 -0.28515755484E-01 -0.58545199078E-01  0.48048993590E+00  0.48488300483E+00  0.51109989000E-03 0.  1.
     -623    1    1    2    0    0  0.33182889383E-01  0.12707009108E-01  0.61216540248E-02  0.17130000379E+03  0.17130000000E+03 0.  1.
      622    1    1    2    0    0 -0.46671338987E-02  0.45838189970E-01  0.35133883774E+01  0.35151132005E+01  0.10000000000E+00 0.  1.
</event>
<event>
 5   0  0.6262544E+06  0.9118800E+02  0.7818608E-02  0.1180000E+00
       11   -1    0    0    0    0  0.00000000000E+00  0.00000000000E+00  0.39999999673E+01  0.40000000000E+01  0.51109989000E-03 0. -1.
     -623   -1    0    0    0    0  0.00000000000E+00  0.00000000000E+00  0.12525980253E-10  0.17130000000E+03  0.17130000000E+03 0.  1.
       11    1    1    2    0    0  0.29952787301E-01  0.60909488476E-01  0.79334264107E+00  0.79624113346E+00  0.51109989000E-03 0. -1.
     -623    1    1    2    0    0 -0.24576071258E-01 -0.57403701531E-02  0.49412293758E-02  0.17130000193E+03  0.17130000000E+03 0.  1.
      622    1    1    2    0    0 -0.53767160433E-02 -0.55169118323E-01  0.32017160968E+01  0.32037569361E+01  0.10000000000E+00 0. -1.
</event>
<event>
 5   0  0.6262544E+06  0.9118800E+02  0.7818608E-02  0.1180000E+00
       11   -1    0    0    0    0  0.00000000000E+00  0.00000000000E+00  0.39999999673E+01  0.40000000000E+01  0.51109989000E-03 0. -1.
     -623   -1    0    0    0    0  0.00000000000E+00  0.00000000000E+00  0.12525980253E-10  0.17130000000E+03  0.17130000000E+03 0. -1.
       11    1    1    2    0    0 -0.35648959459E-03  0.11325638567E-02  0.20905703716E-01  0.20945630924E-01  0.51109989000E-03 0. -1.
     -623    1    1    2    0    0  0.22318113676E-02 -0.49533132536E-02  0.12990411262E-02  0.17130000009E+03  0.17130000000E+03 0. -1.
      622    1    1    2    0    0 -0.18753217730E-02  0.38207493969E-02  0.39777952225E+01  0.39790542780E+01  0.10000000000E+00 0. -1.
</event>
<event>
 5   0  0.6262544E+06  0.9118800E+02  0.7818608E-02  0.1180000E+00
       11   -1    0    0    0    0  0.00000000000E+00  0.00000000000E+00  0.39999999673E+01  0.40000000000E+01  0.51109989000E-03 0.  1.
     -623   -1    0    0    0    0  0.00000000000E+00  0.00000000000E+00  0.12525980253E-10  0.17130000000E+03  0.17130000000E+03 0. -1.
       11    1    1    2    0    0  0.14070594782E-01 -0.16155970894E-03  0.16469287858E+00  0.16529371802E+00  0.51109989000E-03 0.  1.
     -623    1    1    2    0    0 -0.74184987155E-02  0.53398977949E-02  0.19144332948E-02  0.17130000025E+03  0.17130000000E+03 0. -1.
      622    1    1    2    0    0 -0.66520960663E-02 -0.51783380862E-02  0.38333926556E+01  0.38347060276E+01  0.10000000000E+00 0.  1.
</event>
<event>
 5   0  0.6262544E+06  0.9118800E+02  0.7818608E-02  0.1180000E+00
       11   -1    0    0    0    0  0.00000000000E+00  0.00000000000E+00  0.39999999673E+01  0.40000000000E+01  0.51109989000E-03 0.  1.
     -623   -1    0    0    0    0  0.00000000000E+00  0.00000000000E+00  0.12525980253E-10  0.17130000000E+03  0.17130000000E+03 0. -1.
       11    1    1    2    0    0  0.10445900208E-02 -0.15571371019E-01  0.13209359222E+01  0.13210282096E+01  0.51109989000E-03 0.  1.
     -623    1    1    2    0    0 -0.63042153572E-01  0.22356759237E-01  0.26989674233E-02  0.17130001308E+03  0.17130000000E+03 0. -1.
      622    1    1    2    0    0  0.61997563549E-01 -0.67853882177E-02  0.26763650776E+01  0.26789587097E+01  0.10000000000E+00 0.  0.
</event>
<event>
 5   0  0.6262544E+06  0.9118800E+02  0.7818608E-02  0.1180000E+00
       11   -1    0    0    0    0  0.00000000000E+00  0.00000000000E+00  0.39999999673E+01  0.40000000000E+01  0.51109989000E-03 0. -1.
     -623   -1    0    0    0    0  0.00000000000E+00  0.00000000000E+00  0.12525980253E-10  0.17130000000E+03  0.17130000000E+03 0. -1.
       11    1    1    2    0    0  0.16467858493E-01  0.51265469832E-02  0.81257700040E-01  0.83069530417E-01  0.51109989000E-03 0. -1.
     -623    1    1    2    0    0 -0.11325223910E-01  0.95191802127E-02  0.31199499642E-02  0.17130000067E+03  0.17130000000E+03 0. -1.
      622    1    1    2    0    0 -0.51426345826E-02 -0.14645727196E-01  0.39156223174E+01  0.39169298023E+01  0.10000000000E+00 0. -1.
</event>
<event>
 5   0  0.6262544E+06  0.9118800E+02  0.7818608E-02  0.1180000E+00
       11   -1    0    0    0    0  0.00000000000E+00  0.00000000000E+00  0.39999999673E+01  0.40000000000E+01  0.51109989000E-03 0.  1.
     -623   -1    0    0    0    0  0.00000000000E+00  0.00000000000E+00  0.12525980253E-10  0.17130000000E+03  0.17130000000E+03 0. -1.
       11    1    1    2    0    0  0.68298152085E-01  0.71316399094E-01  0.30030932363E+01  0.30047162784E+01  0.51109989000E-03 0.  1.
     -623    1    1    2    0    0 -0.10451624826E+00  0.21325904017E-01  0.11701963276E-01  0.17130003361E+03  0.17130000000E+03 0. -1.
      622    1    1    2    0    0  0.36218096177E-01 -0.92642303112E-01  0.98520476780E+00  0.99525010993E+00  0.10000000000E+00 0.  1.
</event>
<event>
 5   0  0.6262544E+06  0.9118800E+02  0.7818608E-02  0.1180000E+00
       11   -1    0    0    0    0  0.00000000000E+00  0.00000000000E+00  0.39999999673E+01  0.40000000000E+01  0.51109989000E-03 0.  1.
     -623   -1    0    0    0    0  0.00000000000E+00  0.00000000000E+00  0.12525980253E-10  0.17130000000E+03  0.17130000000E+03 0. -1.
       11    1    1    2    0    0 -0.54637986033E-03 -0.39823836063E-02  0.10490232709E-01  0.11245626507E-01  0.51109989000E-03 0.  1.
     -623    1    1    2    0    0  0.63442046085E-02  0.14208709988E-02  0.20142553736E-02  0.17130000014E+03  0.17130000000E+03 0. -1.
      622    1    1    2    0    0 -0.57978247483E-02  0.25615126075E-02  0.39874954793E+01  0.39887542383E+01  0.10000000000E+00 0.  1.
</event>
<event>
 5   0  0.6262544E+06  0.9118800E+02  0.7818608E-02  0.1180000E+00
       11   -1    0    0    0    0  0.00000000000E+00  0.00000000000E+00  0.39999999673E+01  0.40000000000E+01  0.51109989000E-03 0. -1.
     -623   -1    0    0    0    0  0.00000000000E+00  0.00000000000E+00  0.12525980253E-10  0.17130000000E+03  0.17130000000E+03 0. -1.
       11    1    1    2    0    0  0.11534075618E-01 -0.49703507502E-02  0.89058974899E-01  0.89941656200E-01  0.51109989000E-03 0. -1.
     -623    1    1    2    0    0  0.15815143416E-01  0.18792746883E-01  0.22835088746E-02  0.17130000178E+03  0.17130000000E+03 0. -1.
      622    1    1    2    0    0 -0.27349219034E-01 -0.13822396132E-01  0.39086574836E+01  0.39100565677E+01  0.10000000000E+00 0. -1.
</event>
<event>
 5   0  0.6262544E+06  0.9118800E+02  0.7818608E-02  0.1180000E+00
       11   -1    0    0    0    0  0.00000000000E+00  0.00000000000E+00  0.39999999673E+01  0.40000000000E+01  0.51109989000E-03 0.  1.
     -623   -1    0    0    0    0  0.00000000000E+00  0.00000000000E+00  0.12525980253E-10  0.17130000000E+03  0.17130000000E+03 0.  1.
       11    1    1    2    0    0  0.28288172096E-01  0.17960222323E-02  0.27104081249E+00  0.27251941147E+00  0.51109989000E-03 0.  1.
     -623    1    1    2    0    0 -0.53120099661E-01 -0.76010959993E-02  0.29158954461E-02  0.17130000843E+03  0.17130000000E+03 0.  1.
      622    1    1    2    0    0  0.24831927565E-01  0.58050737670E-02  0.37260432594E+01  0.37274721588E+01  0.10000000000E+00 0.  1.
</event>
<event>
 5   0  0.6262544E+06  0.9118800E+02  0.7818608E-02  0.1180000E+00
       11   -1    0    0    0    0  0.00000000000E+00  0.00000000000E+00  0.39999999673E+01  0.40000000000E+01  0.51109989000E-03 0. -1.
     -623   -1    0    0    0    0  0.00000000000E+00  0.00000000000E+00  0.12525980253E-10  0.17130000000E+03  0.17130000000E+03 0.  1.
       11    1    1    2    0    0  0.39707067810E-02 -0.91874849402E-02  0.37392740696E-02  0.10696718385E-01  0.51109989000E-03 0. -1.
     -623    1    1    2    0    0 -0.13891337224E-01  0.80355860404E-02  0.82244153729E-02  0.17130000095E+03  0.17130000000E+03 0.  1.
      622    1    1    2    0    0  0.99206304434E-02  0.11518988998E-02  0.39880362779E+01  0.39893023325E+01  0.10000000000E+00 0. -1.
</event>
<event>
 5   0  0.6262544E+06  0.9118800E+02  0.7818608E-02  0.1180000E+00
       11   -1    0    0    0    0  0.00000000000E+00  0.00000000000E+00  0.39999999673E+01  0.40000000000E+01  0.51109989000E-03 0. -1.
     -623   -1    0    0    0    0  0.00000000000E+00  0.00000000000E+00  0.12525980253E-10  0.17130000000E+03  0.17130000000E+03 0.  1.
       11    1    1    2    0    0 -0.33854924833E-04  0.11452532215E-02 -0.50954405496E-03  0.13541083187E-02  0.51109989000E-03 0. -1.
     -623    1    1    2    0    0  0.28784952578E-02 -0.17202591685E-02  0.31153532908E-02  0.17130000006E+03  0.17130000000E+03 0.  1.
      622    1    1    2    0    0 -0.28446403330E-02  0.57500594699E-03  0.39973941582E+01  0.39986458306E+01  0.10000000000E+00 0. -1.
</event>
<event>
 5   0  0.6262544E+06  0.9118800E+02  0.7818608E-02  0.1180000E+00
       11   -1    0    0    0    0  0.00000000000E+00  0.00000000000E+00  0.39999999673E+01  0.40000000000E+01  0.51109989000E-03 0.  1.
     -623   -1    0    0    0    0  0.00000000000E+00  0.00000000000E+00  0.12525980253E-10  0.17130000000E+03  0.17130000000E+03 0.  1.
       11    1    1    2    0    0  0.50150664870E-02  0.54032891663E-01  0.98489429832E+00  0.98638823207E+00  0.51109989000E-03 0.  1.
     -623    1    1    2    0    0 -0.56167496833E-03 -0.38577786964E-02  0.35748256015E-02  0.17130000008E+03  0.17130000000E+03 0.  1.
      622    1    1    2    0    0 -0.44533915187E-02 -0.50175112967E-01  0.30115308434E+01  0.30136116863E+01  0.10000000000E+00 0.  0.
</event>
<event>
 5   0  0.6262544E+06  0.9118800E+02  0.7818608E-02  0.1180000E+00
       11   -1    0    0    0    0  0.00000000000E+00  0.00000000000E+00  0.39999999673E+01  0.40000000000E+01  0.51109989000E-03 0.  1.
     -623   -1    0    0    0    0  0.00000000000E+00  0.00000000000E+00  0.12525980253E-10  0.17130000000E+03  0.17130000000E+03 0. -1.
       11    1    1    2    0    0 -0.86053357710E-02  0.90240380071E-02  0.13348471669E+00  0.13406683362E+00  0.51109989000E-03 0.  1.
     -623    1    1    2    0    0 -0.24405297074E-02 -0.14235494772E-02  0.18989428340E-02  0.17130000003E+03  0.17130000000E+03 0. -1.
      622    1    1    2    0    0  0.11045865478E-01 -0.76004885299E-02  0.38646163078E+01  0.38659331326E+01  0.10000000000E+00 0.  1.
</event>
<event>
 5   0  0.6262544E+06  0.9118800E+02  0.7818608E-02  0.1180000E+00
       11   -1    0    0    0    0  0.00000000000E+00  0.00000000000E+00  0.39999999673E+01  0.40000000000E+01  0.51109989000E-03 0. -1.
     -623   -1    0    0    0    0  0.00000000000E+00  0.00000000000E+00  0.12525980253E-10  0.17130000000E+03  0.17130000000E+03 0. -1.
       11    1    1    2    0    0  0.20395335558E-01 -0.61721527345E-02  0.14873999250E+01  0.14875526422E+01  0.51109989000E-03 0. -1.
     -623    1    1    2    0    0  0.71017603088E-02  0.10213881472E-01  0.22978787505E-02  0.17130000047E+03  0.17130000000E+03 0. -1.
      622    1    1    2    0    0 -0.27497095867E-01 -0.40417287378E-02  0.25103021635E+01  0.25124468906E+01  0.10000000000E+00 0. -1.
</event>
<event>
 5   0  0.6262544E+06  0.9118800E+02  0.7818608E-02  0.1180000E+00
       11   -1    0    0    0    0  0.00000000000E+00  0.00000000000E+00  0.39999999673E+01  0.40000000000E+01  0.51109989000E-03 0.  1.
     -623   -1    0    0    0    0  0.00000000000E+00  0.00000000000E+00  0.12525980253E-10  0.17130000000E+03  0.17130000000E+03 0. -1.
       11    1    1    2    0    0  0.79444408553E-02 -0.43188435573E-01  0.53223393618E-01  0.69002506897E-01  0.51109989000E-03 0.  1.
     -623    1    1    2    0    0 -0.72512527198E-02 -0.12486853863E-01  0.17447203199E-01  0.17130000150E+03  0.17130000000E+03 0. -1.
      622    1    1    2    0    0 -0.69318813556E-03  0.55675289436E-01  0.39293293705E+01  0.39309959960E+01  0.10000000000E+00 0.  1.
</event>
<event>
 5   0  0.6262544E+06  0.9118800E+02  0.7818608E-02  0.1180000E+00
       11   -1    0    0    0    0  0.00000000000E+00  0.00000000000E+00  0.39999999673E+01  0.40000000000E+01  0.51109989000E-03 0. -1.
     -623   -1    0    0    0    0  0.00000000000E+00  0.00000000000E+00  0.12525980253E-10  0.17130000000E+03  0.17130000000E+03 0.  1.
       11    1    1    2    0    0  0.26497641070E-02  0.12304173140E-02  0.10506699649E+00  0.10510884906E+00  0.51109989000E-03 0. -1.
     -623    1    1    2    0    0  0.25070166544E-03 -0.47825596316E-02  0.13285372324E-02  0.17130000007E+03  0.17130000000E+03 0.  1.
      622    1    1    2    0    0 -0.29004657725E-02  0.35521423175E-02  0.38936044336E+01  0.38948910788E+01  0.10000000000E+00 0. -1.
</event>
<event>
 5   0  0.6262544E+06  0.9118800E+02  0.7818608E-02  0.1180000E+00
       11   -1    0    0    0    0  0.00000000000E+00  0.00000000000E+00  0.39999999673E+01  0.40000000000E+01  0.51109989000E-03 0.  1.
     -623   -1    0    0    0    0  0.00000000000E+00  0.00000000000E+00  0.12525980253E-10  0.17130000000E+03  0.17130000000E+03 0. -1.
       11    1    1    2    0    0 -0.12978317130E-02  0.29447147656E-02  0.43478699484E+00  0.43479920402E+00  0.51109989000E-03 0.  1.
     -623    1    1    2    0    0 -0.30262288519E-03 -0.23851386884E-02  0.14153240725E-02  0.17130000002E+03  0.17130000000E+03 0. -1.
      622    1    1    2    0    0  0.16004545982E-02 -0.55957607716E-03  0.35637976485E+01  0.35652007733E+01  0.10000000000E+00 0.  1.
</event>
<event>
 5   0  0.6262544E+06  0.9118800E+02  0.7818608E-02  0.1180000E+00
       11   -1    0    0    0    0  0.00000000000E+00  0.00000000000E+00  0.39999999673E+01  0.40000000000E+01  0.51109989000E-03 0. -1.
     -623   -1    0    0    0    0  0.00000000000E+00  0.00000000000E+00  0.12525980253E-10  0.17130000000E+03  0.17130000000E+03 0. -1.
       11    1    1    2    0    0 -0.48297980255E-02 -0.26084259552E-03 -0.10969124178E-03  0.48650018594E-02  0.51109989000E-03 0. -1.
     -623    1    1    2    0    0 -0.12649623429E-01  0.92759702114E-02  0.62756368245E-02  0.17130000083E+03  0.17130000000E+03 0. -1.
      622    1    1    2    0    0  0.17479421454E-01 -0.90151276160E-02  0.39938340218E+01  0.39951341650E+01  0.10000000000E+00 0. -1.
</event>
<event>
 5   0  0.6262544E+06  0.9118800E+02  0.7818608E-02  0.1180000E+00
       11   -1    0    0    0    0  0.00000000000E+00  0.00000000000E+00  0.39999999673E+01  0.40000000000E+01  0.51109989000E-03 0. -1.
     -623   -1    0    0    0    0  0.00000000000E+00  0.00000000000E+00  0.12525980253E-10  0.17130000000E+03  0.17130000000E+03 0.  1.
       11    1    1    2    0    0 -0.25706208437E-01  0.25363729259E-02  0.84920474297E+00  0.84959766893E+00  0.51109989000E-03 0. -1.
     -623    1    1    2    0    0  0.17887068980E-02 -0.24090950769E-02  0.20712701392E-02  0.17130000004E+03  0.17130000000E+03 0.  1.
      622    1    1    2    0    0  0.23917501539E-01 -0.12727784902E-03  0.31487239542E+01  0.31504022922E+01  0.10000000000E+00 0. -1.
</event>
<event>
 5   0  0.6262544E+06  0.9118800E+02  0.7818608E-02  0.1180000E+00
       11   -1    0    0    0    0  0.00000000000E+00  0.00000000000E+00  0.39999999673E+01  0.40000000000E+01  0.51109989000E-03 0. -1.
     -623   -1    0    0    0    0  0.00000000000E+00  0.00000000000E+00  0.12525980253E-10  0.17130000000E+03  0.17130000000E+03 0. -1.
       11    1    1    2    0    0  0.71421100881E-02 -0.39440080608E-02  0.65293094583E-01  0.65802844615E-01  0.51109989000E-03 0. -1.
     -623    1    1    2    0    0 -0.45588858204E-02  0.81630483510E-03  0.17829940041E-02  0.17130000007E+03  0.17130000000E+03 0. -1.
      622    1    1    2    0    0 -0.25832242676E-02  0.31277032257E-02  0.39329238788E+01  0.39341970835E+01  0.10000000000E+00 0. -1.
</event>
<event>
 5   0  0.6262544E+06  0.9118800E+02  0.7818608E-02  0.1180000E+00
       11   -1    0    0    0    0  0.00000000000E+00  0.00000000000E+00  0.39999999673E+01  0.40000000000E+01  0.51109989000E-03 0. -1.
     -623   -1    0    0    0    0  0.00000000000E+00  0.00000000000E+00  0.12525980253E-10  0.17130000000E+03  0.17130000000E+03 0. -1.
       11    1    1    2    0    0  0.87244083596E-03  0.77367989129E-02  0.29775144988E-01  0.30780508322E-01  0.51109989000E-03 0. -1.
     -623    1    1    2    0    0  0.42308320737E-02 -0.28653723697E-02  0.22715874720E-02  0.17130000009E+03  0.17130000000E+03 0. -1.
      622    1    1    2    0    0 -0.51032729099E-02 -0.48714265430E-02  0.39679532351E+01  0.39692194006E+01  0.10000000000E+00 0. -1.
</event>
<event>
 5   0  0.6262544E+06  0.9118800E+02  0.7818608E-02  0.1180000E+00
       11   -1    0    0    0    0  0.00000000000E+00  0.00000000000E+00  0.39999999673E+01  0.40000000000E+01  0.51109989000E-03 0.  1.
     -623   -1    0    0    0    0  0.00000000000E+00  0.00000000000E+00  0.12525980253E-10  0.17130000000E+03  0.17130000000E+03 0. -1.
       11    1    1    2    0    0  0.35415109663E-01 -0.10910633809E-01  0.47721638582E+00  0.47865333180E+00  0.51109989000E-03 0.  1.
     -623    1    1    2    0    0  0.67808725705E-02  0.13324522577E-01  0.31115462522E-02  0.17130000068E+03  0.17130000000E+03 0. -1.
      622    1    1    2    0    0 -0.42195982234E-01 -0.24138887675E-02  0.35196720353E+01  0.35213459875E+01  0.10000000000E+00 0.  1.
</event>
<event>
 5   0  0.6262544E+06  0.9118800E+02  0.7818608E-02  0.1180000E+00
       11   -1    0    0    0    0  0.00000000000E+00  0.00000000000E+00  0.39999999673E+01  0.40000000000E+01  0.51109989000E-03 0.  1.
     -623   -1    0    0    0    0  0.00000000000E+00  0.00000000000E+00  0.12525980253E-10  0.17130000000E+03  0.17130000000E+03 0. -1.
       11    1    1    2    0    0 -0.74811373807E-02  0.40783307891E-02 -0.14781891995E-02  0.86629362771E-02  0.51109989000E-03 0.  1.
     -623    1    1    2    0    0  0.15330649551E-01 -0.40965475566E-02  0.11402838447E-01  0.17130000111E+03  0.17130000000E+03 0. -1.
      622    1    1    2    0    0 -0.78495121707E-02  0.18216767520E-04  0.39900753181E+01  0.39913359492E+01  0.10000000000E+00 0.  1.
</event>
<event>
 5   0  0.6262544E+06  0.9118800E+02  0.7818608E-02  0.1180000E+00
       11   -1    0    0    0    0  0.00000000000E+00  0.00000000000E+00  0.39999999673E+01  0.40000000000E+01  0.51109989000E-03 0.  1.
     -623   -1    0    0    0    0  0.00000000000E+00  0.00000000000E+00  0.12525980253E-10  0.17130000000E+03  0.17130000000E+03 0. -1.
       11    1    1    2    0    0 -0.36803502970E-01 -0.81948852258E-02  0.18110307251E+00  0.18498712947E+00  0.51109989000E-03 0.  1.
     -623    1    1    2    0    0 -0.76717202934E-02  0.94641405959E-02  0.54549354741E-02  0.17130000052E+03  0.17130000000E+03 0. -1.
      622    1    1    2    0    0  0.44475223264E-01 -0.12692553703E-02  0.38134419594E+01  0.38150123505E+01  0.10000000000E+00 0.  1.
</event>
<event>
 5   0  0.6262544E+06  0.9118800E+02  0.7818608E-02  0.1180000E+00
       11   -1    0    0    0    0  0.00000000000E+00  0.00000000000E+00  0.39999999673E+01  0.40000000000E+01  0.51109989000E-03 0. -1.
     -623   -1    0    0    0    0  0.00000000000E+00  0.00000000000E+00  0.12525980253E-10  0.17130000000E+03  0.17130000000E+03 0. -1.
       11    1    1    2    0    0  0.12563490845E-01 -0.11515998595E-01  0.31591029279E+00  0.31637008998E+00  0.51109989000E-03 0. -1.
     -623    1    1    2    0    0 -0.42744833004E-02 -0.68696427573E-02  0.18728027191E-02  0.17130000020E+03  0.17130000000E+03 0. -1.
      622    1    1    2    0    0 -0.82890075451E-02  0.18385641353E-01  0.36822168719E+01  0.36836297087E+01  0.10000000000E+00 0. -1.
</event>
<event>
 5   0  0.6262544E+06  0.9118800E+02  0.7818608E-02  0.1180000E+00
       11   -1    0    0    0    0  0.00000000000E+00  0.00000000000E+00  0.39999999673E+01  0.40000000000E+01  0.51109989000E-03 0. -1.
     -623   -1    0    0    0    0  0.00000000000E+00  0.00000000000E+00  0.12525980253E-10  0.17130000000E+03  0.17130000000E+03 0. -1.
       11    1    1    2    0    0  0.86278780802E-02  0.35114531869E-02  0.10587927169E-01  0.14111555849E-01  0.51109989000E-03 0. -1.
     -623    1    1    2    0    0 -0.54787469075E-02 -0.44367746100E-02  0.47797826433E-02  0.17130000021E+03  0.17130000000E+03 0. -1.
      622    1    1    2    0    0 -0.31491311726E-02  0.92532142316E-03  0.39846322576E+01  0.39858882325E+01  0.10000000000E+00 0. -1.
</event>
<event>
 5   0  0.6262544E+06  0.9118800E+02  0.7818608E-02  0.1180000E+00
       11   -1    0    0    0    0  0.00000000000E+00  0.00000000000E+00  0.39999999673E+01  0.40000000000E+01  0.51109989000E-03 0.  1.
     -623   -1    0    0    0    0  0.00000000000E+00  0.00000000000E+00  0.12525980253E-10  0.17130000000E+03  0.17130000000E+03 0. -1.
       11    1    1    2    0    0  0.46747555749E-02  0.15021504251E-01  0.31125135149E+00  0.31164910389E+00  0.51109989000E-03 0.  1.
     -623    1    1    2    0    0 -0.56012658321E-02  0.19714710640E-02  0.17929767625E-02  0.17130000011E+03  0.17130000000E+03 0. -1.
      622    1    1    2    0    0  0.92651025743E-03 -0.16992975315E-01  0.36869556392E+01  0.36883507839E+01  0.10000000000E+00 0.  1.
</event>
<event>
 5   0  0.6262544E+06  0.9118800E+02  0.7818608E-02  0.1180000E+00
       11   -1    0    0    0    0  0.00000000000E+00  0.00000000000E+00  0.39999999673E+01  0.40000000000E+01  0.51109989000E-03 0. -1.
     -623   -1    0    0    0    0  0.00000000000E+00  0.00000000000E+00  0.12525980253E-10  0.17130000000E+03  0.17130000000E+03 0. -1.
       11    1    1    2    0    0  0.30539614138E-02 -0.12725149285E-01  0.40365603320E-01  0.42437003418E-01  0.51109989000E-03 0. -1.
     -623    1    1    2    0    0 -0.24970497122E-01  0.66737724521E-02  0.34022909171E-02  0.17130000198E+03  0.17130000000E+03 0. -1.
      622    1    1    2    0    0  0.21916535708E-01  0.60513768331E-02  0.39562320731E+01  0.39575610127E+01  0.10000000000E+00 0. -1.
</event>
<event>
 5   0  0.6262544E+06  0.9118800E+02  0.7818608E-02  0.1180000E+00
       11   -1    0    0    0    0  0.00000000000E+00  0.00000000000E+00  0.39999999673E+01  0.40000000000E+01  0.51109989000E-03 0.  1.
     -623   -1    0    0    0    0  0.00000000000E+00  0.00000000000E+00  0.12525980253E-10  0.17130000000E+03  0.17130000000E+03 0. -1.
       11    1    1    2    0    0  0.11955252014E-03  0.22388908903E-01  0.12863796295E+01  0.12865745567E+01  0.51109989000E-03 0.  1.
     -623    1    1    2    0    0 -0.10335498144E-01 -0.41510076303E-01  0.21302320709E-02  0.17130000535E+03  0.17130000000E+03 0. -1.
      622    1    1    2    0    0  0.10215945624E-01  0.19121167401E-01  0.27114901058E+01  0.27134200888E+01  0.10000000000E+00 0.  1.
</event>
<event>
 5   0  0.6262544E+06  0.9118800E+02  0.7818608E-02  0.1180000E+00
       11   -1    0    0    0    0  0.00000000000E+00  0.00000000000E+00  0.39999999673E+01  0.40000000000E+01  0.51109989000E-03 0.  1.
     -623   -1    0    0    0    0  0.00000000000E+00  0.00000000000E+00  0.12525980253E-10  0.17130000000E+03  0.17130000000E+03 0.  1.
       11    1    1    2    0    0  0.46501441939E-01  0.19289748374E-01  0.80699573316E+00  0.80856468699E+00  0.51109989000E-03 0.  1.
     -623    1    1    2    0    0  0.39487851528E-02  0.20734520349E-02  0.36066214194E-02  0.17130000010E+03  0.17130000000E+03 0.  1.
      622    1    1    2    0    0 -0.50450227091E-01 -0.21363200409E-01  0.31893976128E+01  0.31914352170E+01  0.10000000000E+00 0.  0.
</event>
<event>
 5   0  0.6262544E+06  0.9118800E+02  0.7818608E-02  0.1180000E+00
       11   -1    0    0    0    0  0.00000000000E+00  0.00000000000E+00  0.39999999673E+01  0.40000000000E+01  0.51109989000E-03 0. -1.
     -623   -1    0    0    0    0  0.00000000000E+00  0.00000000000E+00  0.12525980253E-10  0.17130000000E+03  0.17130000000E+03 0. -1.
       11    1    1    2    0    0 -0.35338176461E-02  0.10018103226E-01  0.50702309371E-01  0.51805749276E-01  0.51109989000E-03 0. -1.
     -623    1    1    2    0    0 -0.51412664039E-02 -0.82081121174E-02  0.23802512470E-02  0.17130000029E+03  0.17130000000E+03 0. -1.
      622    1    1    2    0    0  0.86750840500E-02 -0.18099911084E-02  0.39469174067E+01  0.39481939604E+01  0.10000000000E+00 0. -1.
</event>
<event>
 5   0  0.6262544E+06  0.9118800E+02  0.7818608E-02  0.1180000E+00
       11   -1    0    0    0    0  0.00000000000E+00  0.00000000000E+00  0.39999999673E+01  0.40000000000E+01  0.51109989000E-03 0. -1.
     -623   -1    0    0    0    0  0.00000000000E+00  0.00000000000E+00  0.12525980253E-10  0.17130000000E+03  0.17130000000E+03 0.  1.
       11    1    1    2    0    0  0.84846106217E-01 -0.75937390116E-01  0.10404659629E+01  0.10466780929E+01  0.51109989000E-03 0. -1.
     -623    1    1    2    0    0 -0.16234183531E-01  0.86960408097E-02  0.94706325702E-02  0.17130000125E+03  0.17130000000E+03 0.  1.
      622    1    1    2    0    0 -0.68611922686E-01  0.67241349306E-01  0.29500633719E+01  0.29533206553E+01  0.10000000000E+00 0.  0.
</event>
<event>
 5   0  0.6262544E+06  0.9118800E+02  0.7818608E-02  0.1180000E+00
       11   -1    0    0    0    0  0.00000000000E+00  0.00000000000E+00  0.39999999673E+01  0.40000000000E+01  0.51109989000E-03 0. -1.
     -623   -1    0    0    0    0  0.00000000000E+00  0.00000000000E+00  0.12525980253E-10  0.17130000000E+03  0.17130000000E+03 0.  1.
       11    1    1    2    0    0  0.26433195041E-01 -0.87355844107E-02  0.70598905952E-01  0.75891310305E-01  0.51109989000E-03 0. -1.
     -623    1    1    2    0    0 -0.29024506111E-01  0.23295819175E-02  0.65754415300E-02  0.17130000260E+03  0.17130000000E+03 0.  1.
      622    1    1    2    0    0  0.25913110706E-02  0.64060024932E-02  0.39228256199E+01  0.39241060888E+01  0.10000000000E+00 0.  0.
</event>
<event>
 5   0  0.6262544E+06  0.9118800E+02  0.7818608E-02  0.1180000E+00
       11   -1    0    0    0    0  0.00000000000E+00  0.00000000000E+00  0.39999999673E+01  0.40000000000E+01  0.51109989000E-03 0.  1.
     -623   -1    0    0    0    0  0.00000000000E+00  0.00000000000E+00  0.12525980253E-10  0.17130000000E+03  0.17130000000E+03 0.  1.
       11    1    1    2    0    0 -0.21633490983E-01  0.42382794631E-02  0.11372999823E+00  0.11584793767E+00  0.51109989000E-03 0.  1.
     -623    1    1    2    0    0  0.40328589904E-02  0.14337170675E-01  0.34904096110E-02  0.17130000068E+03  0.17130000000E+03 0.  1.
      622    1    1    2    0    0  0.17600631993E-01 -0.18575450138E-01  0.38827795595E+01  0.38841513793E+01  0.10000000000E+00 0.  1.
</event>
<event>
 5   0  0.6262544E+06  0.9118800E+02  0.7818608E-02  0.1180000E+00
       11   -1    0    0    0    0  0.00000000000E+00  0.00000000000E+00  0.39999999673E+01  0.40000000000E+01  0.51109989000E-03 0.  1.
     -623   -1    0    0    0    0  0.00000000000E+00  0.00000000000E+00  0.12525980253E-10  0.17130000000E+03  0.17130000000E+03 0. -1.
       11    1    1    2    0    0 -0.50707013149E-02  0.80813741731E-02  0.29481015721E+00  0.29496493119E+00  0.51109989000E-03 0.  1.
     -623    1    1    2    0    0  0.48628547471E-02  0.56075860642E-03  0.15146673344E-02  0.17130000008E+03  0.17130000000E+03 0. -1.
      622    1    1    2    0    0  0.20784656783E-03 -0.86421327796E-02  0.37036751428E+01  0.37050349922E+01  0.10000000000E+00 0.  1.
</event>
<event>
 5   0  0.6262544E+06  0.9118800E+02  0.7818608E-02  0.1180000E+00
       11   -1    0    0    0    0  0.00000000000E+00  0.00000000000E+00  0.39999999673E+01  0.40000000000E+01  0.51109989000E-03 0.  1.
     -623   -1    0    0    0    0  0.00000000000E+00  0.00000000000E+00  0.12525980253E-10  0.17130000000E+03  0.17130000000E+03 0.  1.
       11    1    1    2    0    0  0.99936498619E-02  0.17496100943E-01  0.30443432358E+00  0.30510081151E+00  0.51109989000E-03 0.  1.
     -623    1    1    2    0    0 -0.41752228982E-01  0.36627949653E-01  0.25620813878E-02  0.17130000902E+03  0.17130000000E+03 0.  1.
      622    1    1    2    0    0  0.31758579121E-01 -0.54124050597E-01  0.36930035625E+01  0.36948901651E+01  0.10000000000E+00 0.  1.
</event>
<event>
 5   0  0.6262544E+06  0.9118800E+02  0.7818608E-02  0.1180000E+00
       11   -1    0    0    0    0  0.00000000000E+00  0.00000000000E+00  0.39999999673E+01  0.40000000000E+01  0.51109989000E-03 0. -1.
     -623   -1    0    0    0    0  0.00000000000E+00  0.00000000000E+00  0.12525980253E-10  0.17130000000E+03  0.17130000000E+03 0. -1.
       11    1    1    2    0    0 -0.38365213221E-02  0.71142497822E-02  0.77074340818E-02  0.11180215047E-01  0.51109989000E-03 0. -1.
     -623    1    1    2    0    0 -0.16817214649E-01 -0.69768639684E-02  0.47809746946E-02  0.17130000103E+03  0.17130000000E+03 0. -1.
      622    1    1    2    0    0  0.20653735971E-01 -0.13738581373E-03  0.39875115586E+01  0.39888187506E+01  0.10000000000E+00 0. -1.
</event>
<event>
 5   0  0.6262544E+06  0.9118800E+02  0.7818608E-02  0.1180000E+00
       11   -1    0    0    0    0  0.00000000000E+00  0.00000000000E+00  0.39999999673E+01  0.40000000000E+01  0.51109989000E-03 0.  1.
     -623   -1    0    0    0    0  0.00000000000E+00  0.00000000000E+00  0.12525980253E-10  0.17130000000E+03  0.17130000000E+03 0.  1.
       11    1    1    2    0    0 -0.18240676396E-02 -0.20671463517E-02  0.44552371342E+00  0.44553253614E+00  0.51109989000E-03 0.  1.
     -623    1    1    2    0    0 -0.82128710427E-02 -0.97079389094E-02  0.14499157192E-02  0.17130000048E+03  0.17130000000E+03 0.  1.
      622    1    1    2    0    0  0.10036938682E-01  0.11775085261E-01  0.35530263382E+01  0.35544669858E+01  0.10000000000E+00 0.  1.
</event>
<event>
 5   0  0.6262544E+06  0.9118800E+02  0.7818608E-02  0.1180000E+00
       11   -1    0    0    0    0  0.00000000000E+00  0.00000000000E+00  0.39999999673E+01  0.40000000000E+01  0.51109989000E-03 0. -1.
     -623   -1    0    0    0    0  0.00000000000E+00  0.00000000000E+00  0.12525980253E-10  0.17130000000E+03  0.17130000000E+03 0.  1.
       11    1    1    2    0    0 -0.29734458895E-02  0.74471422371E-02  0.87511859408E-01  0.87879963957E-01  0.51109989000E-03 0. -1.
     -623    1    1    2    0    0  0.67931654539E-02 -0.60693828963E-02  0.16487184258E-02  0.17130000025E+03  0.17130000000E+03 0.  1.
      622    1    1    2    0    0 -0.38197195644E-02 -0.13777593408E-02  0.39108393895E+01  0.39121197859E+01  0.10000000000E+00 0. -1.
</event>
<event>
 5   0  0.6262544E+06  0.9118800E+02  0.7818608E-02  0.1180000E+00
       11   -1    0    0    0    0  0.00000000000E+00  0.00000000000E+00  0.39999999673E+01  0.40000000000E+01  0.51109989000E-03 0. -1.
     -623   -1    0    0    0    0  0.00000000000E+00  0.00000000000E+00  0.12525980253E-10  0.17130000000E+03  0.17130000000E+03 0.  1.
       11    1    1    2    0    0 -0.13102463904E-01  0.69450166558E-02  0.71640838019E+00  0.71656202540E+00  0.51109989000E-03 0. -1.
     -623    1    1    2    0    0  0.55359552118E-02 -0.11640031352E-01  0.16893341075E-02  0.17130000049E+03  0.17130000000E+03 0.  1.
      622    1    1    2    0    0  0.75665086921E-02  0.46950146958E-02  0.32819022531E+01  0.32834374813E+01  0.10000000000E+00 0. -1.
</event>
<event>
 5   0  0.6262544E+06  0.9118800E+02  0.7818608E-02  0.1180000E+00
       11   -1    0    0    0    0  0.00000000000E+00  0.00000000000E+00  0.39999999673E+01  0.40000000000E+01  0.51109989000E-03 0. -1.
     -623   -1    0    0    0    0  0.00000000000E+00  0.00000000000E+00  0.12525980253E-10  0.17130000000E+03  0.17130000000E+03 0.  1.
       11    1    1    2    0    0  0.12019137613E-02  0.35143131532E-02  0.41094711016E-01  0.41265378833E-01  0.51109989000E-03 0. -1.
     -623    1    1    2    0    0 -0.20034075864E-02 -0.26238444780E-02  0.14340857454E-02  0.17130000004E+03  0.17130000000E+03 0.  1.
      622    1    1    2    0    0  0.80149382528E-03 -0.89046867487E-03  0.39574711710E+01  0.39587345838E+01  0.10000000000E+00 0. -1.
</event>
<event>
 5   0  0.6262544E+06  0.9118800E+02  0.7818608E-02  0.1180000E+00
       11   -1    0    0    0    0  0.00000000000E+00  0.00000000000E+00  0.39999999673E+01  0.40000000000E+01  0.51109989000E-03 0.  1.
     -623   -1    0    0    0    0  0.00000000000E+00  0.00000000000E+00  0.12525980253E-10  0.17130000000E+03  0.17130000000E+03 0.  1.
       11    1    1    2    0    0 -0.63838841004E-02 -0.11331541701E-01  0.37706952815E+00  0.37729411352E+00  0.51109989000E-03 0.  1.
     -623    1    1    2    0    0 -0.67543426119E-05  0.35292171734E-02  0.16190877008E-02  0.17130000004E+03  0.17130000000E+03 0.  1.
      622    1    1    2    0    0  0.63906384430E-02  0.78023245275E-02  0.36213113517E+01  0.36227058426E+01  0.10000000000E+00 0.  1.
</event>
<event>
 5   0  0.6262544E+06  0.9118800E+02  0.7818608E-02  0.1180000E+00
       11   -1    0    0    0    0  0.00000000000E+00  0.00000000000E+00  0.39999999673E+01  0.40000000000E+01  0.51109989000E-03 0. -1.
     -623   -1    0    0    0    0  0.00000000000E+00  0.00000000000E+00  0.12525980253E-10  0.17130000000E+03  0.17130000000E+03 0.  1.
       11    1    1    2    0    0 -0.53795107544E-01  0.19325480819E-03  0.31710406515E+01  0.31714969692E+01  0.51109989000E-03 0. -1.
     -623    1    1    2    0    0 -0.66842344040E-02  0.24879941125E-01  0.91256477661E-02  0.17130000218E+03  0.17130000000E+03 0.  1.
      622    1    1    2    0    0  0.60479341948E-01 -0.25073195933E-01  0.81983366809E+00  0.82850085051E+00  0.10000000000E+00 0.  0.
</event>
<event>
 5   0  0.6262544E+06  0.9118800E+02  0.7818608E-02  0.1180000E+00
       11   -1    0    0    0    0  0.00000000000E+00  0.00000000000E+00  0.39999999673E+01  0.40000000000E+01  0.51109989000E-03 0. -1.
     -623   -1    0    0    0    0  0.00000000000E+00  0.00000000000E+00  0.12525980253E-10  0.17130000000E+03  0.17130000000E+03 0.  1.
       11    1    1    2    0    0 -0.34671867127E-01  0.62749275090E-01  0.14487604082E+01  0.14505332094E+01  0.51109989000E-03 0. -1.
     -623    1    1    2    0    0  0.17409812670E-01 -0.51114118982E-03  0.45545513522E-02  0.17130000095E+03  0.17130000000E+03 0.  1.
      622    1    1    2    0    0  0.17262054457E-01 -0.62238133900E-01  0.25466850078E+01  0.25494658446E+01  0.10000000000E+00 0. -1.
</event>
<event>
 5   0  0.6262544E+06  0.9118800E+02  0.7818608E-02  0.1180000E+00
       11   -1    0    0    0    0  0.00000000000E+00  0.00000000000E+00  0.39999999673E+01  0.40000000000E+01  0.51109989000E-03 0.  1.
     -623   -1    0    0    0    0  0.00000000000E+00  0.00000000000E+00  0.12525980253E-10  0.17130000000E+03  0.17130000000E+03 0.  1.
       11    1    1    2    0    0 -0.18140548810E-02 -0.10262082370E-01  0.19507910383E-01  0.22122859651E-01  0.51109989000E-03 0.  1.
     -623    1    1    2    0    0  0.41136829747E-02 -0.33116409911E-04  0.38861523628E-02  0.17130000009E+03  0.17130000000E+03 0.  1.
      622    1    1    2    0    0 -0.22996280937E-02  0.10295198780E-01  0.39766059046E+01  0.39778770469E+01  0.10000000000E+00 0.  1.
</event>
<event>
 5   0  0.6262544E+06  0.9118800E+02  0.7818608E-02  0.1180000E+00
       11   -1    0    0    0    0  0.00000000000E+00  0.00000000000E+00  0.39999999673E+01  0.40000000000E+01  0.51109989000E-03 0.  1.
     -623   -1    0    0    0    0  0.00000000000E+00  0.00000000000E+00  0.12525980253E-10  0.17130000000E+03  0.17130000000E+03 0.  1.
       11    1    1    2    0    0  0.77895247673E-02 -0.16174235415E-02  0.11902601824E+00  0.11929269464E+00  0.51109989000E-03 0.  1.
     -623    1    1    2    0    0  0.35367592196E-02 -0.68314409817E-02  0.15811970841E-02  0.17130000018E+03  0.17130000000E+03 0.  1.
      622    1    1    2    0    0 -0.11326283987E-01  0.84488645233E-02  0.38793927520E+01  0.38807071253E+01  0.10000000000E+00 0.  1.
</event>
<event>
 5   0  0.6262544E+06  0.9118800E+02  0.7818608E-02  0.1180000E+00
       11   -1    0    0    0    0  0.00000000000E+00  0.00000000000E+00  0.39999999673E+01  0.40000000000E+01  0.51109989000E-03 0.  1.
     -623   -1    0    0    0    0  0.00000000000E+00  0.00000000000E+00  0.12525980253E-10  0.17130000000E+03  0.17130000000E+03 0. -1.
       11    1    1    2    0    0 -0.46951438197E-02  0.30877422250E-02  0.48565673838E-01  0.48892375950E-01  0.51109989000E-03 0.  1.
     -623    1    1    2    0    0  0.17203930934E-02 -0.81155963639E-02  0.15968687496E-02  0.17130000021E+03  0.17130000000E+03 0. -1.
      622    1    1    2    0    0  0.29747507263E-02  0.50278541389E-02  0.39498374247E+01  0.39511074157E+01  0.10000000000E+00 0.  1.
</event>
<event>
 5   0  0.6262544E+06  0.9118800E+02  0.7818608E-02  0.1180000E+00
       11   -1    0    0    0    0  0.00000000000E+00  0.00000000000E+00  0.39999999673E+01  0.40000000000E+01  0.51109989000E-03 0.  1.
     -623   -1    0    0    0    0  0.00000000000E+00  0.00000000000E+00  0.12525980253E-10  0.17130000000E+03  0.17130000000E+03 0.  1.
       11    1    1    2    0    0 -0.30670991768E-01  0.31062755460E-01  0.13210619226E+00  0.13913271280E+00  0.51109989000E-03 0.  1.
     -623    1    1    2    0    0  0.12392359084E-01  0.96717491843E-02  0.85809383413E-02  0.17130000094E+03  0.17130000000E+03 0.  1.
      622    1    1    2    0    0  0.18278632684E-01 -0.40734504645E-01  0.38593128368E+01  0.38608663510E+01  0.10000000000E+00 0.  1.
</event>
<event>
 5   0  0.6262544E+06  0.9118800E+02  0.7818608E-02  0.1180000E+00
       11   -1    0    0    0    0  0.00000000000E+00  0.00000000000E+00  0.39999999673E+01  0.40000000000E+01  0.51109989000E-03 0.  1.
     -623   -1    0    0    0    0  0.00000000000E+00  0.00000000000E+00  0.12525980253E-10  0.17130000000E+03  0.17130000000E+03 0.  1.
       11    1    1    2    0    0  0.29439317746E-02 -0.52341979524E-01  0.23977079512E+01  0.23982810574E+01  0.51109989000E-03 0.  1.
     -623    1    1    2    0    0  0.83971514447E-03  0.99443450065E-02  0.42649217307E-02  0.17130000034E+03  0.17130000000E+03 0.  1.
      622    1    1    2    0    0 -0.37836469191E-02  0.42397634517E-01  0.15980270945E+01  0.16017185989E+01  0.10000000000E+00 0.  1.
</event>
<event>
 5   0  0.6262544E+06  0.9118800E+02  0.7818608E-02  0.1180000E+00
       11   -1    0    0    0    0  0.00000000000E+00  0.00000000000E+00  0.39999999673E+01  0.40000000000E+01  0.51109989000E-03 0.  1.
     -623   -1    0    0    0    0  0.00000000000E+00  0.00000000000E+00  0.12525980253E-10  0.17130000000E+03  0.17130000000E+03 0.  1.
       11    1    1    2    0    0 -0.38167321111E-02  0.14554516268E-02  0.19690203796E-01  0.20115942237E-01  0.51109989000E-03 0.  1.
     -623    1    1    2    0    0  0.28291376347E-02 -0.14698815048E-02  0.16823826986E-02  0.17130000004E+03  0.17130000000E+03 0.  1.
      622    1    1    2    0    0  0.98759447623E-03  0.14429878158E-04  0.39786273811E+01  0.39798840200E+01  0.10000000000E+00 0.  1.
</event>
<event>
 5   0  0.6262544E+06  0.9118800E+02  0.7818608E-02  0.1180000E+00
       11   -1    0    0    0    0  0.00000000000E+00  0.00000000000E+00  0.39999999673E+01  0.40000000000E+01  0.51109989000E-03 0. -1.
     -623   -1    0    0    0    0  0.00000000000E+00  0.00000000000E+00  0.12525980253E-10  0.17130000000E+03  0.17130000000E+03 0. -1.
       11    1    1    2    0    0 -0.20417188384E-02 -0.11561637092E-01  0.21053534491E+00  0.21086306635E+00  0.51109989000E-03 0. -1.
     -623    1    1    2    0    0 -0.15104349112E-03  0.10912473294E-01  0.16485263749E-02  0.17130000036E+03  0.17130000000E+03 0. -1.
      622    1    1    2    0    0  0.21927623295E-02  0.64916379691E-03  0.37878160963E+01  0.37891365783E+01  0.10000000000E+00 0. -1.
</event>
<event>
 5   0  0.6262544E+06  0.9118800E+02  0.7818608E-02  0.1180000E+00
       11   -1    0    0    0    0  0.00000000000E+00  0.00000000000E+00  0.39999999673E+01  0.40000000000E+01  0.51109989000E-03 0.  1.
     -623   -1    0    0    0    0  0.00000000000E+00  0.00000000000E+00  0.12525980253E-10  0.17130000000E+03  0.17130000000E+03 0. -1.
       11    1    1    2    0    0 -0.16186769202E-03  0.18408016339E-01  0.20235593518E+00  0.20319219225E+00  0.51109989000E-03 0.  1.
     -623    1    1    2    0    0  0.19595913637E-01 -0.70023392078E-02  0.22215194744E-02  0.17130000128E+03  0.17130000000E+03 0. -1.
      622    1    1    2    0    0 -0.19434045945E-01 -0.11405677132E-01  0.37954225126E+01  0.37968065293E+01  0.10000000000E+00 0.  1.
</event>
<event>
 5   0  0.6262544E+06  0.9118800E+02  0.7818608E-02  0.1180000E+00
       11   -1    0    0    0    0  0.00000000000E+00  0.00000000000E+00  0.39999999673E+01  0.40000000000E+01  0.51109989000E-03 0.  1.
     -623   -1    0    0    0    0  0.00000000000E+00  0.00000000000E+00  0.12525980253E-10  0.17130000000E+03  0.17130000000E+03 0.  1.
       11    1    1    2    0    0  0.13899978604E-03  0.17826053373E-03  0.37794272025E-02  0.38205223249E-02  0.51109989000E-03 0.  1.
     -623    1    1    2    0    0 -0.74607526093E-03  0.75563491363E-03  0.12926169270E-02  0.17130000001E+03  0.17130000000E+03 0.  1.
      622    1    1    2    0    0  0.60707547487E-03 -0.93389544734E-03  0.39949279231E+01  0.39961794694E+01  0.10000000000E+00 0.  1.
</event>
<event>
 5   0  0.6262544E+06  0.9118800E+02  0.7818608E-02  0.1180000E+00
       11   -1    0    0    0    0  0.00000000000E+00  0.00000000000E+00  0.39999999673E+01  0.40000000000E+01  0.51109989000E-03 0.  1.
     -623   -1    0    0    0    0  0.00000000000E+00  0.00000000000E+00  0.12525980253E-10  0.17130000000E+03  0.17130000000E+03 0. -1.
       11    1    1    2    0    0 -0.67013984257E-01 -0.77049647932E-01  0.22646444005E+01  0.22669455318E+01  0.51109989000E-03 0.  1.
     -623    1    1    2    0    0  0.36075480162E-02 -0.24191827295E-01  0.93194589305E-02  0.17130000200E+03  0.17130000000E+03 0. -1.
      622    1    1    2    0    0  0.63406436241E-01  0.10124147523E+00  0.17260361080E+01  0.17330524685E+01  0.10000000000E+00 0.  0.
</event>
<event>
 5   0  0.6262544E+06  0.9118800E+02  0.7818608E-02  0.1180000E+00
       11   -1    0    0    0    0  0.00000000000E+00  0.00000000000E+00  0.39999999673E+01  0.40000000000E+01  0.51109989000E-03 0.  1.
     -623   -1    0    0    0    0  0.00000000000E+00  0.00000000000E+00  0.12525980253E-10  0.17130000000E+03  0.17130000000E+03 0.  1.
       11    1    1    2    0    0 -0.33410689549E-02  0.31338653143E-01  0.74860556192E+00  0.74926885861E+00  0.51109989000E-03 0.  1.
     -623    1    1    2    0    0  0.37880788970E-02 -0.13284043420E-01  0.22525083383E-02  0.17130000057E+03  0.17130000000E+03 0.  1.
      622    1    1    2    0    0 -0.44700994209E-03 -0.18054609723E-01  0.32491418971E+01  0.32507305696E+01  0.10000000000E+00 0.  0.
</event>
<event>
 5   0  0.6262544E+06  0.9118800E+02  0.7818608E-02  0.1180000E+00
       11   -1    0    0    0    0  0.00000000000E+00  0.00000000000E+00  0.39999999673E+01  0.40000000000E+01  0.51109989000E-03 0. -1.
     -623   -1    0    0    0    0  0.00000000000E+00  0.00000000000E+00  0.12525980253E-10  0.17130000000E+03  0.17130000000E+03 0.  1.
       11    1    1    2    0    0 -0.10282554291E-02 -0.31397104110E-02  0.57419490383E-01  0.57516729650E-01  0.51109989000E-03 0. -1.
     -623    1    1    2    0    0  0.20000039988E-02 -0.39423571896E-02  0.13721922101E-02  0.17130000006E+03  0.17130000000E+03 0.  1.
      622    1    1    2    0    0 -0.97174856994E-03  0.70820676010E-02  0.39412082852E+01  0.39424832082E+01  0.10000000000E+00 0. -1.
</event>
<event>
 5   0  0.6262544E+06  0.9118800E+02  0.7818608E-02  0.1180000E+00
       11   -1    0    0    0    0  0.00000000000E+00  0.00000000000E+00  0.39999999673E+01  0.40000000000E+01  0.51109989000E-03 0.  1.
     -623   -1    0    0    0    0  0.00000000000E+00  0.00000000000E+00  0.12525980253E-10  0.17130000000E+03  0.17130000000E+03 0.  1.
       11    1    1    2    0    0 -0.18923499291E-01  0.10116645626E-02  0.19609601764E+00  0.19701023234E+00  0.51109989000E-03 0.  1.
     -623    1    1    2    0    0  0.36973930380E-02  0.21168204999E-02  0.22610108423E-02  0.17130000007E+03  0.17130000000E+03 0.  1.
      622    1    1    2    0    0  0.15226106253E-01 -0.31284850625E-02  0.38016429389E+01  0.38029896998E+01  0.10000000000E+00 0.  0.
</event>
<event>
 5   0  0.6262544E+06  0.9118800E+02  0.7818608E-02  0.1180000E+00
       11   -1    0    0    0    0  0.00000000000E+00  0.00000000000E+00  0.39999999673E+01  0.40000000000E+01  0.51109989000E-03 0. -1.
     -623   -1    0    0    0    0  0.00000000000E+00  0.00000000000E+00  0.12525980253E-10  0.17130000000E+03  0.17130000000E+03 0. -1.
       11    1    1    2    0    0 -0.80967321611E-03  0.85730359820E-02  0.65661032081E-01  0.66225258578E-01  0.51109989000E-03 0. -1.
     -623    1    1    2    0    0 -0.34152711063E-02 -0.91008302193E-02  0.18380338072E-02  0.17130000029E+03  0.17130000000E+03 0. -1.
      622    1    1    2    0    0  0.42249443225E-02  0.52779423727E-03  0.39325009015E+01  0.39337744558E+01  0.10000000000E+00 0. -1.
</event>
<event>
 5   0  0.6262544E+06  0.9118800E+02  0.7818608E-02  0.1180000E+00
       11   -1    0    0    0    0  0.00000000000E+00  0.00000000000E+00  0.39999999673E+01  0.40000000000E+01  0.51109989000E-03 0. -1.
     -623   -1    0    0    0    0  0.00000000000E+00  0.00000000000E+00  0.12525980253E-10  0.17130000000E+03  0.17130000000E+03 0. -1.
       11    1    1    2    0    0 -0.46990008255E-01 -0.49597744839E-01  0.11575360477E+01  0.11595507578E+01  0.51109989000E-03 0. -1.
     -623    1    1    2    0    0  0.69675199934E-02  0.79995987488E-02  0.43628802392E-02  0.17130000038E+03  0.17130000000E+03 0. -1.
      622    1    1    2    0    0  0.40022488261E-01  0.41598146090E-01  0.28381010396E+01  0.28404488582E+01  0.10000000000E+00 0.  0.
</event>
<event>
 5   0  0.6262544E+06  0.9118800E+02  0.7818608E-02  0.1180000E+00
       11   -1    0    0    0    0  0.00000000000E+00  0.00000000000E+00  0.39999999673E+01  0.40000000000E+01  0.51109989000E-03 0. -1.
     -623   -1    0    0    0    0  0.00000000000E+00  0.00000000000E+00  0.12525980253E-10  0.17130000000E+03  0.17130000000E+03 0. -1.
       11    1    1    2    0    0 -0.42149831411E-01  0.11916531131E-02  0.27498884556E+01  0.27502117751E+01  0.51109989000E-03 0. -1.
     -623    1    1    2    0    0  0.50412939601E-03 -0.60206343929E-02  0.50362239856E-02  0.17130000018E+03  0.17130000000E+03 0. -1.
      622    1    1    2    0    0  0.41645702015E-01  0.48289812798E-02  0.12450752877E+01  0.12497880443E+01  0.10000000000E+00 0. -1.
</event>
<event>
 5   0  0.6262544E+06  0.9118800E+02  0.7818608E-02  0.1180000E+00
       11   -1    0    0    0    0  0.00000000000E+00  0.00000000000E+00  0.39999999673E+01  0.40000000000E+01  0.51109989000E-03 0.  1.
     -623   -1    0    0    0    0  0.00000000000E+00  0.00000000000E+00  0.12525980253E-10  0.17130000000E+03  0.17130000000E+03 0.  1.
       11    1    1    2    0    0 -0.61815993391E-03 -0.95601145708E-03  0.44576420411E-02  0.46290253050E-02  0.51109989000E-03 0.  1.
     -623    1    1    2    0    0  0.57751971095E-03  0.20853113105E-03  0.14230720879E-02  0.17130000001E+03  0.17130000000E+03 0.  1.
      622    1    1    2    0    0  0.40640222960E-04  0.74748032603E-03  0.39941192532E+01  0.39953709676E+01  0.10000000000E+00 0.  1.
</event>
<event>
 5   0  0.6262544E+06  0.9118800E+02  0.7818608E-02  0.1180000E+00
       11   -1    0    0    0    0  0.00000000000E+00  0.00000000000E+00  0.39999999673E+01  0.40000000000E+01  0.51109989000E-03 0.  1.
     -623   -1    0    0    0    0  0.00000000000E+00  0.00000000000E+00  0.12525980253E-10  0.17130000000E+03  0.17130000000E+03 0.  1.
       11    1    1    2    0    0  0.13479835859E-01 -0.93419315172E-02  0.21684680974E+00  0.21746672798E+00  0.51109989000E-03 0.  1.
     -623    1    1    2    0    0 -0.78351728877E-02 -0.10319406538E-01  0.19978145540E-02  0.17130000050E+03  0.17130000000E+03 0.  1.
      622    1    1    2    0    0 -0.56446629718E-02  0.19661338055E-01  0.37811553431E+01  0.37825327704E+01  0.10000000000E+00 0.  1.
</event>
<event>
 5   0  0.6262544E+06  0.9118800E+02  0.7818608E-02  0.1180000E+00
       11   -1    0    0    0    0  0.00000000000E+00  0.00000000000E+00  0.39999999673E+01  0.40000000000E+01  0.51109989000E-03 0.  1.
     -623   -1    0    0    0    0  0.00000000000E+00  0.00000000000E+00  0.12525980253E-10  0.17130000000E+03  0.17130000000E+03 0. -1.
       11    1    1    2    0    0 -0.11136898430E-01  0.11011097788E-01  0.46139361209E-01  0.48727575916E-01  0.51109989000E-03 0.  1.
     -623    1    1    2    0    0 -0.55814274752E-02 -0.14084994019E-01  0.38910905496E-02  0.17130000071E+03  0.17130000000E+03 0. -1.
      622    1    1    2    0    0  0.16718325905E-01  0.30738962315E-02  0.39499695156E+01  0.39512717099E+01  0.10000000000E+00 0.  1.
</event>
<event>
 5   0  0.6262544E+06  0.9118800E+02  0.7818608E-02  0.1180000E+00
       11   -1    0    0    0    0  0.00000000000E+00  0.00000000000E+00  0.39999999673E+01  0.40000000000E+01  0.51109989000E-03 0. -1.
     -623   -1    0    0    0    0  0.00000000000E+00  0.00000000000E+00  0.12525980253E-10  0.17130000000E+03  0.17130000000E+03 0.  1.
       11    1    1    2    0    0  0.13709081794E-01  0.31299227208E-01  0.32950079907E+00  0.33126819702E+00  0.51109989000E-03 0. -1.
     -623    1    1    2    0    0 -0.18611928488E-01 -0.58017430632E-01  0.32419632531E-02  0.17130001087E+03  0.17130000000E+03 0.  1.
      622    1    1    2    0    0  0.49028466945E-02  0.26718203424E-01  0.36672572050E+01  0.36687209363E+01  0.10000000000E+00 0. -1.
</event>
<event>
 5   0  0.6262544E+06  0.9118800E+02  0.7818608E-02  0.1180000E+00
       11   -1    0    0    0    0  0.00000000000E+00  0.00000000000E+00  0.39999999673E+01  0.40000000000E+01  0.51109989000E-03 0. -1.
     -623   -1    0    0    0    0  0.00000000000E+00  0.00000000000E+00  0.12525980253E-10  0.17130000000E+03  0.17130000000E+03 0.  1.
       11    1    1    2    0    0 -0.16412566177E-01  0.95637849902E-02  0.24014294967E+00  0.24089361928E+00  0.51109989000E-03 0. -1.
     -623    1    1    2    0    0  0.67372613355E-02  0.70827667218E-04  0.21059281703E-02  0.17130000015E+03  0.17130000000E+03 0.  1.
      622    1    1    2    0    0  0.96753048419E-02 -0.96346126574E-02  0.37577510895E+01  0.37591062353E+01  0.10000000000E+00 0. -1.
</event>
<event>
 5   0  0.6262544E+06  0.9118800E+02  0.7818608E-02  0.1180000E+00
       11   -1    0    0    0    0  0.00000000000E+00  0.00000000000E+00  0.39999999673E+01  0.40000000000E+01  0.51109989000E-03 0.  1.
     -623   -1    0    0    0    0  0.00000000000E+00  0.00000000000E+00  0.12525980253E-10  0.17130000000E+03  0.17130000000E+03 0.  1.
       11    1    1    2    0    0  0.11308975843E-01  0.95556742564E-02  0.10294706399E+00  0.10400751440E+00  0.51109989000E-03 0.  1.
     -623    1    1    2    0    0 -0.13675813266E-01  0.14459444523E-02  0.23608253799E-02  0.17130000057E+03  0.17130000000E+03 0.  1.
      622    1    1    2    0    0  0.23668374227E-02 -0.11001618709E-01  0.38946920780E+01  0.38959919173E+01  0.10000000000E+00 0.  1.
</event>
<event>
 5   0  0.6262544E+06  0.9118800E+02  0.7818608E-02  0.1180000E+00
       11   -1    0    0    0    0  0.00000000000E+00  0.00000000000E+00  0.39999999673E+01  0.40000000000E+01  0.51109989000E-03 0.  1.
     -623   -1    0    0    0    0  0.00000000000E+00  0.00000000000E+00  0.12525980253E-10  0.17130000000E+03  0.17130000000E+03 0. -1.
       11    1    1    2    0    0  0.48134871386E-02  0.24748849529E-02  0.11676010608E+00  0.11688660449E+00  0.51109989000E-03 0.  1.
     -623    1    1    2    0    0 -0.40564247543E-02 -0.66518633454E-02  0.14168101114E-02  0.17130000018E+03  0.17130000000E+03 0. -1.
      622    1    1    2    0    0 -0.75706238457E-03  0.41769783921E-02  0.38818230509E+01  0.38831132122E+01  0.10000000000E+00 0.  1.
</event>
<event>
 5   0  0.6262544E+06  0.9118800E+02  0.7818608E-02  0.1180000E+00
       11   -1    0    0    0    0  0.00000000000E+00  0.00000000000E+00  0.39999999673E+01  0.40000000000E+01  0.51109989000E-03 0.  1.
     -623   -1    0    0    0    0  0.00000000000E+00  0.00000000000E+00  0.12525980253E-10  0.17130000000E+03  0.17130000000E+03 0.  1.
       11    1    1    2    0    0 -0.15278767192E-01 -0.12873658444E-01  0.96779094629E+00  0.96799728758E+00  0.51109989000E-03 0.  1.
     -623    1    1    2    0    0  0.75299746562E-02  0.11417882453E-01  0.18666456428E-02  0.17130000056E+03  0.17130000000E+03 0.  1.
      622    1    1    2    0    0  0.77487925361E-02  0.14557759918E-02  0.30303423754E+01  0.30320021562E+01  0.10000000000E+00 0.  1.
</event>
<event>
 5   0  0.6262544E+06  0.9118800E+02  0.7818608E-02  0.1180000E+00
       11   -1    0    0    0    0  0.00000000000E+00  0.00000000000E+00  0.39999999673E+01  0.40000000000E+01  0.51109989000E-03 0. -1.
     -623   -1    0    0    0    0  0.00000000000E+00  0.00000000000E+00  0.12525980253E-10  0.17130000000E+03  0.17130000000E+03 0. -1.
       11    1    1    2    0    0  0.12323136026E-01  0.12934386769E-01  0.44325678556E+00  0.44361694874E+00  0.51109989000E-03 0. -1.
     -623    1    1    2    0    0  0.14571460277E-02 -0.29943665371E-01  0.18363663481E-02  0.17130000263E+03  0.17130000000E+03 0. -1.
      622    1    1    2    0    0 -0.13780282054E-01  0.17009278604E-01  0.35549068157E+01  0.35563804183E+01  0.10000000000E+00 0. -1.
</event>
<event>
 5   0  0.6262544E+06  0.9118800E+02  0.7818608E-02  0.1180000E+00
       11   -1    0    0    0    0  0.00000000000E+00  0.00000000000E+00  0.39999999673E+01  0.40000000000E+01  0.51109989000E-03 0. -1.
     -623   -1    0    0    0    0  0.00000000000E+00  0.00000000000E+00  0.12525980253E-10  0.17130000000E+03  0.17130000000E+03 0.  1.
       11    1    1    2    0    0 -0.23119588901E-01 -0.48192957087E-02  0.68866604233E-01  0.72805297906E-01  0.51109989000E-03 0. -1.
     -623    1    1    2    0    0  0.16845276761E-01 -0.11659591379E-02  0.52225292035E-02  0.17130000091E+03  0.17130000000E+03 0.  1.
      622    1    1    2    0    0  0.62743121405E-02  0.59852548466E-02  0.39259108339E+01  0.39271937903E+01  0.10000000000E+00 0. -1.
</event>
<event>
 5   0  0.6262544E+06  0.9118800E+02  0.7818608E-02  0.1180000E+00
       11   -1    0    0    0    0  0.00000000000E+00  0.00000000000E+00  0.39999999673E+01  0.40000000000E+01  0.51109989000E-03 0. -1.
     -623   -1    0    0    0    0  0.00000000000E+00  0.00000000000E+00  0.12525980253E-10  0.17130000000E+03  0.17130000000E+03 0.  1.
       11    1    1    2    0    0 -0.14407403484E-02 -0.74325901057E-02  0.50422972800E+00  0.50428682211E+00  0.51109989000E-03 0. -1.
     -623    1    1    2    0    0 -0.11779170354E-02 -0.38336931637E-02  0.15068747829E-02  0.17130000005E+03  0.17130000000E+03 0.  1.
      622    1    1    2    0    0  0.26186573838E-02  0.11266283269E-01  0.34942633646E+01  0.34957131243E+01  0.10000000000E+00 0. -1.
</event>
<event>
 5   0  0.6262544E+06  0.9118800E+02  0.7818608E-02  0.1180000E+00
       11   -1    0    0    0    0  0.00000000000E+00  0.00000000000E+00  0.39999999673E+01  0.40000000000E+01  0.51109989000E-03 0. -1.
     -623   -1    0    0    0    0  0.00000000000E+00  0.00000000000E+00  0.12525980253E-10  0.17130000000E+03  0.17130000000E+03 0.  1.
       11    1    1    2    0    0 -0.20392839240E-01 -0.13170495581E-02  0.14726799768E+00  0.14867994780E+00  0.51109989000E-03 0. -1.
     -623    1    1    2    0    0  0.85793510872E-02  0.31843487409E-01  0.28527394989E-02  0.17130000320E+03  0.17130000000E+03 0.  1.
      622    1    1    2    0    0  0.11813488153E-01 -0.30526437851E-01  0.38498792302E+01  0.38513168539E+01  0.10000000000E+00 0. -1.
</event>
<event>
 5   0  0.6262544E+06  0.9118800E+02  0.7818608E-02  0.1180000E+00
       11   -1    0    0    0    0  0.00000000000E+00  0.00000000000E+00  0.39999999673E+01  0.40000000000E+01  0.51109989000E-03 0. -1.
     -623   -1    0    0    0    0  0.00000000000E+00  0.00000000000E+00  0.12525980253E-10  0.17130000000E+03  0.17130000000E+03 0.  1.
       11    1    1    2    0    0  0.42207209103E-02 -0.29004533789E-01  0.18958588323E+01  0.18960854545E+01  0.51109989000E-03 0. -1.
     -623    1    1    2    0    0  0.32191047934E-02  0.23990212705E-01  0.26253393056E-02  0.17130000173E+03  0.17130000000E+03 0.  1.
      622    1    1    2    0    0 -0.74398257036E-02  0.50143210843E-02  0.21015157957E+01  0.21039128152E+01  0.10000000000E+00 0. -1.
</event>
<event>
 5   0  0.6262544E+06  0.9118800E+02  0.7818608E-02  0.1180000E+00
       11   -1    0    0    0    0  0.00000000000E+00  0.00000000000E+00  0.39999999673E+01  0.40000000000E+01  0.51109989000E-03 0. -1.
     -623   -1    0    0    0    0  0.00000000000E+00  0.00000000000E+00  0.12525980253E-10  0.17130000000E+03  0.17130000000E+03 0.  1.
       11    1    1    2    0    0  0.74346483277E-02 -0.63637925581E-02  0.41889479872E+00  0.41900940976E+00  0.51109989000E-03 0. -1.
     -623    1    1    2    0    0  0.26520407780E-02 -0.40708019757E-02  0.15406082135E-02  0.17130000008E+03  0.17130000000E+03 0.  1.
      622    1    1    2    0    0 -0.10086689106E-01  0.10434594534E-01  0.35795645604E+01  0.35809905144E+01  0.10000000000E+00 0. -1.
</event>
<event>
 5   0  0.6262544E+06  0.9118800E+02  0.7818608E-02  0.1180000E+00
       11   -1    0    0    0    0  0.00000000000E+00  0.00000000000E+00  0.39999999673E+01  0.40000000000E+01  0.51109989000E-03 0. -1.
     -623   -1    0    0    0    0  0.00000000000E+00  0.00000000000E+00  0.12525980253E-10  0.17130000000E+03  0.17130000000E+03 0.  1.
       11    1    1    2    0    0 -0.22660939480E-02  0.30382628731E-02  0.32267193986E+00  0.32269460519E+00  0.51109989000E-03 0. -1.
     -623    1    1    2    0    0 -0.60628284040E-02  0.17565568174E-02  0.13952603835E-02  0.17130000012E+03  0.17130000000E+03 0.  1.
      622    1    1    2    0    0  0.83289223520E-02 -0.47948196904E-02  0.36759327671E+01  0.36773052728E+01  0.10000000000E+00 0. -1.
</event>
<event>
 5   0  0.6262544E+06  0.9118800E+02  0.7818608E-02  0.1180000E+00
       11   -1    0    0    0    0  0.00000000000E+00  0.00000000000E+00  0.39999999673E+01  0.40000000000E+01  0.51109989000E-03 0.  1.
     -623   -1    0    0    0    0  0.00000000000E+00  0.00000000000E+00  0.12525980253E-10  0.17130000000E+03  0.17130000000E+03 0. -1.
       11    1    1    2    0    0 -0.14290331411E-02  0.40089161350E-03  0.10027324885E-01  0.10149449111E-01  0.51109989000E-03 0.  1.
     -623    1    1    2    0    0  0.23719783278E-02 -0.15745009125E-02  0.13757815404E-02  0.17130000003E+03  0.17130000000E+03 0. -1.
      622    1    1    2    0    0 -0.94294518686E-03  0.11736092991E-02  0.39885968611E+01  0.39898505219E+01  0.10000000000E+00 0.  1.
</event>
<event>
 5   0  0.6262544E+06  0.9118800E+02  0.7818608E-02  0.1180000E+00
       11   -1    0    0    0    0  0.00000000000E+00  0.00000000000E+00  0.39999999673E+01  0.40000000000E+01  0.51109989000E-03 0. -1.
     -623   -1    0    0    0    0  0.00000000000E+00  0.00000000000E+00  0.12525980253E-10  0.17130000000E+03  0.17130000000E+03 0.  1.
       11    1    1    2    0    0 -0.86216219145E-02  0.28034940801E-01  0.12327249166E+01  0.12330739116E+01  0.51109989000E-03 0. -1.
     -623    1    1    2    0    0  0.18081630913E-02  0.76606478217E-03  0.23150314101E-02  0.17130000003E+03  0.17130000000E+03 0.  1.
      622    1    1    2    0    0  0.68134588232E-02 -0.28801005583E-01  0.27649600193E+01  0.27669260615E+01  0.10000000000E+00 0. -1.
</event>
<event>
 5   0  0.6262544E+06  0.9118800E+02  0.7818608E-02  0.1180000E+00
       11   -1    0    0    0    0  0.00000000000E+00  0.00000000000E+00  0.39999999673E+01  0.40000000000E+01  0.51109989000E-03 0.  1.
     -623   -1    0    0    0    0  0.00000000000E+00  0.00000000000E+00  0.12525980253E-10  0.17130000000E+03  0.17130000000E+03 0. -1.
       11    1    1    2    0    0 -0.24763366302E-01  0.15119123549E-02  0.95043275608E-01  0.98229301384E-01  0.51109989000E-03 0.  1.
     -623    1    1    2    0    0  0.12725894092E-01  0.49143315109E-02  0.44921439396E-02  0.17130000060E+03  0.17130000000E+03 0. -1.
      622    1    1    2    0    0  0.12037472210E-01 -0.64262438659E-02  0.39004645478E+01  0.39017700965E+01  0.10000000000E+00 0.  1.
</event>
<event>
 5   0  0.6262544E+06  0.9118800E+02  0.7818608E-02  0.1180000E+00
       11   -1    0    0    0    0  0.00000000000E+00  0.00000000000E+00  0.39999999673E+01  0.40000000000E+01  0.51109989000E-03 0.  1.
     -623   -1    0    0    0    0  0.00000000000E+00  0.00000000000E+00  0.12525980253E-10  0.17130000000E+03  0.17130000000E+03 0.  1.
       11    1    1    2    0    0 -0.49037238894E-02 -0.35509782214E-03  0.40658490382E-01  0.40957864516E-01  0.51109989000E-03 0.  1.
     -623    1    1    2    0    0  0.36403778549E-02  0.64031410968E-02  0.15674630892E-02  0.17130000017E+03  0.17130000000E+03 0.  1.
      622    1    1    2    0    0  0.12633460347E-02 -0.60480432744E-02  0.39577740137E+01  0.39590419698E+01  0.10000000000E+00 0.  1.
</event>
<event>
 5   0  0.6262544E+06  0.9118800E+02  0.7818608E-02  0.1180000E+00
       11   -1    0    0    0    0  0.00000000000E+00  0.00000000000E+00  0.39999999673E+01  0.40000000000E+01  0.51109989000E-03 0. -1.
     -623   -1    0    0    0    0  0.00000000000E+00  0.00000000000E+00  0.12525980253E-10  0.17130000000E+03  0.17130000000E+03 0. -1.
       11    1    1    2    0    0  0.19954400677E-01 -0.14762065682E+00  0.83134865055E+00  0.84458917612E+00  0.51109989000E-03 0. -1.
     -623    1    1    2    0    0  0.53112658215E-01 -0.38038449924E-01  0.21156676998E-01  0.17130001376E+03  0.17130000000E+03 0. -1.
      622    1    1    2    0    0 -0.73067058892E-01  0.18565910675E+00  0.31474946398E+01  0.31553970601E+01  0.10000000000E+00 0. -1.
</event>
<event>
 5   0  0.6262544E+06  0.9118800E+02  0.7818608E-02  0.1180000E+00
       11   -1    0    0    0    0  0.00000000000E+00  0.00000000000E+00  0.39999999673E+01  0.40000000000E+01  0.51109989000E-03 0.  1.
     -623   -1    0    0    0    0  0.00000000000E+00  0.00000000000E+00  0.12525980253E-10  0.17130000000E+03  0.17130000000E+03 0.  1.
       11    1    1    2    0    0 -0.19897974594E-01  0.10018637153E-01  0.11290957127E+00  0.11508751013E+00  0.51109989000E-03 0.  1.
     -623    1    1    2    0    0 -0.40034137526E-02 -0.35023606787E-01  0.36228671046E-02  0.17130000367E+03  0.17130000000E+03 0.  1.
      622    1    1    2    0    0  0.23901388347E-01  0.25004969634E-01  0.38834675290E+01  0.38849088244E+01  0.10000000000E+00 0.  1.
</event>
<event>
 5   0  0.6262544E+06  0.9118800E+02  0.7818608E-02  0.1180000E+00
       11   -1    0    0    0    0  0.00000000000E+00  0.00000000000E+00  0.39999999673E+01  0.40000000000E+01  0.51109989000E-03 0.  1.
     -623   -1    0    0    0    0  0.00000000000E+00  0.00000000000E+00  0.12525980253E-10  0.17130000000E+03  0.17130000000E+03 0.  1.
       11    1    1    2    0    0  0.25286614908E-03 -0.76086839309E-03  0.24807439475E-02  0.26567227239E-02  0.51109989000E-03 0. -1.
     -623    1    1    2    0    0 -0.62039561870E-04  0.85561296323E-03  0.14269864509E-02  0.17130000001E+03  0.17130000000E+03 0.  1.
      622    1    1    2    0    0 -0.19082658721E-03 -0.94744570171E-04  0.39960922371E+01  0.39973432693E+01  0.10000000000E+00 0.  1.
</event>
<event>
 5   0  0.6262544E+06  0.9118800E+02  0.7818608E-02  0.1180000E+00
       11   -1    0    0    0    0  0.00000000000E+00  0.00000000000E+00  0.39999999673E+01  0.40000000000E+01  0.51109989000E-03 0. -1.
     -623   -1    0    0    0    0  0.00000000000E+00  0.00000000000E+00  0.12525980253E-10  0.17130000000E+03  0.17130000000E+03 0. -1.
       11    1    1    2    0    0 -0.11692369977E-01  0.71630491079E-01  0.94479042061E+00  0.94757418647E+00  0.51109989000E-03 0. -1.
     -623    1    1    2    0    0 -0.61323665917E-02 -0.68600780837E-02  0.51622625411E-02  0.17130000032E+03  0.17130000000E+03 0. -1.
      622    1    1    2    0    0  0.17824736568E-01 -0.64770412995E-01  0.30500472842E+01  0.30524254886E+01  0.10000000000E+00 0. -1.
</event>
<event>
 5   0  0.6262544E+06  0.9118800E+02  0.7818608E-02  0.1180000E+00
       11   -1    0    0    0    0  0.00000000000E+00  0.00000000000E+00  0.39999999673E+01  0.40000000000E+01  0.51109989000E-03 0.  1.
     -623   -1    0    0    0    0  0.00000000000E+00  0.00000000000E+00  0.12525980253E-10  0.17130000000E+03  0.17130000000E+03 0. -1.
       11    1    1    2    0    0  0.13973364831E-01  0.15959341298E-01  0.41590650392E+00  0.41644739971E+00  0.51109989000E-03 0.  1.
     -623    1    1    2    0    0  0.32319976512E-02 -0.28064165406E-01  0.20005124926E-02  0.17130000234E+03  0.17130000000E+03 0. -1.
      622    1    1    2    0    0 -0.17205362482E-01  0.12104824109E-01  0.35820929509E+01  0.35835502592E+01  0.10000000000E+00 0.  1.
</event>
<event>
 5   0  0.6262544E+06  0.9118800E+02  0.7818608E-02  0.1180000E+00
       11   -1    0    0    0    0  0.00000000000E+00  0.00000000000E+00  0.39999999673E+01  0.40000000000E+01  0.51109989000E-03 0.  1.
     -623   -1    0    0    0    0  0.00000000000E+00  0.00000000000E+00  0.12525980253E-10  0.17130000000E+03  0.17130000000E+03 0.  1.
       11    1    1    2    0    0  0.72009270736E-03 -0.15617802440E-01  0.62223120180E+00  0.62242779823E+00  0.51109989000E-03 0.  1.
     -623    1    1    2    0    0 -0.70852307582E-02  0.79107421033E-02  0.16923765772E-02  0.17130000034E+03  0.17130000000E+03 0.  1.
      622    1    1    2    0    0  0.63651380507E-02  0.77070603369E-02  0.33760763889E+01  0.33775718642E+01  0.10000000000E+00 0.  1.
</event>
<event>
 5   0  0.6262544E+06  0.9118800E+02  0.7818608E-02  0.1180000E+00
       11   -1    0    0    0    0  0.00000000000E+00  0.00000000000E+00  0.39999999673E+01  0.40000000000E+01  0.51109989000E-03 0. -1.
     -623   -1    0    0    0    0  0.00000000000E+00  0.00000000000E+00  0.12525980253E-10  0.17130000000E+03  0.17130000000E+03 0. -1.
       11    1    1    2    0    0  0.48119030226E-02 -0.37641827472E-02  0.48514087480E-02  0.78179837670E-02  0.51109989000E-03 0. -1.
     -623    1    1    2    0    0  0.52644213410E-02  0.92163143292E-02  0.42360127070E-02  0.17130000038E+03  0.17130000000E+03 0. -1.
      622    1    1    2    0    0 -0.10076324364E-01 -0.54521315820E-02  0.39909125459E+01  0.39921816350E+01  0.10000000000E+00 0. -1.
</event>
<event>
 5   0  0.6262544E+06  0.9118800E+02  0.7818608E-02  0.1180000E+00
       11   -1    0    0    0    0  0.00000000000E+00  0.00000000000E+00  0.39999999673E+01  0.40000000000E+01  0.51109989000E-03 0.  1.
     -623   -1    0    0    0    0  0.00000000000E+00  0.00000000000E+00  0.12525980253E-10  0.17130000000E+03  0.17130000000E+03 0. -1.
       11    1    1    2    0    0  0.34485671281E-02  0.60525337608E-02  0.12670897497E-01  0.14468539893E-01  0.51109989000E-03 0.  1.
     -623    1    1    2    0    0 -0.89494143848E-02 -0.20131990452E-02  0.30584630179E-02  0.17130000027E+03  0.17130000000E+03 0. -1.
      622    1    1    2    0    0  0.55008472569E-02 -0.40393347156E-02  0.39842706069E+01  0.39855311873E+01  0.10000000000E+00 0.  1.
</event>
<event>
 5   0  0.6262544E+06  0.9118800E+02  0.7818608E-02  0.1180000E+00
       11   -1    0    0    0    0  0.00000000000E+00  0.00000000000E+00  0.39999999673E+01  0.40000000000E+01  0.51109989000E-03 0.  1.
     -623   -1    0    0    0    0  0.00000000000E+00  0.00000000000E+00  0.12525980253E-10  0.17130000000E+03  0.17130000000E+03 0. -1.
       11    1    1    2    0    0  0.68805558375E-02  0.92535733741E-03  0.24502206002E+00  0.24512092823E+00  0.51109989000E-03 0.  1.
     -623    1    1    2    0    0 -0.13615012143E-01 -0.82950296291E-02  0.14446969584E-02  0.17130000075E+03  0.17130000000E+03 0. -1.
      622    1    1    2    0    0  0.67344563057E-02  0.73696722917E-02  0.37535332104E+01  0.37548783238E+01  0.10000000000E+00 0.  1.
</event>
<event>
 5   0  0.6262544E+06  0.9118800E+02  0.7818608E-02  0.1180000E+00
       11   -1    0    0    0    0  0.00000000000E+00  0.00000000000E+00  0.39999999673E+01  0.40000000000E+01  0.51109989000E-03 0.  1.
     -623   -1    0    0    0    0  0.00000000000E+00  0.00000000000E+00  0.12525980253E-10  0.17130000000E+03  0.17130000000E+03 0. -1.
       11    1    1    2    0    0 -0.12683829168E-01  0.93834898052E-02  0.16984146759E+00  0.17057348780E+00  0.51109989000E-03 0.  1.
     -623    1    1    2    0    0  0.65149899389E-03  0.83802804026E-03  0.20704606908E-02  0.17130000002E+03  0.17130000000E+03 0. -1.
      622    1    1    2    0    0  0.12032330174E-01 -0.10221517845E-01  0.38280880392E+01  0.38294264965E+01  0.10000000000E+00 0.  1.
</event>
<event>
 5   0  0.6262544E+06  0.9118800E+02  0.7818608E-02  0.1180000E+00
       11   -1    0    0    0    0  0.00000000000E+00  0.00000000000E+00  0.39999999673E+01  0.40000000000E+01  0.51109989000E-03 0.  1.
     -623   -1    0    0    0    0  0.00000000000E+00  0.00000000000E+00  0.12525980253E-10  0.17130000000E+03  0.17130000000E+03 0. -1.
       11    1    1    2    0    0 -0.19696593190E-01 -0.26171326995E-01  0.22176090217E+00  0.22416746663E+00  0.51109989000E-03 0.  1.
     -623    1    1    2    0    0  0.20288970137E-01 -0.70456516330E-02  0.38785760220E-02  0.17130000139E+03  0.17130000000E+03 0. -1.
      622    1    1    2    0    0 -0.59237694681E-03  0.33216978628E-01  0.37743604891E+01  0.37758311430E+01  0.10000000000E+00 0.  1.
</event>
<event>
 5   0  0.6262544E+06  0.9118800E+02  0.7818608E-02  0.1180000E+00
       11   -1    0    0    0    0  0.00000000000E+00  0.00000000000E+00  0.39999999673E+01  0.40000000000E+01  0.51109989000E-03 0.  1.
     -623   -1    0    0    0    0  0.00000000000E+00  0.00000000000E+00  0.12525980253E-10  0.17130000000E+03  0.17130000000E+03 0. -1.
       11    1    1    2    0    0 -0.80477308769E-04 -0.55467768768E-03 -0.95829706136E-04  0.76455893466E-03  0.51109989000E-03 0.  1.
     -623    1    1    2    0    0 -0.21503471252E-02 -0.18023236179E-02  0.21121436355E-02  0.17130000004E+03  0.17130000000E+03 0. -1.
      622    1    1    2    0    0  0.22308244340E-02  0.23570013056E-02  0.39979836535E+01  0.39992354051E+01  0.10000000000E+00 0.  1.
</event>
<event>
 5   0  0.6262544E+06  0.9118800E+02  0.7818608E-02  0.1180000E+00
       11   -1    0    0    0    0  0.00000000000E+00  0.00000000000E+00  0.39999999673E+01  0.40000000000E+01  0.51109989000E-03 0.  1.
     -623   -1    0    0    0    0  0.00000000000E+00  0.00000000000E+00  0.12525980253E-10  0.17130000000E+03  0.17130000000E+03 0.  1.
       11    1    1    2    0    0  0.14301673336E-03  0.53660985139E-03  0.81868676020E-01  0.81872154835E-01  0.51109989000E-03 0.  1.
     -623    1    1    2    0    0 -0.72140367856E-02 -0.24153909672E-02  0.12867807367E-02  0.17130000017E+03  0.17130000000E+03 0.  1.
      622    1    1    2    0    0  0.70710200522E-02  0.18787811158E-02  0.39168445106E+01  0.39181276714E+01  0.10000000000E+00 0.  1.
</event>
<event>
 5   0  0.6262544E+06  0.9118800E+02  0.7818608E-02  0.1180000E+00
       11   -1    0    0    0    0  0.00000000000E+00  0.00000000000E+00  0.39999999673E+01  0.40000000000E+01  0.51109989000E-03 0. -1.
     -623   -1    0    0    0    0  0.00000000000E+00  0.00000000000E+00  0.12525980253E-10  0.17130000000E+03  0.17130000000E+03 0.  1.
       11    1    1    2    0    0 -0.12735250755E-01  0.44335843960E-02  0.55499423321E+00  0.55515826879E+00  0.51109989000E-03 0. -1.
     -623    1    1    2    0    0  0.14400306280E-01 -0.19692519702E-02  0.16176632275E-02  0.17130000062E+03  0.17130000000E+03 0.  1.
      622    1    1    2    0    0 -0.16650555250E-02 -0.24643324260E-02  0.34433880707E+01  0.34448411068E+01  0.10000000000E+00 0.  1.
</event>
<event>
 5   0  0.6262544E+06  0.9118800E+02  0.7818608E-02  0.1180000E+00
       11   -1    0    0    0    0  0.00000000000E+00  0.00000000000E+00  0.39999999673E+01  0.40000000000E+01  0.51109989000E-03 0.  1.
     -623   -1    0    0    0    0  0.00000000000E+00  0.00000000000E+00  0.12525980253E-10  0.17130000000E+03  0.17130000000E+03 0. -1.
       11    1    1    2    0    0 -0.20405262188E-02  0.11200644423E-01  0.64041761544E-01  0.65047879483E-01  0.51109989000E-03 0.  1.
     -623    1    1    2    0    0 -0.10445860690E-02 -0.45886125844E-02  0.22838007158E-02  0.17130000008E+03  0.17130000000E+03 0. -1.
      622    1    1    2    0    0  0.30851122878E-02 -0.66120318390E-02  0.39336744051E+01  0.39349520407E+01  0.10000000000E+00 0.  1.
</event>
<event>
 5   0  0.6262544E+06  0.9118800E+02  0.7818608E-02  0.1180000E+00
       11   -1    0    0    0    0  0.00000000000E+00  0.00000000000E+00  0.39999999673E+01  0.40000000000E+01  0.51109989000E-03 0. -1.
     -623   -1    0    0    0    0  0.00000000000E+00  0.00000000000E+00  0.12525980253E-10  0.17130000000E+03  0.17130000000E+03 0. -1.
       11    1    1    2    0    0 -0.18965054811E-01 -0.13236193541E-01  0.19343767196E+01  0.19345150360E+01  0.51109989000E-03 0. -1.
     -623    1    1    2    0    0  0.16164150866E-01 -0.32896877147E-03  0.26077257858E-02  0.17130000078E+03  0.17130000000E+03 0. -1.
      622    1    1    2    0    0  0.28009039441E-02  0.13565162312E-01  0.20630155220E+01  0.20654841812E+01  0.10000000000E+00 0. -1.
</event>
<event>
 5   0  0.6262544E+06  0.9118800E+02  0.7818608E-02  0.1180000E+00
       11   -1    0    0    0    0  0.00000000000E+00  0.00000000000E+00  0.39999999673E+01  0.40000000000E+01  0.51109989000E-03 0.  1.
     -623   -1    0    0    0    0  0.00000000000E+00  0.00000000000E+00  0.12525980253E-10  0.17130000000E+03  0.17130000000E+03 0.  1.
       11    1    1    2    0    0 -0.58946237692E-02  0.30640853596E-02  0.25770823076E-01  0.26618259720E-01  0.51109989000E-03 0.  1.
     -623    1    1    2    0    0 -0.17772773970E-02  0.73024580885E-03  0.21152222576E-02  0.17130000002E+03  0.17130000000E+03 0.  1.
      622    1    1    2    0    0  0.76719011663E-02 -0.37943311684E-02  0.39721139220E+01  0.39733817164E+01  0.10000000000E+00 0.  1.
</event>
<event>
 5   0  0.6262544E+06  0.9118800E+02  0.7818608E-02  0.1180000E+00
       11   -1    0    0    0    0  0.00000000000E+00  0.00000000000E+00  0.39999999673E+01  0.40000000000E+01  0.51109989000E-03 0.  1.
     -623   -1    0    0    0    0  0.00000000000E+00  0.00000000000E+00  0.12525980253E-10  0.17130000000E+03  0.17130000000E+03 0. -1.
       11    1    1    2    0    0 -0.51530327843E-02  0.97795698899E-02  0.22789343299E-01  0.25333952007E-01  0.51109989000E-03 0.  1.
     -623    1    1    2    0    0 -0.10470027777E-01 -0.90922407452E-02  0.38341206535E-02  0.17130000060E+03  0.17130000000E+03 0. -1.
      622    1    1    2    0    0  0.15623060562E-01 -0.68732914466E-03  0.39733765034E+01  0.39746654438E+01  0.10000000000E+00 0.  1.
</event>
<event>
 5   0  0.6262544E+06  0.9118800E+02  0.7818608E-02  0.1180000E+00
       11   -1    0    0    0    0  0.00000000000E+00  0.00000000000E+00  0.39999999673E+01  0.40000000000E+01  0.51109989000E-03 0. -1.
     -623   -1    0    0    0    0  0.00000000000E+00  0.00000000000E+00  0.12525980253E-10  0.17130000000E+03  0.17130000000E+03 0.  1.
       11    1    1    2    0    0 -0.11959078492E-01 -0.29863826934E-02  0.65914049178E-01  0.67058639578E-01  0.51109989000E-03 0. -1.
     -623    1    1    2    0    0 -0.27991938537E-03  0.62755938059E-02  0.24366344572E-02  0.17130000013E+03  0.17130000000E+03 0.  1.
      622    1    1    2    0    0  0.12238997878E-01 -0.32892111127E-02  0.39316492838E+01  0.39329412280E+01  0.10000000000E+00 0. -1.
</event>
<event>
 5   0  0.6262544E+06  0.9118800E+02  0.7818608E-02  0.1180000E+00
       11   -1    0    0    0    0  0.00000000000E+00  0.00000000000E+00  0.39999999673E+01  0.40000000000E+01  0.51109989000E-03 0. -1.
     -623   -1    0    0    0    0  0.00000000000E+00  0.00000000000E+00  0.12525980253E-10  0.17130000000E+03  0.17130000000E+03 0.  1.
       11    1    1    2    0    0 -0.16118780452E-01  0.50075137783E-02  0.51088789026E-01  0.53807210156E-01  0.51109989000E-03 0. -1.
     -623    1    1    2    0    0  0.41113921573E-02  0.44307027972E-02  0.40153540753E-02  0.17130000015E+03  0.17130000000E+03 0.  1.
      622    1    1    2    0    0  0.12007388294E-01 -0.94382165756E-02  0.39448958243E+01  0.39461926362E+01  0.10000000000E+00 0. -1.
</event>
<event>
 5   0  0.6262544E+06  0.9118800E+02  0.7818608E-02  0.1180000E+00
       11   -1    0    0    0    0  0.00000000000E+00  0.00000000000E+00  0.39999999673E+01  0.40000000000E+01  0.51109989000E-03 0. -1.
     -623   -1    0    0    0    0  0.00000000000E+00  0.00000000000E+00  0.12525980253E-10  0.17130000000E+03  0.17130000000E+03 0. -1.
       11    1    1    2    0    0  0.29042786011E-02 -0.74905331012E-01  0.47131552992E+00  0.47723980703E+00  0.51109989000E-03 0. -1.
     -623    1    1    2    0    0  0.12390443110E-01 -0.45604828911E-02  0.82745692368E-02  0.17130000071E+03  0.17130000000E+03 0. -1.
      622    1    1    2    0    0 -0.15294721711E-01  0.79465813903E-01  0.35204098682E+01  0.35227594843E+01  0.10000000000E+00 0. -1.
</event>
<event>
 5   0  0.6262544E+06  0.9118800E+02  0.7818608E-02  0.1180000E+00
       11   -1    0    0    0    0  0.00000000000E+00  0.00000000000E+00  0.39999999673E+01  0.40000000000E+01  0.51109989000E-03 0. -1.
     -623   -1    0    0    0    0  0.00000000000E+00  0.00000000000E+00  0.12525980253E-10  0.17130000000E+03  0.17130000000E+03 0.  1.
       11    1    1    2    0    0 -0.64342496655E-01  0.26225119048E-01  0.22653331269E+01  0.22663984978E+01  0.51109989000E-03 0. -1.
     -623    1    1    2    0    0 -0.17815602027E-01 -0.10138473130E-01  0.59792397319E-02  0.17130000133E+03  0.17130000000E+03 0.  1.
      622    1    1    2    0    0  0.82158098683E-01 -0.16086645918E-01  0.17286876007E+01  0.17336001714E+01  0.10000000000E+00 0. -1.
</event>
<event>
 5   0  0.6262544E+06  0.9118800E+02  0.7818608E-02  0.1180000E+00
       11   -1    0    0    0    0  0.00000000000E+00  0.00000000000E+00  0.39999999673E+01  0.40000000000E+01  0.51109989000E-03 0. -1.
     -623   -1    0    0    0    0  0.00000000000E+00  0.00000000000E+00  0.12525980253E-10  0.17130000000E+03  0.17130000000E+03 0.  1.
       11    1    1    2    0    0  0.45549382385E-02 -0.12592867267E-01  0.79817082254E-01  0.80934267212E-01  0.51109989000E-03 0. -1.
     -623    1    1    2    0    0  0.30090698071E-02  0.12272192912E-02  0.24170102130E-02  0.17130000005E+03  0.17130000000E+03 0.  1.
      622    1    1    2    0    0 -0.75640080456E-02  0.11365647976E-01  0.39177658749E+01  0.39190656849E+01  0.10000000000E+00 0. -1.
</event>
<event>
 5   0  0.6262544E+06  0.9118800E+02  0.7818608E-02  0.1180000E+00
       11   -1    0    0    0    0  0.00000000000E+00  0.00000000000E+00  0.39999999673E+01  0.40000000000E+01  0.51109989000E-03 0. -1.
     -623   -1    0    0    0    0  0.00000000000E+00  0.00000000000E+00  0.12525980253E-10  0.17130000000E+03  0.17130000000E+03 0.  1.
       11    1    1    2    0    0  0.16738912933E-02 -0.44472587592E-02  0.13082800780E-01  0.13928421371E-01  0.51109989000E-03 0. -1.
     -623    1    1    2    0    0 -0.50557134671E-02 -0.15506867406E-03  0.21043336553E-02  0.17130000009E+03  0.17130000000E+03 0.  1.
      622    1    1    2    0    0  0.33818221739E-02  0.46023274333E-02  0.39848128330E+01  0.39860714911E+01  0.10000000000E+00 0. -1.
</event>
<event>
 5   0  0.6262544E+06  0.9118800E+02  0.7818608E-02  0.1180000E+00
       11   -1    0    0    0    0  0.00000000000E+00  0.00000000000E+00  0.39999999673E+01  0.40000000000E+01  0.51109989000E-03 0.  1.
     -623   -1    0    0    0    0  0.00000000000E+00  0.00000000000E+00  0.12525980253E-10  0.17130000000E+03  0.17130000000E+03 0. -1.
       11    1    1    2    0    0 -0.77045380051E-02 -0.67438200017E-02  0.44004705311E-01  0.45183119931E-01  0.51109989000E-03 0.  1.
     -623    1    1    2    0    0  0.53024334118E-02 -0.28308881006E-03  0.24499394567E-02  0.17130000010E+03  0.17130000000E+03 0. -1.
      622    1    1    2    0    0  0.24021045932E-02  0.70269088118E-02  0.39535453227E+01  0.39548167803E+01  0.10000000000E+00 0.  1.
</event>
<event>
 5   0  0.6262544E+06  0.9118800E+02  0.7818608E-02  0.1180000E+00
       11   -1    0    0    0    0  0.00000000000E+00  0.00000000000E+00  0.39999999673E+01  0.40000000000E+01  0.51109989000E-03 0.  1.
     -623   -1    0    0    0    0  0.00000000000E+00  0.00000000000E+00  0.12525980253E-10  0.17130000000E+03  0.17130000000E+03 0.  1.
       11    1    1    2    0    0  0.15441765800E-01  0.80418215408E-01  0.14636456931E+01  0.14659346895E+01  0.51109989000E-03 0.  1.
     -623    1    1    2    0    0 -0.14613410562E-01 -0.42166957539E-02  0.54106191575E-02  0.17130000076E+03  0.17130000000E+03 0.  1.
      622    1    1    2    0    0 -0.82835523797E-03 -0.76201519655E-01  0.25309436551E+01  0.25340645499E+01  0.10000000000E+00 0.  1.
</event>
<event>
 5   0  0.6262544E+06  0.9118800E+02  0.7818608E-02  0.1180000E+00
       11   -1    0    0    0    0  0.00000000000E+00  0.00000000000E+00  0.39999999673E+01  0.40000000000E+01  0.51109989000E-03 0.  1.
     -623   -1    0    0    0    0  0.00000000000E+00  0.00000000000E+00  0.12525980253E-10  0.17130000000E+03  0.17130000000E+03 0.  1.
       11    1    1    2    0    0  0.94782486767E-02  0.90992514674E-02  0.84948515436E-01  0.85960136530E-01  0.51109989000E-03 0.  1.
     -623    1    1    2    0    0 -0.42470219361E-02 -0.96297220504E-02  0.22931212074E-02  0.17130000034E+03  0.17130000000E+03 0.  1.
      622    1    1    2    0    0 -0.52312267406E-02  0.53047058308E-03  0.39127583307E+01  0.39140395248E+01  0.10000000000E+00 0.  1.
</event>
<event>
 5   0  0.6262544E+06  0.9118800E+02  0.7818608E-02  0.1180000E+00
       11   -1    0    0    0    0  0.00000000000E+00  0.00000000000E+00  0.39999999673E+01  0.40000000000E+01  0.51109989000E-03 0.  1.
     -623   -1    0    0    0    0  0.00000000000E+00  0.00000000000E+00  0.12525980253E-10  0.17130000000E+03  0.17130000000E+03 0.  1.
       11    1    1    2    0    0  0.50573566906E-01 -0.33595003771E-01  0.22049533929E+01  0.22057892094E+01  0.51109989000E-03 0.  1.
     -623    1    1    2    0    0 -0.17064835536E-01  0.98093733182E-02  0.40972350855E-02  0.17130000118E+03  0.17130000000E+03 0.  1.
      622    1    1    2    0    0 -0.33508731370E-01  0.23785630453E-01  0.17909493393E+01  0.17942096108E+01  0.10000000000E+00 0.  0.
</event>
<event>
 5   0  0.6262544E+06  0.9118800E+02  0.7818608E-02  0.1180000E+00
       11   -1    0    0    0    0  0.00000000000E+00  0.00000000000E+00  0.39999999673E+01  0.40000000000E+01  0.51109989000E-03 0. -1.
     -623   -1    0    0    0    0  0.00000000000E+00  0.00000000000E+00  0.12525980253E-10  0.17130000000E+03  0.17130000000E+03 0. -1.
       11    1    1    2    0    0 -0.84073823854E-01  0.79457256439E-02  0.50246068492E+00  0.50950813882E+00  0.51109989000E-03 0. -1.
     -623    1    1    2    0    0  0.15758620984E-01 -0.13883154749E-01  0.91556284670E-02  0.17130000153E+03  0.17130000000E+03 0. -1.
      622    1    1    2    0    0  0.68315202870E-01  0.59374291052E-02  0.34883836540E+01  0.34904903291E+01  0.10000000000E+00 0. -1.
</event>
<event>
 5   0  0.6262544E+06  0.9118800E+02  0.7818608E-02  0.1180000E+00
       11   -1    0    0    0    0  0.00000000000E+00  0.00000000000E+00  0.39999999673E+01  0.40000000000E+01  0.51109989000E-03 0. -1.
     -623   -1    0    0    0    0  0.00000000000E+00  0.00000000000E+00  0.12525980253E-10  0.17130000000E+03  0.17130000000E+03 0.  1.
       11    1    1    2    0    0 -0.14074681904E-01  0.31147215974E-02  0.50135134610E-01  0.52168871034E-01  0.51109989000E-03 0. -1.
     -623    1    1    2    0    0  0.86532081995E-03  0.85316285643E-03  0.33245627477E-02  0.17130000004E+03  0.17130000000E+03 0.  1.
      622    1    1    2    0    0  0.13209361084E-01 -0.39678844539E-02  0.39465402700E+01  0.39478310924E+01  0.10000000000E+00 0. -1.
</event>
<event>
 5   0  0.6262544E+06  0.9118800E+02  0.7818608E-02  0.1180000E+00
       11   -1    0    0    0    0  0.00000000000E+00  0.00000000000E+00  0.39999999673E+01  0.40000000000E+01  0.51109989000E-03 0.  1.
     -623   -1    0    0    0    0  0.00000000000E+00  0.00000000000E+00  0.12525980253E-10  0.17130000000E+03  0.17130000000E+03 0. -1.
       11    1    1    2    0    0  0.56898895473E-01 -0.23180259154E-02  0.27007777514E+01  0.27013780893E+01  0.51109989000E-03 0.  1.
     -623    1    1    2    0    0 -0.36366146165E-01  0.39901473576E-01  0.51733532243E-02  0.17130000859E+03  0.17130000000E+03 0. -1.
      622    1    1    2    0    0 -0.20532749307E-01 -0.37583447660E-01  0.12940488627E+01  0.12986133252E+01  0.10000000000E+00 0.  1.
</event>
<event>
 5   0  0.6262544E+06  0.9118800E+02  0.7818608E-02  0.1180000E+00
       11   -1    0    0    0    0  0.00000000000E+00  0.00000000000E+00  0.39999999673E+01  0.40000000000E+01  0.51109989000E-03 0. -1.
     -623   -1    0    0    0    0  0.00000000000E+00  0.00000000000E+00  0.12525980253E-10  0.17130000000E+03  0.17130000000E+03 0.  1.
       11    1    1    2    0    0 -0.39413562708E-02 -0.95513451700E-02  0.17657842512E+01  0.17658145558E+01  0.51109989000E-03 0. -1.
     -623    1    1    2    0    0  0.56164821724E-02 -0.89620314985E-03  0.22945367332E-02  0.17130000011E+03  0.17130000000E+03 0.  1.
      622    1    1    2    0    0 -0.16751259016E-02  0.10447548320E-01  0.22319211795E+01  0.22341853344E+01  0.10000000000E+00 0.  1.
</event>
<event>
 5   0  0.6262544E+06  0.9118800E+02  0.7818608E-02  0.1180000E+00
       11   -1    0    0    0    0  0.00000000000E+00  0.00000000000E+00  0.39999999673E+01  0.40000000000E+01  0.51109989000E-03 0.  1.
     -623   -1    0    0    0    0  0.00000000000E+00  0.00000000000E+00  0.12525980253E-10  0.17130000000E+03  0.17130000000E+03 0.  1.
       11    1    1    2    0    0  0.51256321271E-02 -0.44469205239E-02  0.81084623276E-01  0.81369678393E-01  0.51109989000E-03 0.  1.
     -623    1    1    2    0    0 -0.53116368980E-02  0.95677583819E-02  0.15648945691E-02  0.17130000036E+03  0.17130000000E+03 0.  1.
      622    1    1    2    0    0  0.18600477083E-03 -0.51208378578E-02  0.39173504495E+01  0.39186299649E+01  0.10000000000E+00 0.  1.
</event>
<event>
 5   0  0.6262544E+06  0.9118800E+02  0.7818608E-02  0.1180000E+00
       11   -1    0    0    0    0  0.00000000000E+00  0.00000000000E+00  0.39999999673E+01  0.40000000000E+01  0.51109989000E-03 0. -1.
     -623   -1    0    0    0    0  0.00000000000E+00  0.00000000000E+00  0.12525980253E-10  0.17130000000E+03  0.17130000000E+03 0. -1.
       11    1    1    2    0    0  0.22478060977E-01 -0.45410319347E-01  0.13187044450E+01  0.13196776253E+01  0.51109989000E-03 0. -1.
     -623    1    1    2    0    0 -0.14585141709E-01  0.14421596482E-01  0.30314005062E-02  0.17130000125E+03  0.17130000000E+03 0. -1.
      622    1    1    2    0    0 -0.78929192677E-02  0.30988722865E-01  0.26782641220E+01  0.26803211200E+01  0.10000000000E+00 0. -1.
</event>
<event>
 5   0  0.6262544E+06  0.9118800E+02  0.7818608E-02  0.1180000E+00
       11   -1    0    0    0    0  0.00000000000E+00  0.00000000000E+00  0.39999999673E+01  0.40000000000E+01  0.51109989000E-03 0. -1.
     -623   -1    0    0    0    0  0.00000000000E+00  0.00000000000E+00  0.12525980253E-10  0.17130000000E+03  0.17130000000E+03 0. -1.
       11    1    1    2    0    0 -0.28130046759E-02 -0.23977496406E-02 -0.13017093189E-02  0.39519449508E-02  0.51109989000E-03 0. -1.
     -623    1    1    2    0    0  0.36644874025E-02  0.47088599925E-02  0.65060405959E-02  0.17130000023E+03  0.17130000000E+03 0. -1.
      622    1    1    2    0    0 -0.85148272662E-03 -0.23111103519E-02  0.39947956361E+01  0.39960478276E+01  0.10000000000E+00 0. -1.
</event>
<event>
 5   0  0.6262544E+06  0.9118800E+02  0.7818608E-02  0.1180000E+00
       11   -1    0    0    0    0  0.00000000000E+00  0.00000000000E+00  0.39999999673E+01  0.40000000000E+01  0.51109989000E-03 0.  1.
     -623   -1    0    0    0    0  0.00000000000E+00  0.00000000000E+00  0.12525980253E-10  0.17130000000E+03  0.17130000000E+03 0.  1.
       11    1    1    2    0    0 -0.23060299947E-02  0.78715101951E-02  0.16761960610E+00  0.16782095227E+00  0.51109989000E-03 0.  1.
     -623    1    1    2    0    0 -0.32767320455E-02  0.22592618888E-02  0.15237928385E-02  0.17130000005E+03  0.17130000000E+03 0.  1.
      622    1    1    2    0    0  0.55827620402E-02 -0.10130772084E-01  0.38308565684E+01  0.38321789947E+01  0.10000000000E+00 0.  1.
</event>
<event>
 5   0  0.6262544E+06  0.9118800E+02  0.7818608E-02  0.1180000E+00
       11   -1    0    0    0    0  0.00000000000E+00  0.00000000000E+00  0.39999999673E+01  0.40000000000E+01  0.51109989000E-03 0.  1.
     -623   -1    0    0    0    0  0.00000000000E+00  0.00000000000E+00  0.12525980253E-10  0.17130000000E+03  0.17130000000E+03 0. -1.
       11    1    1    2    0    0 -0.17929030138E-01 -0.77350356073E-02  0.83053855967E+00  0.83076822353E+00  0.51109989000E-03 0.  1.
     -623    1    1    2    0    0  0.11993191966E-02  0.40065636856E-02  0.18541275667E-02  0.17130000006E+03  0.17130000000E+03 0. -1.
      622    1    1    2    0    0  0.16729710941E-01  0.37284719217E-02  0.31676072801E+01  0.31692317154E+01  0.10000000000E+00 0.  1.
</event>
<event>
 5   0  0.6262544E+06  0.9118800E+02  0.7818608E-02  0.1180000E+00
       11   -1    0    0    0    0  0.00000000000E+00  0.00000000000E+00  0.39999999673E+01  0.40000000000E+01  0.51109989000E-03 0. -1.
     -623   -1    0    0    0    0  0.00000000000E+00  0.00000000000E+00  0.12525980253E-10  0.17130000000E+03  0.17130000000E+03 0. -1.
       11    1    1    2    0    0  0.28189085909E-02 -0.13441212155E-02  0.14551769004E-01  0.14891880732E-01  0.51109989000E-03 0. -1.
     -623    1    1    2    0    0 -0.47990463931E-02 -0.74672172132E-03  0.15960648464E-02  0.17130000008E+03  0.17130000000E+03 0. -1.
      622    1    1    2    0    0  0.19801378028E-02  0.20908429369E-02  0.39838521340E+01  0.39851080435E+01  0.10000000000E+00 0. -1.
</event>
<event>
 5   0  0.6262544E+06  0.9118800E+02  0.7818608E-02  0.1180000E+00
       11   -1    0    0    0    0  0.00000000000E+00  0.00000000000E+00  0.39999999673E+01  0.40000000000E+01  0.51109989000E-03 0. -1.
     -623   -1    0    0    0    0  0.00000000000E+00  0.00000000000E+00  0.12525980253E-10  0.17130000000E+03  0.17130000000E+03 0.  1.
       11    1    1    2    0    0  0.29981548604E-01 -0.95037631685E-02  0.49031735388E+00  0.49132533367E+00  0.51109989000E-03 0. -1.
     -623    1    1    2    0    0 -0.59526597007E-02 -0.67626217335E-02  0.25535689095E-02  0.17130000026E+03  0.17130000000E+03 0.  1.
      622    1    1    2    0    0 -0.24028888903E-01  0.16266384902E-01  0.35071290446E+01  0.35086744104E+01  0.10000000000E+00 0. -1.
</event>
<event>
 5   0  0.6262544E+06  0.9118800E+02  0.7818608E-02  0.1180000E+00
       11   -1    0    0    0    0  0.00000000000E+00  0.00000000000E+00  0.39999999673E+01  0.40000000000E+01  0.51109989000E-03 0.  1.
     -623   -1    0    0    0    0  0.00000000000E+00  0.00000000000E+00  0.12525980253E-10  0.17130000000E+03  0.17130000000E+03 0. -1.
       11    1    1    2    0    0  0.14640541894E-02 -0.90636493830E-02  0.26143456731E+00  0.26159622971E+00  0.51109989000E-03 0.  1.
     -623    1    1    2    0    0  0.12728777291E-01  0.23661523838E-02  0.15327874844E-02  0.17130000050E+03  0.17130000000E+03 0. -1.
      622    1    1    2    0    0 -0.14192831480E-01  0.66974969992E-02  0.37370326126E+01  0.37384032742E+01  0.10000000000E+00 0.  0.
</event>
<event>
 5   0  0.6262544E+06  0.9118800E+02  0.7818608E-02  0.1180000E+00
       11   -1    0    0    0    0  0.00000000000E+00  0.00000000000E+00  0.39999999673E+01  0.40000000000E+01  0.51109989000E-03 0. -1.
     -623   -1    0    0    0    0  0.00000000000E+00  0.00000000000E+00  0.12525980253E-10  0.17130000000E+03  0.17130000000E+03 0.  1.
       11    1    1    2    0    0  0.22415905886E-02 -0.62542811741E-03  0.15138864317E-01  0.15325218583E-01  0.51109989000E-03 0. -1.
     -623    1    1    2    0    0 -0.24458394162E-02 -0.18205064495E-02  0.14421162018E-02  0.17130000003E+03  0.17130000000E+03 0.  1.
      622    1    1    2    0    0  0.20424882746E-03  0.24459345667E-02  0.39834189865E+01  0.39846747479E+01  0.10000000000E+00 0. -1.
</event>
<event>
 5   0  0.6262544E+06  0.9118800E+02  0.7818608E-02  0.1180000E+00
       11   -1    0    0    0    0  0.00000000000E+00  0.00000000000E+00  0.39999999673E+01  0.40000000000E+01  0.51109989000E-03 0.  1.
     -623   -1    0    0    0    0  0.00000000000E+00  0.00000000000E+00  0.12525980253E-10  0.17130000000E+03  0.17130000000E+03 0. -1.
       11    1    1    2    0    0  0.55834912420E-02  0.11737562784E-01  0.38267906635E-01  0.40418308424E-01  0.51109989000E-03 0.  1.
     -623    1    1    2    0    0 -0.38575499981E-02 -0.16216833234E-01  0.34170862979E-02  0.17130000085E+03  0.17130000000E+03 0. -1.
      622    1    1    2    0    0 -0.17259412438E-02  0.44792704497E-02  0.39583149744E+01  0.39595808464E+01  0.10000000000E+00 0.  1.
</event>
<event>
 5   0  0.6262544E+06  0.9118800E+02  0.7818608E-02  0.1180000E+00
       11   -1    0    0    0    0  0.00000000000E+00  0.00000000000E+00  0.39999999673E+01  0.40000000000E+01  0.51109989000E-03 0. -1.
     -623   -1    0    0    0    0  0.00000000000E+00  0.00000000000E+00  0.12525980253E-10  0.17130000000E+03  0.17130000000E+03 0. -1.
       11    1    1    2    0    0 -0.15209937726E-02 -0.51185652596E-01  0.57615696285E+00  0.57842838062E+00  0.51109989000E-03 0. -1.
     -623    1    1    2    0    0  0.88367308894E-02  0.25998087769E-02  0.40862567274E-02  0.17130000030E+03  0.17130000000E+03 0. -1.
      622    1    1    2    0    0 -0.73157371168E-02  0.48585843819E-01  0.34197567478E+01  0.34215713230E+01  0.10000000000E+00 0. -1.
</event>
<event>
 5   0  0.6262544E+06  0.9118800E+02  0.7818608E-02  0.1180000E+00
       11   -1    0    0    0    0  0.00000000000E+00  0.00000000000E+00  0.39999999673E+01  0.40000000000E+01  0.51109989000E-03 0. -1.
     -623   -1    0    0    0    0  0.00000000000E+00  0.00000000000E+00  0.12525980253E-10  0.17130000000E+03  0.17130000000E+03 0.  1.
       11    1    1    2    0    0 -0.53147474163E-01  0.73594395994E-02  0.64540575821E+00  0.64763235660E+00  0.51109989000E-03 0. -1.
     -623    1    1    2    0    0  0.16999578641E-02  0.76273129721E-02  0.41470994062E-02  0.17130000023E+03  0.17130000000E+03 0.  1.
      622    1    1    2    0    0  0.51447516299E-01 -0.14986752572E-01  0.33504471098E+01  0.33523674150E+01  0.10000000000E+00 0. -1.
</event>
<event>
 5   0  0.6262544E+06  0.9118800E+02  0.7818608E-02  0.1180000E+00
       11   -1    0    0    0    0  0.00000000000E+00  0.00000000000E+00  0.39999999673E+01  0.40000000000E+01  0.51109989000E-03 0. -1.
     -623   -1    0    0    0    0  0.00000000000E+00  0.00000000000E+00  0.12525980253E-10  0.17130000000E+03  0.17130000000E+03 0.  1.
       11    1    1    2    0    0  0.55997017794E-03 -0.16255435686E-02  0.15223043238E-02  0.23525708005E-02  0.51109989000E-03 0. -1.
     -623    1    1    2    0    0  0.21842993099E-02 -0.44887711202E-02  0.20868701926E-02  0.17130000009E+03  0.17130000000E+03 0.  1.
      622    1    1    2    0    0 -0.27442694879E-02  0.61143146888E-02  0.39963907928E+01  0.39976473437E+01  0.10000000000E+00 0. -1.
</event>
<event>
 5   0  0.6262544E+06  0.9118800E+02  0.7818608E-02  0.1180000E+00
       11   -1    0    0    0    0  0.00000000000E+00  0.00000000000E+00  0.39999999673E+01  0.40000000000E+01  0.51109989000E-03 0. -1.
     -623   -1    0    0    0    0  0.00000000000E+00  0.00000000000E+00  0.12525980253E-10  0.17130000000E+03  0.17130000000E+03 0. -1.
       11    1    1    2    0    0  0.27140630677E-02  0.53905540939E-02  0.58243072846E-01  0.58557159837E-01  0.51109989000E-03 0. -1.
     -623    1    1    2    0    0 -0.13207931365E-02 -0.90103027160E-02  0.15849880415E-02  0.17130000025E+03  0.17130000000E+03 0. -1.
      622    1    1    2    0    0 -0.13932699312E-02  0.36197486220E-02  0.39401719065E+01  0.39414425908E+01  0.10000000000E+00 0. -1.
</event>
<event>
 5   0  0.6262544E+06  0.9118800E+02  0.7818608E-02  0.1180000E+00
       11   -1    0    0    0    0  0.00000000000E+00  0.00000000000E+00  0.39999999673E+01  0.40000000000E+01  0.51109989000E-03 0.  1.
     -623   -1    0    0    0    0  0.00000000000E+00  0.00000000000E+00  0.12525980253E-10  0.17130000000E+03  0.17130000000E+03 0.  1.
       11    1    1    2    0    0 -0.35234505248E-01 -0.14451701864E-01  0.24483016744E+01  0.24485978992E+01  0.51109989000E-03 0.  1.
     -623    1    1    2    0    0  0.29096420909E-02  0.18201938413E-01  0.38655162534E-02  0.17130000104E+03  0.17130000000E+03 0.  1.
      622    1    1    2    0    0  0.32324863157E-01 -0.37502365484E-02  0.15478327767E+01  0.15514010654E+01  0.10000000000E+00 0.  1.
</event>
<event>
 5   0  0.6262544E+06  0.9118800E+02  0.7818608E-02  0.1180000E+00
       11   -1    0    0    0    0  0.00000000000E+00  0.00000000000E+00  0.39999999673E+01  0.40000000000E+01  0.51109989000E-03 0. -1.
     -623   -1    0    0    0    0  0.00000000000E+00  0.00000000000E+00  0.12525980253E-10  0.17130000000E+03  0.17130000000E+03 0.  1.
       11    1    1    2    0    0  0.10992837671E+00 -0.40427810827E-02  0.74511540110E+00  0.75319175132E+00  0.51109989000E-03 0. -1.
     -623    1    1    2    0    0 -0.32687779059E-01  0.23952050595E-01  0.10602202127E-01  0.17130000512E+03  0.17130000000E+03 0.  1.
      622    1    1    2    0    0 -0.77240597652E-01 -0.19909269512E-01  0.32442823641E+01  0.32468031273E+01  0.10000000000E+00 0.  0.
</event>
<event>
 5   0  0.6262544E+06  0.9118800E+02  0.7818608E-02  0.1180000E+00
       11   -1    0    0    0    0  0.00000000000E+00  0.00000000000E+00  0.39999999673E+01  0.40000000000E+01  0.51109989000E-03 0.  1.
     -623   -1    0    0    0    0  0.00000000000E+00  0.00000000000E+00  0.12525980253E-10  0.17130000000E+03  0.17130000000E+03 0.  1.
       11    1    1    2    0    0 -0.12322517427E-02  0.58579167059E-03  0.48867281585E-03  0.15367562634E-02  0.51109989000E-03 0.  1.
     -623    1    1    2    0    0  0.80065968542E-02  0.37266361053E-03  0.23047852995E-02  0.17130000020E+03  0.17130000000E+03 0.  1.
      622    1    1    2    0    0 -0.67743451116E-02 -0.95845528112E-03  0.39972065092E+01  0.39984630407E+01  0.10000000000E+00 0.  1.
</event>
<event>
 5   0  0.6262544E+06  0.9118800E+02  0.7818608E-02  0.1180000E+00
       11   -1    0    0    0    0  0.00000000000E+00  0.00000000000E+00  0.39999999673E+01  0.40000000000E+01  0.51109989000E-03 0. -1.
     -623   -1    0    0    0    0  0.00000000000E+00  0.00000000000E+00  0.12525980253E-10  0.17130000000E+03  0.17130000000E+03 0. -1.
       11    1    1    2    0    0 -0.12728109854E-02 -0.12782222536E-03 -0.12655733104E-02  0.18706376527E-02  0.51109989000E-03 0. -1.
     -623    1    1    2    0    0 -0.47263692405E-01 -0.61468525098E-02  0.46932968121E-02  0.17130000669E+03  0.17130000000E+03 0. -1.
      622    1    1    2    0    0  0.48536503391E-01  0.62746747353E-02  0.39965722440E+01  0.39981226676E+01  0.10000000000E+00 0. -1.
</event>
<event>
 5   0  0.6262544E+06  0.9118800E+02  0.7818608E-02  0.1180000E+00
       11   -1    0    0    0    0  0.00000000000E+00  0.00000000000E+00  0.39999999673E+01  0.40000000000E+01  0.51109989000E-03 0.  1.
     -623   -1    0    0    0    0  0.00000000000E+00  0.00000000000E+00  0.12525980253E-10  0.17130000000E+03  0.17130000000E+03 0.  1.
       11    1    1    2    0    0  0.31256651760E-01  0.25483530066E-01  0.59058796452E+00  0.59196350702E+00  0.51109989000E-03 0.  1.
     -623    1    1    2    0    0 -0.12781178106E-01 -0.36549569402E-01  0.29154241424E-02  0.17130000440E+03  0.17130000000E+03 0.  1.
      622    1    1    2    0    0 -0.18475473654E-01  0.11066039336E-01  0.34064965787E+01  0.34080320921E+01  0.10000000000E+00 0.  1.
</event>
<event>
 5   0  0.6262544E+06  0.9118800E+02  0.7818608E-02  0.1180000E+00
       11   -1    0    0    0    0  0.00000000000E+00  0.00000000000E+00  0.39999999673E+01  0.40000000000E+01  0.51109989000E-03 0.  1.
     -623   -1    0    0    0    0  0.00000000000E+00  0.00000000000E+00  0.12525980253E-10  0.17130000000E+03  0.17130000000E+03 0. -1.
       11    1    1    2    0    0 -0.12688362118E+00 -0.11021641917E+00  0.16451217600E+01  0.16536846673E+01  0.51109989000E-03 0.  1.
     -623    1    1    2    0    0  0.69637342951E-01  0.12563893175E-01  0.13444580632E-01  0.17130001514E+03  0.17130000000E+03 0. -1.
      622    1    1    2    0    0  0.57246278227E-01  0.97652525995E-01  0.23414336267E+01  0.23463001898E+01  0.10000000000E+00 0.  1.
</event>
<event>
 5   0  0.6262544E+06  0.9118800E+02  0.7818608E-02  0.1180000E+00
       11   -1    0    0    0    0  0.00000000000E+00  0.00000000000E+00  0.39999999673E+01  0.40000000000E+01  0.51109989000E-03 0.  1.
     -623   -1    0    0    0    0  0.00000000000E+00  0.00000000000E+00  0.12525980253E-10  0.17130000000E+03  0.17130000000E+03 0.  1.
       11    1    1    2    0    0 -0.99181852664E-03  0.23780664987E-02  0.38880519221E-02  0.46922356195E-02  0.51109989000E-03 0.  1.
     -623    1    1    2    0    0  0.47061039749E-02 -0.27959248363E-02  0.20576639324E-02  0.17130000010E+03  0.17130000000E+03 0.  1.
      622    1    1    2    0    0 -0.37142854483E-02  0.41785833763E-03  0.39940542515E+01  0.39953076646E+01  0.10000000000E+00 0.  1.
</event>
<event>
 5   0  0.6262544E+06  0.9118800E+02  0.7818608E-02  0.1180000E+00
       11   -1    0    0    0    0  0.00000000000E+00  0.00000000000E+00  0.39999999673E+01  0.40000000000E+01  0.51109989000E-03 0.  1.
     -623   -1    0    0    0    0  0.00000000000E+00  0.00000000000E+00  0.12525980253E-10  0.17130000000E+03  0.17130000000E+03 0.  1.
       11    1    1    2    0    0 -0.41526470371E-02  0.33886036638E-02  0.40562357738E-01  0.40918128019E-01  0.51109989000E-03 0.  1.
     -623    1    1    2    0    0  0.10529591057E-01 -0.67767596137E-02  0.16259113405E-02  0.17130000047E+03  0.17130000000E+03 0.  1.
      622    1    1    2    0    0 -0.63769440204E-02  0.33881559502E-02  0.39578116984E+01  0.39590814067E+01  0.10000000000E+00 0.  1.
</event>
<event>
 5   0  0.6262544E+06  0.9118800E+02  0.7818608E-02  0.1180000E+00
       11   -1    0    0    0    0  0.00000000000E+00  0.00000000000E+00  0.39999999673E+01  0.40000000000E+01  0.51109989000E-03 0.  1.
     -623   -1    0    0    0    0  0.00000000000E+00  0.00000000000E+00  0.12525980253E-10  0.17130000000E+03  0.17130000000E+03 0. -1.
       11    1    1    2    0    0 -0.57128016061E-03 -0.11146705497E-02 -0.13074799320E-04  0.13528656637E-02  0.51109989000E-03 0.  1.
     -623    1    1    2    0    0  0.61533676142E-02 -0.39475458608E-02  0.26238053088E-02  0.17130000018E+03  0.17130000000E+03 0. -1.
      622    1    1    2    0    0 -0.55820874536E-02  0.50622164105E-02  0.39973892369E+01  0.39986469583E+01  0.10000000000E+00 0.  1.
</event>
<event>
 5   0  0.6262544E+06  0.9118800E+02  0.7818608E-02  0.1180000E+00
       11   -1    0    0    0    0  0.00000000000E+00  0.00000000000E+00  0.39999999673E+01  0.40000000000E+01  0.51109989000E-03 0.  1.
     -623   -1    0    0    0    0  0.00000000000E+00  0.00000000000E+00  0.12525980253E-10  0.17130000000E+03  0.17130000000E+03 0. -1.
       11    1    1    2    0    0  0.20262795486E-01  0.29721464561E-01  0.19645720225E+00  0.19972390912E+00  0.51109989000E-03 0.  1.
     -623    1    1    2    0    0  0.89413151856E-02 -0.26028798489E-02  0.47919657263E-02  0.17130000032E+03  0.17130000000E+03 0. -1.
      622    1    1    2    0    0 -0.29204110672E-01 -0.27118584712E-01  0.37987507994E+01  0.38002757707E+01  0.10000000000E+00 0.  1.
</event>
<event>
 5   0  0.6262544E+06  0.9118800E+02  0.7818608E-02  0.1180000E+00
       11   -1    0    0    0    0  0.00000000000E+00  0.00000000000E+00  0.39999999673E+01  0.40000000000E+01  0.51109989000E-03 0.  1.
     -623   -1    0    0    0    0  0.00000000000E+00  0.00000000000E+00  0.12525980253E-10  0.17130000000E+03  0.17130000000E+03 0. -1.
       11    1    1    2    0    0 -0.25041460468E-03 -0.59253162005E-03  0.50596277003E-02  0.51259005802E-02  0.51109989000E-03 0.  1.
     -623    1    1    2    0    0 -0.22611011903E-01  0.22719288535E-02  0.13853423065E-02  0.17130000151E+03  0.17130000000E+03 0. -1.
      622    1    1    2    0    0  0.22861426507E-01 -0.16793972334E-02  0.39935549973E+01  0.39948725864E+01  0.10000000000E+00 0.  1.
</event>
<event>
 5   0  0.6262544E+06  0.9118800E+02  0.7818608E-02  0.1180000E+00
       11   -1    0    0    0    0  0.00000000000E+00  0.00000000000E+00  0.39999999673E+01  0.40000000000E+01  0.51109989000E-03 0.  1.
     -623   -1    0    0    0    0  0.00000000000E+00  0.00000000000E+00  0.12525980253E-10  0.17130000000E+03  0.17130000000E+03 0.  1.
       11    1    1    2    0    0 -0.29967149936E-03 -0.51764072461E-01  0.26010126710E+00  0.26520282685E+00  0.51109989000E-03 0.  1.
     -623    1    1    2    0    0 -0.33231736802E-01  0.34526588124E-01  0.66377383917E-02  0.17130000683E+03  0.17130000000E+03 0.  1.
      622    1    1    2    0    0  0.33531408301E-01  0.17237484338E-01  0.37332609619E+01  0.37347903416E+01  0.10000000000E+00 0.  1.
</event>
<event>
 5   0  0.6262544E+06  0.9118800E+02  0.7818608E-02  0.1180000E+00
       11   -1    0    0    0    0  0.00000000000E+00  0.00000000000E+00  0.39999999673E+01  0.40000000000E+01  0.51109989000E-03 0. -1.
     -623   -1    0    0    0    0  0.00000000000E+00  0.00000000000E+00  0.12525980253E-10  0.17130000000E+03  0.17130000000E+03 0.  1.
       11    1    1    2    0    0  0.18398633611E-02  0.11902624998E-01  0.13989914679E+00  0.14041755614E+00  0.51109989000E-03 0. -1.
     -623    1    1    2    0    0  0.30972064354E-03 -0.16388236936E-02  0.18283396999E-02  0.17130000002E+03  0.17130000000E+03 0.  1.
      622    1    1    2    0    0 -0.21495840046E-02 -0.10263801304E-01  0.38582724809E+01  0.38595824260E+01  0.10000000000E+00 0. -1.
</event>
<event>
 5   0  0.6262544E+06  0.9118800E+02  0.7818608E-02  0.1180000E+00
       11   -1    0    0    0    0  0.00000000000E+00  0.00000000000E+00  0.39999999673E+01  0.40000000000E+01  0.51109989000E-03 0.  1.
     -623   -1    0    0    0    0  0.00000000000E+00  0.00000000000E+00  0.12525980253E-10  0.17130000000E+03  0.17130000000E+03 0.  1.
       11    1    1    2    0    0 -0.11087075822E+00 -0.87174174057E-01  0.74227885727E+00  0.75555927949E+00  0.51109989000E-03 0.  1.
     -623    1    1    2    0    0  0.16811216049E-01  0.35216331708E-01  0.16607920486E-01  0.17130000525E+03  0.17130000000E+03 0.  1.
      622    1    1    2    0    0  0.94059542173E-01  0.51957842349E-01  0.32411131896E+01  0.32444354706E+01  0.10000000000E+00 0.  1.
</event>
<event>
 5   0  0.6262544E+06  0.9118800E+02  0.7818608E-02  0.1180000E+00
       11   -1    0    0    0    0  0.00000000000E+00  0.00000000000E+00  0.39999999673E+01  0.40000000000E+01  0.51109989000E-03 0. -1.
     -623   -1    0    0    0    0  0.00000000000E+00  0.00000000000E+00  0.12525980253E-10  0.17130000000E+03  0.17130000000E+03 0.  1.
       11    1    1    2    0    0  0.45267777500E-01 -0.31496279085E-01  0.21800367697E+00  0.22487118906E+00  0.51109989000E-03 0. -1.
     -623    1    1    2    0    0 -0.17154550551E-01  0.36179284225E-01  0.83046756341E-02  0.17130000488E+03  0.17130000000E+03 0.  1.
      622    1    1    2    0    0 -0.28113226949E-01 -0.46830051399E-02  0.37736916148E+01  0.37751239301E+01  0.10000000000E+00 0. -1.
</event>
<event>
 5   0  0.6262544E+06  0.9118800E+02  0.7818608E-02  0.1180000E+00
       11   -1    0    0    0    0  0.00000000000E+00  0.00000000000E+00  0.39999999673E+01  0.40000000000E+01  0.51109989000E-03 0.  1.
     -623   -1    0    0    0    0  0.00000000000E+00  0.00000000000E+00  0.12525980253E-10  0.17130000000E+03  0.17130000000E+03 0.  1.
       11    1    1    2    0    0  0.27183452818E-01  0.75497492992E-02  0.60572532378E+00  0.60638219623E+00  0.51109989000E-03 0.  1.
     -623    1    1    2    0    0 -0.21340130704E-02 -0.36738358374E-02  0.22252858655E-02  0.17130000007E+03  0.17130000000E+03 0.  1.
      622    1    1    2    0    0 -0.25049439747E-01 -0.38759134617E-02  0.33920493578E+01  0.33936177367E+01  0.10000000000E+00 0.  1.
</event>
<event>
 5   0  0.6262544E+06  0.9118800E+02  0.7818608E-02  0.1180000E+00
       11   -1    0    0    0    0  0.00000000000E+00  0.00000000000E+00  0.39999999673E+01  0.40000000000E+01  0.51109989000E-03 0.  1.
     -623   -1    0    0    0    0  0.00000000000E+00  0.00000000000E+00  0.12525980253E-10  0.17130000000E+03  0.17130000000E+03 0. -1.
       11    1    1    2    0    0  0.18391869982E-02  0.16687714689E-02  0.77711937723E-02  0.81743550517E-02  0.51109989000E-03 0.  1.
     -623    1    1    2    0    0 -0.57183004355E-02 -0.11986849750E-02  0.16579056990E-02  0.17130000011E+03  0.17130000000E+03 0. -1.
      622    1    1    2    0    0  0.38791134374E-02 -0.47008649391E-03  0.39905708679E+01  0.39918255373E+01  0.10000000000E+00 0.  1.
</event>
<event>
 5   0  0.6262544E+06  0.9118800E+02  0.7818608E-02  0.1180000E+00
       11   -1    0    0    0    0  0.00000000000E+00  0.00000000000E+00  0.39999999673E+01  0.40000000000E+01  0.51109989000E-03 0.  1.
     -623   -1    0    0    0    0  0.00000000000E+00  0.00000000000E+00  0.12525980253E-10  0.17130000000E+03  0.17130000000E+03 0.  1.
       11    1    1    2    0    0  0.77811996778E-02  0.20505856172E-01  0.47090557274E-01  0.51950158908E-01  0.51109989000E-03 0.  1.
     -623    1    1    2    0    0  0.13462578233E-01 -0.18141703126E-01  0.61857035227E-02  0.17130000160E+03  0.17130000000E+03 0.  1.
      622    1    1    2    0    0 -0.21243777911E-01 -0.23641530460E-02  0.39467237066E+01  0.39480482397E+01  0.10000000000E+00 0.  1.
</event>
<event>
 5   0  0.6262544E+06  0.9118800E+02  0.7818608E-02  0.1180000E+00
       11   -1    0    0    0    0  0.00000000000E+00  0.00000000000E+00  0.39999999673E+01  0.40000000000E+01  0.51109989000E-03 0.  1.
     -623   -1    0    0    0    0  0.00000000000E+00  0.00000000000E+00  0.12525980253E-10  0.17130000000E+03  0.17130000000E+03 0. -1.
       11    1    1    2    0    0 -0.19847727699E-02  0.10201469978E-01  0.16034866103E+00  0.16068591609E+00  0.51109989000E-03 0.  1.
     -623    1    1    2    0    0  0.35553440909E-02 -0.22358692626E-02  0.16484062292E-02  0.17130000006E+03  0.17130000000E+03 0. -1.
      622    1    1    2    0    0 -0.15705713209E-02 -0.79656007152E-02  0.38380029001E+01  0.38393140245E+01  0.10000000000E+00 0.  1.
</event>
<event>
 5   0  0.6262544E+06  0.9118800E+02  0.7818608E-02  0.1180000E+00
       11   -1    0    0    0    0  0.00000000000E+00  0.00000000000E+00  0.39999999673E+01  0.40000000000E+01  0.51109989000E-03 0.  1.
     -623   -1    0    0    0    0  0.00000000000E+00  0.00000000000E+00  0.12525980253E-10  0.17130000000E+03  0.17130000000E+03 0.  1.
       11    1    1    2    0    0  0.17457688200E-02 -0.35530016581E-01  0.17737826808E+00  0.18091086478E+00  0.51109989000E-03 0.  1.
     -623    1    1    2    0    0 -0.13865484309E-01  0.66145464881E-01  0.49974063090E-02  0.17130001340E+03  0.17130000000E+03 0.  1.
      622    1    1    2    0    0  0.12119715490E-01 -0.30615448302E-01  0.38176242931E+01  0.38190757306E+01  0.10000000000E+00 0.  1.
</event>
<event>
 5   0  0.6262544E+06  0.9118800E+02  0.7818608E-02  0.1180000E+00
       11   -1    0    0    0    0  0.00000000000E+00  0.00000000000E+00  0.39999999673E+01  0.40000000000E+01  0.51109989000E-03 0.  1.
     -623   -1    0    0    0    0  0.00000000000E+00  0.00000000000E+00  0.12525980253E-10  0.17130000000E+03  0.17130000000E+03 0. -1.
       11    1    1    2    0    0  0.15177047279E-01  0.19079662566E-01  0.47311182401E+00  0.47373983950E+00  0.51109989000E-03 0.  1.
     -623    1    1    2    0    0 -0.42546124705E-02  0.12592411909E-01  0.22059502044E-02  0.17130000053E+03  0.17130000000E+03 0. -1.
      622    1    1    2    0    0 -0.10922434809E-01 -0.31672074475E-01  0.35246821931E+01  0.35262596306E+01  0.10000000000E+00 0.  1.
</event>
<event>
 5   0  0.6262544E+06  0.9118800E+02  0.7818608E-02  0.1180000E+00
       11   -1    0    0    0    0  0.00000000000E+00  0.00000000000E+00  0.39999999673E+01  0.40000000000E+01  0.51109989000E-03 0.  1.
     -623   -1    0    0    0    0  0.00000000000E+00  0.00000000000E+00  0.12525980253E-10  0.17130000000E+03  0.17130000000E+03 0. -1.
       11    1    1    2    0    0  0.18866203170E+00  0.70262672497E-02  0.11382486691E+01  0.11537993867E+01  0.51109989000E-03 0.  1.
     -623    1    1    2    0    0  0.58380273926E-02 -0.31265538670E-01  0.24073783336E-01  0.17130000464E+03  0.17130000000E+03 0. -1.
      622    1    1    2    0    0 -0.19450005909E+00  0.24239271421E-01  0.28376775149E+01  0.28461959690E+01  0.10000000000E+00 0.  1.
</event>
<event>
 5   0  0.6262544E+06  0.9118800E+02  0.7818608E-02  0.1180000E+00
       11   -1    0    0    0    0  0.00000000000E+00  0.00000000000E+00  0.39999999673E+01  0.40000000000E+01  0.51109989000E-03 0.  1.
     -623   -1    0    0    0    0  0.00000000000E+00  0.00000000000E+00  0.12525980253E-10  0.17130000000E+03  0.17130000000E+03 0.  1.
       11    1    1    2    0    0 -0.10828019741E-01  0.68126937458E-02  0.23016611996E-01  0.26337890167E-01  0.51109989000E-03 0.  1.
     -623    1    1    2    0    0  0.54859886054E-02 -0.75419732839E-02  0.45837041486E-02  0.17130000032E+03  0.17130000000E+03 0.  1.
      622    1    1    2    0    0  0.53420311352E-02  0.72927953823E-03  0.39723996513E+01  0.39736617947E+01  0.10000000000E+00 0.  1.
</event>
<event>
 5   0  0.6262544E+06  0.9118800E+02  0.7818608E-02  0.1180000E+00
       11   -1    0    0    0    0  0.00000000000E+00  0.00000000000E+00  0.39999999673E+01  0.40000000000E+01  0.51109989000E-03 0. -1.
     -623   -1    0    0    0    0  0.00000000000E+00  0.00000000000E+00  0.12525980253E-10  0.17130000000E+03  0.17130000000E+03 0. -1.
       11    1    1    2    0    0  0.41463901116E-01 -0.29366794297E-01  0.58268045282E-01  0.77311642248E-01  0.51109989000E-03 0. -1.
     -623    1    1    2    0    0  0.47316127238E-01  0.11558826565E-01  0.21372225856E-01  0.17130000826E+03  0.17130000000E+03 0. -1.
      622    1    1    2    0    0 -0.88780028354E-01  0.17807967732E-01  0.39203596962E+01  0.39226800997E+01  0.10000000000E+00 0. -1.
</event>
<event>
 5   0  0.6262544E+06  0.9118800E+02  0.7818608E-02  0.1180000E+00
       11   -1    0    0    0    0  0.00000000000E+00  0.00000000000E+00  0.39999999673E+01  0.40000000000E+01  0.51109989000E-03 0. -1.
     -623   -1    0    0    0    0  0.00000000000E+00  0.00000000000E+00  0.12525980253E-10  0.17130000000E+03  0.17130000000E+03 0. -1.
       11    1    1    2    0    0  0.12230933133E-02 -0.16526278992E-02  0.21575347803E-01  0.21679114161E-01  0.51109989000E-03 0. -1.
     -623    1    1    2    0    0  0.20965327225E-02  0.82691921831E-03  0.13622353427E-02  0.17130000002E+03  0.17130000000E+03 0. -1.
      622    1    1    2    0    0 -0.33196260358E-02  0.82570868089E-03  0.39770623842E+01  0.39783208656E+01  0.10000000000E+00 0. -1.
</event>
<event>
 5   0  0.6262544E+06  0.9118800E+02  0.7818608E-02  0.1180000E+00
       11   -1    0    0    0    0  0.00000000000E+00  0.00000000000E+00  0.39999999673E+01  0.40000000000E+01  0.51109989000E-03 0.  1.
     -623   -1    0    0    0    0  0.00000000000E+00  0.00000000000E+00  0.12525980253E-10  0.17130000000E+03  0.17130000000E+03 0.  1.
       11    1    1    2    0    0 -0.99574842622E-03 -0.37774063566E-03  0.31480235374E-01  0.31502391103E-01  0.51109989000E-03 0.  1.
     -623    1    1    2    0    0  0.69805921501E-03  0.24350366275E-02  0.12828139339E-02  0.17130000002E+03  0.17130000000E+03 0.  1.
      622    1    1    2    0    0  0.29768921122E-03 -0.20572959918E-02  0.39672369179E+01  0.39684975853E+01  0.10000000000E+00 0.  1.
</event>
<event>
 5   0  0.6262544E+06  0.9118800E+02  0.7818608E-02  0.1180000E+00
       11   -1    0    0    0    0  0.00000000000E+00  0.00000000000E+00  0.39999999673E+01  0.40000000000E+01  0.51109989000E-03 0. -1.
     -623   -1    0    0    0    0  0.00000000000E+00  0.00000000000E+00  0.12525980253E-10  0.17130000000E+03  0.17130000000E+03 0.  1.
       11    1    1    2    0    0 -0.18116016267E-02  0.34396919821E-01  0.93942252934E+00  0.94005392391E+00  0.51109989000E-03 0. -1.
     -623    1    1    2    0    0  0.18724001078E-01  0.46793862569E-02  0.25633388763E-02  0.17130000111E+03  0.17130000000E+03 0.  1.
      622    1    1    2    0    0 -0.16912399452E-01 -0.39076306079E-01  0.30580140993E+01  0.30599449698E+01  0.10000000000E+00 0.  1.
</event>
<event>
 5   0  0.6262544E+06  0.9118800E+02  0.7818608E-02  0.1180000E+00
       11   -1    0    0    0    0  0.00000000000E+00  0.00000000000E+00  0.39999999673E+01  0.40000000000E+01  0.51109989000E-03 0.  1.
     -623   -1    0    0    0    0  0.00000000000E+00  0.00000000000E+00  0.12525980253E-10  0.17130000000E+03  0.17130000000E+03 0. -1.
       11    1    1    2    0    0  0.41343212132E-02 -0.48377616960E-02  0.22774551299E+00  0.22783497637E+00  0.51109989000E-03 0.  1.
     -623    1    1    2    0    0  0.13207585977E-02 -0.14442054818E-02  0.14243580322E-02  0.17130000002E+03  0.17130000000E+03 0. -1.
      622    1    1    2    0    0 -0.54550798109E-02  0.62819671778E-02  0.37708300963E+01  0.37721650065E+01  0.10000000000E+00 0.  1.
</event>
<event>
 5   0  0.6262544E+06  0.9118800E+02  0.7818608E-02  0.1180000E+00
       11   -1    0    0    0    0  0.00000000000E+00  0.00000000000E+00  0.39999999673E+01  0.40000000000E+01  0.51109989000E-03 0.  1.
     -623   -1    0    0    0    0  0.00000000000E+00  0.00000000000E+00  0.12525980253E-10  0.17130000000E+03  0.17130000000E+03 0.  1.
       11    1    1    2    0    0  0.13055590490E-01 -0.16927465118E-01  0.41050238596E+00  0.41105894664E+00  0.51109989000E-03 0.  1.
     -623    1    1    2    0    0 -0.18614025351E-03  0.18071831441E-01  0.19741978868E-02  0.17130000096E+03  0.17130000000E+03 0.  1.
      622    1    1    2    0    0 -0.12869450237E-01 -0.11443663234E-02  0.35875233835E+01  0.35889400886E+01  0.10000000000E+00 0.  1.
</event>
<event>
 5   0  0.6262544E+06  0.9118800E+02  0.7818608E-02  0.1180000E+00
       11   -1    0    0    0    0  0.00000000000E+00  0.00000000000E+00  0.39999999673E+01  0.40000000000E+01  0.51109989000E-03 0.  1.
     -623   -1    0    0    0    0  0.00000000000E+00  0.00000000000E+00  0.12525980253E-10  0.17130000000E+03  0.17130000000E+03 0. -1.
       11    1    1    2    0    0 -0.15275836287E-02  0.97885527942E-03  0.13454066660E-02  0.23158176947E-02  0.51109989000E-03 0.  1.
     -623    1    1    2    0    0  0.11234132702E-02  0.29896932906E-03  0.22215412940E-02  0.17130000002E+03  0.17130000000E+03 0. -1.
      622    1    1    2    0    0  0.40417035845E-03 -0.12778246085E-02  0.39964330193E+01  0.39976841639E+01  0.10000000000E+00 0.  1.
</event>
<event>
 5   0  0.6262544E+06  0.9118800E+02  0.7818608E-02  0.1180000E+00
       11   -1    0    0    0    0  0.00000000000E+00  0.00000000000E+00  0.39999999673E+01  0.40000000000E+01  0.51109989000E-03 0.  1.
     -623   -1    0    0    0    0  0.00000000000E+00  0.00000000000E+00  0.12525980253E-10  0.17130000000E+03  0.17130000000E+03 0. -1.
       11    1    1    2    0    0  0.13365892878E-01 -0.17900609496E-01  0.13335597971E+00  0.13521522643E+00  0.51109989000E-03 0.  1.
     -623    1    1    2    0    0  0.43372945195E-03  0.40631470577E-02  0.32026676655E-02  0.17130000008E+03  0.17130000000E+03 0. -1.
      622    1    1    2    0    0 -0.13799622330E-01  0.13837462439E-01  0.38634413200E+01  0.38647846949E+01  0.10000000000E+00 0.  1.
</event>
<event>
 5   0  0.6262544E+06  0.9118800E+02  0.7818608E-02  0.1180000E+00
       11   -1    0    0    0    0  0.00000000000E+00  0.00000000000E+00  0.39999999673E+01  0.40000000000E+01  0.51109989000E-03 0.  1.
     -623   -1    0    0    0    0  0.00000000000E+00  0.00000000000E+00  0.12525980253E-10  0.17130000000E+03  0.17130000000E+03 0.  1.
       11    1    1    2    0    0 -0.85680471515E-03  0.13372669717E-03  0.94012124492E-02  0.94549466148E-02  0.51109989000E-03 0.  1.
     -623    1    1    2    0    0  0.49412813669E-02  0.38526412523E-02  0.13110623004E-02  0.17130000012E+03  0.17130000000E+03 0.  1.
      622    1    1    2    0    0 -0.40844766518E-02 -0.39863679494E-02  0.39892876926E+01  0.39905449338E+01  0.10000000000E+00 0.  1.
</event>
<event>
 5   0  0.6262544E+06  0.9118800E+02  0.7818608E-02  0.1180000E+00
       11   -1    0    0    0    0  0.00000000000E+00  0.00000000000E+00  0.39999999673E+01  0.40000000000E+01  0.51109989000E-03 0. -1.
     -623   -1    0    0    0    0  0.00000000000E+00  0.00000000000E+00  0.12525980253E-10  0.17130000000E+03  0.17130000000E+03 0.  1.
       11    1    1    2    0    0 -0.55741957454E-02 -0.32809582939E-02  0.32111767726E+00  0.32118321908E+00  0.51109989000E-03 0. -1.
     -623    1    1    2    0    0  0.19982412050E-03 -0.14761372718E-02  0.14319094579E-02  0.17130000001E+03  0.17130000000E+03 0.  1.
      622    1    1    2    0    0  0.53743716249E-02  0.47570955657E-02  0.36774503806E+01  0.36788167685E+01  0.10000000000E+00 0. -1.
</event>
<event>
 5   0  0.6262544E+06  0.9118800E+02  0.7818608E-02  0.1180000E+00
       11   -1    0    0    0    0  0.00000000000E+00  0.00000000000E+00  0.39999999673E+01  0.40000000000E+01  0.51109989000E-03 0.  1.
     -623   -1    0    0    0    0  0.00000000000E+00  0.00000000000E+00  0.12525980253E-10  0.17130000000E+03  0.17130000000E+03 0. -1.
       11    1    1    2    0    0 -0.37260437121E-01 -0.18817253533E-01  0.85007127678E+00  0.85109568559E+00  0.51109989000E-03 0.  1.
     -623    1    1    2    0    0  0.17332182839E-02 -0.47707292351E-02  0.29016527694E-02  0.17130000010E+03  0.17130000000E+03 0. -1.
      622    1    1    2    0    0  0.35527218837E-01  0.23587982768E-01  0.31470270378E+01  0.31489042146E+01  0.10000000000E+00 0.  1.
</event>
<event>
 5   0  0.6262544E+06  0.9118800E+02  0.7818608E-02  0.1180000E+00
       11   -1    0    0    0    0  0.00000000000E+00  0.00000000000E+00  0.39999999673E+01  0.40000000000E+01  0.51109989000E-03 0. -1.
     -623   -1    0    0    0    0  0.00000000000E+00  0.00000000000E+00  0.12525980253E-10  0.17130000000E+03  0.17130000000E+03 0. -1.
       11    1    1    2    0    0 -0.18956629506E-01 -0.24294051665E-01  0.58645876089E+00  0.58726799180E+00  0.51109989000E-03 0. -1.
     -623    1    1    2    0    0  0.30258494169E-02  0.30021083057E-01  0.23192954733E-02  0.17130000267E+03  0.17130000000E+03 0. -1.
      622    1    1    2    0    0  0.15930780090E-01 -0.57270313917E-02  0.34112219110E+01  0.34127293351E+01  0.10000000000E+00 0. -1.
</event>
<event>
 5   0  0.6262544E+06  0.9118800E+02  0.7818608E-02  0.1180000E+00
       11   -1    0    0    0    0  0.00000000000E+00  0.00000000000E+00  0.39999999673E+01  0.40000000000E+01  0.51109989000E-03 0. -1.
     -623   -1    0    0    0    0  0.00000000000E+00  0.00000000000E+00  0.12525980253E-10  0.17130000000E+03  0.17130000000E+03 0.  1.
       11    1    1    2    0    0 -0.54986458927E-02 -0.36531585014E-02  0.40465973413E-01  0.41004108344E-01  0.51109989000E-03 0. -1.
     -623    1    1    2    0    0  0.38121629001E-02  0.11364223778E-02  0.18024655125E-02  0.17130000006E+03  0.17130000000E+03 0.  1.
      622    1    1    2    0    0  0.16864829926E-02  0.25167361236E-02  0.39577315285E+01  0.39589958360E+01  0.10000000000E+00 0. -1.
</event>
<event>
 5   0  0.6262544E+06  0.9118800E+02  0.7818608E-02  0.1180000E+00
       11   -1    0    0    0    0  0.00000000000E+00  0.00000000000E+00  0.39999999673E+01  0.40000000000E+01  0.51109989000E-03 0.  1.
     -623   -1    0    0    0    0  0.00000000000E+00  0.00000000000E+00  0.12525980253E-10  0.17130000000E+03  0.17130000000E+03 0. -1.
       11    1    1    2    0    0 -0.12769884733E-01 -0.35074721665E-01  0.50624462013E+00  0.50761913152E+00  0.51109989000E-03 0.  1.
     -623    1    1    2    0    0  0.11103370797E-01 -0.41493295030E-02  0.30276615365E-02  0.17130000044E+03  0.17130000000E+03 0. -1.
      622    1    1    2    0    0  0.16665139366E-02  0.39224051168E-01  0.34907276856E+01  0.34923804316E+01  0.10000000000E+00 0.  1.
</event>
<event>
 5   0  0.6262544E+06  0.9118800E+02  0.7818608E-02  0.1180000E+00
       11   -1    0    0    0    0  0.00000000000E+00  0.00000000000E+00  0.39999999673E+01  0.40000000000E+01  0.51109989000E-03 0. -1.
     -623   -1    0    0    0    0  0.00000000000E+00  0.00000000000E+00  0.12525980253E-10  0.17130000000E+03  0.17130000000E+03 0. -1.
       11    1    1    2    0    0 -0.68545990212E-01  0.14810311197E-01  0.14508999289E+01  0.14525938052E+01  0.51109989000E-03 0. -1.
     -623    1    1    2    0    0  0.16125114706E-01 -0.14457063945E-01  0.41986629394E-02  0.17130000142E+03  0.17130000000E+03 0. -1.
      622    1    1    2    0    0  0.52420875506E-01 -0.35324725165E-03  0.25449013756E+01  0.25474047743E+01  0.10000000000E+00 0.  0.
</event>
<event>
 5   0  0.6262544E+06  0.9118800E+02  0.7818608E-02  0.1180000E+00
       11   -1    0    0    0    0  0.00000000000E+00  0.00000000000E+00  0.39999999673E+01  0.40000000000E+01  0.51109989000E-03 0. -1.
     -623   -1    0    0    0    0  0.00000000000E+00  0.00000000000E+00  0.12525980253E-10  0.17130000000E+03  0.17130000000E+03 0. -1.
       11    1    1    2    0    0 -0.10788208677E-02 -0.17782174492E-02 -0.10679062226E-02  0.23932318231E-02  0.51109989000E-03 0. -1.
     -623    1    1    2    0    0 -0.48512849206E-02  0.73110450826E-03  0.47167216588E-02  0.17130000014E+03  0.17130000000E+03 0. -1.
      622    1    1    2    0    0  0.59301057883E-02  0.10471129410E-02  0.39963511519E+01  0.39976066330E+01  0.10000000000E+00 0. -1.
</event>
<event>
 5   0  0.6262544E+06  0.9118800E+02  0.7818608E-02  0.1180000E+00
       11   -1    0    0    0    0  0.00000000000E+00  0.00000000000E+00  0.39999999673E+01  0.40000000000E+01  0.51109989000E-03 0. -1.
     -623   -1    0    0    0    0  0.00000000000E+00  0.00000000000E+00  0.12525980253E-10  0.17130000000E+03  0.17130000000E+03 0.  1.
       11    1    1    2    0    0  0.13788685366E-02 -0.42337526203E-03  0.11610357663E-01  0.11710770821E-01  0.51109989000E-03 0. -1.
     -623    1    1    2    0    0 -0.16954163130E-02  0.13671948975E-02  0.13543914630E-02  0.17130000002E+03  0.17130000000E+03 0.  1.
      622    1    1    2    0    0  0.31654777637E-03 -0.94381963550E-03  0.39870352183E+01  0.39882892100E+01  0.10000000000E+00 0. -1.
</event>
<event>
 5   0  0.6262544E+06  0.9118800E+02  0.7818608E-02  0.1180000E+00
       11   -1    0    0    0    0  0.00000000000E+00  0.00000000000E+00  0.39999999673E+01  0.40000000000E+01  0.51109989000E-03 0.  1.
     -623   -1    0    0    0    0  0.00000000000E+00  0.00000000000E+00  0.12525980253E-10  0.17130000000E+03  0.17130000000E+03 0. -1.
       11    1    1    2    0    0  0.27147855367E-02 -0.52860148628E-02  0.46818413599E-02  0.75824055706E-02  0.51109989000E-03 0.  1.
     -623    1    1    2    0    0 -0.71298813241E-02  0.93976210579E-02  0.41581187038E-02  0.17130000046E+03  0.17130000000E+03 0. -1.
      622    1    1    2    0    0  0.44150957874E-02 -0.41116061951E-02  0.39911600073E+01  0.39924171378E+01  0.10000000000E+00 0.  1.
</event>
<event>
 5   0  0.6262544E+06  0.9118800E+02  0.7818608E-02  0.1180000E+00
       11   -1    0    0    0    0  0.00000000000E+00  0.00000000000E+00  0.39999999673E+01  0.40000000000E+01  0.51109989000E-03 0.  1.
     -623   -1    0    0    0    0  0.00000000000E+00  0.00000000000E+00  0.12525980253E-10  0.17130000000E+03  0.17130000000E+03 0. -1.
       11    1    1    2    0    0 -0.13308603276E-02 -0.26654061003E-02  0.18182541536E-02  0.35274424384E-02  0.51109989000E-03 0.  1.
     -623    1    1    2    0    0  0.16601346778E-02  0.11669255917E-01  0.29710456122E-02  0.17130000043E+03  0.17130000000E+03 0. -1.
      622    1    1    2    0    0 -0.32927435026E-03 -0.90038498173E-02  0.39952106677E+01  0.39964721264E+01  0.10000000000E+00 0.  1.
</event>
<event>
 5   0  0.6262544E+06  0.9118800E+02  0.7818608E-02  0.1180000E+00
       11   -1    0    0    0    0  0.00000000000E+00  0.00000000000E+00  0.39999999673E+01  0.40000000000E+01  0.51109989000E-03 0. -1.
     -623   -1    0    0    0    0  0.00000000000E+00  0.00000000000E+00  0.12525980253E-10  0.17130000000E+03  0.17130000000E+03 0. -1.
       11    1    1    2    0    0  0.31171868439E-04  0.12915258565E-01  0.23951249200E+00  0.23986100125E+00  0.51109989000E-03 0. -1.
     -623    1    1    2    0    0 -0.38746380666E-02 -0.19087437276E-01  0.16865984026E-02  0.17130000112E+03  0.17130000000E+03 0. -1.
      622    1    1    2    0    0  0.38434661979E-02  0.61721787094E-02  0.37588008767E+01  0.37601378830E+01  0.10000000000E+00 0. -1.
</event>
<event>
 5   0  0.6262544E+06  0.9118800E+02  0.7818608E-02  0.1180000E+00
       11   -1    0    0    0    0  0.00000000000E+00  0.00000000000E+00  0.39999999673E+01  0.40000000000E+01  0.51109989000E-03 0. -1.
     -623   -1    0    0    0    0  0.00000000000E+00  0.00000000000E+00  0.12525980253E-10  0.17130000000E+03  0.17130000000E+03 0. -1.
       11    1    1    2    0    0  0.24433506475E-01  0.10264947815E-01  0.15757563229E+00  0.15978956946E+00  0.51109989000E-03 0. -1.
     -623    1    1    2    0    0  0.57826753399E-02 -0.34158543633E-03  0.36480183912E-02  0.17130000014E+03  0.17130000000E+03 0. -1.
      622    1    1    2    0    0 -0.30216181815E-01 -0.99233623786E-02  0.38387763166E+01  0.38402102937E+01  0.10000000000E+00 0. -1.
</event>
<event>
 5   0  0.6262544E+06  0.9118800E+02  0.7818608E-02  0.1180000E+00
       11   -1    0    0    0    0  0.00000000000E+00  0.00000000000E+00  0.39999999673E+01  0.40000000000E+01  0.51109989000E-03 0.  1.
     -623   -1    0    0    0    0  0.00000000000E+00  0.00000000000E+00  0.12525980253E-10  0.17130000000E+03  0.17130000000E+03 0.  1.
       11    1    1    2    0    0  0.23149868122E-02  0.73692215374E-02  0.67680302810E-01  0.68121576612E-01  0.51109989000E-03 0.  1.
     -623    1    1    2    0    0  0.20075561018E-01  0.23378819660E-01  0.18999314280E-02  0.17130000278E+03  0.17130000000E+03 0.  1.
      622    1    1    2    0    0 -0.22390547830E-01 -0.30748041197E-01  0.39304197331E+01  0.39318756411E+01  0.10000000000E+00 0.  1.
</event>
<event>
 5   0  0.6262544E+06  0.9118800E+02  0.7818608E-02  0.1180000E+00
       11   -1    0    0    0    0  0.00000000000E+00  0.00000000000E+00  0.39999999673E+01  0.40000000000E+01  0.51109989000E-03 0. -1.
     -623   -1    0    0    0    0  0.00000000000E+00  0.00000000000E+00  0.12525980253E-10  0.17130000000E+03  0.17130000000E+03 0.  1.
       11    1    1    2    0    0  0.95638419513E-03  0.49922747723E-02  0.39534781013E+00  0.39538081602E+00  0.51109989000E-03 0. -1.
     -623    1    1    2    0    0 -0.94278363819E-02 -0.11513059356E-01  0.14368608062E-02  0.17130000065E+03  0.17130000000E+03 0.  1.
      622    1    1    2    0    0  0.84714521868E-02  0.65207845835E-02  0.36032152964E+01  0.36046185316E+01  0.10000000000E+00 0. -1.
</event>
<event>
 5   0  0.6262544E+06  0.9118800E+02  0.7818608E-02  0.1180000E+00
       11   -1    0    0    0    0  0.00000000000E+00  0.00000000000E+00  0.39999999673E+01  0.40000000000E+01  0.51109989000E-03 0.  1.
     -623   -1    0    0    0    0  0.00000000000E+00  0.00000000000E+00  0.12525980253E-10  0.17130000000E+03  0.17130000000E+03 0. -1.
       11    1    1    2    0    0 -0.22821290284E-01 -0.61528302421E-02  0.71920619354E-01  0.75706705906E-01  0.51109989000E-03 0.  1.
     -623    1    1    2    0    0  0.48258480903E-02 -0.30918880771E-02  0.51127147096E-02  0.17130000017E+03  0.17130000000E+03 0. -1.
      622    1    1    2    0    0  0.17995442193E-01  0.92447183192E-02  0.39229666333E+01  0.39242931219E+01  0.10000000000E+00 0.  1.
</event>
<event>
 5   0  0.6262544E+06  0.9118800E+02  0.7818608E-02  0.1180000E+00
       11   -1    0    0    0    0  0.00000000000E+00  0.00000000000E+00  0.39999999673E+01  0.40000000000E+01  0.51109989000E-03 0.  1.
     -623   -1    0    0    0    0  0.00000000000E+00  0.00000000000E+00  0.12525980253E-10  0.17130000000E+03  0.17130000000E+03 0.  1.
       11    1    1    2    0    0 -0.41060401733E-02  0.11211755894E-01  0.15301118393E+00  0.15347718614E+00  0.51109989000E-03 0.  1.
     -623    1    1    2    0    0 -0.69220172531E-02 -0.15063389622E-02  0.17942831176E-02  0.17130000016E+03  0.17130000000E+03 0.  1.
      622    1    1    2    0    0  0.11028057426E-01 -0.97054169322E-02  0.38451945003E+01  0.38465226580E+01  0.10000000000E+00 0.  1.
</event>
<event>
 5   0  0.6262544E+06  0.9118800E+02  0.7818608E-02  0.1180000E+00
       11   -1    0    0    0    0  0.00000000000E+00  0.00000000000E+00  0.39999999673E+01  0.40000000000E+01  0.51109989000E-03 0.  1.
     -623   -1    0    0    0    0  0.00000000000E+00  0.00000000000E+00  0.12525980253E-10  0.17130000000E+03  0.17130000000E+03 0. -1.
       11    1    1    2    0    0 -0.39388630119E-02 -0.65760968256E-02  0.19974432773E+00  0.19989201428E+00  0.51109989000E-03 0.  1.
     -623    1    1    2    0    0  0.14610550460E-01  0.33559996696E-02  0.14806508853E-02  0.17130000066E+03  0.17130000000E+03 0. -1.
      622    1    1    2    0    0 -0.10671687448E-01  0.32200971558E-02  0.37987749889E+01  0.38001073235E+01  0.10000000000E+00 0.  1.
</event>
<event>
 5   0  0.6262544E+06  0.9118800E+02  0.7818608E-02  0.1180000E+00
       11   -1    0    0    0    0  0.00000000000E+00  0.00000000000E+00  0.39999999673E+01  0.40000000000E+01  0.51109989000E-03 0.  1.
     -623   -1    0    0    0    0  0.00000000000E+00  0.00000000000E+00  0.12525980253E-10  0.17130000000E+03  0.17130000000E+03 0.  1.
       11    1    1    2    0    0  0.41225134818E-01  0.33093196622E-01  0.82413400774E+00  0.82582794536E+00  0.51109989000E-03 0.  1.
     -623    1    1    2    0    0 -0.24429657227E-01  0.66220448567E-02  0.35644706080E-02  0.17130000191E+03  0.17130000000E+03 0.  1.
      622    1    1    2    0    0 -0.16795477592E-01 -0.39715241478E-01  0.31723014889E+01  0.31741701475E+01  0.10000000000E+00 0.  1.
</event>
<event>
 5   0  0.6262544E+06  0.9118800E+02  0.7818608E-02  0.1180000E+00
       11   -1    0    0    0    0  0.00000000000E+00  0.00000000000E+00  0.39999999673E+01  0.40000000000E+01  0.51109989000E-03 0.  1.
     -623   -1    0    0    0    0  0.00000000000E+00  0.00000000000E+00  0.12525980253E-10  0.17130000000E+03  0.17130000000E+03 0. -1.
       11    1    1    2    0    0 -0.38545271702E-02  0.11220804715E-02  0.86252543291E-02  0.95274697391E-02  0.51109989000E-03 0.  1.
     -623    1    1    2    0    0  0.28502431966E-02 -0.22200366662E-02  0.21556931775E-02  0.17130000005E+03  0.17130000000E+03 0. -1.
      622    1    1    2    0    0  0.10042839736E-02  0.10979561947E-02  0.39892190198E+01  0.39904724786E+01  0.10000000000E+00 0.  1.
</event>
<event>
 5   0  0.6262544E+06  0.9118800E+02  0.7818608E-02  0.1180000E+00
       11   -1    0    0    0    0  0.00000000000E+00  0.00000000000E+00  0.39999999673E+01  0.40000000000E+01  0.51109989000E-03 0. -1.
     -623   -1    0    0    0    0  0.00000000000E+00  0.00000000000E+00  0.12525980253E-10  0.17130000000E+03  0.17130000000E+03 0.  1.
       11    1    1    2    0    0 -0.88021761894E-02 -0.10003151112E-01 -0.51639652820E-03  0.13344258178E-01  0.51109989000E-03 0. -1.
     -623    1    1    2    0    0  0.15839532084E-01  0.11807980231E-01  0.15123432796E-01  0.17130000181E+03  0.17130000000E+03 0.  1.
      622    1    1    2    0    0 -0.70373558950E-02 -0.18048291185E-02  0.39853929311E+01  0.39866539349E+01  0.10000000000E+00 0. -1.
</event>
<event>
 5   0  0.6262544E+06  0.9118800E+02  0.7818608E-02  0.1180000E+00
       11   -1    0    0    0    0  0.00000000000E+00  0.00000000000E+00  0.39999999673E+01  0.40000000000E+01  0.51109989000E-03 0. -1.
     -623   -1    0    0    0    0  0.00000000000E+00  0.00000000000E+00  0.12525980253E-10  0.17130000000E+03  0.17130000000E+03 0. -1.
       11    1    1    2    0    0 -0.66537585037E-02  0.36257812166E-03  0.29170290889E-01  0.29926093239E-01  0.51109989000E-03 0. -1.
     -623    1    1    2    0    0  0.16439895231E-02  0.10709018593E-02  0.20188358254E-02  0.17130000002E+03  0.17130000000E+03 0. -1.
      622    1    1    2    0    0  0.50097689806E-02 -0.14334799809E-02  0.39688108406E+01  0.39700738836E+01  0.10000000000E+00 0. -1.
</event>
<event>
 5   0  0.6262544E+06  0.9118800E+02  0.7818608E-02  0.1180000E+00
       11   -1    0    0    0    0  0.00000000000E+00  0.00000000000E+00  0.39999999673E+01  0.40000000000E+01  0.51109989000E-03 0. -1.
     -623   -1    0    0    0    0  0.00000000000E+00  0.00000000000E+00  0.12525980253E-10  0.17130000000E+03  0.17130000000E+03 0.  1.
       11    1    1    2    0    0  0.37792267021E-01  0.13989169390E-01  0.65697257137E+00  0.65820754558E+00  0.51109989000E-03 0. -1.
     -623    1    1    2    0    0  0.49387586336E-02 -0.11726455004E-01  0.30060767080E-02  0.17130000050E+03  0.17130000000E+03 0.  1.
      622    1    1    2    0    0 -0.42731025654E-01 -0.22627143859E-02  0.33400213193E+01  0.33417919555E+01  0.10000000000E+00 0.  1.
</event>
<event>
 5   0  0.6262544E+06  0.9118800E+02  0.7818608E-02  0.1180000E+00
       11   -1    0    0    0    0  0.00000000000E+00  0.00000000000E+00  0.39999999673E+01  0.40000000000E+01  0.51109989000E-03 0. -1.
     -623   -1    0    0    0    0  0.00000000000E+00  0.00000000000E+00  0.12525980253E-10  0.17130000000E+03  0.17130000000E+03 0.  1.
       11    1    1    2    0    0 -0.15474638855E-01  0.11506614416E-02  0.72853425649E-01  0.74489404088E-01  0.51109989000E-03 0. -1.
     -623    1    1    2    0    0  0.82557858172E-02 -0.19771503931E-01  0.29620570196E-02  0.17130000137E+03  0.17130000000E+03 0.  1.
      622    1    1    2    0    0  0.72188530376E-02  0.18620842488E-01  0.39241844846E+01  0.39255092302E+01  0.10000000000E+00 0. -1.
</event>
<event>
 5   0  0.6262544E+06  0.9118800E+02  0.7818608E-02  0.1180000E+00
       11   -1    0    0    0    0  0.00000000000E+00  0.00000000000E+00  0.39999999673E+01  0.40000000000E+01  0.51109989000E-03 0.  1.
     -623   -1    0    0    0    0  0.00000000000E+00  0.00000000000E+00  0.12525980253E-10  0.17130000000E+03  0.17130000000E+03 0. -1.
       11    1    1    2    0    0  0.35550623894E+00  0.81722882017E-01  0.18941048520E+01  0.19289107721E+01  0.51109989000E-03 0.  1.
     -623    1    1    2    0    0  0.21002029088E-01  0.33289464615E-02  0.73569503018E-01  0.17130001712E+03  0.17130000000E+03 0. -1.
      622    1    1    2    0    0 -0.37650826803E+00 -0.85051828478E-01  0.20323256124E+01  0.20710721098E+01  0.10000000000E+00 0.  1.
</event>
<event>
 5   0  0.6262544E+06  0.9118800E+02  0.7818608E-02  0.1180000E+00
       11   -1    0    0    0    0  0.00000000000E+00  0.00000000000E+00  0.39999999673E+01  0.40000000000E+01  0.51109989000E-03 0.  1.
     -623   -1    0    0    0    0  0.00000000000E+00  0.00000000000E+00  0.12525980253E-10  0.17130000000E+03  0.17130000000E+03 0. -1.
       11    1    1    2    0    0  0.32401101184E-01  0.55855015500E-02  0.38589466686E+00  0.38729315037E+00  0.51109989000E-03 0.  1.
     -623    1    1    2    0    0 -0.44944652151E-02 -0.11830755826E-01  0.28964387715E-02  0.17130000049E+03  0.17130000000E+03 0. -1.
      622    1    1    2    0    0 -0.27906635969E-01  0.62452542761E-02  0.36112088618E+01  0.36127063577E+01  0.10000000000E+00 0.  1.
</event>
<event>
 5   0  0.6262544E+06  0.9118800E+02  0.7818608E-02  0.1180000E+00
       11   -1    0    0    0    0  0.00000000000E+00  0.00000000000E+00  0.39999999673E+01  0.40000000000E+01  0.51109989000E-03 0.  1.
     -623   -1    0    0    0    0  0.00000000000E+00  0.00000000000E+00  0.12525980253E-10  0.17130000000E+03  0.17130000000E+03 0. -1.
       11    1    1    2    0    0  0.34033939894E-02 -0.16621769365E-01  0.33084931039E+00  0.33128446042E+00  0.51109989000E-03 0.  1.
     -623    1    1    2    0    0 -0.39494588438E-02 -0.10778881983E-01  0.19010449719E-02  0.17130000040E+03  0.17130000000E+03 0. -1.
      622    1    1    2    0    0  0.54606485473E-03  0.27400651349E-01  0.36672496124E+01  0.36687151447E+01  0.10000000000E+00 0.  1.
</event>
<event>
 5   0  0.6262544E+06  0.9118800E+02  0.7818608E-02  0.1180000E+00
       11   -1    0    0    0    0  0.00000000000E+00  0.00000000000E+00  0.39999999673E+01  0.40000000000E+01  0.51109989000E-03 0. -1.
     -623   -1    0    0    0    0  0.00000000000E+00  0.00000000000E+00  0.12525980253E-10  0.17130000000E+03  0.17130000000E+03 0.  1.
       11    1    1    2    0    0  0.23787217778E-02  0.77202267600E-02  0.14170698887E+00  0.14193798693E+00  0.51109989000E-03 0. -1.
     -623    1    1    2    0    0 -0.44348381195E-02  0.34851688872E-02  0.15440966009E-02  0.17130000010E+03  0.17130000000E+03 0.  1.
      622    1    1    2    0    0  0.20561163417E-02 -0.11205395647E-01  0.38567488819E+01  0.38580619133E+01  0.10000000000E+00 0. -1.
</event>
<event>
 5   0  0.6262544E+06  0.9118800E+02  0.7818608E-02  0.1180000E+00
       11   -1    0    0    0    0  0.00000000000E+00  0.00000000000E+00  0.39999999673E+01  0.40000000000E+01  0.51109989000E-03 0.  1.
     -623   -1    0    0    0    0  0.00000000000E+00  0.00000000000E+00  0.12525980253E-10  0.17130000000E+03  0.17130000000E+03 0.  1.
       11    1    1    2    0    0  0.87059413523E-03  0.48232273569E-02  0.11893615290E-01  0.12874034490E-01  0.51109989000E-03 0.  1.
     -623    1    1    2    0    0  0.89022655910E-03 -0.48499935502E-02  0.22350945636E-02  0.17130000009E+03  0.17130000000E+03 0.  1.
      622    1    1    2    0    0 -0.17608206943E-02  0.26766193369E-04  0.39858712576E+01  0.39871258800E+01  0.10000000000E+00 0.  1.
</event>
<event>
 5   0  0.6262544E+06  0.9118800E+02  0.7818608E-02  0.1180000E+00
       11   -1    0    0    0    0  0.00000000000E+00  0.00000000000E+00  0.39999999673E+01  0.40000000000E+01  0.51109989000E-03 0. -1.
     -623   -1    0    0    0    0  0.00000000000E+00  0.00000000000E+00  0.12525980253E-10  0.17130000000E+03  0.17130000000E+03 0.  1.
       11    1    1    2    0    0  0.39475913074E-01  0.28679235090E-01  0.30830059319E+00  0.31213837191E+00  0.51109989000E-03 0. -1.
     -623    1    1    2    0    0 -0.15861242895E-01  0.12029078379E-01  0.54954477717E-02  0.17130000124E+03  0.17130000000E+03 0.  1.
      622    1    1    2    0    0 -0.23614670179E-01 -0.40708313469E-01  0.36862039264E+01  0.36878603833E+01  0.10000000000E+00 0. -1.
</event>
<event>
 5   0  0.6262544E+06  0.9118800E+02  0.7818608E-02  0.1180000E+00
       11   -1    0    0    0    0  0.00000000000E+00  0.00000000000E+00  0.39999999673E+01  0.40000000000E+01  0.51109989000E-03 0. -1.
     -623   -1    0    0    0    0  0.00000000000E+00  0.00000000000E+00  0.12525980253E-10  0.17130000000E+03  0.17130000000E+03 0.  1.
       11    1    1    2    0    0  0.19301904614E-03  0.29122437983E-03  0.15349484072E+00  0.15349608926E+00  0.51109989000E-03 0. -1.
     -623    1    1    2    0    0 -0.43659304181E-02 -0.15627480993E-02  0.13038595592E-02  0.17130000007E+03  0.17130000000E+03 0.  1.
      622    1    1    2    0    0  0.41729113719E-02  0.12715237195E-02  0.38452012671E+01  0.38465038430E+01  0.10000000000E+00 0. -1.
</event>
<event>
 5   0  0.6262544E+06  0.9118800E+02  0.7818608E-02  0.1180000E+00
       11   -1    0    0    0    0  0.00000000000E+00  0.00000000000E+00  0.39999999673E+01  0.40000000000E+01  0.51109989000E-03 0. -1.
     -623   -1    0    0    0    0  0.00000000000E+00  0.00000000000E+00  0.12525980253E-10  0.17130000000E+03  0.17130000000E+03 0.  1.
       11    1    1    2    0    0  0.10497118866E-01  0.74327412268E-04  0.16410132244E+00  0.16443752698E+00  0.51109989000E-03 0. -1.
     -623    1    1    2    0    0 -0.62227510333E-02 -0.67468908116E-03  0.16425350387E-02  0.17130000012E+03  0.17130000000E+03 0.  1.
      622    1    1    2    0    0 -0.42743678334E-02  0.60036166886E-03  0.38342561097E+01  0.38355623506E+01  0.10000000000E+00 0. -1.
</event>
<event>
 5   0  0.6262544E+06  0.9118800E+02  0.7818608E-02  0.1180000E+00
       11   -1    0    0    0    0  0.00000000000E+00  0.00000000000E+00  0.39999999673E+01  0.40000000000E+01  0.51109989000E-03 0.  1.
     -623   -1    0    0    0    0  0.00000000000E+00  0.00000000000E+00  0.12525980253E-10  0.17130000000E+03  0.17130000000E+03 0.  1.
       11    1    1    2    0    0 -0.97695784456E-02 -0.63178348461E-01  0.10117520289E+01  0.10137698840E+01  0.51109989000E-03 0.  1.
     -623    1    1    2    0    0 -0.26138346709E-02 -0.40771661807E-02  0.44763495661E-02  0.17130000013E+03  0.17130000000E+03 0.  1.
      622    1    1    2    0    0  0.12383413116E-01  0.67255514641E-01  0.29837715889E+01  0.29862299891E+01  0.10000000000E+00 0.  1.
</event>
<event>
 5   0  0.6262544E+06  0.9118800E+02  0.7818608E-02  0.1180000E+00
       11   -1    0    0    0    0  0.00000000000E+00  0.00000000000E+00  0.39999999673E+01  0.40000000000E+01  0.51109989000E-03 0. -1.
     -623   -1    0    0    0    0  0.00000000000E+00  0.00000000000E+00  0.12525980253E-10  0.17130000000E+03  0.17130000000E+03 0. -1.
       11    1    1    2    0    0  0.79571586561E-02 -0.22235567287E-01  0.23030077584E+01  0.23031289007E+01  0.51109989000E-03 0. -1.
     -623    1    1    2    0    0 -0.83943554286E-02  0.22031571507E-01  0.30719938540E-02  0.17130000165E+03  0.17130000000E+03 0. -1.
      622    1    1    2    0    0  0.43719677285E-03  0.20399577884E-03  0.16939202152E+01  0.16968694494E+01  0.10000000000E+00 0.  1.
</event>
<event>
 5   0  0.6262544E+06  0.9118800E+02  0.7818608E-02  0.1180000E+00
       11   -1    0    0    0    0  0.00000000000E+00  0.00000000000E+00  0.39999999673E+01  0.40000000000E+01  0.51109989000E-03 0.  1.
     -623   -1    0    0    0    0  0.00000000000E+00  0.00000000000E+00  0.12525980253E-10  0.17130000000E+03  0.17130000000E+03 0. -1.
       11    1    1    2    0    0  0.66958529018E-02 -0.10876402387E-01  0.12838539146E+00  0.12902015554E+00  0.51109989000E-03 0.  1.
     -623    1    1    2    0    0  0.42439862329E-02  0.82463249035E-03  0.19551943421E-02  0.17130000007E+03  0.17130000000E+03 0. -1.
      622    1    1    2    0    0 -0.10939839135E-01  0.10051769897E-01  0.38696593816E+01  0.38709797787E+01  0.10000000000E+00 0.  1.
</event>
<event>
 5   0  0.6262544E+06  0.9118800E+02  0.7818608E-02  0.1180000E+00
       11   -1    0    0    0    0  0.00000000000E+00  0.00000000000E+00  0.39999999673E+01  0.40000000000E+01  0.51109989000E-03 0.  1.
     -623   -1    0    0    0    0  0.00000000000E+00  0.00000000000E+00  0.12525980253E-10  0.17130000000E+03  0.17130000000E+03 0. -1.
       11    1    1    2    0    0  0.83696517812E-03 -0.10686947507E-01  0.11407669610E+01  0.11408174402E+01  0.51109989000E-03 0.  1.
     -623    1    1    2    0    0 -0.17268151163E-02  0.15641395935E-01  0.18048998041E-02  0.17130000073E+03  0.17130000000E+03 0. -1.
      622    1    1    2    0    0  0.88984993811E-03 -0.49544484266E-02  0.28574281064E+01  0.28591818273E+01  0.10000000000E+00 0.  1.
</event>
<event>
 5   0  0.6262544E+06  0.9118800E+02  0.7818608E-02  0.1180000E+00
       11   -1    0    0    0    0  0.00000000000E+00  0.00000000000E+00  0.39999999673E+01  0.40000000000E+01  0.51109989000E-03 0.  1.
     -623   -1    0    0    0    0  0.00000000000E+00  0.00000000000E+00  0.12525980253E-10  0.17130000000E+03  0.17130000000E+03 0. -1.
       11    1    1    2    0    0  0.20100536355E-01  0.83825226403E-01  0.20836429358E+01  0.20854253392E+01  0.51109989000E-03 0.  1.
     -623    1    1    2    0    0  0.33381781339E-01 -0.35340164040E-01  0.57659745540E-02  0.17130000700E+03  0.17130000000E+03 0. -1.
      622    1    1    2    0    0 -0.53482317694E-01 -0.48485062363E-01  0.19105910570E+01  0.19145676657E+01  0.10000000000E+00 0.  1.
</event>
<event>
 5   0  0.6262544E+06  0.9118800E+02  0.7818608E-02  0.1180000E+00
       11   -1    0    0    0    0  0.00000000000E+00  0.00000000000E+00  0.39999999673E+01  0.40000000000E+01  0.51109989000E-03 0.  1.
     -623   -1    0    0    0    0  0.00000000000E+00  0.00000000000E+00  0.12525980253E-10  0.17130000000E+03  0.17130000000E+03 0.  1.
       11    1    1    2    0    0  0.45754874880E-02  0.43003297885E-02  0.22202019342E+01  0.22202108724E+01  0.51109989000E-03 0.  1.
     -623    1    1    2    0    0 -0.26743857608E-01 -0.14162280486E-01  0.29888041690E-02  0.17130000270E+03  0.17130000000E+03 0.  1.
      622    1    1    2    0    0  0.22168370120E-01  0.98619506975E-02  0.17768092290E+01  0.17797864284E+01  0.10000000000E+00 0.  1.
</event>
<event>
 5   0  0.6262544E+06  0.9118800E+02  0.7818608E-02  0.1180000E+00
       11   -1    0    0    0    0  0.00000000000E+00  0.00000000000E+00  0.39999999673E+01  0.40000000000E+01  0.51109989000E-03 0.  1.
     -623   -1    0    0    0    0  0.00000000000E+00  0.00000000000E+00  0.12525980253E-10  0.17130000000E+03  0.17130000000E+03 0. -1.
       11    1    1    2    0    0  0.17970425639E-02  0.91713408956E-02  0.14660764082E+00  0.14690610751E+00  0.51109989000E-03 0.  1.
     -623    1    1    2    0    0 -0.77007881274E-02  0.59333823576E-03  0.16133945648E-02  0.17130000018E+03  0.17130000000E+03 0. -1.
      622    1    1    2    0    0  0.59037455635E-02 -0.97646791314E-02  0.38517789320E+01  0.38530937108E+01  0.10000000000E+00 0.  0.
</event>
<event>
 5   0  0.6262544E+06  0.9118800E+02  0.7818608E-02  0.1180000E+00
       11   -1    0    0    0    0  0.00000000000E+00  0.00000000000E+00  0.39999999673E+01  0.40000000000E+01  0.51109989000E-03 0.  1.
     -623   -1    0    0    0    0  0.00000000000E+00  0.00000000000E+00  0.12525980253E-10  0.17130000000E+03  0.17130000000E+03 0.  1.
       11    1    1    2    0    0  0.52936655762E-02  0.96705406844E-02  0.29596217781E+00  0.29616788174E+00  0.51109989000E-03 0.  1.
     -623    1    1    2    0    0  0.36532068520E-02 -0.89951185417E-02  0.15670244443E-02  0.17130000028E+03  0.17130000000E+03 0.  1.
      622    1    1    2    0    0 -0.89468724283E-02 -0.67542214250E-03  0.37024707652E+01  0.37038318361E+01  0.10000000000E+00 0.  1.
</event>
<event>
 5   0  0.6262544E+06  0.9118800E+02  0.7818608E-02  0.1180000E+00
       11   -1    0    0    0    0  0.00000000000E+00  0.00000000000E+00  0.39999999673E+01  0.40000000000E+01  0.51109989000E-03 0. -1.
     -623   -1    0    0    0    0  0.00000000000E+00  0.00000000000E+00  0.12525980253E-10  0.17130000000E+03  0.17130000000E+03 0.  1.
       11    1    1    2    0    0 -0.22609068296E-05 -0.17732887822E-02  0.19600058397E-01  0.19686748545E-01  0.51109989000E-03 0. -1.
     -623    1    1    2    0    0  0.38144601311E-02  0.44816319305E-02  0.13458926350E-02  0.17130000011E+03  0.17130000000E+03 0.  1.
      622    1    1    2    0    0 -0.38121992242E-02 -0.27083431483E-02  0.39790540163E+01  0.39803131451E+01  0.10000000000E+00 0. -1.
</event>
<event>
 5   0  0.6262544E+06  0.9118800E+02  0.7818608E-02  0.1180000E+00
       11   -1    0    0    0    0  0.00000000000E+00  0.00000000000E+00  0.39999999673E+01  0.40000000000E+01  0.51109989000E-03 0.  1.
     -623   -1    0    0    0    0  0.00000000000E+00  0.00000000000E+00  0.12525980253E-10  0.17130000000E+03  0.17130000000E+03 0.  1.
       11    1    1    2    0    0 -0.25826313484E-01 -0.17777370136E-01  0.59217188398E+00  0.59300154700E+00  0.51109989000E-03 0.  1.
     -623    1    1    2    0    0  0.38217925919E-02  0.11106793179E-01  0.23755573739E-02  0.17130000042E+03  0.17130000000E+03 0.  1.
      622    1    1    2    0    0  0.22004520892E-01  0.66705769571E-02  0.34054525260E+01  0.34069980338E+01  0.10000000000E+00 0.  1.
</event>
<event>
 5   0  0.6262544E+06  0.9118800E+02  0.7818608E-02  0.1180000E+00
       11   -1    0    0    0    0  0.00000000000E+00  0.00000000000E+00  0.39999999673E+01  0.40000000000E+01  0.51109989000E-03 0.  1.
     -623   -1    0    0    0    0  0.00000000000E+00  0.00000000000E+00  0.12525980253E-10  0.17130000000E+03  0.17130000000E+03 0.  1.
       11    1    1    2    0    0  0.19117889394E-02  0.12770965473E-01  0.18484407777E+00  0.18529529623E+00  0.51109989000E-03 0.  1.
     -623    1    1    2    0    0 -0.68897444556E-02 -0.89738990153E-02  0.17676508689E-02  0.17130000038E+03  0.17130000000E+03 0.  1.
      622    1    1    2    0    0  0.49779555162E-02 -0.37970664577E-02  0.38133882387E+01  0.38147043210E+01  0.10000000000E+00 0.  1.
</event>
<event>
 5   0  0.6262544E+06  0.9118800E+02  0.7818608E-02  0.1180000E+00
       11   -1    0    0    0    0  0.00000000000E+00  0.00000000000E+00  0.39999999673E+01  0.40000000000E+01  0.51109989000E-03 0.  1.
     -623   -1    0    0    0    0  0.00000000000E+00  0.00000000000E+00  0.12525980253E-10  0.17130000000E+03  0.17130000000E+03 0.  1.
       11    1    1    2    0    0 -0.35307500127E-03  0.69032172808E-03  0.46473583147E-03  0.10384645085E-02  0.51109989000E-03 0. -1.
     -623    1    1    2    0    0  0.67279947663E-03  0.67809824955E-03  0.18244755416E-02  0.17130000001E+03  0.17130000000E+03 0.  1.
      622    1    1    2    0    0 -0.31972447533E-03 -0.13684199776E-02  0.39977107558E+01  0.39989615229E+01  0.10000000000E+00 0.  1.
</event>
<event>
 5   0  0.6262544E+06  0.9118800E+02  0.7818608E-02  0.1180000E+00
       11   -1    0    0    0    0  0.00000000000E+00  0.00000000000E+00  0.39999999673E+01  0.40000000000E+01  0.51109989000E-03 0. -1.
     -623   -1    0    0    0    0  0.00000000000E+00  0.00000000000E+00  0.12525980253E-10  0.17130000000E+03  0.17130000000E+03 0. -1.
       11    1    1    2    0    0 -0.49867506065E-02 -0.17883754869E-01  0.61412392646E-01  0.64159485373E-01  0.51109989000E-03 0. -1.
     -623    1    1    2    0    0  0.20433695367E-01  0.10767797553E-01  0.40560046018E-02  0.17130000161E+03  0.17130000000E+03 0. -1.
      622    1    1    2    0    0 -0.15446944760E-01  0.71159573159E-02  0.39345315700E+01  0.39358389094E+01  0.10000000000E+00 0. -1.
</event>
<event>
 5   0  0.6262544E+06  0.9118800E+02  0.7818608E-02  0.1180000E+00
       11   -1    0    0    0    0  0.00000000000E+00  0.00000000000E+00  0.39999999673E+01  0.40000000000E+01  0.51109989000E-03 0. -1.
     -623   -1    0    0    0    0  0.00000000000E+00  0.00000000000E+00  0.12525980253E-10  0.17130000000E+03  0.17130000000E+03 0.  1.
       11    1    1    2    0    0 -0.12270971045E-01  0.15070301790E-01  0.29584534526E-01  0.35400517392E-01  0.51109989000E-03 0. -1.
     -623    1    1    2    0    0  0.13211795454E-01 -0.48535336430E-02  0.70913177653E-02  0.17130000073E+03  0.17130000000E+03 0.  1.
      622    1    1    2    0    0 -0.94082440988E-03 -0.10216768147E-01  0.39633241151E+01  0.39645987576E+01  0.10000000000E+00 0. -1.
</event>
<event>
 5   0  0.6262544E+06  0.9118800E+02  0.7818608E-02  0.1180000E+00
       11   -1    0    0    0    0  0.00000000000E+00  0.00000000000E+00  0.39999999673E+01  0.40000000000E+01  0.51109989000E-03 0. -1.
     -623   -1    0    0    0    0  0.00000000000E+00  0.00000000000E+00  0.12525980253E-10  0.17130000000E+03  0.17130000000E+03 0.  1.
       11    1    1    2    0    0  0.54631850526E-01  0.39503155385E-01  0.26538740013E+00  0.27381722325E+00  0.51109989000E-03 0. -1.
     -623    1    1    2    0    0 -0.95856763660E-03 -0.48348961855E-01  0.10176248158E-01  0.17130000713E+03  0.17130000000E+03 0.  1.
      622    1    1    2    0    0 -0.53673282889E-01  0.88458064701E-02  0.37244363191E+01  0.37261756486E+01  0.10000000000E+00 0. -1.
</event>
<event>
 5   0  0.6262544E+06  0.9118800E+02  0.7818608E-02  0.1180000E+00
       11   -1    0    0    0    0  0.00000000000E+00  0.00000000000E+00  0.39999999673E+01  0.40000000000E+01  0.51109989000E-03 0.  1.
     -623   -1    0    0    0    0  0.00000000000E+00  0.00000000000E+00  0.12525980253E-10  0.17130000000E+03  0.17130000000E+03 0. -1.
       11    1    1    2    0    0 -0.60640210369E-02 -0.10152752709E-01  0.40162931385E+00  0.40180370543E+00  0.51109989000E-03 0.  1.
     -623    1    1    2    0    0 -0.13426054064E-02 -0.70405056634E-02  0.16130895040E-02  0.17130000016E+03  0.17130000000E+03 0. -1.
      622    1    1    2    0    0  0.74066264433E-02  0.17193258373E-01  0.35967575640E+01  0.35981961370E+01  0.10000000000E+00 0.  1.
</event>
<event>
 5   0  0.6262544E+06  0.9118800E+02  0.7818608E-02  0.1180000E+00
       11   -1    0    0    0    0  0.00000000000E+00  0.00000000000E+00  0.39999999673E+01  0.40000000000E+01  0.51109989000E-03 0.  1.
     -623   -1    0    0    0    0  0.00000000000E+00  0.00000000000E+00  0.12525980253E-10  0.17130000000E+03  0.17130000000E+03 0.  1.
       11    1    1    2    0    0 -0.81825380901E-03 -0.59192251196E-02  0.86533244535E-01  0.86740823136E-01  0.51109989000E-03 0.  1.
     -623    1    1    2    0    0 -0.11714167675E-03  0.24520431708E-02  0.14871343284E-02  0.17130000002E+03  0.17130000000E+03 0.  1.
      622    1    1    2    0    0  0.93539548576E-03  0.34671819489E-02  0.39119795885E+01  0.39132591528E+01  0.10000000000E+00 0.  1.
</event>
<event>
 5   0  0.6262544E+06  0.9118800E+02  0.7818608E-02  0.1180000E+00
       11   -1    0    0    0    0  0.00000000000E+00  0.00000000000E+00  0.39999999673E+01  0.40000000000E+01  0.51109989000E-03 0.  1.
     -623   -1    0    0    0    0  0.00000000000E+00  0.00000000000E+00  0.12525980253E-10  0.17130000000E+03  0.17130000000E+03 0. -1.
       11    1    1    2    0    0 -0.51320442936E-02  0.79765654047E-02  0.80884456695E-01  0.81440285067E-01  0.51109989000E-03 0.  1.
     -623    1    1    2    0    0 -0.67033793774E-02 -0.63900986664E-02  0.18504436772E-02  0.17130000026E+03  0.17130000000E+03 0. -1.
      622    1    1    2    0    0  0.11835423671E-01 -0.15864667383E-02  0.39172650670E+01  0.39185594546E+01  0.10000000000E+00 0.  1.
</event>
<event>
 5   0  0.6262544E+06  0.9118800E+02  0.7818608E-02  0.1180000E+00
       11   -1    0    0    0    0  0.00000000000E+00  0.00000000000E+00  0.39999999673E+01  0.40000000000E+01  0.51109989000E-03 0.  1.
     -623   -1    0    0    0    0  0.00000000000E+00  0.00000000000E+00  0.12525980253E-10  0.17130000000E+03  0.17130000000E+03 0. -1.
       11    1    1    2    0    0  0.30050903582E-02 -0.63053404099E-01  0.42447141143E+00  0.42913984047E+00  0.51109989000E-03 0.  1.
     -623    1    1    2    0    0 -0.99770869734E-02  0.33707224604E-01  0.62000600877E-02  0.17130000372E+03  0.17130000000E+03 0. -1.
      622    1    1    2    0    0  0.69719966154E-02  0.29346179494E-01  0.35693284959E+01  0.35708564405E+01  0.10000000000E+00 0.  0.
</event>
<event>
 5   0  0.6262544E+06  0.9118800E+02  0.7818608E-02  0.1180000E+00
       11   -1    0    0    0    0  0.00000000000E+00  0.00000000000E+00  0.39999999673E+01  0.40000000000E+01  0.51109989000E-03 0.  1.
     -623   -1    0    0    0    0  0.00000000000E+00  0.00000000000E+00  0.12525980253E-10  0.17130000000E+03  0.17130000000E+03 0. -1.
       11    1    1    2    0    0  0.99240342534E-01 -0.49000214721E-01  0.11677869078E+01  0.11730201149E+01  0.51109989000E-03 0.  1.
     -623    1    1    2    0    0 -0.15735557583E-01  0.51160613779E-01  0.82461421242E-02  0.17130000856E+03  0.17130000000E+03 0. -1.
      622    1    1    2    0    0 -0.83504784951E-01 -0.21603990578E-02  0.28239669174E+01  0.28269713241E+01  0.10000000000E+00 0.  1.
</event>
<event>
 5   0  0.6262544E+06  0.9118800E+02  0.7818608E-02  0.1180000E+00
       11   -1    0    0    0    0  0.00000000000E+00  0.00000000000E+00  0.39999999673E+01  0.40000000000E+01  0.51109989000E-03 0. -1.
     -623   -1    0    0    0    0  0.00000000000E+00  0.00000000000E+00  0.12525980253E-10  0.17130000000E+03  0.17130000000E+03 0.  1.
       11    1    1    2    0    0 -0.96834693029E-02  0.35853972696E-02  0.98990388260E-02  0.14313519626E-01  0.51109989000E-03 0. -1.
     -623    1    1    2    0    0  0.58610551214E-02 -0.17072737145E-01  0.56948416907E-02  0.17130000105E+03  0.17130000000E+03 0.  1.
      622    1    1    2    0    0  0.38224141814E-02  0.13487339876E-01  0.39844060869E+01  0.39856854347E+01  0.10000000000E+00 0. -1.
</event>
<event>
 5   0  0.6262544E+06  0.9118800E+02  0.7818608E-02  0.1180000E+00
       11   -1    0    0    0    0  0.00000000000E+00  0.00000000000E+00  0.39999999673E+01  0.40000000000E+01  0.51109989000E-03 0.  1.
     -623   -1    0    0    0    0  0.00000000000E+00  0.00000000000E+00  0.12525980253E-10  0.17130000000E+03  0.17130000000E+03 0.  1.
       11    1    1    2    0    0 -0.12061764549E-02 -0.36993032765E-02  0.67080148208E-02  0.77716402584E-02  0.51109989000E-03 0.  1.
     -623    1    1    2    0    0  0.14193792453E-02  0.98327535216E-03  0.23171769430E-02  0.17130000002E+03  0.17130000000E+03 0.  1.
      622    1    1    2    0    0 -0.21320279042E-03  0.27160279243E-02  0.39909747757E+01  0.39922283355E+01  0.10000000000E+00 0.  1.
</event>
<event>
 5   0  0.6262544E+06  0.9118800E+02  0.7818608E-02  0.1180000E+00
       11   -1    0    0    0    0  0.00000000000E+00  0.00000000000E+00  0.39999999673E+01  0.40000000000E+01  0.51109989000E-03 0.  1.
     -623   -1    0    0    0    0  0.00000000000E+00  0.00000000000E+00  0.12525980253E-10  0.17130000000E+03  0.17130000000E+03 0.  1.
       11    1    1    2    0    0 -0.23357583548E-02  0.59314654622E-02  0.10178166579E-01  0.12020580096E-01  0.51109989000E-03 0.  1.
     -623    1    1    2    0    0  0.15795454285E-01  0.87985101809E-03  0.31256445354E-02  0.17130000076E+03  0.17130000000E+03 0.  1.
      622    1    1    2    0    0 -0.13459695931E-01 -0.68113164803E-02  0.39866961562E+01  0.39879786609E+01  0.10000000000E+00 0.  1.
</event>
<event>
 5   0  0.6262544E+06  0.9118800E+02  0.7818608E-02  0.1180000E+00
       11   -1    0    0    0    0  0.00000000000E+00  0.00000000000E+00  0.39999999673E+01  0.40000000000E+01  0.51109989000E-03 0. -1.
     -623   -1    0    0    0    0  0.00000000000E+00  0.00000000000E+00  0.12525980253E-10  0.17130000000E+03  0.17130000000E+03 0.  1.
       11    1    1    2    0    0  0.55707574534E-01 -0.31734210717E-01  0.19132152886E+01  0.19142892665E+01  0.51109989000E-03 0. -1.
     -623    1    1    2    0    0  0.13171866622E-01  0.10913699958E-01  0.47165820642E-02  0.17130000092E+03  0.17130000000E+03 0.  1.
      622    1    1    2    0    0 -0.68879441155E-01  0.20820510759E-01  0.20820680967E+01  0.20857098145E+01  0.10000000000E+00 0.  0.
</event>
<event>
 5   0  0.6262544E+06  0.9118800E+02  0.7818608E-02  0.1180000E+00
       11   -1    0    0    0    0  0.00000000000E+00  0.00000000000E+00  0.39999999673E+01  0.40000000000E+01  0.51109989000E-03 0.  1.
     -623   -1    0    0    0    0  0.00000000000E+00  0.00000000000E+00  0.12525980253E-10  0.17130000000E+03  0.17130000000E+03 0. -1.
       11    1    1    2    0    0  0.11767963976E-02  0.68581378822E-02  0.54199333015E-01  0.54646571946E-01  0.51109989000E-03 0.  1.
     -623    1    1    2    0    0 -0.17316205600E-02 -0.76259890905E-03  0.17194918885E-02  0.17130000002E+03  0.17130000000E+03 0. -1.
      622    1    1    2    0    0  0.55482416242E-03 -0.60955389731E-02  0.39440811425E+01  0.39453534090E+01  0.10000000000E+00 0.  1.
</event>
<event>
 5   0  0.6262544E+06  0.9118800E+02  0.7818608E-02  0.1180000E+00
       11   -1    0    0    0    0  0.00000000000E+00  0.00000000000E+00  0.39999999673E+01  0.40000000000E+01  0.51109989000E-03 0. -1.
     -623   -1    0    0    0    0  0.00000000000E+00  0.00000000000E+00  0.12525980253E-10  0.17130000000E+03  0.17130000000E+03 0. -1.
       11    1    1    2    0    0 -0.51257324520E-03  0.68688019122E-02  0.54929780141E-02  0.88248060377E-02  0.51109989000E-03 0. -1.
     -623    1    1    2    0    0 -0.85462613390E-02 -0.40902502522E-02  0.45963309112E-02  0.17130000032E+03  0.17130000000E+03 0. -1.
      622    1    1    2    0    0  0.90588345844E-02 -0.27785516599E-02  0.39899106585E+01  0.39911748704E+01  0.10000000000E+00 0. -1.
</event>
<event>
 5   0  0.6262544E+06  0.9118800E+02  0.7818608E-02  0.1180000E+00
       11   -1    0    0    0    0  0.00000000000E+00  0.00000000000E+00  0.39999999673E+01  0.40000000000E+01  0.51109989000E-03 0.  1.
     -623   -1    0    0    0    0  0.00000000000E+00  0.00000000000E+00  0.12525980253E-10  0.17130000000E+03  0.17130000000E+03 0. -1.
       11    1    1    2    0    0 -0.53256582245E-01  0.55956016519E-01  0.10925859127E+01  0.10953134607E+01  0.51109989000E-03 0.  1.
     -623    1    1    2    0    0 -0.26374085332E-02 -0.36225162019E-02  0.54595215486E-02  0.17130000015E+03  0.17130000000E+03 0. -1.
      622    1    1    2    0    0  0.55893990778E-01 -0.52333500317E-01  0.29019545331E+01  0.29046863937E+01  0.10000000000E+00 0.  1.
</event>
<event>
 5   0  0.6262544E+06  0.9118800E+02  0.7818608E-02  0.1180000E+00
       11   -1    0    0    0    0  0.00000000000E+00  0.00000000000E+00  0.39999999673E+01  0.40000000000E+01  0.51109989000E-03 0.  1.
     -623   -1    0    0    0    0  0.00000000000E+00  0.00000000000E+00  0.12525980253E-10  0.17130000000E+03  0.17130000000E+03 0.  1.
       11    1    1    2    0    0 -0.19151914133E-03  0.18632877908E-02  0.69625914728E-02  0.72282379656E-02  0.51109989000E-03 0.  1.
     -623    1    1    2    0    0 -0.23735566935E-02  0.15653794338E-02  0.15204003483E-02  0.17130000003E+03  0.17130000000E+03 0.  1.
      622    1    1    2    0    0  0.25650758348E-02 -0.34286672246E-02  0.39915169755E+01  0.39927717317E+01  0.10000000000E+00 0.  1.
</event>
<event>
 5   0  0.6262544E+06  0.9118800E+02  0.7818608E-02  0.1180000E+00
       11   -1    0    0    0    0  0.00000000000E+00  0.00000000000E+00  0.39999999673E+01  0.40000000000E+01  0.51109989000E-03 0. -1.
     -623   -1    0    0    0    0  0.00000000000E+00  0.00000000000E+00  0.12525980253E-10  0.17130000000E+03  0.17130000000E+03 0.  1.
       11    1    1    2    0    0 -0.41705402478E-01 -0.31119613833E-02  0.14832972672E+01  0.14838868114E+01  0.51109989000E-03 0. -1.
     -623    1    1    2    0    0 -0.18034571072E-02  0.74844371128E-02  0.29579956553E-02  0.17130000020E+03  0.17130000000E+03 0.  1.
      622    1    1    2    0    0  0.43508859585E-01 -0.43724757296E-02  0.25137447046E+01  0.25161129902E+01  0.10000000000E+00 0. -1.
</event>
<event>
 5   0  0.6262544E+06  0.9118800E+02  0.7818608E-02  0.1180000E+00
       11   -1    0    0    0    0  0.00000000000E+00  0.00000000000E+00  0.39999999673E+01  0.40000000000E+01  0.51109989000E-03 0. -1.
     -623   -1    0    0    0    0  0.00000000000E+00  0.00000000000E+00  0.12525980253E-10  0.17130000000E+03  0.17130000000E+03 0.  1.
       11    1    1    2    0    0  0.65842422904E-03 -0.18195552288E-02  0.92481448440E-02  0.94622254173E-02  0.51109989000E-03 0. -1.
     -623    1    1    2    0    0  0.30655413988E-02 -0.28933100228E-03  0.14695382107E-02  0.17130000003E+03  0.17130000000E+03 0.  1.
      622    1    1    2    0    0 -0.37239656279E-02  0.21088862311E-02  0.39892822845E+01  0.39905377408E+01  0.10000000000E+00 0. -1.
</event>
<event>
 5   0  0.6262544E+06  0.9118800E+02  0.7818608E-02  0.1180000E+00
       11   -1    0    0    0    0  0.00000000000E+00  0.00000000000E+00  0.39999999673E+01  0.40000000000E+01  0.51109989000E-03 0.  1.
     -623   -1    0    0    0    0  0.00000000000E+00  0.00000000000E+00  0.12525980253E-10  0.17130000000E+03  0.17130000000E+03 0. -1.
       11    1    1    2    0    0 -0.91596862639E-03  0.20153756671E-01  0.50516247398E+00  0.50556542528E+00  0.51109989000E-03 0.  1.
     -623    1    1    2    0    0  0.20723374650E-01  0.16689848741E-02  0.19596633261E-02  0.17130000127E+03  0.17130000000E+03 0. -1.
      622    1    1    2    0    0 -0.19807406023E-01 -0.21822741545E-01  0.34928778301E+01  0.34944333019E+01  0.10000000000E+00 0.  1.
</event>
<event>
 5   0  0.6262544E+06  0.9118800E+02  0.7818608E-02  0.1180000E+00
       11   -1    0    0    0    0  0.00000000000E+00  0.00000000000E+00  0.39999999673E+01  0.40000000000E+01  0.51109989000E-03 0.  1.
     -623   -1    0    0    0    0  0.00000000000E+00  0.00000000000E+00  0.12525980253E-10  0.17130000000E+03  0.17130000000E+03 0. -1.
       11    1    1    2    0    0 -0.41948516094E-02 -0.57812849690E-02  0.29623770035E-01  0.30477024299E-01  0.51109989000E-03 0.  1.
     -623    1    1    2    0    0  0.29464779422E-02  0.24502512582E-02  0.21146690901E-02  0.17130000006E+03  0.17130000000E+03 0. -1.
      622    1    1    2    0    0  0.12483736672E-02  0.33310337107E-02  0.39682615283E+01  0.39695229199E+01  0.10000000000E+00 0.  1.
</event>
<event>
 5   0  0.6262544E+06  0.9118800E+02  0.7818608E-02  0.1180000E+00
       11   -1    0    0    0    0  0.00000000000E+00  0.00000000000E+00  0.39999999673E+01  0.40000000000E+01  0.51109989000E-03 0.  1.
     -623   -1    0    0    0    0  0.00000000000E+00  0.00000000000E+00  0.12525980253E-10  0.17130000000E+03  0.17130000000E+03 0.  1.
       11    1    1    2    0    0 -0.20745535422E-01  0.37599341035E-01  0.40430670188E+00  0.40658118267E+00  0.51109989000E-03 0.  1.
     -623    1    1    2    0    0  0.37270449113E-01 -0.30481983520E-01  0.37180224069E-02  0.17130000681E+03  0.17130000000E+03 0.  1.
      622    1    1    2    0    0 -0.16524913692E-01 -0.71173575141E-02  0.35919752432E+01  0.35934120105E+01  0.10000000000E+00 0.  1.
</event>
<event>
 5   0  0.6262544E+06  0.9118800E+02  0.7818608E-02  0.1180000E+00
       11   -1    0    0    0    0  0.00000000000E+00  0.00000000000E+00  0.39999999673E+01  0.40000000000E+01  0.51109989000E-03 0. -1.
     -623   -1    0    0    0    0  0.00000000000E+00  0.00000000000E+00  0.12525980253E-10  0.17130000000E+03  0.17130000000E+03 0. -1.
       11    1    1    2    0    0  0.25551436648E-01 -0.85664054661E-02  0.37728884043E+00  0.37825043232E+00  0.51109989000E-03 0. -1.
     -623    1    1    2    0    0 -0.42174713335E-02 -0.24781062992E-02  0.24221630877E-02  0.17130000009E+03  0.17130000000E+03 0. -1.
      622    1    1    2    0    0 -0.21333965314E-01  0.11044511765E-01  0.36202889638E+01  0.36217494807E+01  0.10000000000E+00 0. -1.
</event>
<event>
 5   0  0.6262544E+06  0.9118800E+02  0.7818608E-02  0.1180000E+00
       11   -1    0    0    0    0  0.00000000000E+00  0.00000000000E+00  0.39999999673E+01  0.40000000000E+01  0.51109989000E-03 0.  1.
     -623   -1    0    0    0    0  0.00000000000E+00  0.00000000000E+00  0.12525980253E-10  0.17130000000E+03  0.17130000000E+03 0.  1.
       11    1    1    2    0    0  0.16791949220E-01  0.10683096291E-01  0.22043448457E+00  0.22133169975E+00  0.51109989000E-03 0.  1.
     -623    1    1    2    0    0 -0.13164169548E-02  0.33197194876E-02  0.22783403361E-02  0.17130000005E+03  0.17130000000E+03 0.  1.
      622    1    1    2    0    0 -0.15475532265E-01 -0.14002815779E-01  0.37772871425E+01  0.37786682479E+01  0.10000000000E+00 0.  1.
</event>
<event>
 5   0  0.6262544E+06  0.9118800E+02  0.7818608E-02  0.1180000E+00
       11   -1    0    0    0    0  0.00000000000E+00  0.00000000000E+00  0.39999999673E+01  0.40000000000E+01  0.51109989000E-03 0.  1.
     -623   -1    0    0    0    0  0.00000000000E+00  0.00000000000E+00  0.12525980253E-10  0.17130000000E+03  0.17130000000E+03 0.  1.
       11    1    1    2    0    0  0.17511364671E-02 -0.77530873225E-03 -0.13386044378E-02  0.23917916914E-02  0.51109989000E-03 0.  1.
     -623    1    1    2    0    0 -0.28815155800E-02  0.35765736736E-03  0.49815858591E-02  0.17130000010E+03  0.17130000000E+03 0.  1.
      622    1    1    2    0    0  0.11303791129E-02  0.41765136488E-03  0.39963569860E+01  0.39976081113E+01  0.10000000000E+00 0.  1.
</event>
<event>
 5   0  0.6262544E+06  0.9118800E+02  0.7818608E-02  0.1180000E+00
       11   -1    0    0    0    0  0.00000000000E+00  0.00000000000E+00  0.39999999673E+01  0.40000000000E+01  0.51109989000E-03 0.  1.
     -623   -1    0    0    0    0  0.00000000000E+00  0.00000000000E+00  0.12525980253E-10  0.17130000000E+03  0.17130000000E+03 0.  1.
       11    1    1    2    0    0 -0.15437947149E-02  0.75683833571E-02  0.30900813074E-01  0.31855693353E-01  0.51109989000E-03 0.  1.
     -623    1    1    2    0    0  0.42304129262E-02 -0.18398324917E-02  0.22202051629E-02  0.17130000008E+03  0.17130000000E+03 0.  1.
      622    1    1    2    0    0 -0.26866182113E-02 -0.57285508654E-02  0.39668789491E+01  0.39681442301E+01  0.10000000000E+00 0.  1.
</event>
<event>
 5   0  0.6262544E+06  0.9118800E+02  0.7818608E-02  0.1180000E+00
       11   -1    0    0    0    0  0.00000000000E+00  0.00000000000E+00  0.39999999673E+01  0.40000000000E+01  0.51109989000E-03 0.  1.
     -623   -1    0    0    0    0  0.00000000000E+00  0.00000000000E+00  0.12525980253E-10  0.17130000000E+03  0.17130000000E+03 0. -1.
       11    1    1    2    0    0 -0.24522599710E-02  0.50953581228E-02  0.58598420919E-02  0.81593643015E-02  0.51109989000E-03 0.  1.
     -623    1    1    2    0    0  0.57142670196E-02  0.27879801513E-02  0.35615161605E-02  0.17130000016E+03  0.17130000000E+03 0. -1.
      622    1    1    2    0    0 -0.32620070487E-02 -0.78833382743E-02  0.39905786092E+01  0.39918404808E+01  0.10000000000E+00 0.  1.
</event>
<event>
 5   0  0.6262544E+06  0.9118800E+02  0.7818608E-02  0.1180000E+00
       11   -1    0    0    0    0  0.00000000000E+00  0.00000000000E+00  0.39999999673E+01  0.40000000000E+01  0.51109989000E-03 0. -1.
     -623   -1    0    0    0    0  0.00000000000E+00  0.00000000000E+00  0.12525980253E-10  0.17130000000E+03  0.17130000000E+03 0. -1.
       11    1    1    2    0    0 -0.65632325845E-02  0.26962085202E-01  0.68590009730E+00  0.68646138622E+00  0.51109989000E-03 0. -1.
     -623    1    1    2    0    0 -0.27685804876E-01 -0.11377365276E-01  0.22869476438E-02  0.17130000263E+03  0.17130000000E+03 0. -1.
      622    1    1    2    0    0  0.34249037460E-01 -0.15584719926E-01  0.33118129223E+01  0.33135359833E+01  0.10000000000E+00 0.  0.
</event>
<event>
 5   0  0.6262544E+06  0.9118800E+02  0.7818608E-02  0.1180000E+00
       11   -1    0    0    0    0  0.00000000000E+00  0.00000000000E+00  0.39999999673E+01  0.40000000000E+01  0.51109989000E-03 0. -1.
     -623   -1    0    0    0    0  0.00000000000E+00  0.00000000000E+00  0.12525980253E-10  0.17130000000E+03  0.17130000000E+03 0. -1.
       11    1    1    2    0    0 -0.18238847163E-02  0.37238087443E-02  0.13245378057E+01  0.13245443946E+01  0.51109989000E-03 0. -1.
     -623    1    1    2    0    0  0.46651281692E-03 -0.18097296687E-02  0.18771002218E-02  0.17130000002E+03  0.17130000000E+03 0. -1.
      622    1    1    2    0    0  0.13573718994E-02 -0.19140790756E-02  0.26735850614E+01  0.26754555849E+01  0.10000000000E+00 0. -1.
</event>
<event>
 5   0  0.6262544E+06  0.9118800E+02  0.7818608E-02  0.1180000E+00
       11   -1    0    0    0    0  0.00000000000E+00  0.00000000000E+00  0.39999999673E+01  0.40000000000E+01  0.51109989000E-03 0.  1.
     -623   -1    0    0    0    0  0.00000000000E+00  0.00000000000E+00  0.12525980253E-10  0.17130000000E+03  0.17130000000E+03 0.  1.
       11    1    1    2    0    0 -0.21900493173E-01  0.88001753029E-02  0.52412483799E-01  0.57483948783E-01  0.51109989000E-03 0.  1.
     -623    1    1    2    0    0 -0.42147009339E-01  0.40942436337E-02  0.68867711861E-02  0.17130000537E+03  0.17130000000E+03 0.  1.
      622    1    1    2    0    0  0.64047502513E-01 -0.12894418937E-01  0.39407007124E+01  0.39425106790E+01  0.10000000000E+00 0.  0.
</event>
<event>
 5   0  0.6262544E+06  0.9118800E+02  0.7818608E-02  0.1180000E+00
       11   -1    0    0    0    0  0.00000000000E+00  0.00000000000E+00  0.39999999673E+01  0.40000000000E+01  0.51109989000E-03 0. -1.
     -623   -1    0    0    0    0  0.00000000000E+00  0.00000000000E+00  0.12525980253E-10  0.17130000000E+03  0.17130000000E+03 0.  1.
       11    1    1    2    0    0  0.91415142275E-03  0.12546562599E-01  0.44726932835E-01  0.46465165983E-01  0.51109989000E-03 0. -1.
     -623    1    1    2    0    0  0.86744812523E-02 -0.12113445000E-01  0.30154238417E-02  0.17130000067E+03  0.17130000000E+03 0.  1.
      622    1    1    2    0    0 -0.95886326748E-02 -0.43311759941E-03  0.39522576105E+01  0.39535341594E+01  0.10000000000E+00 0. -1.
</event>
<event>
 5   0  0.6262544E+06  0.9118800E+02  0.7818608E-02  0.1180000E+00
       11   -1    0    0    0    0  0.00000000000E+00  0.00000000000E+00  0.39999999673E+01  0.40000000000E+01  0.51109989000E-03 0.  1.
     -623   -1    0    0    0    0  0.00000000000E+00  0.00000000000E+00  0.12525980253E-10  0.17130000000E+03  0.17130000000E+03 0.  1.
       11    1    1    2    0    0 -0.15139787035E-01  0.10878401706E-01  0.17834858779E+00  0.17932103269E+00  0.51109989000E-03 0.  1.
     -623    1    1    2    0    0  0.19066353616E-01 -0.52566998255E-02  0.22886174647E-02  0.17130000116E+03  0.17130000000E+03 0.  1.
      622    1    1    2    0    0 -0.39265665814E-02 -0.56217018801E-02  0.38193627623E+01  0.38206778105E+01  0.10000000000E+00 0.  1.
</event>
<event>
 5   0  0.6262544E+06  0.9118800E+02  0.7818608E-02  0.1180000E+00
       11   -1    0    0    0    0  0.00000000000E+00  0.00000000000E+00  0.39999999673E+01  0.40000000000E+01  0.51109989000E-03 0.  1.
     -623   -1    0    0    0    0  0.00000000000E+00  0.00000000000E+00  0.12525980253E-10  0.17130000000E+03  0.17130000000E+03 0.  1.
       11    1    1    2    0    0 -0.69973994849E-02  0.43557224970E-02  0.55081206729E-01  0.55696826444E-01  0.51109989000E-03 0.  1.
     -623    1    1    2    0    0 -0.53769505790E-02 -0.33096623419E-02  0.19031247473E-02  0.17130000013E+03  0.17130000000E+03 0.  1.
      622    1    1    2    0    0  0.12374350064E-01 -0.10460601552E-02  0.39430156359E+01  0.39443030466E+01  0.10000000000E+00 0.  1.
</event>
<event>
 5   0  0.6262544E+06  0.9118800E+02  0.7818608E-02  0.1180000E+00
       11   -1    0    0    0    0  0.00000000000E+00  0.00000000000E+00  0.39999999673E+01  0.40000000000E+01  0.51109989000E-03 0. -1.
     -623   -1    0    0    0    0  0.00000000000E+00  0.00000000000E+00  0.12525980253E-10  0.17130000000E+03  0.17130000000E+03 0.  1.
       11    1    1    2    0    0  0.31981581612E-02  0.11627677821E-01  0.48117246842E-01  0.49608081740E-01  0.51109989000E-03 0. -1.
     -623    1    1    2    0    0 -0.15383073986E-01 -0.18559559268E-02  0.27883137945E-02  0.17130000072E+03  0.17130000000E+03 0.  1.
      622    1    1    2    0    0  0.12184915825E-01 -0.97717218947E-02  0.39490944068E+01  0.39503911949E+01  0.10000000000E+00 0. -1.
</event>
<event>
 5   0  0.6262544E+06  0.9118800E+02  0.7818608E-02  0.1180000E+00
       11   -1    0    0    0    0  0.00000000000E+00  0.00000000000E+00  0.39999999673E+01  0.40000000000E+01  0.51109989000E-03 0. -1.
     -623   -1    0    0    0    0  0.00000000000E+00  0.00000000000E+00  0.12525980253E-10  0.17130000000E+03  0.17130000000E+03 0. -1.
       11    1    1    2    0    0 -0.26240874077E-01  0.77927981213E-02  0.15152649429E+00  0.15398003400E+00  0.51109989000E-03 0. -1.
     -623    1    1    2    0    0  0.15616832919E-01  0.10024975117E-01  0.38107859905E-02  0.17130000105E+03  0.17130000000E+03 0. -1.
      622    1    1    2    0    0  0.10624041157E-01 -0.17817773238E-01  0.38446626871E+01  0.38460189185E+01  0.10000000000E+00 0. -1.
</event>
<event>
 5   0  0.6262544E+06  0.9118800E+02  0.7818608E-02  0.1180000E+00
       11   -1    0    0    0    0  0.00000000000E+00  0.00000000000E+00  0.39999999673E+01  0.40000000000E+01  0.51109989000E-03 0. -1.
     -623   -1    0    0    0    0  0.00000000000E+00  0.00000000000E+00  0.12525980253E-10  0.17130000000E+03  0.17130000000E+03 0.  1.
       11    1    1    2    0    0 -0.76592309677E-01  0.17459207081E-01  0.11129675951E+01  0.11157366780E+01  0.51109989000E-03 0. -1.
     -623    1    1    2    0    0  0.39227132889E-01 -0.59912421330E-02  0.47727825118E-02  0.17130000466E+03  0.17130000000E+03 0.  1.
      622    1    1    2    0    0  0.37365176786E-01 -0.11467964948E-01  0.28822595899E+01  0.28842586594E+01  0.10000000000E+00 0.  0.
</event>
<event>
 5   0  0.6262544E+06  0.9118800E+02  0.7818608E-02  0.1180000E+00
       11   -1    0    0    0    0  0.00000000000E+00  0.00000000000E+00  0.39999999673E+01  0.40000000000E+01  0.51109989000E-03 0.  1.
     -623   -1    0    0    0    0  0.00000000000E+00  0.00000000000E+00  0.12525980253E-10  0.17130000000E+03  0.17130000000E+03 0. -1.
       11    1    1    2    0    0 -0.59892546758E-02 -0.29432477232E-02  0.66388926170E-01  0.66725442073E-01  0.51109989000E-03 0.  1.
     -623    1    1    2    0    0  0.13178083881E-02  0.18778642507E-02  0.16108364393E-02  0.17130000002E+03  0.17130000000E+03 0. -1.
      622    1    1    2    0    0  0.46714462876E-02  0.10653834725E-02  0.39320002049E+01  0.39332745351E+01  0.10000000000E+00 0.  1.
</event>
<event>
 5   0  0.6262544E+06  0.9118800E+02  0.7818608E-02  0.1180000E+00
       11   -1    0    0    0    0  0.00000000000E+00  0.00000000000E+00  0.39999999673E+01  0.40000000000E+01  0.51109989000E-03 0.  1.
     -623   -1    0    0    0    0  0.00000000000E+00  0.00000000000E+00  0.12525980253E-10  0.17130000000E+03  0.17130000000E+03 0.  1.
       11    1    1    2    0    0  0.47979196903E-02 -0.89296050318E-02  0.37355526126E+00  0.37369312586E+00  0.51109989000E-03 0.  1.
     -623    1    1    2    0    0 -0.86317747367E-03  0.25707613093E-02  0.15246485725E-02  0.17130000003E+03  0.17130000000E+03 0.  1.
      622    1    1    2    0    0 -0.39347422167E-02  0.63588437225E-02  0.36249200575E+01  0.36263068459E+01  0.10000000000E+00 0.  1.
</event>
<event>
 5   0  0.6262544E+06  0.9118800E+02  0.7818608E-02  0.1180000E+00
       11   -1    0    0    0    0  0.00000000000E+00  0.00000000000E+00  0.39999999673E+01  0.40000000000E+01  0.51109989000E-03 0.  1.
     -623   -1    0    0    0    0  0.00000000000E+00  0.00000000000E+00  0.12525980253E-10  0.17130000000E+03  0.17130000000E+03 0.  1.
       11    1    1    2    0    0  0.20547839755E-01  0.18481306961E-01  0.23657912717E+00  0.23818840664E+00  0.51109989000E-03 0.  1.
     -623    1    1    2    0    0 -0.32380837309E-01  0.29908619775E-02  0.30216636110E-02  0.17130000311E+03  0.17130000000E+03 0.  1.
      622    1    1    2    0    0  0.11832997554E-01 -0.21472168938E-01  0.37603991766E+01  0.37618084801E+01  0.10000000000E+00 0.  1.
</event>
<event>
 5   0  0.6262544E+06  0.9118800E+02  0.7818608E-02  0.1180000E+00
       11   -1    0    0    0    0  0.00000000000E+00  0.00000000000E+00  0.39999999673E+01  0.40000000000E+01  0.51109989000E-03 0.  1.
     -623   -1    0    0    0    0  0.00000000000E+00  0.00000000000E+00  0.12525980253E-10  0.17130000000E+03  0.17130000000E+03 0. -1.
       11    1    1    2    0    0  0.55857699148E-03  0.97926440440E-03 -0.54457935347E-04  0.12390140408E-02  0.51109989000E-03 0.  1.
     -623    1    1    2    0    0 -0.50837171661E-02  0.23311304170E-02  0.25480643860E-02  0.17130000011E+03  0.17130000000E+03 0. -1.
      622    1    1    2    0    0  0.45251401745E-02 -0.33103948214E-02  0.39975063608E+01  0.39987608756E+01  0.10000000000E+00 0.  1.
</event>
<event>
 5   0  0.6262544E+06  0.9118800E+02  0.7818608E-02  0.1180000E+00
       11   -1    0    0    0    0  0.00000000000E+00  0.00000000000E+00  0.39999999673E+01  0.40000000000E+01  0.51109989000E-03 0. -1.
     -623   -1    0    0    0    0  0.00000000000E+00  0.00000000000E+00  0.12525980253E-10  0.17130000000E+03  0.17130000000E+03 0.  1.
       11    1    1    2    0    0  0.12199565655E-01  0.60569682274E-02  0.44062808661E+00  0.44083884606E+00  0.51109989000E-03 0. -1.
     -623    1    1    2    0    0 -0.17095383644E-01 -0.23139645897E-01  0.16626348945E-02  0.17130000242E+03  0.17130000000E+03 0.  1.
      622    1    1    2    0    0  0.48958179885E-02  0.17082677670E-01  0.35577092459E+01  0.35591587300E+01  0.10000000000E+00 0. -1.
</event>
<event>
 5   0  0.6262544E+06  0.9118800E+02  0.7818608E-02  0.1180000E+00
       11   -1    0    0    0    0  0.00000000000E+00  0.00000000000E+00  0.39999999673E+01  0.40000000000E+01  0.51109989000E-03 0.  1.
     -623   -1    0    0    0    0  0.00000000000E+00  0.00000000000E+00  0.12525980253E-10  0.17130000000E+03  0.17130000000E+03 0.  1.
       11    1    1    2    0    0 -0.14546091495E-01 -0.90004296514E-03  0.47005497442E+00  0.47028112769E+00  0.51109989000E-03 0.  1.
     -623    1    1    2    0    0  0.23889688280E-02 -0.12376389141E-02  0.16645695577E-02  0.17130000003E+03  0.17130000000E+03 0.  1.
      622    1    1    2    0    0  0.12157122667E-01  0.21376818793E-02  0.35282804234E+01  0.35297188431E+01  0.10000000000E+00 0.  1.
</event>
<event>
 5   0  0.6262544E+06  0.9118800E+02  0.7818608E-02  0.1180000E+00
       11   -1    0    0    0    0  0.00000000000E+00  0.00000000000E+00  0.39999999673E+01  0.40000000000E+01  0.51109989000E-03 0. -1.
     -623   -1    0    0    0    0  0.00000000000E+00  0.00000000000E+00  0.12525980253E-10  0.17130000000E+03  0.17130000000E+03 0. -1.
       11    1    1    2    0    0 -0.21782713940E-01 -0.58142309090E-01  0.21478269685E+00  0.22357746492E+00  0.51109989000E-03 0. -1.
     -623    1    1    2    0    0  0.18472221603E-01  0.14061012467E-01  0.10379686319E-01  0.17130000189E+03  0.17130000000E+03 0. -1.
      622    1    1    2    0    0  0.33104923368E-02  0.44081296623E-01  0.37748375842E+01  0.37764206475E+01  0.10000000000E+00 0. -1.
</event>
<event>
 5   0  0.6262544E+06  0.9118800E+02  0.7818608E-02  0.1180000E+00
       11   -1    0    0    0    0  0.00000000000E+00  0.00000000000E+00  0.39999999673E+01  0.40000000000E+01  0.51109989000E-03 0. -1.
     -623   -1    0    0    0    0  0.00000000000E+00  0.00000000000E+00  0.12525980253E-10  0.17130000000E+03  0.17130000000E+03 0.  1.
       11    1    1    2    0    0 -0.49001414414E-02 -0.80200252276E-03  0.10474995690E+00  0.10486881942E+00  0.51109989000E-03 0. -1.
     -623    1    1    2    0    0  0.30670220379E-02 -0.33848535642E-02  0.14054444101E-02  0.17130000007E+03  0.17130000000E+03 0.  1.
      622    1    1    2    0    0  0.18331194035E-02  0.41868560870E-02  0.38938445660E+01  0.38951311139E+01  0.10000000000E+00 0. -1.
</event>
<event>
 5   0  0.6262544E+06  0.9118800E+02  0.7818608E-02  0.1180000E+00
       11   -1    0    0    0    0  0.00000000000E+00  0.00000000000E+00  0.39999999673E+01  0.40000000000E+01  0.51109989000E-03 0. -1.
     -623   -1    0    0    0    0  0.00000000000E+00  0.00000000000E+00  0.12525980253E-10  0.17130000000E+03  0.17130000000E+03 0.  1.
       11    1    1    2    0    0  0.25940788039E-02  0.18020686340E-02  0.20143596805E+00  0.20146137878E+00  0.51109989000E-03 0. -1.
     -623    1    1    2    0    0 -0.38414579756E-02 -0.24431354847E-01  0.14113280275E-02  0.17130000179E+03  0.17130000000E+03 0.  1.
      622    1    1    2    0    0  0.12473791717E-02  0.22629286213E-01  0.37971526713E+01  0.37985368301E+01  0.10000000000E+00 0. -1.
</event>
<event>
 5   0  0.6262544E+06  0.9118800E+02  0.7818608E-02  0.1180000E+00
       11   -1    0    0    0    0  0.00000000000E+00  0.00000000000E+00  0.39999999673E+01  0.40000000000E+01  0.51109989000E-03 0.  1.
     -623   -1    0    0    0    0  0.00000000000E+00  0.00000000000E+00  0.12525980253E-10  0.17130000000E+03  0.17130000000E+03 0. -1.
       11    1    1    2    0    0 -0.34238736179E-02 -0.37758272080E-02  0.31300396515E-01  0.31716806692E-01  0.51109989000E-03 0.  1.
     -623    1    1    2    0    0  0.76215361119E-02 -0.35642374299E-02  0.16857947660E-02  0.17130000021E+03  0.17130000000E+03 0. -1.
      622    1    1    2    0    0 -0.41976624944E-02  0.73400646381E-02  0.39670137763E+01  0.39682829786E+01  0.10000000000E+00 0.  1.
</event>
<event>
 5   0  0.6262544E+06  0.9118800E+02  0.7818608E-02  0.1180000E+00
       11   -1    0    0    0    0  0.00000000000E+00  0.00000000000E+00  0.39999999673E+01  0.40000000000E+01  0.51109989000E-03 0.  1.
     -623   -1    0    0    0    0  0.00000000000E+00  0.00000000000E+00  0.12525980253E-10  0.17130000000E+03  0.17130000000E+03 0.  1.
       11    1    1    2    0    0  0.92839733180E-01 -0.43139171547E-01  0.19753797409E+01  0.19780307344E+01  0.51109989000E-03 0.  1.
     -623    1    1    2    0    0 -0.36971990367E-01 -0.39318561982E-03  0.63717718602E-02  0.17130000411E+03  0.17130000000E+03 0.  1.
      622    1    1    2    0    0 -0.55867742813E-01  0.43532357167E-01  0.20182484547E+01  0.20219651569E+01  0.10000000000E+00 0. -1.
</event>
<event>
 5   0  0.6262544E+06  0.9118800E+02  0.7818608E-02  0.1180000E+00
       11   -1    0    0    0    0  0.00000000000E+00  0.00000000000E+00  0.39999999673E+01  0.40000000000E+01  0.51109989000E-03 0. -1.
     -623   -1    0    0    0    0  0.00000000000E+00  0.00000000000E+00  0.12525980253E-10  0.17130000000E+03  0.17130000000E+03 0.  1.
       11    1    1    2    0    0  0.41796979130E-01  0.32217757461E-02  0.30177825408E+01  0.30180737386E+01  0.51109989000E-03 0. -1.
     -623    1    1    2    0    0  0.11581936963E-01  0.12123660158E-01  0.69777119057E-02  0.17130000096E+03  0.17130000000E+03 0.  1.
      622    1    1    2    0    0 -0.53378916093E-01 -0.15345435904E-01  0.97523971466E+00  0.98192529865E+00  0.10000000000E+00 0. -1.
</event>
<event>
 5   0  0.6262544E+06  0.9118800E+02  0.7818608E-02  0.1180000E+00
       11   -1    0    0    0    0  0.00000000000E+00  0.00000000000E+00  0.39999999673E+01  0.40000000000E+01  0.51109989000E-03 0.  1.
     -623   -1    0    0    0    0  0.00000000000E+00  0.00000000000E+00  0.12525980253E-10  0.17130000000E+03  0.17130000000E+03 0.  1.
       11    1    1    2    0    0  0.21234117329E-01 -0.68212584695E-02  0.79660477088E+00  0.79691708447E+00  0.51109989000E-03 0.  1.
     -623    1    1    2    0    0 -0.47487103930E-01 -0.29777953203E-01  0.21997002316E-02  0.17130000918E+03  0.17130000000E+03 0.  1.
      622    1    1    2    0    0  0.26252986601E-01  0.36599211672E-01  0.32011954962E+01  0.32030737311E+01  0.10000000000E+00 0.  1.
</event>
<event>
 5   0  0.6262544E+06  0.9118800E+02  0.7818608E-02  0.1180000E+00
       11   -1    0    0    0    0  0.00000000000E+00  0.00000000000E+00  0.39999999673E+01  0.40000000000E+01  0.51109989000E-03 0.  1.
     -623   -1    0    0    0    0  0.00000000000E+00  0.00000000000E+00  0.12525980253E-10  0.17130000000E+03  0.17130000000E+03 0.  1.
       11    1    1    2    0    0 -0.27050346625E-01  0.16895232129E-01  0.78476903874E+00  0.78541700740E+00  0.51109989000E-03 0.  1.
     -623    1    1    2    0    0  0.71086902929E-02 -0.82594701710E-03  0.23059584628E-02  0.17130000017E+03  0.17130000000E+03 0.  1.
      622    1    1    2    0    0  0.19941656332E-01 -0.16069285112E-01  0.32129249702E+01  0.32145828276E+01  0.10000000000E+00 0.  0.
</event>
<event>
 5   0  0.6262544E+06  0.9118800E+02  0.7818608E-02  0.1180000E+00
       11   -1    0    0    0    0  0.00000000000E+00  0.00000000000E+00  0.39999999673E+01  0.40000000000E+01  0.51109989000E-03 0. -1.
     -623   -1    0    0    0    0  0.00000000000E+00  0.00000000000E+00  0.12525980253E-10  0.17130000000E+03  0.17130000000E+03 0.  1.
       11    1    1    2    0    0  0.18612573028E-01 -0.22005339535E-01  0.17459699552E+00  0.17696054619E+00  0.51109989000E-03 0. -1.
     -623    1    1    2    0    0 -0.31680044231E-01  0.14946416941E-01  0.37040842260E-02  0.17130000362E+03  0.17130000000E+03 0.  1.
      622    1    1    2    0    0  0.13067471203E-01  0.70589225946E-02  0.38216988876E+01  0.38230358323E+01  0.10000000000E+00 0. -1.
</event>
<event>
 5   0  0.6262544E+06  0.9118800E+02  0.7818608E-02  0.1180000E+00
       11   -1    0    0    0    0  0.00000000000E+00  0.00000000000E+00  0.39999999673E+01  0.40000000000E+01  0.51109989000E-03 0. -1.
     -623   -1    0    0    0    0  0.00000000000E+00  0.00000000000E+00  0.12525980253E-10  0.17130000000E+03  0.17130000000E+03 0.  1.
       11    1    1    2    0    0  0.75669518466E-02 -0.13121083821E-02  0.17419763810E-01  0.19044416057E-01  0.51109989000E-03 0. -1.
     -623    1    1    2    0    0 -0.94766917579E-02 -0.23519636709E-02  0.28832452442E-02  0.17130000030E+03  0.17130000000E+03 0.  1.
      622    1    1    2    0    0  0.19097399114E-02  0.36640720530E-02  0.39796969584E+01  0.39809552814E+01  0.10000000000E+00 0. -1.
</event>
<event>
 5   0  0.6262544E+06  0.9118800E+02  0.7818608E-02  0.1180000E+00
       11   -1    0    0    0    0  0.00000000000E+00  0.00000000000E+00  0.39999999673E+01  0.40000000000E+01  0.51109989000E-03 0.  1.
     -623   -1    0    0    0    0  0.00000000000E+00  0.00000000000E+00  0.12525980253E-10  0.17130000000E+03  0.17130000000E+03 0. -1.
       11    1    1    2    0    0  0.43271942997E-04  0.20894170349E-02  0.33502893508E-01  0.33571902426E-01  0.51109989000E-03 0.  1.
     -623    1    1    2    0    0  0.16855850155E-02 -0.25883467298E-02  0.13301979865E-02  0.17130000003E+03  0.17130000000E+03 0. -1.
      622    1    1    2    0    0 -0.17288569584E-02  0.49892969480E-03  0.39651668757E+01  0.39664280644E+01  0.10000000000E+00 0.  1.
</event>
<event>
 5   0  0.6262544E+06  0.9118800E+02  0.7818608E-02  0.1180000E+00
       11   -1    0    0    0    0  0.00000000000E+00  0.00000000000E+00  0.39999999673E+01  0.40000000000E+01  0.51109989000E-03 0. -1.
     -623   -1    0    0    0    0  0.00000000000E+00  0.00000000000E+00  0.12525980253E-10  0.17130000000E+03  0.17130000000E+03 0.  1.
       11    1    1    2    0    0  0.20547309476E-02 -0.15412789080E-01  0.34706226285E+00  0.34741078207E+00  0.51109989000E-03 0. -1.
     -623    1    1    2    0    0  0.17001832571E-01  0.14012574976E-01  0.17690608335E-02  0.17130000143E+03  0.17130000000E+03 0.  1.
      622    1    1    2    0    0 -0.19056563518E-01  0.14002141039E-02  0.36511686437E+01  0.36525877919E+01  0.10000000000E+00 0. -1.
</event>
<event>
 5   0  0.6262544E+06  0.9118800E+02  0.7818608E-02  0.1180000E+00
       11   -1    0    0    0    0  0.00000000000E+00  0.00000000000E+00  0.39999999673E+01  0.40000000000E+01  0.51109989000E-03 0. -1.
     -623   -1    0    0    0    0  0.00000000000E+00  0.00000000000E+00  0.12525980253E-10  0.17130000000E+03  0.17130000000E+03 0. -1.
       11    1    1    2    0    0 -0.10445677014E-01  0.62899047890E-01  0.16853859083E+01  0.16865916292E+01  0.51109989000E-03 0. -1.
     -623    1    1    2    0    0  0.15907999818E-02 -0.92293193645E-02  0.40085020287E-02  0.17130000030E+03  0.17130000000E+03 0. -1.
      622    1    1    2    0    0  0.88548770322E-02 -0.53669728525E-01  0.23106055571E+01  0.23134080680E+01  0.10000000000E+00 0.  0.
</event>
<event>
 5   0  0.6262544E+06  0.9118800E+02  0.7818608E-02  0.1180000E+00
       11   -1    0    0    0    0  0.00000000000E+00  0.00000000000E+00  0.39999999673E+01  0.40000000000E+01  0.51109989000E-03 0.  1.
     -623   -1    0    0    0    0  0.00000000000E+00  0.00000000000E+00  0.12525980253E-10  0.17130000000E+03  0.17130000000E+03 0.  1.
       11    1    1    2    0    0 -0.34379898440E-02  0.54695780371E-02  0.95241074628E+00  0.95243279391E+00  0.51109989000E-03 0.  1.
     -623    1    1    2    0    0  0.10263910228E-04 -0.47829221391E-02  0.16651907525E-02  0.17130000007E+03  0.17130000000E+03 0.  1.
      622    1    1    2    0    0  0.34277259338E-02 -0.68665589804E-03  0.30459240303E+01  0.30475671312E+01  0.10000000000E+00 0.  1.
</event>
<event>
 5   0  0.6262544E+06  0.9118800E+02  0.7818608E-02  0.1180000E+00
       11   -1    0    0    0    0  0.00000000000E+00  0.00000000000E+00  0.39999999673E+01  0.40000000000E+01  0.51109989000E-03 0. -1.
     -623   -1    0    0    0    0  0.00000000000E+00  0.00000000000E+00  0.12525980253E-10  0.17130000000E+03  0.17130000000E+03 0. -1.
       11    1    1    2    0    0  0.33854930824E-01  0.45036562603E-01  0.76709931154E+00  0.76916582302E+00  0.51109989000E-03 0. -1.
     -623    1    1    2    0    0  0.75234022981E-02 -0.31422584886E-02  0.41515789878E-02  0.17130000024E+03  0.17130000000E+03 0. -1.
      622    1    1    2    0    0 -0.41378333122E-01 -0.41894304114E-01  0.32287490768E+01  0.32308339326E+01  0.10000000000E+00 0. -1.
</event>
<event>
 5   0  0.6262544E+06  0.9118800E+02  0.7818608E-02  0.1180000E+00
       11   -1    0    0    0    0  0.00000000000E+00  0.00000000000E+00  0.39999999673E+01  0.40000000000E+01  0.51109989000E-03 0. -1.
     -623   -1    0    0    0    0  0.00000000000E+00  0.00000000000E+00  0.12525980253E-10  0.17130000000E+03  0.17130000000E+03 0.  1.
       11    1    1    2    0    0  0.39059725202E-01  0.10630375613E-01  0.12839113397E+01  0.12845494372E+01  0.51109989000E-03 0. -1.
     -623    1    1    2    0    0 -0.12752175310E-01 -0.79418181499E-02  0.26095401733E-02  0.17130000068E+03  0.17130000000E+03 0.  1.
      622    1    1    2    0    0 -0.26307549893E-01 -0.26885574634E-02  0.27134790873E+01  0.27154498840E+01  0.10000000000E+00 0.  0.
</event>
<event>
 5   0  0.6262544E+06  0.9118800E+02  0.7818608E-02  0.1180000E+00
       11   -1    0    0    0    0  0.00000000000E+00  0.00000000000E+00  0.39999999673E+01  0.40000000000E+01  0.51109989000E-03 0. -1.
     -623   -1    0    0    0    0  0.00000000000E+00  0.00000000000E+00  0.12525980253E-10  0.17130000000E+03  0.17130000000E+03 0. -1.
       11    1    1    2    0    0 -0.39052597852E-02 -0.21919555951E-02  0.33415176298E-01  0.33717813593E-01  0.51109989000E-03 0. -1.
     -623    1    1    2    0    0  0.49928508487E-03  0.52253568255E-02  0.15661422708E-02  0.17130000009E+03  0.17130000000E+03 0. -1.
      622    1    1    2    0    0  0.34059747002E-02 -0.30334012309E-02  0.39650186492E+01  0.39662820992E+01  0.10000000000E+00 0. -1.
</event>
<event>
 5   0  0.6262544E+06  0.9118800E+02  0.7818608E-02  0.1180000E+00
       11   -1    0    0    0    0  0.00000000000E+00  0.00000000000E+00  0.39999999673E+01  0.40000000000E+01  0.51109989000E-03 0.  1.
     -623   -1    0    0    0    0  0.00000000000E+00  0.00000000000E+00  0.12525980253E-10  0.17130000000E+03  0.17130000000E+03 0.  1.
       11    1    1    2    0    0  0.22269275853E-01  0.46483011534E-01  0.64910720590E+00  0.65115053327E+00  0.51109989000E-03 0.  1.
     -623    1    1    2    0    0  0.11137265824E-01 -0.32863386791E-01  0.37346462236E-02  0.17130000356E+03  0.17130000000E+03 0.  1.
      622    1    1    2    0    0 -0.33406541677E-01 -0.13619624742E-01  0.33471581152E+01  0.33488459116E+01  0.10000000000E+00 0.  1.
</event>
<event>
 5   0  0.6262544E+06  0.9118800E+02  0.7818608E-02  0.1180000E+00
       11   -1    0    0    0    0  0.00000000000E+00  0.00000000000E+00  0.39999999673E+01  0.40000000000E+01  0.51109989000E-03 0.  1.
     -623   -1    0    0    0    0  0.00000000000E+00  0.00000000000E+00  0.12525980253E-10  0.17130000000E+03  0.17130000000E+03 0. -1.
       11    1    1    2    0    0 -0.64677239689E-02  0.49677630456E-02  0.16245257017E-01  0.18184601148E-01  0.51109989000E-03 0.  1.
     -623    1    1    2    0    0 -0.70549452044E-02  0.20153636546E-01  0.32988228751E-02  0.17130000136E+03  0.17130000000E+03 0. -1.
      622    1    1    2    0    0  0.13522669173E-01 -0.25121399592E-01  0.39804558875E+01  0.39818140363E+01  0.10000000000E+00 0.  1.
</event>
<event>
 5   0  0.6262544E+06  0.9118800E+02  0.7818608E-02  0.1180000E+00
       11   -1    0    0    0    0  0.00000000000E+00  0.00000000000E+00  0.39999999673E+01  0.40000000000E+01  0.51109989000E-03 0. -1.
     -623   -1    0    0    0    0  0.00000000000E+00  0.00000000000E+00  0.12525980253E-10  0.17130000000E+03  0.17130000000E+03 0. -1.
       11    1    1    2    0    0  0.46146438843E-02 -0.28669317677E-01  0.48746770383E+00  0.48833210852E+00  0.51109989000E-03 0. -1.
     -623    1    1    2    0    0  0.29839381571E-01  0.34212289042E-01  0.24679902204E-02  0.17130000603E+03  0.17130000000E+03 0. -1.
      622    1    1    2    0    0 -0.34454025458E-01 -0.55429713674E-02  0.35100642736E+01  0.35116618586E+01  0.10000000000E+00 0.  1.
</event>
<event>
 5   0  0.6262544E+06  0.9118800E+02  0.7818608E-02  0.1180000E+00
       11   -1    0    0    0    0  0.00000000000E+00  0.00000000000E+00  0.39999999673E+01  0.40000000000E+01  0.51109989000E-03 0.  1.
     -623   -1    0    0    0    0  0.00000000000E+00  0.00000000000E+00  0.12525980253E-10  0.17130000000E+03  0.17130000000E+03 0. -1.
       11    1    1    2    0    0  0.43157601947E-02 -0.52002923364E-03  0.31910219962E-01  0.32208998395E-01  0.51109989000E-03 0.  1.
     -623    1    1    2    0    0 -0.27704725497E-02 -0.24217821056E-02  0.15605315456E-02  0.17130000005E+03  0.17130000000E+03 0. -1.
      622    1    1    2    0    0 -0.15452876448E-02  0.29418113394E-02  0.39665292161E+01  0.39677909553E+01  0.10000000000E+00 0.  1.
</event>
<event>
 5   0  0.6262544E+06  0.9118800E+02  0.7818608E-02  0.1180000E+00
       11   -1    0    0    0    0  0.00000000000E+00  0.00000000000E+00  0.39999999673E+01  0.40000000000E+01  0.51109989000E-03 0. -1.
     -623   -1    0    0    0    0  0.00000000000E+00  0.00000000000E+00  0.12525980253E-10  0.17130000000E+03  0.17130000000E+03 0.  1.
       11    1    1    2    0    0  0.28995635709E-01 -0.17771490101E-01  0.88308724671E-01  0.94632261025E-01  0.51109989000E-03 0. -1.
     -623    1    1    2    0    0 -0.77952661093E-02 -0.17756073081E-01  0.78245000584E-02  0.17130000128E+03  0.17130000000E+03 0.  1.
      622    1    1    2    0    0 -0.21200369600E-01  0.35527563182E-01  0.39038667426E+01  0.39053664627E+01  0.10000000000E+00 0. -1.
</event>
<event>
 5   0  0.6262544E+06  0.9118800E+02  0.7818608E-02  0.1180000E+00
       11   -1    0    0    0    0  0.00000000000E+00  0.00000000000E+00  0.39999999673E+01  0.40000000000E+01  0.51109989000E-03 0.  1.
     -623   -1    0    0    0    0  0.00000000000E+00  0.00000000000E+00  0.12525980253E-10  0.17130000000E+03  0.17130000000E+03 0. -1.
       11    1    1    2    0    0 -0.24023786869E-02 -0.14292439280E-01  0.71869889277E-01  0.73318397756E-01  0.51109989000E-03 0.  1.
     -623    1    1    2    0    0  0.12373010196E-02 -0.11412386523E-02  0.27525661802E-02  0.17130000003E+03  0.17130000000E+03 0. -1.
      622    1    1    2    0    0  0.11650776674E-02  0.15433677932E-01  0.39253775119E+01  0.39266815719E+01  0.10000000000E+00 0.  1.
</event>
<event>
 5   0  0.6262544E+06  0.9118800E+02  0.7818608E-02  0.1180000E+00
       11   -1    0    0    0    0  0.00000000000E+00  0.00000000000E+00  0.39999999673E+01  0.40000000000E+01  0.51109989000E-03 0.  1.
     -623   -1    0    0    0    0  0.00000000000E+00  0.00000000000E+00  0.12525980253E-10  0.17130000000E+03  0.17130000000E+03 0. -1.
       11    1    1    2    0    0 -0.68148707320E-02 -0.39596829094E-02  0.33979838362E-02  0.85982015029E-02  0.51109989000E-03 0.  1.
     -623    1    1    2    0    0  0.59356919125E-02 -0.21284492181E-02  0.64580537322E-02  0.17130000024E+03  0.17130000000E+03 0. -1.
      622    1    1    2    0    0  0.87917881951E-03  0.60881321275E-02  0.39901439298E+01  0.39914015607E+01  0.10000000000E+00 0.  1.
</event>
<event>
 5   0  0.6262544E+06  0.9118800E+02  0.7818608E-02  0.1180000E+00
       11   -1    0    0    0    0  0.00000000000E+00  0.00000000000E+00  0.39999999673E+01  0.40000000000E+01  0.51109989000E-03 0.  1.
     -623   -1    0    0    0    0  0.00000000000E+00  0.00000000000E+00  0.12525980253E-10  0.17130000000E+03  0.17130000000E+03 0. -1.
       11    1    1    2    0    0 -0.25143861213E-02  0.41689611104E-02  0.26520509659E-01  0.26968519240E-01  0.51109989000E-03 0.  1.
     -623    1    1    2    0    0  0.65411240268E-03 -0.11660098300E-01  0.17145681432E-02  0.17130000041E+03  0.17130000000E+03 0. -1.
      622    1    1    2    0    0  0.18602737187E-02  0.74911371890E-02  0.39717648893E+01  0.39730310738E+01  0.10000000000E+00 0.  1.
</event>
<event>
 5   0  0.6262544E+06  0.9118800E+02  0.7818608E-02  0.1180000E+00
       11   -1    0    0    0    0  0.00000000000E+00  0.00000000000E+00  0.39999999673E+01  0.40000000000E+01  0.51109989000E-03 0. -1.
     -623   -1    0    0    0    0  0.00000000000E+00  0.00000000000E+00  0.12525980253E-10  0.17130000000E+03  0.17130000000E+03 0. -1.
       11    1    1    2    0    0 -0.41113421614E-02  0.12721273474E+00  0.16696239345E+01  0.16744683714E+01  0.51109989000E-03 0. -1.
     -623    1    1    2    0    0  0.74107476068E-02  0.26413285089E-03  0.10498045770E-01  0.17130000048E+03  0.17130000000E+03 0. -1.
      622    1    1    2    0    0 -0.32994054455E-02 -0.12747686759E+00  0.23198779871E+01  0.23255311464E+01  0.10000000000E+00 0. -1.
</event>
<event>
 5   0  0.6262544E+06  0.9118800E+02  0.7818608E-02  0.1180000E+00
       11   -1    0    0    0    0  0.00000000000E+00  0.00000000000E+00  0.39999999673E+01  0.40000000000E+01  0.51109989000E-03 0.  1.
     -623   -1    0    0    0    0  0.00000000000E+00  0.00000000000E+00  0.12525980253E-10  0.17130000000E+03  0.17130000000E+03 0. -1.
       11    1    1    2    0    0  0.44453540218E-02 -0.83697532700E-02  0.34221196922E+00  0.34234355119E+00  0.51109989000E-03 0.  1.
     -623    1    1    2    0    0 -0.11206032958E-02 -0.17273958799E-02  0.15142732050E-02  0.17130000002E+03  0.17130000000E+03 0. -1.
      622    1    1    2    0    0 -0.33247507260E-02  0.10097149150E-01  0.36562737249E+01  0.36576564297E+01  0.10000000000E+00 0.  1.
</event>
<event>
 5   0  0.6262544E+06  0.9118800E+02  0.7818608E-02  0.1180000E+00
       11   -1    0    0    0    0  0.00000000000E+00  0.00000000000E+00  0.39999999673E+01  0.40000000000E+01  0.51109989000E-03 0.  1.
     -623   -1    0    0    0    0  0.00000000000E+00  0.00000000000E+00  0.12525980253E-10  0.17130000000E+03  0.17130000000E+03 0. -1.
       11    1    1    2    0    0 -0.69207249447E-02 -0.16587012341E-03 -0.90928240694E-03  0.70008545372E-02  0.51109989000E-03 0.  1.
     -623    1    1    2    0    0  0.27334152705E-01 -0.63572914026E-01  0.97378677006E-02  0.17130001425E+03  0.17130000000E+03 0. -1.
      622    1    1    2    0    0 -0.20413427761E-01  0.63738784151E-01  0.39911713821E+01  0.39929848913E+01  0.10000000000E+00 0.  1.
</event>
<event>
 5   0  0.6262544E+06  0.9118800E+02  0.7818608E-02  0.1180000E+00
       11   -1    0    0    0    0  0.00000000000E+00  0.00000000000E+00  0.39999999673E+01  0.40000000000E+01  0.51109989000E-03 0. -1.
     -623   -1    0    0    0    0  0.00000000000E+00  0.00000000000E+00  0.12525980253E-10  0.17130000000E+03  0.17130000000E+03 0. -1.
       11    1    1    2    0    0  0.28411429584E-01 -0.27993360784E-01  0.23496853668E+00  0.23833025832E+00  0.51109989000E-03 0. -1.
     -623    1    1    2    0    0  0.86916773034E-02  0.47176283416E-01  0.49298955338E-02  0.17130000679E+03  0.17130000000E+03 0. -1.
      622    1    1    2    0    0 -0.37103106887E-01 -0.19182922634E-01  0.37601015353E+01  0.37616629541E+01  0.10000000000E+00 0. -1.
</event>
<event>
 5   0  0.6262544E+06  0.9118800E+02  0.7818608E-02  0.1180000E+00
       11   -1    0    0    0    0  0.00000000000E+00  0.00000000000E+00  0.39999999673E+01  0.40000000000E+01  0.51109989000E-03 0.  1.
     -623   -1    0    0    0    0  0.00000000000E+00  0.00000000000E+00  0.12525980253E-10  0.17130000000E+03  0.17130000000E+03 0.  1.
       11    1    1    2    0    0  0.27480565096E-02  0.30712608424E-02  0.99266970468E-02  0.10760343625E-01  0.51109989000E-03 0.  1.
     -623    1    1    2    0    0  0.97494718351E-02 -0.30541260343E-02  0.21070827314E-02  0.17130000032E+03  0.17130000000E+03 0.  1.
      622    1    1    2    0    0 -0.12497528345E-01 -0.17134808094E-04  0.39879661876E+01  0.39892393387E+01  0.10000000000E+00 0.  1.
</event>
<event>
 5   0  0.6262544E+06  0.9118800E+02  0.7818608E-02  0.1180000E+00
       11   -1    0    0    0    0  0.00000000000E+00  0.00000000000E+00  0.39999999673E+01  0.40000000000E+01  0.51109989000E-03 0. -1.
     -623   -1    0    0    0    0  0.00000000000E+00  0.00000000000E+00  0.12525980253E-10  0.17130000000E+03  0.17130000000E+03 0. -1.
       11    1    1    2    0    0  0.20507948177E-02  0.12361181621E-02  0.27339316569E-02  0.36700617021E-02  0.51109989000E-03 0. -1.
     -623    1    1    2    0    0 -0.20213163973E-02  0.33134264144E-02  0.21900898459E-02  0.17130000006E+03  0.17130000000E+03 0. -1.
      622    1    1    2    0    0 -0.29478420430E-04 -0.45495445766E-02  0.39950759459E+01  0.39963298804E+01  0.10000000000E+00 0. -1.
</event>
<event>
 5   0  0.6262544E+06  0.9118800E+02  0.7818608E-02  0.1180000E+00
       11   -1    0    0    0    0  0.00000000000E+00  0.00000000000E+00  0.39999999673E+01  0.40000000000E+01  0.51109989000E-03 0. -1.
     -623   -1    0    0    0    0  0.00000000000E+00  0.00000000000E+00  0.12525980253E-10  0.17130000000E+03  0.17130000000E+03 0.  1.
       11    1    1    2    0    0 -0.77940688367E-02 -0.12937803344E-01  0.28287820897E-01  0.32071736757E-01  0.51109989000E-03 0. -1.
     -623    1    1    2    0    0  0.14973416983E-01  0.34118622489E-01  0.51113637681E-02  0.17130000413E+03  0.17130000000E+03 0.  1.
      622    1    1    2    0    0 -0.71793481469E-02 -0.21180819145E-01  0.39666007828E+01  0.39679241348E+01  0.10000000000E+00 0. -1.
</event>
<event>
 5   0  0.6262544E+06  0.9118800E+02  0.7818608E-02  0.1180000E+00
       11   -1    0    0    0    0  0.00000000000E+00  0.00000000000E+00  0.39999999673E+01  0.40000000000E+01  0.51109989000E-03 0.  1.
     -623   -1    0    0    0    0  0.00000000000E+00  0.00000000000E+00  0.12525980253E-10  0.17130000000E+03  0.17130000000E+03 0.  1.
       11    1    1    2    0    0  0.26714146745E-02 -0.52000956658E-01  0.12997835270E+00  0.14002096037E+00  0.51109989000E-03 0.  1.
     -623    1    1    2    0    0 -0.30530123901E-01  0.24474177982E-01  0.11541751669E-01  0.17130000486E+03  0.17130000000E+03 0.  1.
      622    1    1    2    0    0  0.27858709226E-01  0.27526778676E-01  0.38584798630E+01  0.38599741818E+01  0.10000000000E+00 0.  1.
</event>
<event>
 5   0  0.6262544E+06  0.9118800E+02  0.7818608E-02  0.1180000E+00
       11   -1    0    0    0    0  0.00000000000E+00  0.00000000000E+00  0.39999999673E+01  0.40000000000E+01  0.51109989000E-03 0.  1.
     -623   -1    0    0    0    0  0.00000000000E+00  0.00000000000E+00  0.12525980253E-10  0.17130000000E+03  0.17130000000E+03 0. -1.
       11    1    1    2    0    0  0.61961826421E-02  0.97857898492E-01  0.17624365368E+01  0.17651621365E+01  0.51109989000E-03 0.  1.
     -623    1    1    2    0    0  0.15870450053E-01 -0.11351269632E-01  0.67509370951E-02  0.17130000124E+03  0.17130000000E+03 0. -1.
      622    1    1    2    0    0 -0.22066632695E-01 -0.86506628860E-01  0.22308124935E+01  0.22348366192E+01  0.10000000000E+00 0.  1.
</event>
<event>
 5   0  0.6262544E+06  0.9118800E+02  0.7818608E-02  0.1180000E+00
       11   -1    0    0    0    0  0.00000000000E+00  0.00000000000E+00  0.39999999673E+01  0.40000000000E+01  0.51109989000E-03 0. -1.
     -623   -1    0    0    0    0  0.00000000000E+00  0.00000000000E+00  0.12525980253E-10  0.17130000000E+03  0.17130000000E+03 0.  1.
       11    1    1    2    0    0 -0.12735183016E-01 -0.18567781275E-01  0.61114844612E+00  0.61156326885E+00  0.51109989000E-03 0. -1.
     -623    1    1    2    0    0  0.70290882212E-01  0.36639221297E-01  0.24463711560E-02  0.17130001836E+03  0.17130000000E+03 0.  1.
      622    1    1    2    0    0 -0.57555699196E-01 -0.18071440022E-01  0.33864051501E+01  0.33884183738E+01  0.10000000000E+00 0.  0.
</event>
<event>
 5   0  0.6262544E+06  0.9118800E+02  0.7818608E-02  0.1180000E+00
       11   -1    0    0    0    0  0.00000000000E+00  0.00000000000E+00  0.39999999673E+01  0.40000000000E+01  0.51109989000E-03 0. -1.
     -623   -1    0    0    0    0  0.00000000000E+00  0.00000000000E+00  0.12525980253E-10  0.17130000000E+03  0.17130000000E+03 0. -1.
       11    1    1    2    0    0 -0.95508527800E-03  0.71414306133E-03  0.47701448321E-04  0.12983399886E-02  0.51109989000E-03 0. -1.
     -623    1    1    2    0    0 -0.24970339972E-02  0.26174946417E-03  0.25028537355E-02  0.17130000004E+03  0.17130000000E+03 0. -1.
      622    1    1    2    0    0  0.34521192752E-02 -0.97589252550E-03  0.39974494122E+01  0.39987016234E+01  0.10000000000E+00 0. -1.
</event>
<event>
 5   0  0.6262544E+06  0.9118800E+02  0.7818608E-02  0.1180000E+00
       11   -1    0    0    0    0  0.00000000000E+00  0.00000000000E+00  0.39999999673E+01  0.40000000000E+01  0.51109989000E-03 0. -1.
     -623   -1    0    0    0    0  0.00000000000E+00  0.00000000000E+00  0.12525980253E-10  0.17130000000E+03  0.17130000000E+03 0.  1.
       11    1    1    2    0    0  0.95214248367E-02 -0.41952012498E-03  0.31728212981E-02  0.10057909631E-01  0.51109989000E-03 0. -1.
     -623    1    1    2    0    0 -0.27362659391E-01 -0.18355278133E-01  0.82258600111E-02  0.17130000337E+03  0.17130000000E+03 0.  1.
      622    1    1    2    0    0  0.17841234555E-01  0.18774798258E-01  0.39886012860E+01  0.39899387241E+01  0.10000000000E+00 0. -1.
</event>
<event>
 5   0  0.6262544E+06  0.9118800E+02  0.7818608E-02  0.1180000E+00
       11   -1    0    0    0    0  0.00000000000E+00  0.00000000000E+00  0.39999999673E+01  0.40000000000E+01  0.51109989000E-03 0.  1.
     -623   -1    0    0    0    0  0.00000000000E+00  0.00000000000E+00  0.12525980253E-10  0.17130000000E+03  0.17130000000E+03 0.  1.
       11    1    1    2    0    0 -0.46544865156E-02 -0.10977055087E-01  0.14777513561E+01  0.14777995438E+01  0.51109989000E-03 0.  1.
     -623    1    1    2    0    0 -0.15676389012E-02  0.12961562060E-02  0.20576297389E-02  0.17130000002E+03  0.17130000000E+03 0.  1.
      622    1    1    2    0    0  0.62221254168E-02  0.96808988807E-02  0.25201909817E+01  0.25222004320E+01  0.10000000000E+00 0.  1.
</event>
<event>
 5   0  0.6262544E+06  0.9118800E+02  0.7818608E-02  0.1180000E+00
       11   -1    0    0    0    0  0.00000000000E+00  0.00000000000E+00  0.39999999673E+01  0.40000000000E+01  0.51109989000E-03 0. -1.
     -623   -1    0    0    0    0  0.00000000000E+00  0.00000000000E+00  0.12525980253E-10  0.17130000000E+03  0.17130000000E+03 0. -1.
       11    1    1    2    0    0 -0.26443850445E-01  0.31150789193E-01  0.10973462355E+00  0.11709653164E+00  0.51109989000E-03 0. -1.
     -623    1    1    2    0    0 -0.53598265435E-02 -0.13708193362E-01  0.88201293966E-02  0.17130000086E+03  0.17130000000E+03 0. -1.
      622    1    1    2    0    0  0.31803676988E-01 -0.17442595831E-01  0.38814452144E+01  0.38829026089E+01  0.10000000000E+00 0. -1.
</event>
<event>
 5   0  0.6262544E+06  0.9118800E+02  0.7818608E-02  0.1180000E+00
       11   -1    0    0    0    0  0.00000000000E+00  0.00000000000E+00  0.39999999673E+01  0.40000000000E+01  0.51109989000E-03 0.  1.
     -623   -1    0    0    0    0  0.00000000000E+00  0.00000000000E+00  0.12525980253E-10  0.17130000000E+03  0.17130000000E+03 0.  1.
       11    1    1    2    0    0  0.17604501823E-02  0.11001619148E-01  0.81585023234E-01  0.82343864665E-01  0.51109989000E-03 0.  1.
     -623    1    1    2    0    0  0.39680705125E-02 -0.10162229889E-01  0.20399292541E-02  0.17130000036E+03  0.17130000000E+03 0.  1.
      622    1    1    2    0    0 -0.57285206948E-02 -0.83938925889E-03  0.39163750148E+01  0.39176557757E+01  0.10000000000E+00 0.  1.
</event>
<event>
 5   0  0.6262544E+06  0.9118800E+02  0.7818608E-02  0.1180000E+00
       11   -1    0    0    0    0  0.00000000000E+00  0.00000000000E+00  0.39999999673E+01  0.40000000000E+01  0.51109989000E-03 0.  1.
     -623   -1    0    0    0    0  0.00000000000E+00  0.00000000000E+00  0.12525980253E-10  0.17130000000E+03  0.17130000000E+03 0.  1.
       11    1    1    2    0    0  0.44799320279E-01  0.34438968264E-01  0.12140718289E+01  0.12153862302E+01  0.51109989000E-03 0.  1.
     -623    1    1    2    0    0  0.11677957711E-02 -0.17347175133E-02  0.36824606644E-02  0.17130000005E+03  0.17130000000E+03 0.  1.
      622    1    1    2    0    0 -0.45967116050E-01 -0.32704250750E-01  0.27822456778E+01  0.27846137174E+01  0.10000000000E+00 0.  1.
</event>
<event>
 5   0  0.6262544E+06  0.9118800E+02  0.7818608E-02  0.1180000E+00
       11   -1    0    0    0    0  0.00000000000E+00  0.00000000000E+00  0.39999999673E+01  0.40000000000E+01  0.51109989000E-03 0. -1.
     -623   -1    0    0    0    0  0.00000000000E+00  0.00000000000E+00  0.12525980253E-10  0.17130000000E+03  0.17130000000E+03 0. -1.
       11    1    1    2    0    0 -0.89932354628E-02 -0.96405920763E-02  0.13608212704E+00  0.13672024656E+00  0.51109989000E-03 0. -1.
     -623    1    1    2    0    0 -0.49407442213E-03  0.11333452483E-01  0.19449519105E-02  0.17130000039E+03  0.17130000000E+03 0. -1.
      622    1    1    2    0    0  0.94873098850E-02 -0.16928604067E-02  0.38619728884E+01  0.38632793668E+01  0.10000000000E+00 0. -1.
</event>
<event>
 5   0  0.6262544E+06  0.9118800E+02  0.7818608E-02  0.1180000E+00
       11   -1    0    0    0    0  0.00000000000E+00  0.00000000000E+00  0.39999999673E+01  0.40000000000E+01  0.51109989000E-03 0.  1.
     -623   -1    0    0    0    0  0.00000000000E+00  0.00000000000E+00  0.12525980253E-10  0.17130000000E+03  0.17130000000E+03 0. -1.
       11    1    1    2    0    0  0.47903799462E-02 -0.77921320855E-02  0.26694920555E+00  0.26710635453E+00  0.51109989000E-03 0.  1.
     -623    1    1    2    0    0 -0.36411539289E-02  0.20263724622E-02  0.15014888966E-02  0.17130000006E+03  0.17130000000E+03 0. -1.
      622    1    1    2    0    0 -0.11492260170E-02  0.57657596232E-02  0.37315492732E+01  0.37328935884E+01  0.10000000000E+00 0.  1.
</event>
<event>
 5   0  0.6262544E+06  0.9118800E+02  0.7818608E-02  0.1180000E+00
       11   -1    0    0    0    0  0.00000000000E+00  0.00000000000E+00  0.39999999673E+01  0.40000000000E+01  0.51109989000E-03 0. -1.
     -623   -1    0    0    0    0  0.00000000000E+00  0.00000000000E+00  0.12525980253E-10  0.17130000000E+03  0.17130000000E+03 0. -1.
       11    1    1    2    0    0 -0.16119043481E-02 -0.17912400061E-02  0.27154811441E-03  0.24782529860E-02  0.51109989000E-03 0. -1.
     -623    1    1    2    0    0  0.26011522568E-02  0.35055272220E-02  0.34582235878E-02  0.17130000009E+03  0.17130000000E+03 0. -1.
      622    1    1    2    0    0 -0.98924790874E-03 -0.17142872159E-02  0.39962701956E+01  0.39975216564E+01  0.10000000000E+00 0. -1.
</event>
<event>
 5   0  0.6262544E+06  0.9118800E+02  0.7818608E-02  0.1180000E+00
       11   -1    0    0    0    0  0.00000000000E+00  0.00000000000E+00  0.39999999673E+01  0.40000000000E+01  0.51109989000E-03 0.  1.
     -623   -1    0    0    0    0  0.00000000000E+00  0.00000000000E+00  0.12525980253E-10  0.17130000000E+03  0.17130000000E+03 0. -1.
       11    1    1    2    0    0 -0.10111227506E-01  0.43334421934E-01  0.56348607920E+00  0.56524059631E+00  0.51109989000E-03 0.  1.
     -623    1    1    2    0    0  0.40312994955E-02 -0.40188645062E-02  0.34411252417E-02  0.17130000013E+03  0.17130000000E+03 0. -1.
      622    1    1    2    0    0  0.60799280103E-02 -0.39315557428E-01  0.34330727629E+01  0.34347592745E+01  0.10000000000E+00 0.  1.
</event>
<event>
 5   0  0.6262544E+06  0.9118800E+02  0.7818608E-02  0.1180000E+00
       11   -1    0    0    0    0  0.00000000000E+00  0.00000000000E+00  0.39999999673E+01  0.40000000000E+01  0.51109989000E-03 0. -1.
     -623   -1    0    0    0    0  0.00000000000E+00  0.00000000000E+00  0.12525980253E-10  0.17130000000E+03  0.17130000000E+03 0. -1.
       11    1    1    2    0    0 -0.62006162913E-01 -0.84622914335E-01  0.21979469669E+01  0.22004492569E+01  0.51109989000E-03 0. -1.
     -623    1    1    2    0    0 -0.13369510125E-01 -0.14732273126E-01  0.96175617495E-02  0.17130000143E+03  0.17130000000E+03 0. -1.
      622    1    1    2    0    0  0.75375673038E-01  0.99355187461E-01  0.17924354388E+01  0.17995493179E+01  0.10000000000E+00 0. -1.
</event>
<event>
 5   0  0.6262544E+06  0.9118800E+02  0.7818608E-02  0.1180000E+00
       11   -1    0    0    0    0  0.00000000000E+00  0.00000000000E+00  0.39999999673E+01  0.40000000000E+01  0.51109989000E-03 0. -1.
     -623   -1    0    0    0    0  0.00000000000E+00  0.00000000000E+00  0.12525980253E-10  0.17130000000E+03  0.17130000000E+03 0. -1.
       11    1    1    2    0    0  0.47145202538E-04 -0.88948767106E-02  0.13454099090E+00  0.13483567967E+00  0.51109989000E-03 0. -1.
     -623    1    1    2    0    0  0.43074111303E-03  0.21121358706E-02  0.15944825810E-02  0.17130000002E+03  0.17130000000E+03 0. -1.
      622    1    1    2    0    0 -0.47788631559E-03  0.67827408399E-02  0.38638644941E+01  0.38651642996E+01  0.10000000000E+00 0. -1.
</event>
<event>
 5   0  0.6262544E+06  0.9118800E+02  0.7818608E-02  0.1180000E+00
       11   -1    0    0    0    0  0.00000000000E+00  0.00000000000E+00  0.39999999673E+01  0.40000000000E+01  0.51109989000E-03 0. -1.
     -623   -1    0    0    0    0  0.00000000000E+00  0.00000000000E+00  0.12525980253E-10  0.17130000000E+03  0.17130000000E+03 0. -1.
       11    1    1    2    0    0  0.12857572339E-01  0.23455890056E-03  0.37900248812E-01  0.40025770021E-01  0.51109989000E-03 0. -1.
     -623    1    1    2    0    0 -0.64828444878E-02 -0.33830761596E-02  0.33948988851E-02  0.17130000019E+03  0.17130000000E+03 0. -1.
      622    1    1    2    0    0 -0.63747278516E-02  0.31485172591E-02  0.39587048197E+01  0.39599740403E+01  0.10000000000E+00 0. -1.
</event>
<event>
 5   0  0.6262544E+06  0.9118800E+02  0.7818608E-02  0.1180000E+00
       11   -1    0    0    0    0  0.00000000000E+00  0.00000000000E+00  0.39999999673E+01  0.40000000000E+01  0.51109989000E-03 0.  1.
     -623   -1    0    0    0    0  0.00000000000E+00  0.00000000000E+00  0.12525980253E-10  0.17130000000E+03  0.17130000000E+03 0.  1.
       11    1    1    2    0    0 -0.13048308952E-01  0.94119723006E-02  0.88201362312E-01  0.89658157046E-01  0.51109989000E-03 0.  1.
     -623    1    1    2    0    0  0.36762061475E-02  0.40587720844E-02  0.27701871714E-02  0.17130000011E+03  0.17130000000E+03 0.  1.
      622    1    1    2    0    0  0.93721028044E-02 -0.13470744385E-01  0.39090284179E+01  0.39103417330E+01  0.10000000000E+00 0.  1.
</event>
<event>
 5   0  0.6262544E+06  0.9118800E+02  0.7818608E-02  0.1180000E+00
       11   -1    0    0    0    0  0.00000000000E+00  0.00000000000E+00  0.39999999673E+01  0.40000000000E+01  0.51109989000E-03 0.  1.
     -623   -1    0    0    0    0  0.00000000000E+00  0.00000000000E+00  0.12525980253E-10  0.17130000000E+03  0.17130000000E+03 0. -1.
       11    1    1    2    0    0  0.12479292416E-01  0.74578710606E-03  0.87128094958E-01  0.88021901205E-01  0.51109989000E-03 0.  1.
     -623    1    1    2    0    0  0.35983517897E-02 -0.57092287218E-02  0.22084545660E-02  0.17130000015E+03  0.17130000000E+03 0. -1.
      622    1    1    2    0    0 -0.16077644205E-01  0.49634416158E-02  0.39106634179E+01  0.39119779517E+01  0.10000000000E+00 0.  1.
</event>
<event>
 5   0  0.6262544E+06  0.9118800E+02  0.7818608E-02  0.1180000E+00
       11   -1    0    0    0    0  0.00000000000E+00  0.00000000000E+00  0.39999999673E+01  0.40000000000E+01  0.51109989000E-03 0.  1.
     -623   -1    0    0    0    0  0.00000000000E+00  0.00000000000E+00  0.12525980253E-10  0.17130000000E+03  0.17130000000E+03 0. -1.
       11    1    1    2    0    0  0.18725719605E-02  0.55496766128E-03  0.50447592171E+00  0.50447996127E+00  0.51109989000E-03 0.  1.
     -623    1    1    2    0    0 -0.66101643936E-02  0.24609820418E-01  0.15304377904E-02  0.17130000190E+03  0.17130000000E+03 0. -1.
      622    1    1    2    0    0  0.47375924331E-02 -0.25164788079E-01  0.34939936079E+01  0.34955181366E+01  0.10000000000E+00 0.  1.
</event>
<event>
 5   0  0.6262544E+06  0.9118800E+02  0.7818608E-02  0.1180000E+00
       11   -1    0    0    0    0  0.00000000000E+00  0.00000000000E+00  0.39999999673E+01  0.40000000000E+01  0.51109989000E-03 0.  1.
     -623   -1    0    0    0    0  0.00000000000E+00  0.00000000000E+00  0.12525980253E-10  0.17130000000E+03  0.17130000000E+03 0.  1.
       11    1    1    2    0    0 -0.38624064101E-02 -0.69241632546E-02  0.16454623022E+01  0.16454814831E+01  0.51109989000E-03 0.  1.
     -623    1    1    2    0    0  0.20397694027E-01  0.43666423343E-02  0.22044740886E-02  0.17130000128E+03  0.17130000000E+03 0.  1.
      622    1    1    2    0    0 -0.16535287616E-01  0.25575209203E-02  0.23523331911E+01  0.23545172326E+01  0.10000000000E+00 0.  1.
</event>
<event>
 5   0  0.6262544E+06  0.9118800E+02  0.7818608E-02  0.1180000E+00
       11   -1    0    0    0    0  0.00000000000E+00  0.00000000000E+00  0.39999999673E+01  0.40000000000E+01  0.51109989000E-03 0. -1.
     -623   -1    0    0    0    0  0.00000000000E+00  0.00000000000E+00  0.12525980253E-10  0.17130000000E+03  0.17130000000E+03 0. -1.
       11    1    1    2    0    0 -0.93653542490E-02 -0.31337387962E-01  0.39991128647E+00  0.40124685670E+00  0.51109989000E-03 0. -1.
     -623    1    1    2    0    0 -0.62063553483E-02 -0.10237538742E-02  0.29045799174E-02  0.17130000014E+03  0.17130000000E+03 0. -1.
      622    1    1    2    0    0  0.15571709597E-01  0.32361141837E-01  0.35971841010E+01  0.35987530032E+01  0.10000000000E+00 0. -1.
</event>
<event>
 5   0  0.6262544E+06  0.9118800E+02  0.7818608E-02  0.1180000E+00
       11   -1    0    0    0    0  0.00000000000E+00  0.00000000000E+00  0.39999999673E+01  0.40000000000E+01  0.51109989000E-03 0.  1.
     -623   -1    0    0    0    0  0.00000000000E+00  0.00000000000E+00  0.12525980253E-10  0.17130000000E+03  0.17130000000E+03 0.  1.
       11    1    1    2    0    0  0.55267957335E-02 -0.11317809803E-02  0.51834939164E-03  0.56882603657E-02  0.51109989000E-03 0.  1.
     -623    1    1    2    0    0 -0.65381685985E-02  0.73402330354E-02  0.64272119658E-02  0.17130000040E+03  0.17130000000E+03 0.  1.
      622    1    1    2    0    0  0.10113728650E-02 -0.62084520551E-02  0.39930544060E+01  0.39943113370E+01  0.10000000000E+00 0.  1.
</event>
<event>
 5   0  0.6262544E+06  0.9118800E+02  0.7818608E-02  0.1180000E+00
       11   -1    0    0    0    0  0.00000000000E+00  0.00000000000E+00  0.39999999673E+01  0.40000000000E+01  0.51109989000E-03 0.  1.
     -623   -1    0    0    0    0  0.00000000000E+00  0.00000000000E+00  0.12525980253E-10  0.17130000000E+03  0.17130000000E+03 0.  1.
       11    1    1    2    0    0 -0.31209678570E-01  0.18033813258E-01  0.92789819985E+00  0.92859818704E+00  0.51109989000E-03 0.  1.
     -623    1    1    2    0    0  0.31267342291E-02 -0.43282684737E-01  0.25661257129E-02  0.17130000552E+03  0.17130000000E+03 0.  1.
      622    1    1    2    0    0  0.28082944341E-01  0.25248871479E-01  0.30695356418E+01  0.30713962971E+01  0.10000000000E+00 0.  1.
</event>
<event>
 5   0  0.6262544E+06  0.9118800E+02  0.7818608E-02  0.1180000E+00
       11   -1    0    0    0    0  0.00000000000E+00  0.00000000000E+00  0.39999999673E+01  0.40000000000E+01  0.51109989000E-03 0.  1.
     -623   -1    0    0    0    0  0.00000000000E+00  0.00000000000E+00  0.12525980253E-10  0.17130000000E+03  0.17130000000E+03 0.  1.
       11    1    1    2    0    0  0.51362101075E-02 -0.33822311827E-02  0.21918386694E-01  0.22770530073E-01  0.51109989000E-03 0.  1.
     -623    1    1    2    0    0 -0.19612847766E-02  0.63052693347E-02  0.21119484598E-02  0.17130000014E+03  0.17130000000E+03 0.  1.
      622    1    1    2    0    0 -0.31749253309E-02 -0.29230381520E-02  0.39759696322E+01  0.39772293296E+01  0.10000000000E+00 0.  1.
</event>
<event>
 5   0  0.6262544E+06  0.9118800E+02  0.7818608E-02  0.1180000E+00
       11   -1    0    0    0    0  0.00000000000E+00  0.00000000000E+00  0.39999999673E+01  0.40000000000E+01  0.51109989000E-03 0.  1.
     -623   -1    0    0    0    0  0.00000000000E+00  0.00000000000E+00  0.12525980253E-10  0.17130000000E+03  0.17130000000E+03 0.  1.
       11    1    1    2    0    0 -0.37859676511E-01  0.24267241889E-01  0.29606121136E+01  0.29609536644E+01  0.51109989000E-03 0.  1.
     -623    1    1    2    0    0 -0.77285718610E-02 -0.34033085172E-01  0.62199075894E-02  0.17130000367E+03  0.17130000000E+03 0.  1.
      622    1    1    2    0    0  0.45588248372E-01  0.97658432830E-02  0.10331679461E+01  0.10390426675E+01  0.10000000000E+00 0.  0.
</event>
<event>
 5   0  0.6262544E+06  0.9118800E+02  0.7818608E-02  0.1180000E+00
       11   -1    0    0    0    0  0.00000000000E+00  0.00000000000E+00  0.39999999673E+01  0.40000000000E+01  0.51109989000E-03 0.  1.
     -623   -1    0    0    0    0  0.00000000000E+00  0.00000000000E+00  0.12525980253E-10  0.17130000000E+03  0.17130000000E+03 0. -1.
       11    1    1    2    0    0 -0.35707635063E-02  0.52199592246E-02  0.14533318016E+01  0.14533456523E+01  0.51109989000E-03 0.  1.
     -623    1    1    2    0    0 -0.71679432763E-02  0.93213473083E-02  0.20425587992E-02  0.17130000042E+03  0.17130000000E+03 0. -1.
      622    1    1    2    0    0  0.10738706783E-01 -0.14541306533E-01  0.25446256070E+01  0.25466539319E+01  0.10000000000E+00 0.  1.
</event>
<event>
 5   0  0.6262544E+06  0.9118800E+02  0.7818608E-02  0.1180000E+00
       11   -1    0    0    0    0  0.00000000000E+00  0.00000000000E+00  0.39999999673E+01  0.40000000000E+01  0.51109989000E-03 0.  1.
     -623   -1    0    0    0    0  0.00000000000E+00  0.00000000000E+00  0.12525980253E-10  0.17130000000E+03  0.17130000000E+03 0. -1.
       11    1    1    2    0    0  0.23879203164E-01  0.21237947244E-01  0.13993553835E+00  0.14353913356E+00  0.51109989000E-03 0.  1.
     -623    1    1    2    0    0  0.17761440815E-03 -0.24556836499E-01  0.49786278878E-02  0.17130000183E+03  0.17130000000E+03 0. -1.
      622    1    1    2    0    0 -0.24056817572E-01  0.33188892567E-02  0.38550858012E+01  0.38564590339E+01  0.10000000000E+00 0.  1.
</event>
<event>
 5   0  0.6262544E+06  0.9118800E+02  0.7818608E-02  0.1180000E+00
       11   -1    0    0    0    0  0.00000000000E+00  0.00000000000E+00  0.39999999673E+01  0.40000000000E+01  0.51109989000E-03 0.  1.
     -623   -1    0    0    0    0  0.00000000000E+00  0.00000000000E+00  0.12525980253E-10  0.17130000000E+03  0.17130000000E+03 0.  1.
       11    1    1    2    0    0 -0.15612845576E-01  0.39810018873E-01  0.39035844507E-01  0.57902132326E-01  0.51109989000E-03 0.  1.
     -623    1    1    2    0    0 -0.16254039345E-01 -0.49247101996E-01  0.20284019020E-01  0.17130000905E+03  0.17130000000E+03 0.  1.
      622    1    1    2    0    0  0.31866884921E-01  0.94370831230E-02  0.39406801038E+01  0.39420888166E+01  0.10000000000E+00 0.  1.
</event>
<event>
 5   0  0.6262544E+06  0.9118800E+02  0.7818608E-02  0.1180000E+00
       11   -1    0    0    0    0  0.00000000000E+00  0.00000000000E+00  0.39999999673E+01  0.40000000000E+01  0.51109989000E-03 0. -1.
     -623   -1    0    0    0    0  0.00000000000E+00  0.00000000000E+00  0.12525980253E-10  0.17130000000E+03  0.17130000000E+03 0. -1.
       11    1    1    2    0    0  0.17520179508E-02 -0.36786715310E-02  0.15587424843E+00  0.15592833206E+00  0.51109989000E-03 0. -1.
     -623    1    1    2    0    0 -0.99418087288E-03 -0.20676869390E-01  0.14334909187E-02  0.17130000126E+03  0.17130000000E+03 0. -1.
      622    1    1    2    0    0 -0.75783707791E-03  0.24355540921E-01  0.38426922280E+01  0.38440704111E+01  0.10000000000E+00 0.  0.
</event>
<event>
 5   0  0.6262544E+06  0.9118800E+02  0.7818608E-02  0.1180000E+00
       11   -1    0    0    0    0  0.00000000000E+00  0.00000000000E+00  0.39999999673E+01  0.40000000000E+01  0.51109989000E-03 0. -1.
     -623   -1    0    0    0    0  0.00000000000E+00  0.00000000000E+00  0.12525980253E-10  0.17130000000E+03  0.17130000000E+03 0.  1.
       11    1    1    2    0    0 -0.55675914958E-02  0.94466480060E-03  0.42456683175E-01  0.42833650712E-01  0.51109989000E-03 0. -1.
     -623    1    1    2    0    0  0.27009734635E-01  0.98476821414E-02  0.17159225824E-02  0.17130000242E+03  0.17130000000E+03 0.  1.
      622    1    1    2    0    0 -0.21442143140E-01 -0.10792346942E-01  0.39558273616E+01  0.39571639283E+01  0.10000000000E+00 0. -1.
</event>
<event>
 5   0  0.6262544E+06  0.9118800E+02  0.7818608E-02  0.1180000E+00
       11   -1    0    0    0    0  0.00000000000E+00  0.00000000000E+00  0.39999999673E+01  0.40000000000E+01  0.51109989000E-03 0. -1.
     -623   -1    0    0    0    0  0.00000000000E+00  0.00000000000E+00  0.12525980253E-10  0.17130000000E+03  0.17130000000E+03 0.  1.
       11    1    1    2    0    0  0.48038827024E-02  0.16274407133E-01  0.63791040502E+00  0.63813625478E+00  0.51109989000E-03 0. -1.
     -623    1    1    2    0    0 -0.16603878224E-01 -0.10395871883E-01  0.17404058840E-02  0.17130000113E+03  0.17130000000E+03 0.  1.
      622    1    1    2    0    0  0.11799995522E-01 -0.58785352501E-02  0.33603491565E+01  0.33618626163E+01  0.10000000000E+00 0. -1.
</event>
<event>
 5   0  0.6262544E+06  0.9118800E+02  0.7818608E-02  0.1180000E+00
       11   -1    0    0    0    0  0.00000000000E+00  0.00000000000E+00  0.39999999673E+01  0.40000000000E+01  0.51109989000E-03 0.  1.
     -623   -1    0    0    0    0  0.00000000000E+00  0.00000000000E+00  0.12525980253E-10  0.17130000000E+03  0.17130000000E+03 0. -1.
       11    1    1    2    0    0 -0.35445109668E-02  0.18280288100E-01  0.10216135096E+01  0.10217833218E+01  0.51109989000E-03 0.  1.
     -623    1    1    2    0    0 -0.38174332643E-02  0.84752378422E-04  0.19149238577E-02  0.17130000005E+03  0.17130000000E+03 0. -1.
      622    1    1    2    0    0  0.73619442311E-02 -0.18365040479E-01  0.29764715339E+01  0.29782166250E+01  0.10000000000E+00 0.  1.
</event>
<event>
 5   0  0.6262544E+06  0.9118800E+02  0.7818608E-02  0.1180000E+00
       11   -1    0    0    0    0  0.00000000000E+00  0.00000000000E+00  0.39999999673E+01  0.40000000000E+01  0.51109989000E-03 0.  1.
     -623   -1    0    0    0    0  0.00000000000E+00  0.00000000000E+00  0.12525980253E-10  0.17130000000E+03  0.17130000000E+03 0. -1.
       11    1    1    2    0    0 -0.41451825880E-02  0.27540098213E-02  0.70289529246E-01  0.70467341747E-01  0.51109989000E-03 0.  1.
     -623    1    1    2    0    0  0.13539144634E-01  0.10148527749E-02  0.14639866249E-02  0.17130000054E+03  0.17130000000E+03 0. -1.
      622    1    1    2    0    0 -0.93939620461E-02 -0.37688625962E-02  0.39282464515E+01  0.39295321139E+01  0.10000000000E+00 0.  1.
</event>
<event>
 5   0  0.6262544E+06  0.9118800E+02  0.7818608E-02  0.1180000E+00
       11   -1    0    0    0    0  0.00000000000E+00  0.00000000000E+00  0.39999999673E+01  0.40000000000E+01  0.51109989000E-03 0.  1.
     -623   -1    0    0    0    0  0.00000000000E+00  0.00000000000E+00  0.12525980253E-10  0.17130000000E+03  0.17130000000E+03 0. -1.
       11    1    1    2    0    0  0.16459010114E-01  0.27960814922E-02  0.23967579813E+00  0.24025708421E+00  0.51109989000E-03 0.  1.
     -623    1    1    2    0    0  0.56584762589E-02 -0.75506664779E-02  0.19797247422E-02  0.17130000027E+03  0.17130000000E+03 0. -1.
      622    1    1    2    0    0 -0.22117486373E-01  0.47545849858E-02  0.37583444445E+01  0.37597426445E+01  0.10000000000E+00 0.  1.
</event>
<event>
 5   0  0.6262544E+06  0.9118800E+02  0.7818608E-02  0.1180000E+00
       11   -1    0    0    0    0  0.00000000000E+00  0.00000000000E+00  0.39999999673E+01  0.40000000000E+01  0.51109989000E-03 0.  1.
     -623   -1    0    0    0    0  0.00000000000E+00  0.00000000000E+00  0.12525980253E-10  0.17130000000E+03  0.17130000000E+03 0. -1.
       11    1    1    2    0    0  0.87037433667E-02 -0.22985900433E-01  0.14337868949E+00  0.14547101632E+00  0.51109989000E-03 0.  1.
     -623    1    1    2    0    0 -0.13828761342E-02 -0.20914699844E-02  0.34783006728E-02  0.17130000005E+03  0.17130000000E+03 0. -1.
      622    1    1    2    0    0 -0.73208672325E-02  0.25077370418E-01  0.38531429772E+01  0.38545289300E+01  0.10000000000E+00 0.  1.
</event>
<event>
 5   0  0.6262544E+06  0.9118800E+02  0.7818608E-02  0.1180000E+00
       11   -1    0    0    0    0  0.00000000000E+00  0.00000000000E+00  0.39999999673E+01  0.40000000000E+01  0.51109989000E-03 0.  1.
     -623   -1    0    0    0    0  0.00000000000E+00  0.00000000000E+00  0.12525980253E-10  0.17130000000E+03  0.17130000000E+03 0.  1.
       11    1    1    2    0    0  0.13247543774E+00 -0.15234127141E+00  0.11341597560E+01  0.11519879417E+01  0.51109989000E-03 0.  1.
     -623    1    1    2    0    0  0.37002002588E-01  0.19673892271E-01  0.27740943434E-01  0.17130000737E+03  0.17130000000E+03 0.  1.
      622    1    1    2    0    0 -0.16947744033E+00  0.13266737914E+00  0.28380992680E+01  0.28480046859E+01  0.10000000000E+00 0.  1.
</event>
<event>
 5   0  0.6262544E+06  0.9118800E+02  0.7818608E-02  0.1180000E+00
       11   -1    0    0    0    0  0.00000000000E+00  0.00000000000E+00  0.39999999673E+01  0.40000000000E+01  0.51109989000E-03 0.  1.
     -623   -1    0    0    0    0  0.00000000000E+00  0.00000000000E+00  0.12525980253E-10  0.17130000000E+03  0.17130000000E+03 0. -1.
       11    1    1    2    0    0  0.27583795332E-01 -0.42376247850E-01  0.48335038196E+00  0.48598813268E+00  0.51109989000E-03 0.  1.
     -623    1    1    2    0    0 -0.19950008838E-01  0.95297540473E-02  0.42242348454E-02  0.17130000148E+03  0.17130000000E+03 0. -1.
      622    1    1    2    0    0 -0.76337864941E-02  0.32846493803E-01  0.35124253506E+01  0.35140103884E+01  0.10000000000E+00 0.  1.
</event>
<event>
 5   0  0.6262544E+06  0.9118800E+02  0.7818608E-02  0.1180000E+00
       11   -1    0    0    0    0  0.00000000000E+00  0.00000000000E+00  0.39999999673E+01  0.40000000000E+01  0.51109989000E-03 0. -1.
     -623   -1    0    0    0    0  0.00000000000E+00  0.00000000000E+00  0.12525980253E-10  0.17130000000E+03  0.17130000000E+03 0. -1.
       11    1    1    2    0    0 -0.14144919345E-02  0.24343647359E-02  0.57040198977E-01  0.57111929065E-01  0.51109989000E-03 0. -1.
     -623    1    1    2    0    0 -0.27684471570E-03 -0.80885825908E-03  0.13407128635E-02  0.17130000001E+03  0.17130000000E+03 0. -1.
      622    1    1    2    0    0  0.16913366502E-02 -0.16255064768E-02  0.39416190557E+01  0.39428880637E+01  0.10000000000E+00 0. -1.
</event>
<event>
 5   0  0.6262544E+06  0.9118800E+02  0.7818608E-02  0.1180000E+00
       11   -1    0    0    0    0  0.00000000000E+00  0.00000000000E+00  0.39999999673E+01  0.40000000000E+01  0.51109989000E-03 0.  1.
     -623   -1    0    0    0    0  0.00000000000E+00  0.00000000000E+00  0.12525980253E-10  0.17130000000E+03  0.17130000000E+03 0. -1.
       11    1    1    2    0    0 -0.16903643948E-02  0.24966176995E-02  0.55840048293E-02  0.63665347526E-02  0.51109989000E-03 0.  1.
     -623    1    1    2    0    0 -0.53203452603E-02  0.80155161108E-03  0.20423008306E-02  0.17130000010E+03  0.17130000000E+03 0. -1.
      622    1    1    2    0    0  0.70107096553E-02 -0.32981693106E-02  0.39923736619E+01  0.39936333687E+01  0.10000000000E+00 0.  1.
</event>
<event>
 5   0  0.6262544E+06  0.9118800E+02  0.7818608E-02  0.1180000E+00
       11   -1    0    0    0    0  0.00000000000E+00  0.00000000000E+00  0.39999999673E+01  0.40000000000E+01  0.51109989000E-03 0. -1.
     -623   -1    0    0    0    0  0.00000000000E+00  0.00000000000E+00  0.12525980253E-10  0.17130000000E+03  0.17130000000E+03 0.  1.
       11    1    1    2    0    0 -0.37443690582E-01 -0.23461501332E-01  0.78925884199E+00  0.79049494172E+00  0.51109989000E-03 0. -1.
     -623    1    1    2    0    0  0.15491493147E-01  0.29175862091E-01  0.28777296126E-02  0.17130000321E+03  0.17130000000E+03 0.  1.
      622    1    1    2    0    0  0.21952197435E-01 -0.57143607591E-02  0.32078633958E+01  0.32095018490E+01  0.10000000000E+00 0.  0.
</event>
<event>
 5   0  0.6262544E+06  0.9118800E+02  0.7818608E-02  0.1180000E+00
       11   -1    0    0    0    0  0.00000000000E+00  0.00000000000E+00  0.39999999673E+01  0.40000000000E+01  0.51109989000E-03 0. -1.
     -623   -1    0    0    0    0  0.00000000000E+00  0.00000000000E+00  0.12525980253E-10  0.17130000000E+03  0.17130000000E+03 0. -1.
       11    1    1    2    0    0  0.11926443102E-01  0.88818734416E-02  0.16868758463E-01  0.22493197996E-01  0.51109989000E-03 0. -1.
     -623    1    1    2    0    0 -0.16760090268E-01 -0.15449204872E-01  0.68916916133E-02  0.17130000166E+03  0.17130000000E+03 0. -1.
      622    1    1    2    0    0  0.48336471654E-02  0.65673314305E-02  0.39762395173E+01  0.39775051468E+01  0.10000000000E+00 0. -1.
</event>
<event>
 5   0  0.6262544E+06  0.9118800E+02  0.7818608E-02  0.1180000E+00
       11   -1    0    0    0    0  0.00000000000E+00  0.00000000000E+00  0.39999999673E+01  0.40000000000E+01  0.51109989000E-03 0. -1.
     -623   -1    0    0    0    0  0.00000000000E+00  0.00000000000E+00  0.12525980253E-10  0.17130000000E+03  0.17130000000E+03 0.  1.
       11    1    1    2    0    0  0.50366432349E-02  0.58105303951E-03  0.14614478733E-01  0.15477390236E-01  0.51109989000E-03 0. -1.
     -623    1    1    2    0    0 -0.36946370994E-03  0.16966602274E-02  0.21213394186E-02  0.17130000002E+03  0.17130000000E+03 0.  1.
      622    1    1    2    0    0 -0.46671795250E-02 -0.22777132669E-02  0.39832641492E+01  0.39845225878E+01  0.10000000000E+00 0. -1.
</event>
<event>
 5   0  0.6262544E+06  0.9118800E+02  0.7818608E-02  0.1180000E+00
       11   -1    0    0    0    0  0.00000000000E+00  0.00000000000E+00  0.39999999673E+01  0.40000000000E+01  0.51109989000E-03 0. -1.
     -623   -1    0    0    0    0  0.00000000000E+00  0.00000000000E+00  0.12525980253E-10  0.17130000000E+03  0.17130000000E+03 0. -1.
       11    1    1    2    0    0  0.87919189222E-03 -0.25618385113E-01  0.87988741260E+00  0.88026086741E+00  0.51109989000E-03 0. -1.
     -623    1    1    2    0    0  0.63134061394E-02  0.97527467910E-02  0.20255979052E-02  0.17130000041E+03  0.17130000000E+03 0. -1.
      622    1    1    2    0    0 -0.71925980316E-02  0.15865638322E-01  0.31180869569E+01  0.31197387266E+01  0.10000000000E+00 0.  0.
</event>
<event>
 5   0  0.6262544E+06  0.9118800E+02  0.7818608E-02  0.1180000E+00
       11   -1    0    0    0    0  0.00000000000E+00  0.00000000000E+00  0.39999999673E+01  0.40000000000E+01  0.51109989000E-03 0.  1.
     -623   -1    0    0    0    0  0.00000000000E+00  0.00000000000E+00  0.12525980253E-10  0.17130000000E+03  0.17130000000E+03 0.  1.
       11    1    1    2    0    0  0.12148545205E-02  0.88682446213E-02  0.50664139267E-02  0.10298126400E-01  0.51109989000E-03 0.  1.
     -623    1    1    2    0    0 -0.30579653724E-02 -0.14633121314E-01  0.64904708254E-02  0.17130000078E+03  0.17130000000E+03 0.  1.
      622    1    1    2    0    0  0.18431108519E-02  0.57648766928E-02  0.39884430826E+01  0.39897010983E+01  0.10000000000E+00 0.  1.
</event>
<event>
 5   0  0.6262544E+06  0.9118800E+02  0.7818608E-02  0.1180000E+00
       11   -1    0    0    0    0  0.00000000000E+00  0.00000000000E+00  0.39999999673E+01  0.40000000000E+01  0.51109989000E-03 0.  1.
     -623   -1    0    0    0    0  0.00000000000E+00  0.00000000000E+00  0.12525980253E-10  0.17130000000E+03  0.17130000000E+03 0.  1.
       11    1    1    2    0    0 -0.42656383571E-02 -0.17591651068E-01  0.98048321968E-01  0.99706552045E-01  0.51109989000E-03 0.  1.
     -623    1    1    2    0    0  0.82506472534E-02  0.40922743375E-02  0.29660420406E-02  0.17130000027E+03  0.17130000000E+03 0.  1.
      622    1    1    2    0    0 -0.39850088962E-02  0.13499376730E-01  0.38989856034E+01  0.39002931747E+01  0.10000000000E+00 0.  1.
</event>
<event>
 5   0  0.6262544E+06  0.9118800E+02  0.7818608E-02  0.1180000E+00
       11   -1    0    0    0    0  0.00000000000E+00  0.00000000000E+00  0.39999999673E+01  0.40000000000E+01  0.51109989000E-03 0. -1.
     -623   -1    0    0    0    0  0.00000000000E+00  0.00000000000E+00  0.12525980253E-10  0.17130000000E+03  0.17130000000E+03 0. -1.
       11    1    1    2    0    0  0.10404655597E-01 -0.21241223929E-01  0.65286622859E-01  0.69440987873E-01  0.51109989000E-03 0. -1.
     -623    1    1    2    0    0  0.93137352686E-02  0.17096700045E-01  0.54794790313E-02  0.17130000119E+03  0.17130000000E+03 0. -1.
      622    1    1    2    0    0 -0.19718390866E-01  0.41445238842E-02  0.39292338655E+01  0.39305578181E+01  0.10000000000E+00 0. -1.
</event>
<event>
 5   0  0.6262544E+06  0.9118800E+02  0.7818608E-02  0.1180000E+00
       11   -1    0    0    0    0  0.00000000000E+00  0.00000000000E+00  0.39999999673E+01  0.40000000000E+01  0.51109989000E-03 0. -1.
     -623   -1    0    0    0    0  0.00000000000E+00  0.00000000000E+00  0.12525980253E-10  0.17130000000E+03  0.17130000000E+03 0.  1.
       11    1    1    2    0    0 -0.26339767251E-01 -0.40024275541E-01  0.25342300815E+00  0.25791317968E+00  0.51109989000E-03 0. -1.
     -623    1    1    2    0    0 -0.39687746008E-01  0.11168112658E-01  0.65257033521E-02  0.17130000509E+03  0.17130000000E+03 0.  1.
      622    1    1    2    0    0  0.66027513259E-01  0.28856162883E-01  0.37400512559E+01  0.37420817344E+01  0.10000000000E+00 0. -1.
</event>
<event>
 5   0  0.6262544E+06  0.9118800E+02  0.7818608E-02  0.1180000E+00
       11   -1    0    0    0    0  0.00000000000E+00  0.00000000000E+00  0.39999999673E+01  0.40000000000E+01  0.51109989000E-03 0.  1.
     -623   -1    0    0    0    0  0.00000000000E+00  0.00000000000E+00  0.12525980253E-10  0.17130000000E+03  0.17130000000E+03 0. -1.
       11    1    1    2    0    0  0.59300549200E-01 -0.45469918891E-01  0.89835104840E+00  0.90145379030E+00  0.51109989000E-03 0.  1.
     -623    1    1    2    0    0 -0.16869353864E-01  0.95359092712E-02  0.52171548853E-02  0.17130000118E+03  0.17130000000E+03 0. -1.
      622    1    1    2    0    0 -0.42431195336E-01  0.35934009620E-01  0.30964317642E+01  0.30985450343E+01  0.10000000000E+00 0.  0.
</event>
<event>
 5   0  0.6262544E+06  0.9118800E+02  0.7818608E-02  0.1180000E+00
       11   -1    0    0    0    0  0.00000000000E+00  0.00000000000E+00  0.39999999673E+01  0.40000000000E+01  0.51109989000E-03 0. -1.
     -623   -1    0    0    0    0  0.00000000000E+00  0.00000000000E+00  0.12525980253E-10  0.17130000000E+03  0.17130000000E+03 0. -1.
       11    1    1    2    0    0 -0.35631540275E-01 -0.40662357226E-01  0.11871289219E+01  0.11883595299E+01  0.51109989000E-03 0. -1.
     -623    1    1    2    0    0 -0.26767968664E-03 -0.49363919288E-02  0.36089505209E-02  0.17130000011E+03  0.17130000000E+03 0. -1.
      622    1    1    2    0    0  0.35899219962E-01  0.45598749154E-01  0.28092620950E+01  0.28116403607E+01  0.10000000000E+00 0.  0.
</event>
<event>
 5   0  0.6262544E+06  0.9118800E+02  0.7818608E-02  0.1180000E+00
       11   -1    0    0    0    0  0.00000000000E+00  0.00000000000E+00  0.39999999673E+01  0.40000000000E+01  0.51109989000E-03 0. -1.
     -623   -1    0    0    0    0  0.00000000000E+00  0.00000000000E+00  0.12525980253E-10  0.17130000000E+03  0.17130000000E+03 0.  1.
       11    1    1    2    0    0 -0.42787067901E-02 -0.27706127809E-02  0.11851143421E-01  0.12911020389E-01  0.51109989000E-03 0. -1.
     -623    1    1    2    0    0  0.15135415071E-02 -0.26778953138E-02  0.23188158265E-02  0.17130000004E+03  0.17130000000E+03 0.  1.
      622    1    1    2    0    0  0.27651652830E-02  0.54485080947E-02  0.39858300081E+01  0.39870889363E+01  0.10000000000E+00 0. -1.
</event>
<event>
 5   0  0.6262544E+06  0.9118800E+02  0.7818608E-02  0.1180000E+00
       11   -1    0    0    0    0  0.00000000000E+00  0.00000000000E+00  0.39999999673E+01  0.40000000000E+01  0.51109989000E-03 0.  1.
     -623   -1    0    0    0    0  0.00000000000E+00  0.00000000000E+00  0.12525980253E-10  0.17130000000E+03  0.17130000000E+03 0. -1.
       11    1    1    2    0    0 -0.20511520570E-02  0.21368185164E-02  0.10987584466E-01  0.11391288420E-01  0.51109989000E-03 0.  1.
     -623    1    1    2    0    0  0.72576561605E-02  0.30906491082E-02  0.16644539312E-02  0.17130000019E+03  0.17130000000E+03 0. -1.
      622    1    1    2    0    0 -0.52065041035E-02 -0.52274676246E-02  0.39873479290E+01  0.39886085219E+01  0.10000000000E+00 0.  1.
</event>
<event>
 5   0  0.6262544E+06  0.9118800E+02  0.7818608E-02  0.1180000E+00
       11   -1    0    0    0    0  0.00000000000E+00  0.00000000000E+00  0.39999999673E+01  0.40000000000E+01  0.51109989000E-03 0.  1.
     -623   -1    0    0    0    0  0.00000000000E+00  0.00000000000E+00  0.12525980253E-10  0.17130000000E+03  0.17130000000E+03 0.  1.
       11    1    1    2    0    0  0.16817833033E-01  0.18538188303E-01  0.13095353265E+00  0.13332513967E+00  0.51109989000E-03 0.  1.
     -623    1    1    2    0    0  0.66610141056E-02 -0.12193026823E-01  0.37420114262E-02  0.17130000060E+03  0.17130000000E+03 0.  1.
      622    1    1    2    0    0 -0.23478847139E-01 -0.63451614795E-02  0.38653044233E+01  0.38666742561E+01  0.10000000000E+00 0.  1.
</event>
<event>
 5   0  0.6262544E+06  0.9118800E+02  0.7818608E-02  0.1180000E+00
       11   -1    0    0    0    0  0.00000000000E+00  0.00000000000E+00  0.39999999673E+01  0.40000000000E+01  0.51109989000E-03 0.  1.
     -623   -1    0    0    0    0  0.00000000000E+00  0.00000000000E+00  0.12525980253E-10  0.17130000000E+03  0.17130000000E+03 0.  1.
       11    1    1    2    0    0  0.14258823447E-02 -0.12890522920E-02  0.38311266259E-02  0.43166596569E-02  0.51109989000E-03 0.  1.
     -623    1    1    2    0    0 -0.22393456116E-02  0.18414226325E-02  0.17372011885E-02  0.17130000003E+03  0.17130000000E+03 0.  1.
      622    1    1    2    0    0  0.81346326685E-03 -0.55237034052E-03  0.39944316395E+01  0.39956833070E+01  0.10000000000E+00 0.  1.
</event>
<event>
 5   0  0.6262544E+06  0.9118800E+02  0.7818608E-02  0.1180000E+00
       11   -1    0    0    0    0  0.00000000000E+00  0.00000000000E+00  0.39999999673E+01  0.40000000000E+01  0.51109989000E-03 0. -1.
     -623   -1    0    0    0    0  0.00000000000E+00  0.00000000000E+00  0.12525980253E-10  0.17130000000E+03  0.17130000000E+03 0. -1.
       11    1    1    2    0    0 -0.26766382963E-03 -0.16385706984E-02  0.15904074279E-01  0.15998667369E-01  0.51109989000E-03 0. -1.
     -623    1    1    2    0    0  0.15793897500E-02  0.16796273371E-02  0.13500149117E-02  0.17130000002E+03  0.17130000000E+03 0. -1.
      622    1    1    2    0    0 -0.13117259204E-02 -0.41056638661E-04  0.39827458782E+01  0.39840013118E+01  0.10000000000E+00 0. -1.
</event>
<event>
 5   0  0.6262544E+06  0.9118800E+02  0.7818608E-02  0.1180000E+00
       11   -1    0    0    0    0  0.00000000000E+00  0.00000000000E+00  0.39999999673E+01  0.40000000000E+01  0.51109989000E-03 0.  1.
     -623   -1    0    0    0    0  0.00000000000E+00  0.00000000000E+00  0.12525980253E-10  0.17130000000E+03  0.17130000000E+03 0.  1.
       11    1    1    2    0    0 -0.48304856743E-03 -0.22012507994E-02  0.22513175756E-03  0.23217985284E-02  0.51109989000E-03 0.  1.
     -623    1    1    2    0    0 -0.16435775640E-02  0.19874052786E-02  0.33481795237E-02  0.17130000005E+03  0.17130000000E+03 0.  1.
      622    1    1    2    0    0  0.21266261315E-02  0.21384552081E-03  0.39964266561E+01  0.39976781494E+01  0.10000000000E+00 0.  1.
</event>
<event>
 5   0  0.6262544E+06  0.9118800E+02  0.7818608E-02  0.1180000E+00
       11   -1    0    0    0    0  0.00000000000E+00  0.00000000000E+00  0.39999999673E+01  0.40000000000E+01  0.51109989000E-03 0. -1.
     -623   -1    0    0    0    0  0.00000000000E+00  0.00000000000E+00  0.12525980253E-10  0.17130000000E+03  0.17130000000E+03 0.  1.
       11    1    1    2    0    0  0.69949403585E-02  0.19487652525E-01  0.32067835185E+00  0.32134648646E+00  0.51109989000E-03 0. -1.
     -623    1    1    2    0    0  0.57188815466E-03 -0.18187673657E-02  0.20778031488E-02  0.17130000002E+03  0.17130000000E+03 0.  1.
      622    1    1    2    0    0 -0.75668285132E-02 -0.17668885160E-01  0.36772438124E+01  0.36786534903E+01  0.10000000000E+00 0. -1.
</event>
<event>
 5   0  0.6262544E+06  0.9118800E+02  0.7818608E-02  0.1180000E+00
       11   -1    0    0    0    0  0.00000000000E+00  0.00000000000E+00  0.39999999673E+01  0.40000000000E+01  0.51109989000E-03 0.  1.
     -623   -1    0    0    0    0  0.00000000000E+00  0.00000000000E+00  0.12525980253E-10  0.17130000000E+03  0.17130000000E+03 0. -1.
       11    1    1    2    0    0  0.21142550150E-01 -0.19480933042E-01  0.15354497219E+00  0.15621406431E+00  0.51109989000E-03 0.  1.
     -623    1    1    2    0    0  0.46087660575E-02  0.90102609938E-02  0.40709846908E-02  0.17130000035E+03  0.17130000000E+03 0. -1.
      622    1    1    2    0    0 -0.25751316207E-01  0.10470672048E-01  0.38423840106E+01  0.38437855885E+01  0.10000000000E+00 0.  1.
</event>
<event>
 5   0  0.6262544E+06  0.9118800E+02  0.7818608E-02  0.1180000E+00
       11   -1    0    0    0    0  0.00000000000E+00  0.00000000000E+00  0.39999999673E+01  0.40000000000E+01  0.51109989000E-03 0.  1.
     -623   -1    0    0    0    0  0.00000000000E+00  0.00000000000E+00  0.12525980253E-10  0.17130000000E+03  0.17130000000E+03 0.  1.
       11    1    1    2    0    0  0.14409575216E-02  0.19704846124E-02  0.13021731870E-01  0.13258427124E-01  0.51109989000E-03 0.  1.
     -623    1    1    2    0    0 -0.74623656857E-04  0.21261839828E-02  0.14933763931E-02  0.17130000002E+03  0.17130000000E+03 0.  1.
      622    1    1    2    0    0 -0.13663338647E-02 -0.40966685953E-02  0.39854848591E+01  0.39867415532E+01  0.10000000000E+00 0.  1.
</event>
<event>
 5   0  0.6262544E+06  0.9118800E+02  0.7818608E-02  0.1180000E+00
       11   -1    0    0    0    0  0.00000000000E+00  0.00000000000E+00  0.39999999673E+01  0.40000000000E+01  0.51109989000E-03 0. -1.
     -623   -1    0    0    0    0  0.00000000000E+00  0.00000000000E+00  0.12525980253E-10  0.17130000000E+03  0.17130000000E+03 0. -1.
       11    1    1    2    0    0 -0.28536574032E-01 -0.39775898092E-02  0.14002356155E+01  0.14005321123E+01  0.51109989000E-03 0. -1.
     -623    1    1    2    0    0  0.12455438472E-01 -0.45266867307E-02  0.22848756225E-02  0.17130000053E+03  0.17130000000E+03 0. -1.
      622    1    1    2    0    0  0.16081135560E-01  0.85042765399E-02  0.25974794762E+01  0.25994673599E+01  0.10000000000E+00 0. -1.
</event>
<event>
 5   0  0.6262544E+06  0.9118800E+02  0.7818608E-02  0.1180000E+00
       11   -1    0    0    0    0  0.00000000000E+00  0.00000000000E+00  0.39999999673E+01  0.40000000000E+01  0.51109989000E-03 0.  1.
     -623   -1    0    0    0    0  0.00000000000E+00  0.00000000000E+00  0.12525980253E-10  0.17130000000E+03  0.17130000000E+03 0.  1.
       11    1    1    2    0    0 -0.18174667965E-01  0.13995176474E-01  0.33713601000E+00  0.33791586820E+00  0.51109989000E-03 0.  1.
     -623    1    1    2    0    0 -0.96842883537E-02 -0.97949480106E-02  0.22544097095E-02  0.17130000057E+03  0.17130000000E+03 0.  1.
      622    1    1    2    0    0  0.27858956319E-01 -0.42002284629E-02  0.36606095477E+01  0.36620835633E+01  0.10000000000E+00 0.  1.
</event>
<event>
 5   0  0.6262544E+06  0.9118800E+02  0.7818608E-02  0.1180000E+00
       11   -1    0    0    0    0  0.00000000000E+00  0.00000000000E+00  0.39999999673E+01  0.40000000000E+01  0.51109989000E-03 0.  1.
     -623   -1    0    0    0    0  0.00000000000E+00  0.00000000000E+00  0.12525980253E-10  0.17130000000E+03  0.17130000000E+03 0.  1.
       11    1    1    2    0    0 -0.26012855549E-02  0.14292692588E-02  0.84572197319E-03  0.31282528519E-02  0.51109989000E-03 0.  1.
     -623    1    1    2    0    0  0.11943300022E-01  0.62940408105E-02  0.35526269344E-02  0.17130000057E+03  0.17130000000E+03 0.  1.
      622    1    1    2    0    0 -0.93420144670E-02 -0.77233100693E-02  0.39956016185E+01  0.39968711783E+01  0.10000000000E+00 0.  1.
</event>
<event>
 5   0  0.6262544E+06  0.9118800E+02  0.7818608E-02  0.1180000E+00
       11   -1    0    0    0    0  0.00000000000E+00  0.00000000000E+00  0.39999999673E+01  0.40000000000E+01  0.51109989000E-03 0. -1.
     -623   -1    0    0    0    0  0.00000000000E+00  0.00000000000E+00  0.12525980253E-10  0.17130000000E+03  0.17130000000E+03 0.  1.
       11    1    1    2    0    0 -0.24552857183E-02  0.25506260363E-02 -0.19670886581E-02  0.40822520773E-02  0.51109989000E-03 0. -1.
     -623    1    1    2    0    0  0.47451446351E-02 -0.12121008320E-02  0.73018873451E-02  0.17130000023E+03  0.17130000000E+03 0.  1.
      622    1    1    2    0    0 -0.22898589167E-02 -0.13385252043E-02  0.39946651687E+01  0.39959175223E+01  0.10000000000E+00 0. -1.
</event>
<event>
 5   0  0.6262544E+06  0.9118800E+02  0.7818608E-02  0.1180000E+00
       11   -1    0    0    0    0  0.00000000000E+00  0.00000000000E+00  0.39999999673E+01  0.40000000000E+01  0.51109989000E-03 0. -1.
     -623   -1    0    0    0    0  0.00000000000E+00  0.00000000000E+00  0.12525980253E-10  0.17130000000E+03  0.17130000000E+03 0. -1.
       11    1    1    2    0    0 -0.32384681562E-03 -0.13520190817E-02  0.44707530952E-02  0.47097440156E-02  0.51109989000E-03 0. -1.
     -623    1    1    2    0    0  0.76623696637E-02  0.18229483785E-02  0.14975851086E-02  0.17130000019E+03  0.17130000000E+03 0. -1.
      622    1    1    2    0    0 -0.73385228486E-02 -0.47092929689E-03  0.39940316294E+01  0.39952900686E+01  0.10000000000E+00 0. -1.
</event>
<event>
 5   0  0.6262544E+06  0.9118800E+02  0.7818608E-02  0.1180000E+00
       11   -1    0    0    0    0  0.00000000000E+00  0.00000000000E+00  0.39999999673E+01  0.40000000000E+01  0.51109989000E-03 0. -1.
     -623   -1    0    0    0    0  0.00000000000E+00  0.00000000000E+00  0.12525980253E-10  0.17130000000E+03  0.17130000000E+03 0. -1.
       11    1    1    2    0    0  0.45059345003E-02  0.35175225644E-01  0.74410958494E+00  0.74495431777E+00  0.51109989000E-03 0. -1.
     -623    1    1    2    0    0 -0.13212176529E-01 -0.61223416852E-03  0.25769108910E-02  0.17130000053E+03  0.17130000000E+03 0. -1.
      622    1    1    2    0    0  0.87062420287E-02 -0.34562991475E-01  0.32533134714E+01  0.32550451521E+01  0.10000000000E+00 0. -1.
</event>
<event>
 5   0  0.6262544E+06  0.9118800E+02  0.7818608E-02  0.1180000E+00
       11   -1    0    0    0    0  0.00000000000E+00  0.00000000000E+00  0.39999999673E+01  0.40000000000E+01  0.51109989000E-03 0. -1.
     -623   -1    0    0    0    0  0.00000000000E+00  0.00000000000E+00  0.12525980253E-10  0.17130000000E+03  0.17130000000E+03 0.  1.
       11    1    1    2    0    0 -0.15507293724E-03 -0.45715814775E-03  0.15726349619E+00  0.15726506763E+00  0.51109989000E-03 0. -1.
     -623    1    1    2    0    0 -0.13680525948E-02  0.90539640117E-03  0.13032567095E-02  0.17130000001E+03  0.17130000000E+03 0.  1.
      622    1    1    2    0    0  0.15231255320E-02 -0.44823825341E-03  0.38414332145E+01  0.38427349196E+01  0.10000000000E+00 0. -1.
</event>
<event>
 5   0  0.6262544E+06  0.9118800E+02  0.7818608E-02  0.1180000E+00
       11   -1    0    0    0    0  0.00000000000E+00  0.00000000000E+00  0.39999999673E+01  0.40000000000E+01  0.51109989000E-03 0. -1.
     -623   -1    0    0    0    0  0.00000000000E+00  0.00000000000E+00  0.12525980253E-10  0.17130000000E+03  0.17130000000E+03 0. -1.
       11    1    1    2    0    0 -0.43548182481E-02  0.32537468927E-01  0.55240321468E+00  0.55337801197E+00  0.51109989000E-03 0. -1.
     -623    1    1    2    0    0 -0.58585250421E-02 -0.13247772919E-01  0.24955384185E-02  0.17130000063E+03  0.17130000000E+03 0. -1.
      622    1    1    2    0    0  0.10213343290E-01 -0.19289696008E-01  0.34451012143E+01  0.34466213574E+01  0.10000000000E+00 0.  0.
</event>
<event>
 5   0  0.6262544E+06  0.9118800E+02  0.7818608E-02  0.1180000E+00
       11   -1    0    0    0    0  0.00000000000E+00  0.00000000000E+00  0.39999999673E+01  0.40000000000E+01  0.51109989000E-03 0.  1.
     -623   -1    0    0    0    0  0.00000000000E+00  0.00000000000E+00  0.12525980253E-10  0.17130000000E+03  0.17130000000E+03 0. -1.
       11    1    1    2    0    0  0.20194525570E-03 -0.38200140729E-01  0.50198564301E+00  0.50343732335E+00  0.51109989000E-03 0.  1.
     -623    1    1    2    0    0  0.16331144716E-02  0.94725529124E-02  0.30007563930E-02  0.17130000030E+03  0.17130000000E+03 0. -1.
      622    1    1    2    0    0 -0.18350597273E-02  0.28727587816E-01  0.34950135680E+01  0.34965623807E+01  0.10000000000E+00 0.  0.
</event>
<event>
 5   0  0.6262544E+06  0.9118800E+02  0.7818608E-02  0.1180000E+00
       11   -1    0    0    0    0  0.00000000000E+00  0.00000000000E+00  0.39999999673E+01  0.40000000000E+01  0.51109989000E-03 0.  1.
     -623   -1    0    0    0    0  0.00000000000E+00  0.00000000000E+00  0.12525980253E-10  0.17130000000E+03  0.17130000000E+03 0.  1.
       11    1    1    2    0    0  0.20108576285E-01 -0.12969707486E-01  0.17792905359E+00  0.17953155011E+00  0.51109989000E-03 0.  1.
     -623    1    1    2    0    0 -0.91039053536E-02  0.12267251605E-01  0.29280538607E-02  0.17130000071E+03  0.17130000000E+03 0.  1.
      622    1    1    2    0    0 -0.11004670931E-01  0.70245588139E-03  0.38191428600E+01  0.38204677438E+01  0.10000000000E+00 0.  1.
</event>
<event>
 5   0  0.6262544E+06  0.9118800E+02  0.7818608E-02  0.1180000E+00
       11   -1    0    0    0    0  0.00000000000E+00  0.00000000000E+00  0.39999999673E+01  0.40000000000E+01  0.51109989000E-03 0.  1.
     -623   -1    0    0    0    0  0.00000000000E+00  0.00000000000E+00  0.12525980253E-10  0.17130000000E+03  0.17130000000E+03 0.  1.
       11    1    1    2    0    0 -0.12575726521E-02  0.52964210094E-02  0.78843072287E-02  0.95946385059E-02  0.51109989000E-03 0.  1.
     -623    1    1    2    0    0 -0.16638167120E-01  0.10565438060E-02  0.30095389921E-02  0.17130000084E+03  0.17130000000E+03 0.  1.
      622    1    1    2    0    0  0.17895739772E-01 -0.63529648155E-02  0.39891061213E+01  0.39904045239E+01  0.10000000000E+00 0.  1.
</event>
<event>
 5   0  0.6262544E+06  0.9118800E+02  0.7818608E-02  0.1180000E+00
       11   -1    0    0    0    0  0.00000000000E+00  0.00000000000E+00  0.39999999673E+01  0.40000000000E+01  0.51109989000E-03 0. -1.
     -623   -1    0    0    0    0  0.00000000000E+00  0.00000000000E+00  0.12525980253E-10  0.17130000000E+03  0.17130000000E+03 0. -1.
       11    1    1    2    0    0  0.13711782316E-02 -0.34436419827E-02  0.16630231859E-01  0.17045956548E-01  0.51109989000E-03 0. -1.
     -623    1    1    2    0    0 -0.46455562509E-02  0.32542212953E-02  0.16726925625E-02  0.17130000010E+03  0.17130000000E+03 0. -1.
      622    1    1    2    0    0  0.32743780195E-02  0.18942068725E-03  0.39816970431E+01  0.39829539415E+01  0.10000000000E+00 0. -1.
</event>
<event>
 5   0  0.6262544E+06  0.9118800E+02  0.7818608E-02  0.1180000E+00
       11   -1    0    0    0    0  0.00000000000E+00  0.00000000000E+00  0.39999999673E+01  0.40000000000E+01  0.51109989000E-03 0. -1.
     -623   -1    0    0    0    0  0.00000000000E+00  0.00000000000E+00  0.12525980253E-10  0.17130000000E+03  0.17130000000E+03 0. -1.
       11    1    1    2    0    0  0.14798904815E-01 -0.40124131196E-02  0.12933052886E-01  0.20065695174E-01  0.51109989000E-03 0. -1.
     -623    1    1    2    0    0 -0.25264782035E-01 -0.69632771631E-02  0.84202266829E-02  0.17130000221E+03  0.17130000000E+03 0. -1.
      622    1    1    2    0    0  0.10465877220E-01  0.10975690283E-01  0.39786466878E+01  0.39799320932E+01  0.10000000000E+00 0. -1.
</event>
<event>
 5   0  0.6262544E+06  0.9118800E+02  0.7818608E-02  0.1180000E+00
       11   -1    0    0    0    0  0.00000000000E+00  0.00000000000E+00  0.39999999673E+01  0.40000000000E+01  0.51109989000E-03 0.  1.
     -623   -1    0    0    0    0  0.00000000000E+00  0.00000000000E+00  0.12525980253E-10  0.17130000000E+03  0.17130000000E+03 0. -1.
       11    1    1    2    0    0  0.47582516411E-02  0.16200288744E-01  0.26814762621E+00  0.26867917854E+00  0.51109989000E-03 0.  1.
     -623    1    1    2    0    0 -0.95951015088E-02 -0.37628925819E-02  0.18959611630E-02  0.17130000032E+03  0.17130000000E+03 0. -1.
      622    1    1    2    0    0  0.48368498681E-02 -0.12437396162E-01  0.37299563801E+01  0.37313205011E+01  0.10000000000E+00 0.  1.
</event>
<event>
 5   0  0.6262544E+06  0.9118800E+02  0.7818608E-02  0.1180000E+00
       11   -1    0    0    0    0  0.00000000000E+00  0.00000000000E+00  0.39999999673E+01  0.40000000000E+01  0.51109989000E-03 0. -1.
     -623   -1    0    0    0    0  0.00000000000E+00  0.00000000000E+00  0.12525980253E-10  0.17130000000E+03  0.17130000000E+03 0.  1.
       11    1    1    2    0    0 -0.63053144809E-02  0.40914431016E-02  0.11039393951E+00  0.11065071171E+00  0.51109989000E-03 0. -1.
     -623    1    1    2    0    0 -0.96558896070E-03 -0.29032106511E-02  0.15495285990E-02  0.17130000003E+03  0.17130000000E+03 0.  1.
      622    1    1    2    0    0  0.72709034416E-02 -0.11882324504E-02  0.38880564994E+01  0.38893492541E+01  0.10000000000E+00 0. -1.
</event>
<event>
 5   0  0.6262544E+06  0.9118800E+02  0.7818608E-02  0.1180000E+00
       11   -1    0    0    0    0  0.00000000000E+00  0.00000000000E+00  0.39999999673E+01  0.40000000000E+01  0.51109989000E-03 0. -1.
     -623   -1    0    0    0    0  0.00000000000E+00  0.00000000000E+00  0.12525980253E-10  0.17130000000E+03  0.17130000000E+03 0.  1.
       11    1    1    2    0    0  0.96999672576E-02  0.74031890965E-02  0.55573557523E-02  0.13417973008E-01  0.51109989000E-03 0. -1.
     -623    1    1    2    0    0 -0.92299614080E-02  0.36105397537E-03  0.91230722351E-02  0.17130000049E+03  0.17130000000E+03 0.  1.
      622    1    1    2    0    0 -0.47000584968E-03 -0.77642430719E-02  0.39853195394E+01  0.39865815350E+01  0.10000000000E+00 0. -1.
</event>
<event>
 5   0  0.6262544E+06  0.9118800E+02  0.7818608E-02  0.1180000E+00
       11   -1    0    0    0    0  0.00000000000E+00  0.00000000000E+00  0.39999999673E+01  0.40000000000E+01  0.51109989000E-03 0.  1.
     -623   -1    0    0    0    0  0.00000000000E+00  0.00000000000E+00  0.12525980253E-10  0.17130000000E+03  0.17130000000E+03 0. -1.
       11    1    1    2    0    0 -0.12009317837E-01  0.93810787418E-02  0.10597093859E-01  0.18568467176E-01  0.51109989000E-03 0.  1.
     -623    1    1    2    0    0  0.18572969012E-01 -0.88496867889E-02  0.92343008333E-02  0.17130000148E+03  0.17130000000E+03 0. -1.
      622    1    1    2    0    0 -0.65636511752E-02 -0.53139195294E-03  0.39801685727E+01  0.39814300485E+01  0.10000000000E+00 0.  1.
</event>
<event>
 5   0  0.6262544E+06  0.9118800E+02  0.7818608E-02  0.1180000E+00
       11   -1    0    0    0    0  0.00000000000E+00  0.00000000000E+00  0.39999999673E+01  0.40000000000E+01  0.51109989000E-03 0. -1.
     -623   -1    0    0    0    0  0.00000000000E+00  0.00000000000E+00  0.12525980253E-10  0.17130000000E+03  0.17130000000E+03 0. -1.
       11    1    1    2    0    0  0.30948966113E-02  0.14654082884E-02  0.20110560092E-01  0.20406412149E-01  0.51109989000E-03 0. -1.
     -623    1    1    2    0    0  0.14347132495E-03 -0.19610328331E-02  0.15537947425E-02  0.17130000002E+03  0.17130000000E+03 0. -1.
      622    1    1    2    0    0 -0.32383679362E-02  0.49562454479E-03  0.39783356128E+01  0.39795935698E+01  0.10000000000E+00 0. -1.
</event>
<event>
 5   0  0.6262544E+06  0.9118800E+02  0.7818608E-02  0.1180000E+00
       11   -1    0    0    0    0  0.00000000000E+00  0.00000000000E+00  0.39999999673E+01  0.40000000000E+01  0.51109989000E-03 0.  1.
     -623   -1    0    0    0    0  0.00000000000E+00  0.00000000000E+00  0.12525980253E-10  0.17130000000E+03  0.17130000000E+03 0. -1.
       11    1    1    2    0    0  0.98686967768E-02  0.29185857955E-02  0.47237468773E-01  0.48348205740E-01  0.51109989000E-03 0.  1.
     -623    1    1    2    0    0 -0.26122935123E-02  0.50412687684E-02  0.23909954460E-02  0.17130000011E+03  0.17130000000E+03 0. -1.
      622    1    1    2    0    0 -0.72564032645E-02 -0.79598545640E-02  0.39503715032E+01  0.39516516835E+01  0.10000000000E+00 0.  1.
</event>
<event>
 5   0  0.6262544E+06  0.9118800E+02  0.7818608E-02  0.1180000E+00
       11   -1    0    0    0    0  0.00000000000E+00  0.00000000000E+00  0.39999999673E+01  0.40000000000E+01  0.51109989000E-03 0.  1.
     -623   -1    0    0    0    0  0.00000000000E+00  0.00000000000E+00  0.12525980253E-10  0.17130000000E+03  0.17130000000E+03 0. -1.
       11    1    1    2    0    0 -0.15142728795E-01 -0.25594434172E-01  0.23638634666E+00  0.23825016979E+00  0.51109989000E-03 0.  1.
     -623    1    1    2    0    0  0.11776081485E-01  0.33384114111E-02  0.32610313011E-02  0.17130000047E+03  0.17130000000E+03 0. -1.
      622    1    1    2    0    0  0.33666473104E-02  0.22256022761E-01  0.37603525894E+01  0.37617493618E+01  0.10000000000E+00 0.  0.
</event>
<event>
 5   0  0.6262544E+06  0.9118800E+02  0.7818608E-02  0.1180000E+00
       11   -1    0    0    0    0  0.00000000000E+00  0.00000000000E+00  0.39999999673E+01  0.40000000000E+01  0.51109989000E-03 0.  1.
     -623   -1    0    0    0    0  0.00000000000E+00  0.00000000000E+00  0.12525980253E-10  0.17130000000E+03  0.17130000000E+03 0. -1.
       11    1    1    2    0    0 -0.11806995530E-01 -0.17160032593E-01  0.73449361054E+00  0.73478908335E+00  0.51109989000E-03 0.  1.
     -623    1    1    2    0    0 -0.75775771464E-03  0.26814579952E-02  0.18834293883E-02  0.17130000003E+03  0.17130000000E+03 0. -1.
      622    1    1    2    0    0  0.12564753244E-01  0.14478574597E-01  0.32636229274E+01  0.32652108836E+01  0.10000000000E+00 0.  1.
</event>
<event>
 5   0  0.6262544E+06  0.9118800E+02  0.7818608E-02  0.1180000E+00
       11   -1    0    0    0    0  0.00000000000E+00  0.00000000000E+00  0.39999999673E+01  0.40000000000E+01  0.51109989000E-03 0.  1.
     -623   -1    0    0    0    0  0.00000000000E+00  0.00000000000E+00  0.12525980253E-10  0.17130000000E+03  0.17130000000E+03 0. -1.
       11    1    1    2    0    0  0.28012496697E-01  0.17205035794E-01  0.66390366301E-01  0.74085458664E-01  0.51109989000E-03 0.  1.
     -623    1    1    2    0    0 -0.21345413942E-01 -0.24165202784E-02  0.90039646133E-02  0.17130000158E+03  0.17130000000E+03 0. -1.
      622    1    1    2    0    0 -0.66670827544E-02 -0.14788515515E-01  0.39246056364E+01  0.39259129577E+01  0.10000000000E+00 0.  1.
</event>
<event>
 5   0  0.6262544E+06  0.9118800E+02  0.7818608E-02  0.1180000E+00
       11   -1    0    0    0    0  0.00000000000E+00  0.00000000000E+00  0.39999999673E+01  0.40000000000E+01  0.51109989000E-03 0.  1.
     -623   -1    0    0    0    0  0.00000000000E+00  0.00000000000E+00  0.12525980253E-10  0.17130000000E+03  0.17130000000E+03 0. -1.
       11    1    1    2    0    0 -0.32951529509E-02 -0.76720154452E-02  0.16816113072E-01  0.18781925778E-01  0.51109989000E-03 0.  1.
     -623    1    1    2    0    0 -0.28918282068E-02  0.10953297302E-02  0.32321764476E-02  0.17130000006E+03  0.17130000000E+03 0. -1.
      622    1    1    2    0    0  0.61869811577E-02  0.65766857151E-02  0.39799516779E+01  0.39812180159E+01  0.10000000000E+00 0.  1.
</event>
<event>
 5   0  0.6262544E+06  0.9118800E+02  0.7818608E-02  0.1180000E+00
       11   -1    0    0    0    0  0.00000000000E+00  0.00000000000E+00  0.39999999673E+01  0.40000000000E+01  0.51109989000E-03 0. -1.
     -623   -1    0    0    0    0  0.00000000000E+00  0.00000000000E+00  0.12525980253E-10  0.17130000000E+03  0.17130000000E+03 0. -1.
       11    1    1    2    0    0 -0.39178853672E-02 -0.26286888996E-02  0.39712903337E-01  0.39995446529E-01  0.51109989000E-03 0. -1.
     -623    1    1    2    0    0  0.16362908008E-02  0.15658299409E-03  0.15467809581E-02  0.17130000001E+03  0.17130000000E+03 0. -1.
      622    1    1    2    0    0  0.22815945664E-02  0.24721059055E-02  0.39587402831E+01  0.39600045386E+01  0.10000000000E+00 0. -1.
</event>
<event>
 5   0  0.6262544E+06  0.9118800E+02  0.7818608E-02  0.1180000E+00
       11   -1    0    0    0    0  0.00000000000E+00  0.00000000000E+00  0.39999999673E+01  0.40000000000E+01  0.51109989000E-03 0. -1.
     -623   -1    0    0    0    0  0.00000000000E+00  0.00000000000E+00  0.12525980253E-10  0.17130000000E+03  0.17130000000E+03 0. -1.
       11    1    1    2    0    0  0.17501996962E-02  0.24138960444E-02  0.67631885728E-01  0.67699507254E-01  0.51109989000E-03 0. -1.
     -623    1    1    2    0    0 -0.41128296995E-02  0.26813193778E-02  0.13434025899E-02  0.17130000008E+03  0.17130000000E+03 0. -1.
      622    1    1    2    0    0  0.23626300033E-02 -0.50952154221E-02  0.39310246790E+01  0.39323004171E+01  0.10000000000E+00 0. -1.
</event>
<event>
 5   0  0.6262544E+06  0.9118800E+02  0.7818608E-02  0.1180000E+00
       11   -1    0    0    0    0  0.00000000000E+00  0.00000000000E+00  0.39999999673E+01  0.40000000000E+01  0.51109989000E-03 0. -1.
     -623   -1    0    0    0    0  0.00000000000E+00  0.00000000000E+00  0.12525980253E-10  0.17130000000E+03  0.17130000000E+03 0.  1.
       11    1    1    2    0    0 -0.13832933568E-01  0.11459867500E-01  0.24966966515E+00  0.25031556391E+00  0.51109989000E-03 0. -1.
     -623    1    1    2    0    0  0.45158030324E-02 -0.17672537820E-01  0.19972601933E-02  0.17130000098E+03  0.17130000000E+03 0.  1.
      622    1    1    2    0    0  0.93171305355E-02  0.62126703208E-02  0.37483330422E+01  0.37496834535E+01  0.10000000000E+00 0. -1.
</event>
<event>
 5   0  0.6262544E+06  0.9118800E+02  0.7818608E-02  0.1180000E+00
       11   -1    0    0    0    0  0.00000000000E+00  0.00000000000E+00  0.39999999673E+01  0.40000000000E+01  0.51109989000E-03 0.  1.
     -623   -1    0    0    0    0  0.00000000000E+00  0.00000000000E+00  0.12525980253E-10  0.17130000000E+03  0.17130000000E+03 0. -1.
       11    1    1    2    0    0 -0.19823681102E-01 -0.81576021979E-02  0.13976330778E+01  0.13977975555E+01  0.51109989000E-03 0.  1.
     -623    1    1    2    0    0  0.88125274094E-02  0.45096025366E-02  0.21127765493E-02  0.17130000030E+03  0.17130000000E+03 0. -1.
      622    1    1    2    0    0  0.11011153692E-01  0.36479996611E-02  0.26002541132E+01  0.26022021456E+01  0.10000000000E+00 0.  0.
</event>
<event>
 5   0  0.6262544E+06  0.9118800E+02  0.7818608E-02  0.1180000E+00
       11   -1    0    0    0    0  0.00000000000E+00  0.00000000000E+00  0.39999999673E+01  0.40000000000E+01  0.51109989000E-03 0.  1.
     -623   -1    0    0    0    0  0.00000000000E+00  0.00000000000E+00  0.12525980253E-10  0.17130000000E+03  0.17130000000E+03 0.  1.
       11    1    1    2    0    0 -0.60302281264E-02 -0.51049019236E-03  0.22438184745E-01  0.23245593330E-01  0.51109989000E-03 0.  1.
     -623    1    1    2    0    0  0.63050334061E-03  0.64806195467E-02  0.20731676777E-02  0.17130000014E+03  0.17130000000E+03 0.  1.
      622    1    1    2    0    0  0.53997247858E-02 -0.59701293548E-02  0.39754886152E+01  0.39767542707E+01  0.10000000000E+00 0.  1.
</event>
<event>
 5   0  0.6262544E+06  0.9118800E+02  0.7818608E-02  0.1180000E+00
       11   -1    0    0    0    0  0.00000000000E+00  0.00000000000E+00  0.39999999673E+01  0.40000000000E+01  0.51109989000E-03 0.  1.
     -623   -1    0    0    0    0  0.00000000000E+00  0.00000000000E+00  0.12525980253E-10  0.17130000000E+03  0.17130000000E+03 0.  1.
       11    1    1    2    0    0 -0.99400089906E-03 -0.46292690033E-02  0.18317819020E-01  0.18926750541E-01  0.51109989000E-03 0.  1.
     -623    1    1    2    0    0  0.39290592801E-02 -0.23292236172E-02  0.18722764936E-02  0.17130000007E+03  0.17130000000E+03 0.  1.
      622    1    1    2    0    0 -0.29350583810E-02  0.69584926205E-02  0.39798098718E+01  0.39810731783E+01  0.10000000000E+00 0.  1.
</event>
<event>
 5   0  0.6262544E+06  0.9118800E+02  0.7818608E-02  0.1180000E+00
       11   -1    0    0    0    0  0.00000000000E+00  0.00000000000E+00  0.39999999673E+01  0.40000000000E+01  0.51109989000E-03 0. -1.
     -623   -1    0    0    0    0  0.00000000000E+00  0.00000000000E+00  0.12525980253E-10  0.17130000000E+03  0.17130000000E+03 0.  1.
       11    1    1    2    0    0  0.68426843438E-02 -0.15031332046E-01  0.13894949545E+00  0.13992850596E+00  0.51109989000E-03 0. -1.
     -623    1    1    2    0    0 -0.94604164363E-02  0.21541505285E-01  0.22825191256E-02  0.17130000163E+03  0.17130000000E+03 0.  1.
      622    1    1    2    0    0  0.26177320927E-02 -0.65101732400E-02  0.38587679529E+01  0.38600698632E+01  0.10000000000E+00 0. -1.
</event>
<event>
 5   0  0.6262544E+06  0.9118800E+02  0.7818608E-02  0.1180000E+00
       11   -1    0    0    0    0  0.00000000000E+00  0.00000000000E+00  0.39999999673E+01  0.40000000000E+01  0.51109989000E-03 0. -1.
     -623   -1    0    0    0    0  0.00000000000E+00  0.00000000000E+00  0.12525980253E-10  0.17130000000E+03  0.17130000000E+03 0. -1.
       11    1    1    2    0    0  0.40371432061E-02 -0.16317213592E-01  0.87164018833E-01  0.88771489699E-01  0.51109989000E-03 0. -1.
     -623    1    1    2    0    0  0.14780567249E-01  0.10156927821E-01  0.29371181400E-02  0.17130000096E+03  0.17130000000E+03 0. -1.
      622    1    1    2    0    0 -0.18817710455E-01  0.61602857714E-02  0.39098988304E+01  0.39112275463E+01  0.10000000000E+00 0. -1.
</event>
<event>
 5   0  0.6262544E+06  0.9118800E+02  0.7818608E-02  0.1180000E+00
       11   -1    0    0    0    0  0.00000000000E+00  0.00000000000E+00  0.39999999673E+01  0.40000000000E+01  0.51109989000E-03 0.  1.
     -623   -1    0    0    0    0  0.00000000000E+00  0.00000000000E+00  0.12525980253E-10  0.17130000000E+03  0.17130000000E+03 0. -1.
       11    1    1    2    0    0 -0.47585021914E-02  0.42175153297E-02  0.66719264630E-02  0.92307423584E-02  0.51109989000E-03 0.  1.
     -623    1    1    2    0    0 -0.24855126610E-02  0.15692937752E-02  0.38227127780E-02  0.17130000007E+03  0.17130000000E+03 0. -1.
      622    1    1    2    0    0  0.72440148524E-02 -0.57868091049E-02  0.39895053281E+01  0.39907691898E+01  0.10000000000E+00 0.  1.
</event>
<event>
 5   0  0.6262544E+06  0.9118800E+02  0.7818608E-02  0.1180000E+00
       11   -1    0    0    0    0  0.00000000000E+00  0.00000000000E+00  0.39999999673E+01  0.40000000000E+01  0.51109989000E-03 0.  1.
     -623   -1    0    0    0    0  0.00000000000E+00  0.00000000000E+00  0.12525980253E-10  0.17130000000E+03  0.17130000000E+03 0.  1.
       11    1    1    2    0    0  0.72674778843E-01 -0.41092596598E-01  0.31416217341E+00  0.32506669685E+00  0.51109989000E-03 0.  1.
     -623    1    1    2    0    0  0.16179922540E-01 -0.26530726399E-01  0.13966090081E-01  0.17130000339E+03  0.17130000000E+03 0.  1.
      622    1    1    2    0    0 -0.88854701383E-01  0.67623322997E-01  0.36718717039E+01  0.36749299152E+01  0.10000000000E+00 0.  1.
</event>
<event>
 5   0  0.6262544E+06  0.9118800E+02  0.7818608E-02  0.1180000E+00
       11   -1    0    0    0    0  0.00000000000E+00  0.00000000000E+00  0.39999999673E+01  0.40000000000E+01  0.51109989000E-03 0.  1.
     -623   -1    0    0    0    0  0.00000000000E+00  0.00000000000E+00  0.12525980253E-10  0.17130000000E+03  0.17130000000E+03 0.  1.
       11    1    1    2    0    0 -0.69826165374E-02  0.52405647409E-01  0.20326603467E+00  0.21002964288E+00  0.51109989000E-03 0.  1.
     -623    1    1    2    0    0  0.16833033934E-01 -0.47256145575E-01  0.81069216288E-02  0.17130000754E+03  0.17130000000E+03 0.  1.
      622    1    1    2    0    0 -0.98504173970E-02 -0.51495018340E-02  0.37886270111E+01  0.37899628200E+01  0.10000000000E+00 0.  1.
</event>
<event>
 5   0  0.6262544E+06  0.9118800E+02  0.7818608E-02  0.1180000E+00
       11   -1    0    0    0    0  0.00000000000E+00  0.00000000000E+00  0.39999999673E+01  0.40000000000E+01  0.51109989000E-03 0.  1.
     -623   -1    0    0    0    0  0.00000000000E+00  0.00000000000E+00  0.12525980253E-10  0.17130000000E+03  0.17130000000E+03 0.  1.
       11    1    1    2    0    0 -0.27661574909E-01 -0.10711333872E+00  0.18604004567E+01  0.18636868167E+01  0.51109989000E-03 0.  1.
     -623    1    1    2    0    0 -0.79510293897E-02  0.63877488207E-01  0.63756032330E-02  0.17130001221E+03  0.17130000000E+03 0.  1.
      622    1    1    2    0    0  0.35612604299E-01  0.43235850510E-01  0.21332239074E+01  0.21363009702E+01  0.10000000000E+00 0.  0.
</event>
<event>
 5   0  0.6262544E+06  0.9118800E+02  0.7818608E-02  0.1180000E+00
       11   -1    0    0    0    0  0.00000000000E+00  0.00000000000E+00  0.39999999673E+01  0.40000000000E+01  0.51109989000E-03 0.  1.
     -623   -1    0    0    0    0  0.00000000000E+00  0.00000000000E+00  0.12525980253E-10  0.17130000000E+03  0.17130000000E+03 0. -1.
       11    1    1    2    0    0  0.28498232065E-01 -0.10106962942E-01  0.98181595213E+00  0.98228159151E+00  0.51109989000E-03 0.  1.
     -623    1    1    2    0    0 -0.68780325434E-02  0.37274743466E-02  0.22073743940E-02  0.17130000019E+03  0.17130000000E+03 0. -1.
      622    1    1    2    0    0 -0.21620199521E-01  0.63794885956E-02  0.30159766407E+01  0.30177182155E+01  0.10000000000E+00 0.  0.
</event>
<event>
 5   0  0.6262544E+06  0.9118800E+02  0.7818608E-02  0.1180000E+00
       11   -1    0    0    0    0  0.00000000000E+00  0.00000000000E+00  0.39999999673E+01  0.40000000000E+01  0.51109989000E-03 0. -1.
     -623   -1    0    0    0    0  0.00000000000E+00  0.00000000000E+00  0.12525980253E-10  0.17130000000E+03  0.17130000000E+03 0.  1.
       11    1    1    2    0    0 -0.38236853202E-01  0.30476830803E-02  0.42193546096E+00  0.42367574836E+00  0.51109989000E-03 0. -1.
     -623    1    1    2    0    0  0.72790806857E-02  0.23438331619E-01  0.33725689962E-02  0.17130000179E+03  0.17130000000E+03 0.  1.
      622    1    1    2    0    0  0.30957772516E-01 -0.26486014699E-01  0.35746919374E+01  0.35763224603E+01  0.10000000000E+00 0. -1.
</event>
<event>
 5   0  0.6262544E+06  0.9118800E+02  0.7818608E-02  0.1180000E+00
       11   -1    0    0    0    0  0.00000000000E+00  0.00000000000E+00  0.39999999673E+01  0.40000000000E+01  0.51109989000E-03 0.  1.
     -623   -1    0    0    0    0  0.00000000000E+00  0.00000000000E+00  0.12525980253E-10  0.17130000000E+03  0.17130000000E+03 0.  1.
       11    1    1    2    0    0 -0.95315273569E-02 -0.24399002270E-02  0.16322837950E+00  0.16352543601E+00  0.51109989000E-03 0.  1.
     -623    1    1    2    0    0  0.22643630765E-02 -0.14827237136E-02  0.16094453455E-02  0.17130000003E+03  0.17130000000E+03 0.  1.
      622    1    1    2    0    0  0.72671642803E-02  0.39226239405E-02  0.38351621425E+01  0.38364745350E+01  0.10000000000E+00 0.  0.
</event>
<event>
 5   0  0.6262544E+06  0.9118800E+02  0.7818608E-02  0.1180000E+00
       11   -1    0    0    0    0  0.00000000000E+00  0.00000000000E+00  0.39999999673E+01  0.40000000000E+01  0.51109989000E-03 0. -1.
     -623   -1    0    0    0    0  0.00000000000E+00  0.00000000000E+00  0.12525980253E-10  0.17130000000E+03  0.17130000000E+03 0. -1.
       11    1    1    2    0    0 -0.57467327607E-01  0.11294933232E+00  0.83068922074E+00  0.84030047488E+00  0.51109989000E-03 0. -1.
     -623    1    1    2    0    0  0.14367774540E-01 -0.48165042874E-01  0.12160578032E-01  0.17130000781E+03  0.17130000000E+03 0. -1.
      622    1    1    2    0    0  0.43099553067E-01 -0.64784289450E-01  0.31571501686E+01  0.31596917196E+01  0.10000000000E+00 0. -1.
</event>
<event>
 5   0  0.6262544E+06  0.9118800E+02  0.7818608E-02  0.1180000E+00
       11   -1    0    0    0    0  0.00000000000E+00  0.00000000000E+00  0.39999999673E+01  0.40000000000E+01  0.51109989000E-03 0.  1.
     -623   -1    0    0    0    0  0.00000000000E+00  0.00000000000E+00  0.12525980253E-10  0.17130000000E+03  0.17130000000E+03 0. -1.
       11    1    1    2    0    0  0.10417297369E-02  0.19827724410E-02  0.19735195484E-01  0.19868461159E-01  0.51109989000E-03 0.  1.
     -623    1    1    2    0    0 -0.64800027692E-02  0.26134587676E-02  0.13961906466E-02  0.17130000015E+03  0.17130000000E+03 0. -1.
      622    1    1    2    0    0  0.54382730322E-02 -0.45962312085E-02  0.39788685812E+01  0.39801313907E+01  0.10000000000E+00 0.  1.
</event>
<event>
 5   0  0.6262544E+06  0.9118800E+02  0.7818608E-02  0.1180000E+00
       11   -1    0    0    0    0  0.00000000000E+00  0.00000000000E+00  0.39999999673E+01  0.40000000000E+01  0.51109989000E-03 0. -1.
     -623   -1    0    0    0    0  0.00000000000E+00  0.00000000000E+00  0.12525980253E-10  0.17130000000E+03  0.17130000000E+03 0. -1.
       11    1    1    2    0    0 -0.22623711892E-01 -0.11382370496E-02  0.19488355271E+00  0.19619630033E+00  0.51109989000E-03 0. -1.
     -623    1    1    2    0    0  0.33097989634E-02  0.52280554524E-02  0.26787988252E-02  0.17130000013E+03  0.17130000000E+03 0. -1.
      622    1    1    2    0    0  0.19313912929E-01 -0.40898184030E-02  0.38024376160E+01  0.38038035671E+01  0.10000000000E+00 0. -1.
</event>
<event>
 5   0  0.6262544E+06  0.9118800E+02  0.7818608E-02  0.1180000E+00
       11   -1    0    0    0    0  0.00000000000E+00  0.00000000000E+00  0.39999999673E+01  0.40000000000E+01  0.51109989000E-03 0.  1.
     -623   -1    0    0    0    0  0.00000000000E+00  0.00000000000E+00  0.12525980253E-10  0.17130000000E+03  0.17130000000E+03 0.  1.
       11    1    1    2    0    0 -0.61031945110E-01 -0.37157787305E-01  0.71184859080E+00  0.71542594091E+00  0.51109989000E-03 0.  1.
     -623    1    1    2    0    0 -0.39359041703E-04  0.12482485091E-01  0.57613097293E-02  0.17130000055E+03  0.17130000000E+03 0.  1.
      622    1    1    2    0    0  0.61071304151E-01  0.24675302214E-01  0.32823900668E+01  0.32845735074E+01  0.10000000000E+00 0.  1.
</event>
<event>
 5   0  0.6262544E+06  0.9118800E+02  0.7818608E-02  0.1180000E+00
       11   -1    0    0    0    0  0.00000000000E+00  0.00000000000E+00  0.39999999673E+01  0.40000000000E+01  0.51109989000E-03 0. -1.
     -623   -1    0    0    0    0  0.00000000000E+00  0.00000000000E+00  0.12525980253E-10  0.17130000000E+03  0.17130000000E+03 0. -1.
       11    1    1    2    0    0 -0.31243012694E-02  0.29600350306E-02  0.23865870747E-01  0.24256217252E-01  0.51109989000E-03 0. -1.
     -623    1    1    2    0    0  0.52860375755E-02 -0.36743130173E-02  0.16489201660E-02  0.17130000013E+03  0.17130000000E+03 0. -1.
      622    1    1    2    0    0 -0.21617363060E-02  0.71427798663E-03  0.39744851763E+01  0.39757436537E+01  0.10000000000E+00 0. -1.
</event>
<event>
 5   0  0.6262544E+06  0.9118800E+02  0.7818608E-02  0.1180000E+00
       11   -1    0    0    0    0  0.00000000000E+00  0.00000000000E+00  0.39999999673E+01  0.40000000000E+01  0.51109989000E-03 0. -1.
     -623   -1    0    0    0    0  0.00000000000E+00  0.00000000000E+00  0.12525980253E-10  0.17130000000E+03  0.17130000000E+03 0.  1.
       11    1    1    2    0    0  0.11157604405E-01 -0.12719660114E-02  0.30704564424E+00  0.30725136111E+00  0.51109989000E-03 0. -1.
     -623    1    1    2    0    0 -0.64085031577E-02 -0.36949296761E-03  0.15634848681E-02  0.17130000013E+03  0.17130000000E+03 0.  1.
      622    1    1    2    0    0 -0.47491012471E-02  0.16414589790E-02  0.36913908382E+01  0.36927485115E+01  0.10000000000E+00 0.  0.
</event>
<event>
 5   0  0.6262544E+06  0.9118800E+02  0.7818608E-02  0.1180000E+00
       11   -1    0    0    0    0  0.00000000000E+00  0.00000000000E+00  0.39999999673E+01  0.40000000000E+01  0.51109989000E-03 0.  1.
     -623   -1    0    0    0    0  0.00000000000E+00  0.00000000000E+00  0.12525980253E-10  0.17130000000E+03  0.17130000000E+03 0.  1.
       11    1    1    2    0    0 -0.89169579642E-02  0.11317511439E-01  0.40606290694E-01  0.43089793092E-01  0.51109989000E-03 0.  1.
     -623    1    1    2    0    0  0.15896923852E-01 -0.29726759111E-01  0.37996401315E-02  0.17130000336E+03  0.17130000000E+03 0.  1.
      622    1    1    2    0    0 -0.69799658879E-02  0.18409247671E-01  0.39555940365E+01  0.39569068478E+01  0.10000000000E+00 0.  1.
</event>
<event>
 5   0  0.6262544E+06  0.9118800E+02  0.7818608E-02  0.1180000E+00
       11   -1    0    0    0    0  0.00000000000E+00  0.00000000000E+00  0.39999999673E+01  0.40000000000E+01  0.51109989000E-03 0. -1.
     -623   -1    0    0    0    0  0.00000000000E+00  0.00000000000E+00  0.12525980253E-10  0.17130000000E+03  0.17130000000E+03 0. -1.
       11    1    1    2    0    0  0.10515313666E-01  0.42087350297E-04  0.52197409523E-01  0.53248515255E-01  0.51109989000E-03 0. -1.
     -623    1    1    2    0    0  0.15908188327E-01  0.12874224411E-01  0.24290059014E-02  0.17130000124E+03  0.17130000000E+03 0. -1.
      622    1    1    2    0    0 -0.26423501994E-01 -0.12916311761E-01  0.39453735520E+01  0.39467502451E+01  0.10000000000E+00 0. -1.
</event>
<event>
 5   0  0.6262544E+06  0.9118800E+02  0.7818608E-02  0.1180000E+00
       11   -1    0    0    0    0  0.00000000000E+00  0.00000000000E+00  0.39999999673E+01  0.40000000000E+01  0.51109989000E-03 0.  1.
     -623   -1    0    0    0    0  0.00000000000E+00  0.00000000000E+00  0.12525980253E-10  0.17130000000E+03  0.17130000000E+03 0.  1.
       11    1    1    2    0    0  0.29576452173E-01 -0.19205200198E-01  0.54431983684E-01  0.64859142060E-01  0.51109989000E-03 0.  1.
     -623    1    1    2    0    0 -0.17146146219E-01  0.13504661513E-01  0.11723494796E-01  0.17130000179E+03  0.17130000000E+03 0.  1.
      622    1    1    2    0    0 -0.12430305953E-01  0.57005386855E-02  0.39338444889E+01  0.39351390663E+01  0.10000000000E+00 0.  0.
</event>
<event>
 5   0  0.6262544E+06  0.9118800E+02  0.7818608E-02  0.1180000E+00
       11   -1    0    0    0    0  0.00000000000E+00  0.00000000000E+00  0.39999999673E+01  0.40000000000E+01  0.51109989000E-03 0.  1.
     -623   -1    0    0    0    0  0.00000000000E+00  0.00000000000E+00  0.12525980253E-10  0.17130000000E+03  0.17130000000E+03 0. -1.
       11    1    1    2    0    0  0.26200554510E-01 -0.84466225780E-02  0.28797202308E+00  0.28928526023E+00  0.51109989000E-03 0.  1.
     -623    1    1    2    0    0  0.67353021041E-02  0.11352014583E-01  0.28087915702E-02  0.17130000053E+03  0.17130000000E+03 0. -1.
      622    1    1    2    0    0 -0.32935856615E-01 -0.29053920054E-02  0.37092191527E+01  0.37107142082E+01  0.10000000000E+00 0.  1.
</event>
<event>
 5   0  0.6262544E+06  0.9118800E+02  0.7818608E-02  0.1180000E+00
       11   -1    0    0    0    0  0.00000000000E+00  0.00000000000E+00  0.39999999673E+01  0.40000000000E+01  0.51109989000E-03 0. -1.
     -623   -1    0    0    0    0  0.00000000000E+00  0.00000000000E+00  0.12525980253E-10  0.17130000000E+03  0.17130000000E+03 0.  1.
       11    1    1    2    0    0 -0.16088875329E-01 -0.29608637717E-01  0.66191760920E+00  0.66277500400E+00  0.51109989000E-03 0. -1.
     -623    1    1    2    0    0 -0.44055126741E-02  0.40901423603E-02  0.25166440761E-02  0.17130000012E+03  0.17130000000E+03 0.  1.
      622    1    1    2    0    0  0.20494388004E-01  0.25518495357E-01  0.33355657141E+01  0.33372248720E+01  0.10000000000E+00 0. -1.
</event>
<event>
 5   0  0.6262544E+06  0.9118800E+02  0.7818608E-02  0.1180000E+00
       11   -1    0    0    0    0  0.00000000000E+00  0.00000000000E+00  0.39999999673E+01  0.40000000000E+01  0.51109989000E-03 0. -1.
     -623   -1    0    0    0    0  0.00000000000E+00  0.00000000000E+00  0.12525980253E-10  0.17130000000E+03  0.17130000000E+03 0. -1.
       11    1    1    2    0    0  0.34354605351E-01 -0.40147630127E-01  0.19586183158E+01  0.19593310183E+01  0.51109989000E-03 0. -1.
     -623    1    1    2    0    0  0.73287934444E-03 -0.25814755837E-01  0.45361653679E-02  0.17130000201E+03  0.17130000000E+03 0. -1.
      622    1    1    2    0    0 -0.35087484695E-01  0.65962385964E-01  0.20368454862E+01  0.20406669749E+01  0.10000000000E+00 0. -1.
</event>
<event>
 5   0  0.6262544E+06  0.9118800E+02  0.7818608E-02  0.1180000E+00
       11   -1    0    0    0    0  0.00000000000E+00  0.00000000000E+00  0.39999999673E+01  0.40000000000E+01  0.51109989000E-03 0.  1.
     -623   -1    0    0    0    0  0.00000000000E+00  0.00000000000E+00  0.12525980253E-10  0.17130000000E+03  0.17130000000E+03 0.  1.
       11    1    1    2    0    0  0.25986204728E-01 -0.79425756492E-01  0.22165010177E+01  0.22180759131E+01  0.51109989000E-03 0.  1.
     -623    1    1    2    0    0  0.13704710769E-01  0.87896748820E-02  0.62298463767E-02  0.17130000089E+03  0.17130000000E+03 0.  1.
      622    1    1    2    0    0 -0.39690915497E-01  0.70636081610E-01  0.17772691033E+01  0.17819231999E+01  0.10000000000E+00 0.  1.
</event>
<event>
 5   0  0.6262544E+06  0.9118800E+02  0.7818608E-02  0.1180000E+00
       11   -1    0    0    0    0  0.00000000000E+00  0.00000000000E+00  0.39999999673E+01  0.40000000000E+01  0.51109989000E-03 0.  1.
     -623   -1    0    0    0    0  0.00000000000E+00  0.00000000000E+00  0.12525980253E-10  0.17130000000E+03  0.17130000000E+03 0.  1.
       11    1    1    2    0    0  0.49780384990E-02  0.32185135997E-01  0.42061904344E-01  0.53198955483E-01  0.51109989000E-03 0.  1.
     -623    1    1    2    0    0  0.30599651832E-02 -0.41003886500E-01  0.12427501256E-01  0.17130000539E+03  0.17130000000E+03 0.  1.
      622    1    1    2    0    0 -0.80380036822E-02  0.88187505030E-02  0.39455105618E+01  0.39467956589E+01  0.10000000000E+00 0.  1.
</event>
<event>
 5   0  0.6262544E+06  0.9118800E+02  0.7818608E-02  0.1180000E+00
       11   -1    0    0    0    0  0.00000000000E+00  0.00000000000E+00  0.39999999673E+01  0.40000000000E+01  0.51109989000E-03 0.  1.
     -623   -1    0    0    0    0  0.00000000000E+00  0.00000000000E+00  0.12525980253E-10  0.17130000000E+03  0.17130000000E+03 0.  1.
       11    1    1    2    0    0  0.31336885125E-03 -0.59771980169E-03  0.86755439438E-03  0.12121644785E-02  0.51109989000E-03 0.  1.
     -623    1    1    2    0    0 -0.17449106368E-02 -0.45139944350E-03  0.15955628176E-02  0.17130000002E+03  0.17130000000E+03 0.  1.
      622    1    1    2    0    0  0.14315417855E-02  0.10491192452E-02  0.39975368501E+01  0.39987878186E+01  0.10000000000E+00 0.  1.
</event>
<event>
 5   0  0.6262544E+06  0.9118800E+02  0.7818608E-02  0.1180000E+00
       11   -1    0    0    0    0  0.00000000000E+00  0.00000000000E+00  0.39999999673E+01  0.40000000000E+01  0.51109989000E-03 0.  1.
     -623   -1    0    0    0    0  0.00000000000E+00  0.00000000000E+00  0.12525980253E-10  0.17130000000E+03  0.17130000000E+03 0. -1.
       11    1    1    2    0    0  0.67744407892E-02  0.44539406576E-03  0.54140864263E+00  0.54145144838E+00  0.51109989000E-03 0.  1.
     -623    1    1    2    0    0 -0.18551902945E-02 -0.50547960461E-02  0.14954325477E-02  0.17130000009E+03  0.17130000000E+03 0. -1.
      622    1    1    2    0    0 -0.49192504948E-02  0.46094019804E-02  0.34570958922E+01  0.34585484605E+01  0.10000000000E+00 0.  1.
</event>
<event>
 5   0  0.6262544E+06  0.9118800E+02  0.7818608E-02  0.1180000E+00
       11   -1    0    0    0    0  0.00000000000E+00  0.00000000000E+00  0.39999999673E+01  0.40000000000E+01  0.51109989000E-03 0.  1.
     -623   -1    0    0    0    0  0.00000000000E+00  0.00000000000E+00  0.12525980253E-10  0.17130000000E+03  0.17130000000E+03 0. -1.
       11    1    1    2    0    0  0.34398429423E-01 -0.80184745506E-01  0.26984360037E+01  0.26998462869E+01  0.51109989000E-03 0.  1.
     -623    1    1    2    0    0 -0.90324397164E-02 -0.66747317294E-03  0.80346634404E-02  0.17130000043E+03  0.17130000000E+03 0. -1.
      622    1    1    2    0    0 -0.25365989707E-01  0.80852218679E-01  0.12935293002E+01  0.13001532853E+01  0.10000000000E+00 0. -1.
</event>
<event>
 5   0  0.6262544E+06  0.9118800E+02  0.7818608E-02  0.1180000E+00
       11   -1    0    0    0    0  0.00000000000E+00  0.00000000000E+00  0.39999999673E+01  0.40000000000E+01  0.51109989000E-03 0. -1.
     -623   -1    0    0    0    0  0.00000000000E+00  0.00000000000E+00  0.12525980253E-10  0.17130000000E+03  0.17130000000E+03 0. -1.
       11    1    1    2    0    0 -0.31422760464E-01 -0.49345238945E-01  0.12646497553E+00  0.13934128512E+00  0.51109989000E-03 0. -1.
     -623    1    1    2    0    0  0.20800107469E-01  0.47433152739E-01  0.14195123799E-01  0.17130000842E+03  0.17130000000E+03 0. -1.
      622    1    1    2    0    0  0.10622652995E-01  0.19120862059E-02  0.38593398680E+01  0.38606502968E+01  0.10000000000E+00 0. -1.
</event>
<event>
 5   0  0.6262544E+06  0.9118800E+02  0.7818608E-02  0.1180000E+00
       11   -1    0    0    0    0  0.00000000000E+00  0.00000000000E+00  0.39999999673E+01  0.40000000000E+01  0.51109989000E-03 0.  1.
     -623   -1    0    0    0    0  0.00000000000E+00  0.00000000000E+00  0.12525980253E-10  0.17130000000E+03  0.17130000000E+03 0. -1.
       11    1    1    2    0    0 -0.13730244128E+00  0.38929503058E-01  0.26456391470E+01  0.26494856527E+01  0.51109989000E-03 0.  1.
     -623    1    1    2    0    0  0.30093145849E-02  0.20543241240E-01  0.15588234485E-01  0.17130000197E+03  0.17130000000E+03 0. -1.
      622    1    1    2    0    0  0.13429312670E+00 -0.59472744297E-01  0.13387725859E+01  0.13505123797E+01  0.10000000000E+00 0.  1.
</event>
<event>
 5   0  0.6262544E+06  0.9118800E+02  0.7818608E-02  0.1180000E+00
       11   -1    0    0    0    0  0.00000000000E+00  0.00000000000E+00  0.39999999673E+01  0.40000000000E+01  0.51109989000E-03 0. -1.
     -623   -1    0    0    0    0  0.00000000000E+00  0.00000000000E+00  0.12525980253E-10  0.17130000000E+03  0.17130000000E+03 0. -1.
       11    1    1    2    0    0  0.16387552015E-01 -0.18668277848E-01  0.32811361773E+00  0.32905298026E+00  0.51109989000E-03 0. -1.
     -623    1    1    2    0    0 -0.37224496182E-01  0.35608061896E-01  0.24076541457E-02  0.17130000776E+03  0.17130000000E+03 0. -1.
      622    1    1    2    0    0  0.20836944167E-01 -0.16939784048E-01  0.36694786955E+01  0.36709392573E+01  0.10000000000E+00 0. -1.
</event>
<event>
 5   0  0.6262544E+06  0.9118800E+02  0.7818608E-02  0.1180000E+00
       11   -1    0    0    0    0  0.00000000000E+00  0.00000000000E+00  0.39999999673E+01  0.40000000000E+01  0.51109989000E-03 0.  1.
     -623   -1    0    0    0    0  0.00000000000E+00  0.00000000000E+00  0.12525980253E-10  0.17130000000E+03  0.17130000000E+03 0.  1.
       11    1    1    2    0    0  0.31598292515E-01 -0.45356507809E-02  0.59657339529E+00  0.59742706786E+00  0.51109989000E-03 0.  1.
     -623    1    1    2    0    0  0.24644216940E-02 -0.42644097108E-02  0.25054847111E-02  0.17130000009E+03  0.17130000000E+03 0.  1.
      622    1    1    2    0    0 -0.34062714209E-01  0.88000604918E-02  0.34009210875E+01  0.34025728432E+01  0.10000000000E+00 0.  1.
</event>
<event>
 5   0  0.6262544E+06  0.9118800E+02  0.7818608E-02  0.1180000E+00
       11   -1    0    0    0    0  0.00000000000E+00  0.00000000000E+00  0.39999999673E+01  0.40000000000E+01  0.51109989000E-03 0.  1.
     -623   -1    0    0    0    0  0.00000000000E+00  0.00000000000E+00  0.12525980253E-10  0.17130000000E+03  0.17130000000E+03 0. -1.
       11    1    1    2    0    0  0.21078407475E-01  0.75969803523E-03  0.48351679383E+00  0.48397688740E+00  0.51109989000E-03 0.  1.
     -623    1    1    2    0    0 -0.81301341707E-02 -0.85344708983E-02  0.19152774152E-02  0.17130000042E+03  0.17130000000E+03 0. -1.
      622    1    1    2    0    0 -0.12948273304E-01  0.77747728635E-02  0.35145678963E+01  0.35160226965E+01  0.10000000000E+00 0. -1.
</event>
<event>
 5   0  0.6262544E+06  0.9118800E+02  0.7818608E-02  0.1180000E+00
       11   -1    0    0    0    0  0.00000000000E+00  0.00000000000E+00  0.39999999673E+01  0.40000000000E+01  0.51109989000E-03 0. -1.
     -623   -1    0    0    0    0  0.00000000000E+00  0.00000000000E+00  0.12525980253E-10  0.17130000000E+03  0.17130000000E+03 0.  1.
       11    1    1    2    0    0 -0.87859137729E-02 -0.13783095860E-01  0.12010712980E-01  0.20290008914E-01  0.51109989000E-03 0. -1.
     -623    1    1    2    0    0 -0.71301264035E-02  0.38881217662E-02  0.95804370754E-02  0.17130000046E+03  0.17130000000E+03 0.  1.
      622    1    1    2    0    0  0.15916040176E-01  0.98949740942E-02  0.39784088173E+01  0.39797095306E+01  0.10000000000E+00 0. -1.
</event>
<event>
 5   0  0.6262544E+06  0.9118800E+02  0.7818608E-02  0.1180000E+00
       11   -1    0    0    0    0  0.00000000000E+00  0.00000000000E+00  0.39999999673E+01  0.40000000000E+01  0.51109989000E-03 0. -1.
     -623   -1    0    0    0    0  0.00000000000E+00  0.00000000000E+00  0.12525980253E-10  0.17130000000E+03  0.17130000000E+03 0. -1.
       11    1    1    2    0    0 -0.75758566390E-02 -0.40203742239E-02  0.38280936715E-01  0.39233255684E-01  0.51109989000E-03 0. -1.
     -623    1    1    2    0    0  0.19698691884E-02  0.43867418107E-02  0.22189368139E-02  0.17130000008E+03  0.17130000000E+03 0. -1.
      622    1    1    2    0    0  0.56059874505E-02 -0.36636758700E-03  0.39595000940E+01  0.39607666626E+01  0.10000000000E+00 0. -1.
</event>
<event>
 5   0  0.6262544E+06  0.9118800E+02  0.7818608E-02  0.1180000E+00
       11   -1    0    0    0    0  0.00000000000E+00  0.00000000000E+00  0.39999999673E+01  0.40000000000E+01  0.51109989000E-03 0. -1.
     -623   -1    0    0    0    0  0.00000000000E+00  0.00000000000E+00  0.12525980253E-10  0.17130000000E+03  0.17130000000E+03 0.  1.
       11    1    1    2    0    0 -0.10538770931E-01  0.13438898755E-01  0.74853864000E+00  0.74873361517E+00  0.51109989000E-03 0. -1.
     -623    1    1    2    0    0 -0.57269137993E-03 -0.14703266899E-01  0.17530521230E-02  0.17130000064E+03  0.17130000000E+03 0.  1.
      622    1    1    2    0    0  0.11111462311E-01  0.12643681438E-02  0.32497082752E+01  0.32512657439E+01  0.10000000000E+00 0. -1.
</event>
<event>
 5   0  0.6262544E+06  0.9118800E+02  0.7818608E-02  0.1180000E+00
       11   -1    0    0    0    0  0.00000000000E+00  0.00000000000E+00  0.39999999673E+01  0.40000000000E+01  0.51109989000E-03 0. -1.
     -623   -1    0    0    0    0  0.00000000000E+00  0.00000000000E+00  0.12525980253E-10  0.17130000000E+03  0.17130000000E+03 0. -1.
       11    1    1    2    0    0  0.63032751071E-02 -0.16435212230E-02  0.23474929260E+00  0.23484020959E+00  0.51109989000E-03 0. -1.
     -623    1    1    2    0    0 -0.13787478359E-02  0.11458765349E-02  0.14223532736E-02  0.17130000002E+03  0.17130000000E+03 0. -1.
      622    1    1    2    0    0 -0.49245272711E-02  0.49764468802E-03  0.37638283217E+01  0.37651597754E+01  0.10000000000E+00 0. -1.
</event>
<event>
 5   0  0.6262544E+06  0.9118800E+02  0.7818608E-02  0.1180000E+00
       11   -1    0    0    0    0  0.00000000000E+00  0.00000000000E+00  0.39999999673E+01  0.40000000000E+01  0.51109989000E-03 0.  1.
     -623   -1    0    0    0    0  0.00000000000E+00  0.00000000000E+00  0.12525980253E-10  0.17130000000E+03  0.17130000000E+03 0. -1.
       11    1    1    2    0    0  0.40213853889E-01 -0.22093898484E-02  0.62933557517E+00  0.63062315438E+00  0.51109989000E-03 0.  1.
     -623    1    1    2    0    0 -0.10115131192E-02 -0.93351861787E-02  0.30200651597E-02  0.17130000028E+03  0.17130000000E+03 0. -1.
      622    1    1    2    0    0 -0.39202340770E-01  0.11544576027E-01  0.33676443270E+01  0.33693765616E+01  0.10000000000E+00 0.  1.
</event>
<event>
 5   0  0.6262544E+06  0.9118800E+02  0.7818608E-02  0.1180000E+00
       11   -1    0    0    0    0  0.00000000000E+00  0.00000000000E+00  0.39999999673E+01  0.40000000000E+01  0.51109989000E-03 0.  1.
     -623   -1    0    0    0    0  0.00000000000E+00  0.00000000000E+00  0.12525980253E-10  0.17130000000E+03  0.17130000000E+03 0.  1.
       11    1    1    2    0    0 -0.76072888381E-02  0.22149565997E-02  0.52616801803E-01  0.53212460267E-01  0.51109989000E-03 0.  1.
     -623    1    1    2    0    0 -0.80314500392E-02 -0.17795123684E-02  0.18939079064E-02  0.17130000021E+03  0.17130000000E+03 0.  1.
      622    1    1    2    0    0  0.15638738877E-01 -0.43544423131E-03  0.39454892577E+01  0.39467873317E+01  0.10000000000E+00 0.  1.
</event>
<event>
 5   0  0.6262544E+06  0.9118800E+02  0.7818608E-02  0.1180000E+00
       11   -1    0    0    0    0  0.00000000000E+00  0.00000000000E+00  0.39999999673E+01  0.40000000000E+01  0.51109989000E-03 0. -1.
     -623   -1    0    0    0    0  0.00000000000E+00  0.00000000000E+00  0.12525980253E-10  0.17130000000E+03  0.17130000000E+03 0. -1.
       11    1    1    2    0    0  0.67310298798E-02 -0.74819754783E-01  0.19560958027E+01  0.19575378292E+01  0.51109989000E-03 0. -1.
     -623    1    1    2    0    0 -0.10684556434E-01  0.82469300197E-02  0.49824693994E-02  0.17130000060E+03  0.17130000000E+03 0. -1.
      622    1    1    2    0    0  0.39535265542E-02  0.66572824763E-01  0.20389216953E+01  0.20424615666E+01  0.10000000000E+00 0. -1.
</event>
<event>
 5   0  0.6262544E+06  0.9118800E+02  0.7818608E-02  0.1180000E+00
       11   -1    0    0    0    0  0.00000000000E+00  0.00000000000E+00  0.39999999673E+01  0.40000000000E+01  0.51109989000E-03 0. -1.
     -623   -1    0    0    0    0  0.00000000000E+00  0.00000000000E+00  0.12525980253E-10  0.17130000000E+03  0.17130000000E+03 0.  1.
       11    1    1    2    0    0  0.12113445861E+00 -0.79001266403E-02  0.98876819387E-01  0.15656581906E+00  0.51109989000E-03 0. -1.
     -623    1    1    2    0    0 -0.15438907802E-01 -0.10435215891E-01  0.60499675906E-01  0.17130001170E+03  0.17130000000E+03 0.  1.
      622    1    1    2    0    0 -0.10569555080E+00  0.18335342531E-01  0.38406234721E+01  0.38434224837E+01  0.10000000000E+00 0. -1.
</event>
<event>
 5   0  0.6262544E+06  0.9118800E+02  0.7818608E-02  0.1180000E+00
       11   -1    0    0    0    0  0.00000000000E+00  0.00000000000E+00  0.39999999673E+01  0.40000000000E+01  0.51109989000E-03 0.  1.
     -623   -1    0    0    0    0  0.00000000000E+00  0.00000000000E+00  0.12525980253E-10  0.17130000000E+03  0.17130000000E+03 0. -1.
       11    1    1    2    0    0  0.84738153718E-02 -0.16033748432E-02  0.16424335110E-01  0.18557919192E-01  0.51109989000E-03 0.  1.
     -623    1    1    2    0    0 -0.14078519830E-01  0.12380939542E-01  0.34091741085E-02  0.17130000106E+03  0.17130000000E+03 0. -1.
      622    1    1    2    0    0  0.56047044580E-02 -0.10777564699E-01  0.39801664581E+01  0.39814410209E+01  0.10000000000E+00 0.  1.
</event>
<event>
 5   0  0.6262544E+06  0.9118800E+02  0.7818608E-02  0.1180000E+00
       11   -1    0    0    0    0  0.00000000000E+00  0.00000000000E+00  0.39999999673E+01  0.40000000000E+01  0.51109989000E-03 0. -1.
     -623   -1    0    0    0    0  0.00000000000E+00  0.00000000000E+00  0.12525980253E-10  0.17130000000E+03  0.17130000000E+03 0.  1.
       11    1    1    2    0    0  0.12619266824E-01  0.48924817858E-02  0.24644526533E+01  0.24644898710E+01  0.51109989000E-03 0. -1.
     -623    1    1    2    0    0 -0.43172803457E-01 -0.11461482122E-01  0.36215053442E-02  0.17130000586E+03  0.17130000000E+03 0.  1.
      622    1    1    2    0    0  0.30553536632E-01  0.65690003361E-02  0.15319258087E+01  0.15355042669E+01  0.10000000000E+00 0. -1.
</event>
<event>
 5   0  0.6262544E+06  0.9118800E+02  0.7818608E-02  0.1180000E+00
       11   -1    0    0    0    0  0.00000000000E+00  0.00000000000E+00  0.39999999673E+01  0.40000000000E+01  0.51109989000E-03 0.  1.
     -623   -1    0    0    0    0  0.00000000000E+00  0.00000000000E+00  0.12525980253E-10  0.17130000000E+03  0.17130000000E+03 0.  1.
       11    1    1    2    0    0  0.99803328095E-02  0.75030078301E-02  0.20205167666E-01  0.23757360817E-01  0.51109989000E-03 0.  1.
     -623    1    1    2    0    0  0.65127050588E-02  0.46674211275E-02  0.48629327472E-02  0.17130000026E+03  0.17130000000E+03 0.  1.
      622    1    1    2    0    0 -0.16493037868E-01 -0.12170428958E-01  0.39749318669E+01  0.39762423827E+01  0.10000000000E+00 0.  1.
</event>
<event>
 5   0  0.6262544E+06  0.9118800E+02  0.7818608E-02  0.1180000E+00
       11   -1    0    0    0    0  0.00000000000E+00  0.00000000000E+00  0.39999999673E+01  0.40000000000E+01  0.51109989000E-03 0.  1.
     -623   -1    0    0    0    0  0.00000000000E+00  0.00000000000E+00  0.12525980253E-10  0.17130000000E+03  0.17130000000E+03 0.  1.
       11    1    1    2    0    0 -0.51295642820E-01  0.30217052092E-01  0.62803514443E+00  0.63085078828E+00  0.51109989000E-03 0.  1.
     -623    1    1    2    0    0  0.11448329681E-01  0.62134106742E-02  0.47333717080E-02  0.17130000056E+03  0.17130000000E+03 0.  1.
      622    1    1    2    0    0  0.39847313139E-01 -0.36430462766E-01  0.33672314513E+01  0.33691486512E+01  0.10000000000E+00 0.  1.
</event>
<event>
 5   0  0.6262544E+06  0.9118800E+02  0.7818608E-02  0.1180000E+00
       11   -1    0    0    0    0  0.00000000000E+00  0.00000000000E+00  0.39999999673E+01  0.40000000000E+01  0.51109989000E-03 0.  1.
     -623   -1    0    0    0    0  0.00000000000E+00  0.00000000000E+00  0.12525980253E-10  0.17130000000E+03  0.17130000000E+03 0.  1.
       11    1    1    2    0    0 -0.34011800980E-02  0.31629199146E-02  0.88809141614E-02  0.10035135522E-01  0.51109989000E-03 0.  1.
     -623    1    1    2    0    0 -0.11195875563E-02  0.41729159467E-02  0.24169087547E-02  0.17130000007E+03  0.17130000000E+03 0.  1.
      622    1    1    2    0    0  0.45207676543E-02 -0.73358358613E-02  0.39887021444E+01  0.39899647929E+01  0.10000000000E+00 0.  1.
</event>
<event>
 5   0  0.6262544E+06  0.9118800E+02  0.7818608E-02  0.1180000E+00
       11   -1    0    0    0    0  0.00000000000E+00  0.00000000000E+00  0.39999999673E+01  0.40000000000E+01  0.51109989000E-03 0.  1.
     -623   -1    0    0    0    0  0.00000000000E+00  0.00000000000E+00  0.12525980253E-10  0.17130000000E+03  0.17130000000E+03 0. -1.
       11    1    1    2    0    0  0.59324427813E-02 -0.11786407403E-01  0.40119940953E-01  0.42237236639E-01  0.51109989000E-03 0.  1.
     -623    1    1    2    0    0 -0.52398531252E-02  0.44571960097E-03  0.33972329940E-02  0.17130000011E+03  0.17130000000E+03 0. -1.
      622    1    1    2    0    0 -0.69258965608E-03  0.11340687802E-01  0.39564827934E+01  0.39577626490E+01  0.10000000000E+00 0.  1.
</event>
<event>
 5   0  0.6262544E+06  0.9118800E+02  0.7818608E-02  0.1180000E+00
       11   -1    0    0    0    0  0.00000000000E+00  0.00000000000E+00  0.39999999673E+01  0.40000000000E+01  0.51109989000E-03 0. -1.
     -623   -1    0    0    0    0  0.00000000000E+00  0.00000000000E+00  0.12525980253E-10  0.17130000000E+03  0.17130000000E+03 0.  1.
       11    1    1    2    0    0  0.42829473316E-02  0.21626633131E-02  0.55522236694E-01  0.55731505821E-01  0.51109989000E-03 0. -1.
     -623    1    1    2    0    0 -0.45768307797E-02 -0.15193324510E-01  0.14993867680E-02  0.17130000074E+03  0.17130000000E+03 0.  1.
      622    1    1    2    0    0  0.29388344823E-03  0.13030661197E-01  0.39429783440E+01  0.39442677528E+01  0.10000000000E+00 0. -1.
</event>
<event>
 5   0  0.6262544E+06  0.9118800E+02  0.7818608E-02  0.1180000E+00
       11   -1    0    0    0    0  0.00000000000E+00  0.00000000000E+00  0.39999999673E+01  0.40000000000E+01  0.51109989000E-03 0. -1.
     -623   -1    0    0    0    0  0.00000000000E+00  0.00000000000E+00  0.12525980253E-10  0.17130000000E+03  0.17130000000E+03 0.  1.
       11    1    1    2    0    0 -0.12458722076E+00  0.20485344653E-01  0.16477961110E+01  0.16526263672E+01  0.51109989000E-03 0. -1.
     -623    1    1    2    0    0  0.70657042997E-01  0.24301365470E-01  0.80256909919E-02  0.17130001648E+03  0.17130000000E+03 0.  1.
      622    1    1    2    0    0  0.53930177757E-01 -0.44786710123E-01  0.23441781654E+01  0.23473571490E+01  0.10000000000E+00 0.  0.
</event>
<event>
 5   0  0.6262544E+06  0.9118800E+02  0.7818608E-02  0.1180000E+00
       11   -1    0    0    0    0  0.00000000000E+00  0.00000000000E+00  0.39999999673E+01  0.40000000000E+01  0.51109989000E-03 0. -1.
     -623   -1    0    0    0    0  0.00000000000E+00  0.00000000000E+00  0.12525980253E-10  0.17130000000E+03  0.17130000000E+03 0.  1.
       11    1    1    2    0    0 -0.19884427475E-01  0.21988846504E-01  0.32948792869E+00  0.33081937096E+00  0.51109989000E-03 0. -1.
     -623    1    1    2    0    0 -0.29060197233E-02 -0.20543277266E-02  0.28194046760E-02  0.17130000006E+03  0.17130000000E+03 0.  1.
      622    1    1    2    0    0  0.22790447198E-01 -0.19934518777E-01  0.36676926339E+01  0.36691805688E+01  0.10000000000E+00 0. -1.
</event>
<event>
 5   0  0.6262544E+06  0.9118800E+02  0.7818608E-02  0.1180000E+00
       11   -1    0    0    0    0  0.00000000000E+00  0.00000000000E+00  0.39999999673E+01  0.40000000000E+01  0.51109989000E-03 0. -1.
     -623   -1    0    0    0    0  0.00000000000E+00  0.00000000000E+00  0.12525980253E-10  0.17130000000E+03  0.17130000000E+03 0.  1.
       11    1    1    2    0    0  0.43503353338E-02  0.61924007923E-03  0.37163513474E-02  0.57776608562E-02  0.51109989000E-03 0. -1.
     -623    1    1    2    0    0 -0.17255305600E-01  0.76908124807E-02  0.33438572852E-02  0.17130000107E+03  0.17130000000E+03 0.  1.
      622    1    1    2    0    0  0.12904970267E-01 -0.83100525599E-02  0.39929397587E+01  0.39942212648E+01  0.10000000000E+00 0. -1.
</event>
<event>
 5   0  0.6262544E+06  0.9118800E+02  0.7818608E-02  0.1180000E+00
       11   -1    0    0    0    0  0.00000000000E+00  0.00000000000E+00  0.39999999673E+01  0.40000000000E+01  0.51109989000E-03 0. -1.
     -623   -1    0    0    0    0  0.00000000000E+00  0.00000000000E+00  0.12525980253E-10  0.17130000000E+03  0.17130000000E+03 0. -1.
       11    1    1    2    0    0  0.37979293965E-01  0.70280266466E-03  0.19526413259E+00  0.19892527090E+00  0.51109989000E-03 0. -1.
     -623    1    1    2    0    0  0.19617357588E-01  0.26269460838E-01  0.55122703284E-02  0.17130000323E+03  0.17130000000E+03 0. -1.
      622    1    1    2    0    0 -0.57596651553E-01 -0.26972263503E-01  0.37992235644E+01  0.38010715029E+01  0.10000000000E+00 0. -1.
</event>
<event>
 5   0  0.6262544E+06  0.9118800E+02  0.7818608E-02  0.1180000E+00
       11   -1    0    0    0    0  0.00000000000E+00  0.00000000000E+00  0.39999999673E+01  0.40000000000E+01  0.51109989000E-03 0. -1.
     -623   -1    0    0    0    0  0.00000000000E+00  0.00000000000E+00  0.12525980253E-10  0.17130000000E+03  0.17130000000E+03 0.  1.
       11    1    1    2    0    0 -0.65033046210E-01  0.36258284048E-01  0.19891094892E+00  0.21239064735E+00  0.51109989000E-03 0. -1.
     -623    1    1    2    0    0 -0.46655619136E-02 -0.62029787708E-01  0.15541284760E-01  0.17130001200E+03  0.17130000000E+03 0.  1.
      622    1    1    2    0    0  0.69698608123E-01  0.25771503660E-01  0.37855477337E+01  0.37875973533E+01  0.10000000000E+00 0. -1.
</event>
<event>
 5   0  0.6262544E+06  0.9118800E+02  0.7818608E-02  0.1180000E+00
       11   -1    0    0    0    0  0.00000000000E+00  0.00000000000E+00  0.39999999673E+01  0.40000000000E+01  0.51109989000E-03 0.  1.
     -623   -1    0    0    0    0  0.00000000000E+00  0.00000000000E+00  0.12525980253E-10  0.17130000000E+03  0.17130000000E+03 0. -1.
       11    1    1    2    0    0 -0.88423268843E-01  0.21360957648E-01  0.83221857482E+00  0.83717559835E+00  0.51109989000E-03 0.  1.
     -623    1    1    2    0    0  0.81586070475E-01 -0.67695151244E-02  0.65990205463E-02  0.17130001969E+03  0.17130000000E+03 0. -1.
      622    1    1    2    0    0  0.68371983686E-02 -0.14591442524E-01  0.31611823720E+01  0.31628047120E+01  0.10000000000E+00 0.  0.
</event>
<event>
 5   0  0.6262544E+06  0.9118800E+02  0.7818608E-02  0.1180000E+00
       11   -1    0    0    0    0  0.00000000000E+00  0.00000000000E+00  0.39999999673E+01  0.40000000000E+01  0.51109989000E-03 0.  1.
     -623   -1    0    0    0    0  0.00000000000E+00  0.00000000000E+00  0.12525980253E-10  0.17130000000E+03  0.17130000000E+03 0.  1.
       11    1    1    2    0    0  0.19854673843E-01  0.26873350528E-02  0.26891116995E-01  0.33538384568E-01  0.51109989000E-03 0.  1.
     -623    1    1    2    0    0  0.25134970317E-01 -0.80732416905E-02  0.81691298138E-02  0.17130000223E+03  0.17130000000E+03 0.  1.
      622    1    1    2    0    0 -0.44989644160E-01  0.53859066377E-02  0.39649397206E+01  0.39664593864E+01  0.10000000000E+00 0.  1.
</event>
<event>
 5   0  0.6262544E+06  0.9118800E+02  0.7818608E-02  0.1180000E+00
       11   -1    0    0    0    0  0.00000000000E+00  0.00000000000E+00  0.39999999673E+01  0.40000000000E+01  0.51109989000E-03 0. -1.
     -623   -1    0    0    0    0  0.00000000000E+00  0.00000000000E+00  0.12525980253E-10  0.17130000000E+03  0.17130000000E+03 0.  1.
       11    1    1    2    0    0  0.10896275752E-02 -0.33604607588E-01  0.55306250841E+00  0.55408379905E+00  0.51109989000E-03 0. -1.
     -623    1    1    2    0    0 -0.35267195847E-01  0.22253828318E-01  0.26659260527E-02  0.17130000510E+03  0.17130000000E+03 0.  1.
      622    1    1    2    0    0  0.34177568271E-01  0.11350779270E-01  0.34442715329E+01  0.34459111043E+01  0.10000000000E+00 0. -1.
</event>
<event>
 5   0  0.6262544E+06  0.9118800E+02  0.7818608E-02  0.1180000E+00
       11   -1    0    0    0    0  0.00000000000E+00  0.00000000000E+00  0.39999999673E+01  0.40000000000E+01  0.51109989000E-03 0.  1.
     -623   -1    0    0    0    0  0.00000000000E+00  0.00000000000E+00  0.12525980253E-10  0.17130000000E+03  0.17130000000E+03 0. -1.
       11    1    1    2    0    0  0.38361259734E-02 -0.31782000198E-02  0.11393087016E-01  0.12445098341E-01  0.51109989000E-03 0.  1.
     -623    1    1    2    0    0  0.11041374062E-02  0.14782105043E-02  0.23095263854E-02  0.17130000003E+03  0.17130000000E+03 0. -1.
      622    1    1    2    0    0 -0.49402633797E-02  0.16999895155E-02  0.39862973541E+01  0.39875548763E+01  0.10000000000E+00 0.  1.
</event>
<event>
 5   0  0.6262544E+06  0.9118800E+02  0.7818608E-02  0.1180000E+00
       11   -1    0    0    0    0  0.00000000000E+00  0.00000000000E+00  0.39999999673E+01  0.40000000000E+01  0.51109989000E-03 0.  1.
     -623   -1    0    0    0    0  0.00000000000E+00  0.00000000000E+00  0.12525980253E-10  0.17130000000E+03  0.17130000000E+03 0. -1.
       11    1    1    2    0    0 -0.56947856397E-03 -0.80070880783E-02  0.37430833028E+00  0.37439474503E+00  0.51109989000E-03 0.  1.
     -623    1    1    2    0    0  0.13300242536E-01 -0.39245340119E-02  0.15082931072E-02  0.17130000057E+03  0.17130000000E+03 0. -1.
      622    1    1    2    0    0 -0.12730763972E-01  0.11931622090E-01  0.36241833440E+01  0.36256046870E+01  0.10000000000E+00 0.  1.
</event>
<event>
 5   0  0.6262544E+06  0.9118800E+02  0.7818608E-02  0.1180000E+00
       11   -1    0    0    0    0  0.00000000000E+00  0.00000000000E+00  0.39999999673E+01  0.40000000000E+01  0.51109989000E-03 0.  1.
     -623   -1    0    0    0    0  0.00000000000E+00  0.00000000000E+00  0.12525980253E-10  0.17130000000E+03  0.17130000000E+03 0. -1.
       11    1    1    2    0    0  0.10472187613E-01  0.55471971894E-01  0.10911058402E+01  0.10925653400E+01  0.51109989000E-03 0.  1.
     -623    1    1    2    0    0 -0.13075819122E-01  0.23305056480E-01  0.42510722933E-02  0.17130000214E+03  0.17130000000E+03 0. -1.
      622    1    1    2    0    0  0.26036315084E-02 -0.78777028374E-01  0.29046430549E+01  0.29074325229E+01  0.10000000000E+00 0.  1.
</event>
<event>
 5   0  0.6262544E+06  0.9118800E+02  0.7818608E-02  0.1180000E+00
       11   -1    0    0    0    0  0.00000000000E+00  0.00000000000E+00  0.39999999673E+01  0.40000000000E+01  0.51109989000E-03 0. -1.
     -623   -1    0    0    0    0  0.00000000000E+00  0.00000000000E+00  0.12525980253E-10  0.17130000000E+03  0.17130000000E+03 0.  1.
       11    1    1    2    0    0 -0.12424167334E-01 -0.17824212017E-02  0.27180309954E+00  0.27209322502E+00  0.51109989000E-03 0. -1.
     -623    1    1    2    0    0  0.69468131232E-02 -0.54697132034E-02  0.16428875267E-02  0.17130000024E+03  0.17130000000E+03 0.  1.
      622    1    1    2    0    0  0.54773542104E-02  0.72521344053E-02  0.37265539804E+01  0.37279065390E+01  0.10000000000E+00 0. -1.
</event>
<event>
 5   0  0.6262544E+06  0.9118800E+02  0.7818608E-02  0.1180000E+00
       11   -1    0    0    0    0  0.00000000000E+00  0.00000000000E+00  0.39999999673E+01  0.40000000000E+01  0.51109989000E-03 0. -1.
     -623   -1    0    0    0    0  0.00000000000E+00  0.00000000000E+00  0.12525980253E-10  0.17130000000E+03  0.17130000000E+03 0. -1.
       11    1    1    2    0    0 -0.33604574808E-01 -0.10899871773E-01  0.10387296574E+01  0.10393303792E+01  0.51109989000E-03 0. -1.
     -623    1    1    2    0    0  0.29056042563E-02 -0.12228223295E-01  0.25401048922E-02  0.17130000048E+03  0.17130000000E+03 0. -1.
      622    1    1    2    0    0  0.30698970552E-01  0.23128095068E-01  0.29587302050E+01  0.29606691409E+01  0.10000000000E+00 0. -1.
</event>
<event>
 5   0  0.6262544E+06  0.9118800E+02  0.7818608E-02  0.1180000E+00
       11   -1    0    0    0    0  0.00000000000E+00  0.00000000000E+00  0.39999999673E+01  0.40000000000E+01  0.51109989000E-03 0. -1.
     -623   -1    0    0    0    0  0.00000000000E+00  0.00000000000E+00  0.12525980253E-10  0.17130000000E+03  0.17130000000E+03 0.  1.
       11    1    1    2    0    0  0.26037166580E-02 -0.26943776502E-02  0.73989041106E-01  0.74085615594E-01  0.51109989000E-03 0. -1.
     -623    1    1    2    0    0 -0.22547432830E-02 -0.35460428425E-03  0.13715577124E-02  0.17130000002E+03  0.17130000000E+03 0.  1.
      622    1    1    2    0    0 -0.34897337497E-03  0.30489819344E-02  0.39246393685E+01  0.39259143637E+01  0.10000000000E+00 0. -1.
</event>
<event>
 5   0  0.6262544E+06  0.9118800E+02  0.7818608E-02  0.1180000E+00
       11   -1    0    0    0    0  0.00000000000E+00  0.00000000000E+00  0.39999999673E+01  0.40000000000E+01  0.51109989000E-03 0.  1.
     -623   -1    0    0    0    0  0.00000000000E+00  0.00000000000E+00  0.12525980253E-10  0.17130000000E+03  0.17130000000E+03 0.  1.
       11    1    1    2    0    0 -0.48791220174E-02  0.88969168335E-02  0.70296318294E-01  0.71026717154E-01  0.51109989000E-03 0.  1.
     -623    1    1    2    0    0  0.79939451237E-02 -0.94222982613E-02  0.20048972504E-02  0.17130000046E+03  0.17130000000E+03 0.  1.
      622    1    1    2    0    0 -0.31148231065E-02  0.52538142800E-03  0.39276987519E+01  0.39289728255E+01  0.10000000000E+00 0.  1.
</event>
<event>
 5   0  0.6262544E+06  0.9118800E+02  0.7818608E-02  0.1180000E+00
       11   -1    0    0    0    0  0.00000000000E+00  0.00000000000E+00  0.39999999673E+01  0.40000000000E+01  0.51109989000E-03 0.  1.
     -623   -1    0    0    0    0  0.00000000000E+00  0.00000000000E+00  0.12525980253E-10  0.17130000000E+03  0.17130000000E+03 0.  1.
       11    1    1    2    0    0 -0.80455363302E-01 -0.66781712772E-01  0.11715430118E+01  0.11761998778E+01  0.51109989000E-03 0.  1.
     -623    1    1    2    0    0  0.20683447044E-01  0.34402465586E-01  0.72517868481E-02  0.17130000486E+03  0.17130000000E+03 0.  1.
      622    1    1    2    0    0  0.59771916258E-01  0.32379247186E-01  0.28212051687E+01  0.28237952655E+01  0.10000000000E+00 0.  1.
</event>
<event>
 5   0  0.6262544E+06  0.9118800E+02  0.7818608E-02  0.1180000E+00
       11   -1    0    0    0    0  0.00000000000E+00  0.00000000000E+00  0.39999999673E+01  0.40000000000E+01  0.51109989000E-03 0.  1.
     -623   -1    0    0    0    0  0.00000000000E+00  0.00000000000E+00  0.12525980253E-10  0.17130000000E+03  0.17130000000E+03 0.  1.
       11    1    1    2    0    0  0.36990241395E-01  0.24484381592E-01  0.67767205813E+00  0.67912255337E+00  0.51109989000E-03 0.  1.
     -623    1    1    2    0    0 -0.10808112783E-01  0.54090561499E-02  0.31947596891E-02  0.17130000046E+03  0.17130000000E+03 0.  1.
      622    1    1    2    0    0 -0.26182128611E-01 -0.29893437742E-01  0.33191331497E+01  0.33208769907E+01  0.10000000000E+00 0.  1.
</event>
<event>
 5   0  0.6262544E+06  0.9118800E+02  0.7818608E-02  0.1180000E+00
       11   -1    0    0    0    0  0.00000000000E+00  0.00000000000E+00  0.39999999673E+01  0.40000000000E+01  0.51109989000E-03 0.  1.
     -623   -1    0    0    0    0  0.00000000000E+00  0.00000000000E+00  0.12525980253E-10  0.17130000000E+03  0.17130000000E+03 0. -1.
       11    1    1    2    0    0  0.25535971736E-01  0.59188575050E-02  0.38710474145E+00  0.38799157311E+00  0.51109989000E-03 0.  1.
     -623    1    1    2    0    0  0.35999127057E-02 -0.11026453547E-01  0.23929158475E-02  0.17130000041E+03  0.17130000000E+03 0. -1.
      622    1    1    2    0    0 -0.29135884442E-01  0.51075960418E-02  0.36105023101E+01  0.36120080175E+01  0.10000000000E+00 0.  1.
</event>
<event>
 5   0  0.6262544E+06  0.9118800E+02  0.7818608E-02  0.1180000E+00
       11   -1    0    0    0    0  0.00000000000E+00  0.00000000000E+00  0.39999999673E+01  0.40000000000E+01  0.51109989000E-03 0.  1.
     -623   -1    0    0    0    0  0.00000000000E+00  0.00000000000E+00  0.12525980253E-10  0.17130000000E+03  0.17130000000E+03 0. -1.
       11    1    1    2    0    0 -0.35844617263E-01 -0.38905246360E-02  0.31836708815E+00  0.32040261674E+00  0.51109989000E-03 0.  1.
     -623    1    1    2    0    0  0.57266599226E-02  0.19821427381E-01  0.35536790291E-02  0.17130000128E+03  0.17130000000E+03 0. -1.
      622    1    1    2    0    0  0.30117957340E-01 -0.15930902746E-01  0.36780792003E+01  0.36795961040E+01  0.10000000000E+00 0.  1.
</event>
<event>
 5   0  0.6262544E+06  0.9118800E+02  0.7818608E-02  0.1180000E+00
       11   -1    0    0    0    0  0.00000000000E+00  0.00000000000E+00  0.39999999673E+01  0.40000000000E+01  0.51109989000E-03 0. -1.
     -623   -1    0    0    0    0  0.00000000000E+00  0.00000000000E+00  0.12525980253E-10  0.17130000000E+03  0.17130000000E+03 0. -1.
       11    1    1    2    0    0  0.17151904800E-02  0.21585050387E-02  0.53802977813E-01  0.53875993413E-01  0.51109989000E-03 0. -1.
     -623    1    1    2    0    0  0.14177332933E-02 -0.12406751207E-02  0.13416190026E-02  0.17130000002E+03  0.17130000000E+03 0. -1.
      622    1    1    2    0    0 -0.31329237732E-02 -0.91782991793E-03  0.39448553705E+01  0.39461239910E+01  0.10000000000E+00 0. -1.
</event>
<event>
 5   0  0.6262544E+06  0.9118800E+02  0.7818608E-02  0.1180000E+00
       11   -1    0    0    0    0  0.00000000000E+00  0.00000000000E+00  0.39999999673E+01  0.40000000000E+01  0.51109989000E-03 0. -1.
     -623   -1    0    0    0    0  0.00000000000E+00  0.00000000000E+00  0.12525980253E-10  0.17130000000E+03  0.17130000000E+03 0.  1.
       11    1    1    2    0    0  0.12116880687E-01  0.15586785208E-01  0.72652703375E-01  0.75289064289E-01  0.51109989000E-03 0. -1.
     -623    1    1    2    0    0 -0.17256313281E-01 -0.11005957871E-01  0.39178225839E-02  0.17130000127E+03  0.17130000000E+03 0.  1.
      622    1    1    2    0    0  0.51394325937E-02 -0.45808273366E-02  0.39234294413E+01  0.39247096681E+01  0.10000000000E+00 0. -1.
</event>
<event>
 5   0  0.6262544E+06  0.9118800E+02  0.7818608E-02  0.1180000E+00
       11   -1    0    0    0    0  0.00000000000E+00  0.00000000000E+00  0.39999999673E+01  0.40000000000E+01  0.51109989000E-03 0.  1.
     -623   -1    0    0    0    0  0.00000000000E+00  0.00000000000E+00  0.12525980253E-10  0.17130000000E+03  0.17130000000E+03 0.  1.
       11    1    1    2    0    0  0.43623915626E-02 -0.15067545716E-01  0.12136622603E-01  0.19839864489E-01  0.51109989000E-03 0.  1.
     -623    1    1    2    0    0 -0.92197089605E-02  0.58213094845E-02  0.89739288124E-02  0.17130000058E+03  0.17130000000E+03 0.  1.
      622    1    1    2    0    0  0.48573173979E-02  0.92462362315E-02  0.39788894159E+01  0.39801595534E+01  0.10000000000E+00 0.  1.
</event>
<event>
 5   0  0.6262544E+06  0.9118800E+02  0.7818608E-02  0.1180000E+00
       11   -1    0    0    0    0  0.00000000000E+00  0.00000000000E+00  0.39999999673E+01  0.40000000000E+01  0.51109989000E-03 0.  1.
     -623   -1    0    0    0    0  0.00000000000E+00  0.00000000000E+00  0.12525980253E-10  0.17130000000E+03  0.17130000000E+03 0.  1.
       11    1    1    2    0    0  0.25761749746E-01  0.10124821284E-01  0.44408289287E+00  0.44494500415E+00  0.51109989000E-03 0.  1.
     -623    1    1    2    0    0  0.32408354572E-04 -0.23843735036E-02  0.23708829057E-02  0.17130000003E+03  0.17130000000E+03 0.  1.
      622    1    1    2    0    0 -0.25794158101E-01 -0.77404477799E-02  0.35535461917E+01  0.35550549630E+01  0.10000000000E+00 0.  1.
</event>
<event>
 5   0  0.6262544E+06  0.9118800E+02  0.7818608E-02  0.1180000E+00
       11   -1    0    0    0    0  0.00000000000E+00  0.00000000000E+00  0.39999999673E+01  0.40000000000E+01  0.51109989000E-03 0. -1.
     -623   -1    0    0    0    0  0.00000000000E+00  0.00000000000E+00  0.12525980253E-10  0.17130000000E+03  0.17130000000E+03 0.  1.
       11    1    1    2    0    0  0.20054610880E-03  0.33084262037E-02  0.39893705468E-02  0.52117370563E-02  0.51109989000E-03 0. -1.
     -623    1    1    2    0    0  0.45280310507E-03 -0.20117341239E-02  0.24744550552E-02  0.17130000003E+03  0.17130000000E+03 0.  1.
      622    1    1    2    0    0 -0.65334921387E-03 -0.12966920799E-02  0.39935361417E+01  0.39947882326E+01  0.10000000000E+00 0. -1.
</event>
<event>
 5   0  0.6262544E+06  0.9118800E+02  0.7818608E-02  0.1180000E+00
       11   -1    0    0    0    0  0.00000000000E+00  0.00000000000E+00  0.39999999673E+01  0.40000000000E+01  0.51109989000E-03 0. -1.
     -623   -1    0    0    0    0  0.00000000000E+00  0.00000000000E+00  0.12525980253E-10  0.17130000000E+03  0.17130000000E+03 0. -1.
       11    1    1    2    0    0 -0.21377785596E-02 -0.10796812448E-02  0.46831407391E-01  0.46895391557E-01  0.51109989000E-03 0. -1.
     -623    1    1    2    0    0 -0.68767114733E-03  0.52496242747E-03  0.13300389356E-02  0.17130000001E+03  0.17130000000E+03 0. -1.
      622    1    1    2    0    0  0.28254497069E-02  0.55471881735E-03  0.39518385210E+01  0.39531046011E+01  0.10000000000E+00 0. -1.
</event>
<event>
 5   0  0.6262544E+06  0.9118800E+02  0.7818608E-02  0.1180000E+00
       11   -1    0    0    0    0  0.00000000000E+00  0.00000000000E+00  0.39999999673E+01  0.40000000000E+01  0.51109989000E-03 0. -1.
     -623   -1    0    0    0    0  0.00000000000E+00  0.00000000000E+00  0.12525980253E-10  0.17130000000E+03  0.17130000000E+03 0.  1.
       11    1    1    2    0    0  0.46277850290E-03 -0.25365162582E-02  0.16896104875E+00  0.16898149394E+00  0.51109989000E-03 0. -1.
     -623    1    1    2    0    0 -0.31628141811E-02  0.92456663069E-02  0.13328834565E-02  0.17130000028E+03  0.17130000000E+03 0.  1.
      622    1    1    2    0    0  0.27000356782E-02 -0.67091500487E-02  0.38297060352E+01  0.38310182222E+01  0.10000000000E+00 0. -1.
</event>
<event>
 5   0  0.6262544E+06  0.9118800E+02  0.7818608E-02  0.1180000E+00
       11   -1    0    0    0    0  0.00000000000E+00  0.00000000000E+00  0.39999999673E+01  0.40000000000E+01  0.51109989000E-03 0. -1.
     -623   -1    0    0    0    0  0.00000000000E+00  0.00000000000E+00  0.12525980253E-10  0.17130000000E+03  0.17130000000E+03 0.  1.
       11    1    1    2    0    0  0.18624555649E-01  0.35974548661E-02  0.18501091787E+00  0.18598149561E+00  0.51109989000E-03 0. -1.
     -623    1    1    2    0    0  0.60309343540E-02 -0.21631613642E-01  0.24055854011E-02  0.17130000149E+03  0.17130000000E+03 0.  1.
      622    1    1    2    0    0 -0.24655490003E-01  0.18034158777E-01  0.38125834643E+01  0.38140170157E+01  0.10000000000E+00 0. -1.
</event>
<event>
 5   0  0.6262544E+06  0.9118800E+02  0.7818608E-02  0.1180000E+00
       11   -1    0    0    0    0  0.00000000000E+00  0.00000000000E+00  0.39999999673E+01  0.40000000000E+01  0.51109989000E-03 0.  1.
     -623   -1    0    0    0    0  0.00000000000E+00  0.00000000000E+00  0.12525980253E-10  0.17130000000E+03  0.17130000000E+03 0.  1.
       11    1    1    2    0    0  0.33681483310E-01 -0.23511058160E-01  0.10758615253E+01  0.10766454825E+01  0.51109989000E-03 0.  1.
     -623    1    1    2    0    0  0.20118197989E-01  0.24933570469E-01  0.29935404705E-02  0.17130000302E+03  0.17130000000E+03 0.  1.
      622    1    1    2    0    0 -0.53799681299E-01 -0.14225123097E-02  0.29211449016E+01  0.29233514953E+01  0.10000000000E+00 0.  1.
</event>
<event>
 5   0  0.6262544E+06  0.9118800E+02  0.7818608E-02  0.1180000E+00
       11   -1    0    0    0    0  0.00000000000E+00  0.00000000000E+00  0.39999999673E+01  0.40000000000E+01  0.51109989000E-03 0. -1.
     -623   -1    0    0    0    0  0.00000000000E+00  0.00000000000E+00  0.12525980253E-10  0.17130000000E+03  0.17130000000E+03 0.  1.
       11    1    1    2    0    0  0.23236943499E-01  0.54501211170E-03  0.22147029277E+01  0.22148249529E+01  0.51109989000E-03 0. -1.
     -623    1    1    2    0    0 -0.24466659932E-02 -0.39298871698E-02  0.30496001332E-02  0.17130000009E+03  0.17130000000E+03 0.  1.
      622    1    1    2    0    0 -0.20790277506E-01  0.33848750581E-02  0.17822474395E+01  0.17851749574E+01  0.10000000000E+00 0. -1.
</event>
<event>
 5   0  0.6262544E+06  0.9118800E+02  0.7818608E-02  0.1180000E+00
       11   -1    0    0    0    0  0.00000000000E+00  0.00000000000E+00  0.39999999673E+01  0.40000000000E+01  0.51109989000E-03 0. -1.
     -623   -1    0    0    0    0  0.00000000000E+00  0.00000000000E+00  0.12525980253E-10  0.17130000000E+03  0.17130000000E+03 0. -1.
       11    1    1    2    0    0 -0.17222134528E-02  0.16648641752E-01  0.57047879268E+00  0.57072450220E+00  0.51109989000E-03 0. -1.
     -623    1    1    2    0    0  0.12315903523E-02 -0.64284504466E-03  0.17414393090E-02  0.17130000001E+03  0.17130000000E+03 0. -1.
      622    1    1    2    0    0  0.49062310050E-03 -0.16005796708E-01  0.34277797353E+01  0.34292754833E+01  0.10000000000E+00 0. -1.
</event>
<event>
 5   0  0.6262544E+06  0.9118800E+02  0.7818608E-02  0.1180000E+00
       11   -1    0    0    0    0  0.00000000000E+00  0.00000000000E+00  0.39999999673E+01  0.40000000000E+01  0.51109989000E-03 0. -1.
     -623   -1    0    0    0    0  0.00000000000E+00  0.00000000000E+00  0.12525980253E-10  0.17130000000E+03  0.17130000000E+03 0.  1.
       11    1    1    2    0    0 -0.29289064512E-03  0.20977102161E-01  0.47941491223E+00  0.47987398751E+00  0.51109989000E-03 0. -1.
     -623    1    1    2    0    0  0.33090985700E-02  0.19343187254E-02  0.19556724609E-02  0.17130000005E+03  0.17130000000E+03 0.  1.
      622    1    1    2    0    0 -0.30162079248E-02 -0.22911420887E-01  0.35186293827E+01  0.35201259584E+01  0.10000000000E+00 0. -1.
</event>
<event>
 5   0  0.6262544E+06  0.9118800E+02  0.7818608E-02  0.1180000E+00
       11   -1    0    0    0    0  0.00000000000E+00  0.00000000000E+00  0.39999999673E+01  0.40000000000E+01  0.51109989000E-03 0. -1.
     -623   -1    0    0    0    0  0.00000000000E+00  0.00000000000E+00  0.12525980253E-10  0.17130000000E+03  0.17130000000E+03 0.  1.
       11    1    1    2    0    0  0.41912504655E-02  0.62121688972E-03  0.41867680491E-01  0.42084633582E-01  0.51109989000E-03 0. -1.
     -623    1    1    2    0    0 -0.68416681843E-02 -0.26327883613E-02  0.14819757871E-02  0.17130000016E+03  0.17130000000E+03 0.  1.
      622    1    1    2    0    0  0.26504177194E-02  0.20115714718E-02  0.39566503114E+01  0.39579152035E+01  0.10000000000E+00 0. -1.
</event>
<event>
 5   0  0.6262544E+06  0.9118800E+02  0.7818608E-02  0.1180000E+00
       11   -1    0    0    0    0  0.00000000000E+00  0.00000000000E+00  0.39999999673E+01  0.40000000000E+01  0.51109989000E-03 0.  1.
     -623   -1    0    0    0    0  0.00000000000E+00  0.00000000000E+00  0.12525980253E-10  0.17130000000E+03  0.17130000000E+03 0.  1.
       11    1    1    2    0    0  0.40889058868E-02 -0.23533198736E-02  0.25698815750E-01  0.26133266536E-01  0.51109989000E-03 0.  1.
     -623    1    1    2    0    0 -0.28717532314E-02 -0.27498826608E-02  0.16963565534E-02  0.17130000005E+03  0.17130000000E+03 0.  1.
      622    1    1    2    0    0 -0.12171526552E-02  0.51032025347E-02  0.39726047954E+01  0.39738666792E+01  0.10000000000E+00 0.  1.
</event>
<event>
 5   0  0.6262544E+06  0.9118800E+02  0.7818608E-02  0.1180000E+00
       11   -1    0    0    0    0  0.00000000000E+00  0.00000000000E+00  0.39999999673E+01  0.40000000000E+01  0.51109989000E-03 0.  1.
     -623   -1    0    0    0    0  0.00000000000E+00  0.00000000000E+00  0.12525980253E-10  0.17130000000E+03  0.17130000000E+03 0.  1.
       11    1    1    2    0    0  0.21390952064E-02 -0.14496253789E-01  0.13287735522E+00  0.13368384291E+00  0.51109989000E-03 0.  1.
     -623    1    1    2    0    0  0.63741819522E-02 -0.32823321608E-02  0.21503214260E-02  0.17130000016E+03  0.17130000000E+03 0.  1.
      622    1    1    2    0    0 -0.85132771587E-02  0.17778585950E-01  0.38649722908E+01  0.38663159936E+01  0.10000000000E+00 0.  1.
</event>
<event>
 5   0  0.6262544E+06  0.9118800E+02  0.7818608E-02  0.1180000E+00
       11   -1    0    0    0    0  0.00000000000E+00  0.00000000000E+00  0.39999999673E+01  0.40000000000E+01  0.51109989000E-03 0.  1.
     -623   -1    0    0    0    0  0.00000000000E+00  0.00000000000E+00  0.12525980253E-10  0.17130000000E+03  0.17130000000E+03 0.  1.
       11    1    1    2    0    0 -0.22734848914E-01 -0.30630309873E-01  0.77402428113E+00  0.77496383028E+00  0.51109989000E-03 0.  1.
     -623    1    1    2    0    0  0.40329762313E-02  0.19744250011E-02  0.26719676500E-02  0.17130000008E+03  0.17130000000E+03 0.  1.
      622    1    1    2    0    0  0.18701872682E-01  0.28655884872E-01  0.32233037188E+01  0.32250360902E+01  0.10000000000E+00 0.  1.
</event>
<event>
 5   0  0.6262544E+06  0.9118800E+02  0.7818608E-02  0.1180000E+00
       11   -1    0    0    0    0  0.00000000000E+00  0.00000000000E+00  0.39999999673E+01  0.40000000000E+01  0.51109989000E-03 0.  1.
     -623   -1    0    0    0    0  0.00000000000E+00  0.00000000000E+00  0.12525980253E-10  0.17130000000E+03  0.17130000000E+03 0. -1.
       11    1    1    2    0    0  0.66954481114E-03 -0.22829746764E-02  0.20439061067E-01  0.20583408406E-01  0.51109989000E-03 0.  1.
     -623    1    1    2    0    0 -0.42179393369E-02  0.11434795605E-01  0.14135277647E-02  0.17130000044E+03  0.17130000000E+03 0. -1.
      622    1    1    2    0    0  0.35483945258E-02 -0.91518209289E-02  0.39781473785E+01  0.39794161522E+01  0.10000000000E+00 0.  1.
</event>
<event>
 5   0  0.6262544E+06  0.9118800E+02  0.7818608E-02  0.1180000E+00
       11   -1    0    0    0    0  0.00000000000E+00  0.00000000000E+00  0.39999999673E+01  0.40000000000E+01  0.51109989000E-03 0. -1.
     -623   -1    0    0    0    0  0.00000000000E+00  0.00000000000E+00  0.12525980253E-10  0.17130000000E+03  0.17130000000E+03 0. -1.
       11    1    1    2    0    0 -0.56791129818E-01 -0.12878209738E-01  0.14139474021E+01  0.14151461401E+01  0.51109989000E-03 0. -1.
     -623    1    1    2    0    0  0.29186939947E-01  0.34045671867E-01  0.33739349372E-02  0.17130000590E+03  0.17130000000E+03 0. -1.
      622    1    1    2    0    0  0.27604189870E-01 -0.21167462128E-01  0.25826786303E+01  0.25848479569E+01  0.10000000000E+00 0.  1.
</event>
<event>
 5   0  0.6262544E+06  0.9118800E+02  0.7818608E-02  0.1180000E+00
       11   -1    0    0    0    0  0.00000000000E+00  0.00000000000E+00  0.39999999673E+01  0.40000000000E+01  0.51109989000E-03 0.  1.
     -623   -1    0    0    0    0  0.00000000000E+00  0.00000000000E+00  0.12525980253E-10  0.17130000000E+03  0.17130000000E+03 0. -1.
       11    1    1    2    0    0  0.11406415507E+00  0.25762850569E-02  0.11078931701E+01  0.11137525786E+01  0.51109989000E-03 0.  1.
     -623    1    1    2    0    0  0.49351372264E-01 -0.16412405427E-02  0.12232656733E-01  0.17130000755E+03  0.17130000000E+03 0. -1.
      622    1    1    2    0    0 -0.16341552734E+00 -0.93504451426E-03  0.28798741405E+01  0.28862398677E+01  0.10000000000E+00 0.  1.
</event>
<event>
 5   0  0.6262544E+06  0.9118800E+02  0.7818608E-02  0.1180000E+00
       11   -1    0    0    0    0  0.00000000000E+00  0.00000000000E+00  0.39999999673E+01  0.40000000000E+01  0.51109989000E-03 0.  1.
     -623   -1    0    0    0    0  0.00000000000E+00  0.00000000000E+00  0.12525980253E-10  0.17130000000E+03  0.17130000000E+03 0. -1.
       11    1    1    2    0    0 -0.23534248631E-02  0.26169216950E-02  0.91192438339E-01  0.91261760451E-01  0.51109989000E-03 0.  1.
     -623    1    1    2    0    0 -0.47892753289E-02 -0.19994965539E-02  0.13553451273E-02  0.17130000008E+03  0.17130000000E+03 0. -1.
      622    1    1    2    0    0  0.71427001921E-02 -0.61742514115E-03  0.39074521839E+01  0.39087381556E+01  0.10000000000E+00 0.  1.
</event>
<event>
 5   0  0.6262544E+06  0.9118800E+02  0.7818608E-02  0.1180000E+00
       11   -1    0    0    0    0  0.00000000000E+00  0.00000000000E+00  0.39999999673E+01  0.40000000000E+01  0.51109989000E-03 0.  1.
     -623   -1    0    0    0    0  0.00000000000E+00  0.00000000000E+00  0.12525980253E-10  0.17130000000E+03  0.17130000000E+03 0. -1.
       11    1    1    2    0    0 -0.37806263358E-02  0.35799737825E-01  0.12504499923E+00  0.13012466107E+00  0.51109989000E-03 0.  1.
     -623    1    1    2    0    0 -0.21850925259E-02  0.94719334444E-02  0.66417835995E-02  0.17130000040E+03  0.17130000000E+03 0. -1.
      622    1    1    2    0    0  0.59657188617E-02 -0.45271671269E-01  0.38683131845E+01  0.38698749344E+01  0.10000000000E+00 0.  1.
</event>
<event>
 5   0  0.6262544E+06  0.9118800E+02  0.7818608E-02  0.1180000E+00
       11   -1    0    0    0    0  0.00000000000E+00  0.00000000000E+00  0.39999999673E+01  0.40000000000E+01  0.51109989000E-03 0.  1.
     -623   -1    0    0    0    0  0.00000000000E+00  0.00000000000E+00  0.12525980253E-10  0.17130000000E+03  0.17130000000E+03 0.  1.
       11    1    1    2    0    0 -0.67445723667E-02 -0.19357011871E-02  0.42739646295E-02  0.82319007210E-02  0.51109989000E-03 0.  1.
     -623    1    1    2    0    0  0.11092504668E-01 -0.20308301616E-03  0.52140584095E-02  0.17130000044E+03  0.17130000000E+03 0.  1.
      622    1    1    2    0    0 -0.43479323018E-02  0.21387842033E-02  0.39905119443E+01  0.39917676607E+01  0.10000000000E+00 0.  1.
</event>
<event>
 5   0  0.6262544E+06  0.9118800E+02  0.7818608E-02  0.1180000E+00
       11   -1    0    0    0    0  0.00000000000E+00  0.00000000000E+00  0.39999999673E+01  0.40000000000E+01  0.51109989000E-03 0.  1.
     -623   -1    0    0    0    0  0.00000000000E+00  0.00000000000E+00  0.12525980253E-10  0.17130000000E+03  0.17130000000E+03 0.  1.
       11    1    1    2    0    0 -0.14431420657E-01  0.89246447209E-02  0.33380932044E-01  0.37449473064E-01  0.51109989000E-03 0.  1.
     -623    1    1    2    0    0  0.26554929943E-02 -0.69969583255E-02  0.53487425101E-02  0.17130000025E+03  0.17130000000E+03 0.  1.
      622    1    1    2    0    0  0.11775927663E-01 -0.19276863954E-02  0.39612702928E+01  0.39625502800E+01  0.10000000000E+00 0.  1.
</event>
<event>
 5   0  0.6262544E+06  0.9118800E+02  0.7818608E-02  0.1180000E+00
       11   -1    0    0    0    0  0.00000000000E+00  0.00000000000E+00  0.39999999673E+01  0.40000000000E+01  0.51109989000E-03 0. -1.
     -623   -1    0    0    0    0  0.00000000000E+00  0.00000000000E+00  0.12525980253E-10  0.17130000000E+03  0.17130000000E+03 0.  1.
       11    1    1    2    0    0  0.22613586864E-02  0.12025330815E-01  0.17140063707E-01  0.21065738328E-01  0.51109989000E-03 0. -1.
     -623    1    1    2    0    0 -0.11419543447E-01  0.88989196488E-02  0.52487293786E-02  0.17130000069E+03  0.17130000000E+03 0.  1.
      622    1    1    2    0    0  0.91581847610E-02 -0.20924250463E-01  0.39776111743E+01  0.39789335695E+01  0.10000000000E+00 0. -1.
</event>
<event>
 5   0  0.6262544E+06  0.9118800E+02  0.7818608E-02  0.1180000E+00
       11   -1    0    0    0    0  0.00000000000E+00  0.00000000000E+00  0.39999999673E+01  0.40000000000E+01  0.51109989000E-03 0. -1.
     -623   -1    0    0    0    0  0.00000000000E+00  0.00000000000E+00  0.12525980253E-10  0.17130000000E+03  0.17130000000E+03 0. -1.
       11    1    1    2    0    0 -0.59927614287E-02 -0.49543124274E-02  0.22070608644E-01  0.23405798217E-01  0.51109989000E-03 0. -1.
     -623    1    1    2    0    0  0.33035803492E-02  0.12198661935E-01  0.26007095916E-02  0.17130000049E+03  0.17130000000E+03 0. -1.
      622    1    1    2    0    0  0.26891810794E-02 -0.72443495074E-02  0.39753286492E+01  0.39765937159E+01  0.10000000000E+00 0. -1.
</event>
<event>
 5   0  0.6262544E+06  0.9118800E+02  0.7818608E-02  0.1180000E+00
       11   -1    0    0    0    0  0.00000000000E+00  0.00000000000E+00  0.39999999673E+01  0.40000000000E+01  0.51109989000E-03 0. -1.
     -623   -1    0    0    0    0  0.00000000000E+00  0.00000000000E+00  0.12525980253E-10  0.17130000000E+03  0.17130000000E+03 0.  1.
       11    1    1    2    0    0 -0.14590253599E-01  0.12445717423E-01  0.27524651856E+00  0.27591425948E+00  0.51109989000E-03 0. -1.
     -623    1    1    2    0    0  0.23388704752E-01 -0.13265644364E-01  0.20231724539E-02  0.17130000212E+03  0.17130000000E+03 0.  1.
      622    1    1    2    0    0 -0.87984511543E-02  0.81992694175E-03  0.37227302765E+01  0.37240836184E+01  0.10000000000E+00 0. -1.
</event>
<event>
 5   0  0.6262544E+06  0.9118800E+02  0.7818608E-02  0.1180000E+00
       11   -1    0    0    0    0  0.00000000000E+00  0.00000000000E+00  0.39999999673E+01  0.40000000000E+01  0.51109989000E-03 0.  1.
     -623   -1    0    0    0    0  0.00000000000E+00  0.00000000000E+00  0.12525980253E-10  0.17130000000E+03  0.17130000000E+03 0.  1.
       11    1    1    2    0    0 -0.35655564092E-03  0.10717172716E-01  0.75191939120E+00  0.75199602194E+00  0.51109989000E-03 0.  1.
     -623    1    1    2    0    0  0.23389179074E-02  0.56285431716E-04  0.16348751047E-02  0.17130000002E+03  0.17130000000E+03 0.  1.
      622    1    1    2    0    0 -0.19823622665E-02 -0.10773458147E-01  0.32464457011E+01  0.32480039543E+01  0.10000000000E+00 0.  1.
</event>
<event>
 5   0  0.6262544E+06  0.9118800E+02  0.7818608E-02  0.1180000E+00
       11   -1    0    0    0    0  0.00000000000E+00  0.00000000000E+00  0.39999999673E+01  0.40000000000E+01  0.51109989000E-03 0. -1.
     -623   -1    0    0    0    0  0.00000000000E+00  0.00000000000E+00  0.12525980253E-10  0.17130000000E+03  0.17130000000E+03 0. -1.
       11    1    1    2    0    0 -0.17735204107E-02 -0.13047241046E-02  0.20933064135E-01  0.21054740003E-01  0.51109989000E-03 0. -1.
     -623    1    1    2    0    0 -0.46807262261E-03  0.78035475025E-02  0.13845807511E-02  0.17130000018E+03  0.17130000000E+03 0. -1.
      622    1    1    2    0    0  0.22415930333E-02 -0.64988233979E-02  0.39776823225E+01  0.39789450760E+01  0.10000000000E+00 0. -1.
</event>
<event>
 5   0  0.6262544E+06  0.9118800E+02  0.7818608E-02  0.1180000E+00
       11   -1    0    0    0    0  0.00000000000E+00  0.00000000000E+00  0.39999999673E+01  0.40000000000E+01  0.51109989000E-03 0. -1.
     -623   -1    0    0    0    0  0.00000000000E+00  0.00000000000E+00  0.12525980253E-10  0.17130000000E+03  0.17130000000E+03 0.  1.
       11    1    1    2    0    0  0.84931979538E-02 -0.15220128762E-01  0.12997381028E+01  0.12998550626E+01  0.51109989000E-03 0. -1.
     -623    1    1    2    0    0 -0.30919130095E-02 -0.49499884704E-03  0.20205253116E-02  0.17130000004E+03  0.17130000000E+03 0.  1.
      622    1    1    2    0    0 -0.54012849443E-02  0.15715127609E-01  0.26982413392E+01  0.27001448967E+01  0.10000000000E+00 0. -1.
</event>
<event>
 5   0  0.6262544E+06  0.9118800E+02  0.7818608E-02  0.1180000E+00
       11   -1    0    0    0    0  0.00000000000E+00  0.00000000000E+00  0.39999999673E+01  0.40000000000E+01  0.51109989000E-03 0.  1.
     -623   -1    0    0    0    0  0.00000000000E+00  0.00000000000E+00  0.12525980253E-10  0.17130000000E+03  0.17130000000E+03 0.  1.
       11    1    1    2    0    0  0.16115147744E-02  0.39500930177E-02  0.11218592842E-01  0.12013253646E-01  0.51109989000E-03 0.  1.
     -623    1    1    2    0    0 -0.72002553720E-03  0.16064391204E-03  0.20508236032E-02  0.17130000001E+03  0.17130000000E+03 0.  1.
      622    1    1    2    0    0 -0.89148923717E-03 -0.41107369297E-02  0.39867305511E+01  0.39879867327E+01  0.10000000000E+00 0.  1.
</event>
<event>
 5   0  0.6262544E+06  0.9118800E+02  0.7818608E-02  0.1180000E+00
       11   -1    0    0    0    0  0.00000000000E+00  0.00000000000E+00  0.39999999673E+01  0.40000000000E+01  0.51109989000E-03 0.  1.
     -623   -1    0    0    0    0  0.00000000000E+00  0.00000000000E+00  0.12525980253E-10  0.17130000000E+03  0.17130000000E+03 0. -1.
       11    1    1    2    0    0  0.99542982916E-02  0.46315654918E-02  0.19500237714E-01  0.22384368336E-01  0.51109989000E-03 0.  1.
     -623    1    1    2    0    0  0.25411574243E-02 -0.25304413159E-01  0.42166437439E-02  0.17130000194E+03  0.17130000000E+03 0. -1.
      622    1    1    2    0    0 -0.12495455716E-01  0.20672847667E-01  0.39762830859E+01  0.39776136919E+01  0.10000000000E+00 0.  1.
</event>
<event>
 5   0  0.6262544E+06  0.9118800E+02  0.7818608E-02  0.1180000E+00
       11   -1    0    0    0    0  0.00000000000E+00  0.00000000000E+00  0.39999999673E+01  0.40000000000E+01  0.51109989000E-03 0. -1.
     -623   -1    0    0    0    0  0.00000000000E+00  0.00000000000E+00  0.12525980253E-10  0.17130000000E+03  0.17130000000E+03 0. -1.
       11    1    1    2    0    0  0.74947759825E-02  0.39346613681E-01  0.36695285355E+00  0.36913274797E+00  0.51109989000E-03 0. -1.
     -623    1    1    2    0    0 -0.10918631152E-01  0.17937769497E-02  0.37923904020E-02  0.17130000040E+03  0.17130000000E+03 0. -1.
      622    1    1    2    0    0  0.34238551694E-02 -0.41140390631E-01  0.36292547234E+01  0.36308668527E+01  0.10000000000E+00 0. -1.
</event>
<event>
 5   0  0.6262544E+06  0.9118800E+02  0.7818608E-02  0.1180000E+00
       11   -1    0    0    0    0  0.00000000000E+00  0.00000000000E+00  0.39999999673E+01  0.40000000000E+01  0.51109989000E-03 0.  1.
     -623   -1    0    0    0    0  0.00000000000E+00  0.00000000000E+00  0.12525980253E-10  0.17130000000E+03  0.17130000000E+03 0.  1.
       11    1    1    2    0    0  0.17986219363E-02  0.25877627826E-03  0.16005327496E-01  0.16116256851E-01  0.51109989000E-03 0.  1.
     -623    1    1    2    0    0 -0.44985416727E-02  0.65309985096E-02  0.13730432473E-02  0.17130000019E+03  0.17130000000E+03 0.  1.
      622    1    1    2    0    0  0.26999197363E-02 -0.67897747879E-02  0.39826215966E+01  0.39838835541E+01  0.10000000000E+00 0.  1.
</event>
<event>
 5   0  0.6262544E+06  0.9118800E+02  0.7818608E-02  0.1180000E+00
       11   -1    0    0    0    0  0.00000000000E+00  0.00000000000E+00  0.39999999673E+01  0.40000000000E+01  0.51109989000E-03 0. -1.
     -623   -1    0    0    0    0  0.00000000000E+00  0.00000000000E+00  0.12525980253E-10  0.17130000000E+03  0.17130000000E+03 0. -1.
       11    1    1    2    0    0 -0.18040747626E+00 -0.11088195812E+00  0.13201441503E+01  0.13370200092E+01  0.51109989000E-03 0. -1.
     -623    1    1    2    0    0 -0.16060942276E-01 -0.13751779580E-01  0.28948605192E-01  0.17130000375E+03  0.17130000000E+03 0. -1.
      622    1    1    2    0    0  0.19646841854E+00  0.12463373770E+00  0.26509072118E+01  0.26629762398E+01  0.10000000000E+00 0. -1.
</event>
<event>
 5   0  0.6262544E+06  0.9118800E+02  0.7818608E-02  0.1180000E+00
       11   -1    0    0    0    0  0.00000000000E+00  0.00000000000E+00  0.39999999673E+01  0.40000000000E+01  0.51109989000E-03 0. -1.
     -623   -1    0    0    0    0  0.00000000000E+00  0.00000000000E+00  0.12525980253E-10  0.17130000000E+03  0.17130000000E+03 0.  1.
       11    1    1    2    0    0 -0.14322034424E-02  0.24353512596E-02  0.41000325553E-02  0.50053603777E-02  0.51109989000E-03 0. -1.
     -623    1    1    2    0    0 -0.29622824610E-02 -0.12271572256E-02  0.21597015367E-02  0.17130000004E+03  0.17130000000E+03 0.  1.
      622    1    1    2    0    0  0.43944859034E-02 -0.12081940340E-02  0.39937402333E+01  0.39949945961E+01  0.10000000000E+00 0. -1.
</event>
<event>
 5   0  0.6262544E+06  0.9118800E+02  0.7818608E-02  0.1180000E+00
       11   -1    0    0    0    0  0.00000000000E+00  0.00000000000E+00  0.39999999673E+01  0.40000000000E+01  0.51109989000E-03 0. -1.
     -623   -1    0    0    0    0  0.00000000000E+00  0.00000000000E+00  0.12525980253E-10  0.17130000000E+03  0.17130000000E+03 0. -1.
       11    1    1    2    0    0 -0.19908318375E-01  0.18644958986E-01  0.73940646589E+00  0.73990956113E+00  0.51109989000E-03 0. -1.
     -623    1    1    2    0    0 -0.57927568550E-02 -0.21099161871E-01  0.21408160622E-02  0.17130000141E+03  0.17130000000E+03 0. -1.
      622    1    1    2    0    0  0.25701075230E-01  0.24542028851E-02  0.32584526854E+01  0.32600890281E+01  0.10000000000E+00 0. -1.
</event>
<event>
 5   0  0.6262544E+06  0.9118800E+02  0.7818608E-02  0.1180000E+00
       11   -1    0    0    0    0  0.00000000000E+00  0.00000000000E+00  0.39999999673E+01  0.40000000000E+01  0.51109989000E-03 0.  1.
     -623   -1    0    0    0    0  0.00000000000E+00  0.00000000000E+00  0.12525980253E-10  0.17130000000E+03  0.17130000000E+03 0.  1.
       11    1    1    2    0    0  0.59905430174E-02  0.14649948257E-01  0.24899504493E-01  0.29508543452E-01  0.51109989000E-03 0.  1.
     -623    1    1    2    0    0  0.41214607497E-02 -0.14612323536E-01  0.58821509445E-02  0.17130000077E+03  0.17130000000E+03 0.  1.
      622    1    1    2    0    0 -0.10112003767E-01 -0.37624721096E-04  0.39692183120E+01  0.39704906828E+01  0.10000000000E+00 0.  1.
</event>
<event>
 5   0  0.6262544E+06  0.9118800E+02  0.7818608E-02  0.1180000E+00
       11   -1    0    0    0    0  0.00000000000E+00  0.00000000000E+00  0.39999999673E+01  0.40000000000E+01  0.51109989000E-03 0.  1.
     -623   -1    0    0    0    0  0.00000000000E+00  0.00000000000E+00  0.12525980253E-10  0.17130000000E+03  0.17130000000E+03 0.  1.
       11    1    1    2    0    0  0.42355452167E-02  0.19796957501E-01  0.19378208824E-01  0.28029191338E-01  0.51109989000E-03 0.  1.
     -623    1    1    2    0    0 -0.13777702579E-01 -0.16961217618E-01  0.99241302946E-02  0.17130000168E+03  0.17130000000E+03 0.  1.
      622    1    1    2    0    0  0.95421573618E-02 -0.28357398823E-02  0.39706976282E+01  0.39719691274E+01  0.10000000000E+00 0.  1.
</event>
<event>
 5   0  0.6262544E+06  0.9118800E+02  0.7818608E-02  0.1180000E+00
       11   -1    0    0    0    0  0.00000000000E+00  0.00000000000E+00  0.39999999673E+01  0.40000000000E+01  0.51109989000E-03 0. -1.
     -623   -1    0    0    0    0  0.00000000000E+00  0.00000000000E+00  0.12525980253E-10  0.17130000000E+03  0.17130000000E+03 0. -1.
       11    1    1    2    0    0 -0.42596413272E-01  0.78709362525E-02  0.72803641272E+00  0.72932412927E+00  0.51109989000E-03 0. -1.
     -623    1    1    2    0    0 -0.18382120139E-02 -0.68431812381E-03  0.31267113746E-02  0.17130000004E+03  0.17130000000E+03 0. -1.
      622    1    1    2    0    0  0.44434625285E-01 -0.71866181287E-02  0.32688368433E+01  0.32706758310E+01  0.10000000000E+00 0. -1.
</event>
<event>
 5   0  0.6262544E+06  0.9118800E+02  0.7818608E-02  0.1180000E+00
       11   -1    0    0    0    0  0.00000000000E+00  0.00000000000E+00  0.39999999673E+01  0.40000000000E+01  0.51109989000E-03 0. -1.
     -623   -1    0    0    0    0  0.00000000000E+00  0.00000000000E+00  0.12525980253E-10  0.17130000000E+03  0.17130000000E+03 0. -1.
       11    1    1    2    0    0  0.34126410340E-02 -0.10449872294E-01  0.37060349362E+00  0.37076684946E+00  0.51109989000E-03 0. -1.
     -623    1    1    2    0    0 -0.53659087500E-02 -0.36946652427E-02  0.15695172290E-02  0.17130000013E+03  0.17130000000E+03 0. -1.
      622    1    1    2    0    0  0.19532677160E-02  0.14144537536E-01  0.36278269565E+01  0.36292330195E+01  0.10000000000E+00 0. -1.
</event>
<event>
 5   0  0.6262544E+06  0.9118800E+02  0.7818608E-02  0.1180000E+00
       11   -1    0    0    0    0  0.00000000000E+00  0.00000000000E+00  0.39999999673E+01  0.40000000000E+01  0.51109989000E-03 0. -1.
     -623   -1    0    0    0    0  0.00000000000E+00  0.00000000000E+00  0.12525980253E-10  0.17130000000E+03  0.17130000000E+03 0.  1.
       11    1    1    2    0    0 -0.13093177890E-01  0.14778758893E-01  0.10239946039E+00  0.10428688188E+00  0.51109989000E-03 0. -1.
     -623    1    1    2    0    0  0.31006241599E-02  0.15253594891E-01  0.33004225570E-02  0.17130000074E+03  0.17130000000E+03 0.  1.
      622    1    1    2    0    0  0.99925537304E-02 -0.30032353784E-01  0.38943000844E+01  0.38957123791E+01  0.10000000000E+00 0. -1.
</event>
<event>
 5   0  0.6262544E+06  0.9118800E+02  0.7818608E-02  0.1180000E+00
       11   -1    0    0    0    0  0.00000000000E+00  0.00000000000E+00  0.39999999673E+01  0.40000000000E+01  0.51109989000E-03 0. -1.
     -623   -1    0    0    0    0  0.00000000000E+00  0.00000000000E+00  0.12525980253E-10  0.17130000000E+03  0.17130000000E+03 0. -1.
       11    1    1    2    0    0 -0.95733831949E-01 -0.12515937945E-01  0.19323777757E+01  0.19347882945E+01  0.51109989000E-03 0. -1.
     -623    1    1    2    0    0  0.31706009195E-01  0.76896897018E-02  0.58357597855E-02  0.17130000321E+03  0.17130000000E+03 0. -1.
      622    1    1    2    0    0  0.64027822753E-01  0.48262482428E-02  0.20617864319E+01  0.20652084993E+01  0.10000000000E+00 0.  0.
</event>
<event>
 5   0  0.6262544E+06  0.9118800E+02  0.7818608E-02  0.1180000E+00
       11   -1    0    0    0    0  0.00000000000E+00  0.00000000000E+00  0.39999999673E+01  0.40000000000E+01  0.51109989000E-03 0.  1.
     -623   -1    0    0    0    0  0.00000000000E+00  0.00000000000E+00  0.12525980253E-10  0.17130000000E+03  0.17130000000E+03 0. -1.
       11    1    1    2    0    0 -0.43543753086E-02  0.32311067526E-02  0.29197243018E-01  0.29700856160E-01  0.51109989000E-03 0.  1.
     -623    1    1    2    0    0 -0.12520383679E-02 -0.36113714450E-02  0.17671608700E-02  0.17130000005E+03  0.17130000000E+03 0. -1.
      622    1    1    2    0    0  0.56064136765E-02  0.38026469241E-03  0.39690355635E+01  0.39702990921E+01  0.10000000000E+00 0.  1.
</event>
<event>
 5   0  0.6262544E+06  0.9118800E+02  0.7818608E-02  0.1180000E+00
       11   -1    0    0    0    0  0.00000000000E+00  0.00000000000E+00  0.39999999673E+01  0.40000000000E+01  0.51109989000E-03 0.  1.
     -623   -1    0    0    0    0  0.00000000000E+00  0.00000000000E+00  0.12525980253E-10  0.17130000000E+03  0.17130000000E+03 0.  1.
       11    1    1    2    0    0 -0.36652424882E-02 -0.75413505167E-03  0.65154555810E-01  0.65263926385E-01  0.51109989000E-03 0.  1.
     -623    1    1    2    0    0  0.99885226166E-02 -0.12942137435E-01  0.14099903883E-02  0.17130000079E+03  0.17130000000E+03 0.  1.
      622    1    1    2    0    0 -0.63232801284E-02  0.13696272487E-01  0.39334354212E+01  0.39347352877E+01  0.10000000000E+00 0.  1.
</event>
<event>
 5   0  0.6262544E+06  0.9118800E+02  0.7818608E-02  0.1180000E+00
       11   -1    0    0    0    0  0.00000000000E+00  0.00000000000E+00  0.39999999673E+01  0.40000000000E+01  0.51109989000E-03 0. -1.
     -623   -1    0    0    0    0  0.00000000000E+00  0.00000000000E+00  0.12525980253E-10  0.17130000000E+03  0.17130000000E+03 0.  1.
       11    1    1    2    0    0 -0.14503199965E-02 -0.24283986073E-03  0.29857351158E-01  0.29897910259E-01  0.51109989000E-03 0. -1.
     -623    1    1    2    0    0  0.28634090883E-02 -0.11458532477E-02  0.13006669665E-02  0.17130000003E+03  0.17130000000E+03 0.  1.
      622    1    1    2    0    0 -0.14130890918E-02  0.13886931085E-02  0.39688419492E+01  0.39701020570E+01  0.10000000000E+00 0. -1.
</event>
<event>
 5   0  0.6262544E+06  0.9118800E+02  0.7818608E-02  0.1180000E+00
       11   -1    0    0    0    0  0.00000000000E+00  0.00000000000E+00  0.39999999673E+01  0.40000000000E+01  0.51109989000E-03 0. -1.
     -623   -1    0    0    0    0  0.00000000000E+00  0.00000000000E+00  0.12525980253E-10  0.17130000000E+03  0.17130000000E+03 0. -1.
       11    1    1    2    0    0  0.10148417177E-01  0.50957178389E-02  0.48001955692E-01  0.49329561977E-01  0.51109989000E-03 0. -1.
     -623    1    1    2    0    0  0.18523619205E-02 -0.90091166855E-02  0.26138232281E-02  0.17130000027E+03  0.17130000000E+03 0. -1.
      622    1    1    2    0    0 -0.12000779098E-01  0.39133988468E-02  0.39493841885E+01  0.39506701712E+01  0.10000000000E+00 0. -1.
</event>
<event>
 5   0  0.6262544E+06  0.9118800E+02  0.7818608E-02  0.1180000E+00
       11   -1    0    0    0    0  0.00000000000E+00  0.00000000000E+00  0.39999999673E+01  0.40000000000E+01  0.51109989000E-03 0. -1.
     -623   -1    0    0    0    0  0.00000000000E+00  0.00000000000E+00  0.12525980253E-10  0.17130000000E+03  0.17130000000E+03 0. -1.
       11    1    1    2    0    0  0.24541511157E-01 -0.15275238452E-01  0.26458320996E+00  0.26615813889E+00  0.51109989000E-03 0. -1.
     -623    1    1    2    0    0  0.61121520147E-02 -0.23305027999E-01  0.32412419726E-02  0.17130000173E+03  0.17130000000E+03 0. -1.
      622    1    1    2    0    0 -0.30653663172E-01  0.38580266452E-01  0.37321755155E+01  0.37338401362E+01  0.10000000000E+00 0. -1.
</event>
<event>
 5   0  0.6262544E+06  0.9118800E+02  0.7818608E-02  0.1180000E+00
       11   -1    0    0    0    0  0.00000000000E+00  0.00000000000E+00  0.39999999673E+01  0.40000000000E+01  0.51109989000E-03 0.  1.
     -623   -1    0    0    0    0  0.00000000000E+00  0.00000000000E+00  0.12525980253E-10  0.17130000000E+03  0.17130000000E+03 0. -1.
       11    1    1    2    0    0 -0.10376462550E-02 -0.63242754389E-02  0.34694781176E-01  0.35285439398E-01  0.51109989000E-03 0.  1.
     -623    1    1    2    0    0 -0.38800273110E-02 -0.20002262893E-02  0.18638097071E-02  0.17130000007E+03  0.17130000000E+03 0. -1.
      622    1    1    2    0    0  0.49176735661E-02  0.83245017283E-02  0.39634413766E+01  0.39647144949E+01  0.10000000000E+00 0.  1.
</event>
<event>
 5   0  0.6262544E+06  0.9118800E+02  0.7818608E-02  0.1180000E+00
       11   -1    0    0    0    0  0.00000000000E+00  0.00000000000E+00  0.39999999673E+01  0.40000000000E+01  0.51109989000E-03 0. -1.
     -623   -1    0    0    0    0  0.00000000000E+00  0.00000000000E+00  0.12525980253E-10  0.17130000000E+03  0.17130000000E+03 0.  1.
       11    1    1    2    0    0  0.12207749154E-01 -0.10172358571E-01  0.96786613191E-01  0.98083717975E-01  0.51109989000E-03 0. -1.
     -623    1    1    2    0    0 -0.18924337348E-01 -0.43276976404E-02  0.26125583857E-02  0.17130000112E+03  0.17130000000E+03 0.  1.
      622    1    1    2    0    0  0.67165881939E-02  0.14500056211E-01  0.39006007958E+01  0.39019151621E+01  0.10000000000E+00 0. -1.
</event>
<event>
 5   0  0.6262544E+06  0.9118800E+02  0.7818608E-02  0.1180000E+00
       11   -1    0    0    0    0  0.00000000000E+00  0.00000000000E+00  0.39999999673E+01  0.40000000000E+01  0.51109989000E-03 0.  1.
     -623   -1    0    0    0    0  0.00000000000E+00  0.00000000000E+00  0.12525980253E-10  0.17130000000E+03  0.17130000000E+03 0. -1.
       11    1    1    2    0    0 -0.49359624210E-02 -0.67867689307E-02  0.46773715648E-01  0.47523316953E-01  0.51109989000E-03 0.  1.
     -623    1    1    2    0    0 -0.16111770510E-01  0.10057152752E-01  0.20732801124E-02  0.17130000107E+03  0.17130000000E+03 0. -1.
      622    1    1    2    0    0  0.21047732931E-01 -0.32703838216E-02  0.39511529716E+01  0.39524756176E+01  0.10000000000E+00 0.  1.
</event>
<event>
 5   0  0.6262544E+06  0.9118800E+02  0.7818608E-02  0.1180000E+00
       11   -1    0    0    0    0  0.00000000000E+00  0.00000000000E+00  0.39999999673E+01  0.40000000000E+01  0.51109989000E-03 0. -1.
     -623   -1    0    0    0    0  0.00000000000E+00  0.00000000000E+00  0.12525980253E-10  0.17130000000E+03  0.17130000000E+03 0.  1.
       11    1    1    2    0    0  0.82988016262E-02  0.75370587221E-02  0.19371600931E+01  0.19371925988E+01  0.51109989000E-03 0. -1.
     -623    1    1    2    0    0  0.29305778758E-02 -0.56780923512E-02  0.24893571403E-02  0.17130000014E+03  0.17130000000E+03 0.  1.
      622    1    1    2    0    0 -0.11229379502E-01 -0.18589663707E-02  0.20603505173E+01  0.20628072641E+01  0.10000000000E+00 0. -1.
</event>
<event>
 5   0  0.6262544E+06  0.9118800E+02  0.7818608E-02  0.1180000E+00
       11   -1    0    0    0    0  0.00000000000E+00  0.00000000000E+00  0.39999999673E+01  0.40000000000E+01  0.51109989000E-03 0. -1.
     -623   -1    0    0    0    0  0.00000000000E+00  0.00000000000E+00  0.12525980253E-10  0.17130000000E+03  0.17130000000E+03 0. -1.
       11    1    1    2    0    0 -0.14690665527E-02 -0.36778831608E-02  0.43781596974E-02  0.59257477600E-02  0.51109989000E-03 0. -1.
     -623    1    1    2    0    0  0.35392805954E-02  0.53063750150E-02  0.28006166805E-02  0.17130000014E+03  0.17130000000E+03 0. -1.
      622    1    1    2    0    0 -0.20702140428E-02 -0.16284918543E-02  0.39928211911E+01  0.39940741107E+01  0.10000000000E+00 0. -1.
</event>
<event>
 5   0  0.6262544E+06  0.9118800E+02  0.7818608E-02  0.1180000E+00
       11   -1    0    0    0    0  0.00000000000E+00  0.00000000000E+00  0.39999999673E+01  0.40000000000E+01  0.51109989000E-03 0. -1.
     -623   -1    0    0    0    0  0.00000000000E+00  0.00000000000E+00  0.12525980253E-10  0.17130000000E+03  0.17130000000E+03 0.  1.
       11    1    1    2    0    0  0.94766533774E-02  0.40066447548E-02  0.10406294092E+00  0.10457158820E+00  0.51109989000E-03 0. -1.
     -623    1    1    2    0    0 -0.47427926232E-02  0.15637834185E-01  0.18455988337E-02  0.17130000079E+03  0.17130000000E+03 0.  1.
      622    1    1    2    0    0 -0.47338607540E-02 -0.19644478941E-01  0.38940914278E+01  0.38954276226E+01  0.10000000000E+00 0. -1.
</event>
<event>
 5   0  0.6262544E+06  0.9118800E+02  0.7818608E-02  0.1180000E+00
       11   -1    0    0    0    0  0.00000000000E+00  0.00000000000E+00  0.39999999673E+01  0.40000000000E+01  0.51109989000E-03 0. -1.
     -623   -1    0    0    0    0  0.00000000000E+00  0.00000000000E+00  0.12525980253E-10  0.17130000000E+03  0.17130000000E+03 0. -1.
       11    1    1    2    0    0 -0.16243171911E-01 -0.13380907447E-01  0.64762927589E-01  0.68098365112E-01  0.51109989000E-03 0. -1.
     -623    1    1    2    0    0  0.10841258160E-01 -0.15417273950E-01  0.47175720558E-02  0.17130000110E+03  0.17130000000E+03 0. -1.
      622    1    1    2    0    0  0.54019137512E-02  0.28798181398E-01  0.39305194678E+01  0.39319005332E+01  0.10000000000E+00 0. -1.
</event>
<event>
 5   0  0.6262544E+06  0.9118800E+02  0.7818608E-02  0.1180000E+00
       11   -1    0    0    0    0  0.00000000000E+00  0.00000000000E+00  0.39999999673E+01  0.40000000000E+01  0.51109989000E-03 0. -1.
     -623   -1    0    0    0    0  0.00000000000E+00  0.00000000000E+00  0.12525980253E-10  0.17130000000E+03  0.17130000000E+03 0.  1.
       11    1    1    2    0    0 -0.11205874991E-01  0.35649314126E-01  0.30928719794E+00  0.31153695971E+00  0.51109989000E-03 0. -1.
     -623    1    1    2    0    0  0.25049385934E-02 -0.25477248445E-01  0.36318065258E-02  0.17130000195E+03  0.17130000000E+03 0.  1.
      622    1    1    2    0    0  0.87009363977E-02 -0.10172065680E-01  0.36870809629E+01  0.36884610889E+01  0.10000000000E+00 0. -1.
</event>
<event>
 5   0  0.6262544E+06  0.9118800E+02  0.7818608E-02  0.1180000E+00
       11   -1    0    0    0    0  0.00000000000E+00  0.00000000000E+00  0.39999999673E+01  0.40000000000E+01  0.51109989000E-03 0. -1.
     -623   -1    0    0    0    0  0.00000000000E+00  0.00000000000E+00  0.12525980253E-10  0.17130000000E+03  0.17130000000E+03 0.  1.
       11    1    1    2    0    0 -0.52236394458E-02  0.64620082098E-02  0.56086185025E+00  0.56092363138E+00  0.51109989000E-03 0. -1.
     -623    1    1    2    0    0 -0.55625426211E-03 -0.24823728662E-02  0.15231229602E-02  0.17130000003E+03  0.17130000000E+03 0.  1.
      622    1    1    2    0    0  0.57798937079E-02 -0.39796353436E-02  0.34376149942E+01  0.34390763430E+01  0.10000000000E+00 0. -1.
</event>
<event>
 5   0  0.6262544E+06  0.9118800E+02  0.7818608E-02  0.1180000E+00
       11   -1    0    0    0    0  0.00000000000E+00  0.00000000000E+00  0.39999999673E+01  0.40000000000E+01  0.51109989000E-03 0. -1.
     -623   -1    0    0    0    0  0.00000000000E+00  0.00000000000E+00  0.12525980253E-10  0.17130000000E+03  0.17130000000E+03 0.  1.
       11    1    1    2    0    0 -0.25483932562E-02  0.51058006560E-02  0.99363225345E-01  0.99528263722E-01  0.51109989000E-03 0. -1.
     -623    1    1    2    0    0  0.12729379089E-02 -0.10807231081E-02  0.14494130778E-02  0.17130000001E+03  0.17130000000E+03 0.  1.
      622    1    1    2    0    0  0.12754553472E-02 -0.40250775479E-02  0.38991873289E+01  0.39004717220E+01  0.10000000000E+00 0. -1.
</event>
<event>
 5   0  0.6262544E+06  0.9118800E+02  0.7818608E-02  0.1180000E+00
       11   -1    0    0    0    0  0.00000000000E+00  0.00000000000E+00  0.39999999673E+01  0.40000000000E+01  0.51109989000E-03 0.  1.
     -623   -1    0    0    0    0  0.00000000000E+00  0.00000000000E+00  0.12525980253E-10  0.17130000000E+03  0.17130000000E+03 0.  1.
       11    1    1    2    0    0  0.12489534612E-02 -0.46717260440E-02  0.12797307820E-02  0.50283041823E-02  0.51109989000E-03 0.  1.
     -623    1    1    2    0    0 -0.61887080733E-04 -0.80842250882E-03  0.50043215616E-02  0.17130000008E+03  0.17130000000E+03 0.  1.
      622    1    1    2    0    0 -0.11870663804E-02  0.54801485528E-02  0.39937159151E+01  0.39949716209E+01  0.10000000000E+00 0.  1.
</event>
<event>
 5   0  0.6262544E+06  0.9118800E+02  0.7818608E-02  0.1180000E+00
       11   -1    0    0    0    0  0.00000000000E+00  0.00000000000E+00  0.39999999673E+01  0.40000000000E+01  0.51109989000E-03 0.  1.
     -623   -1    0    0    0    0  0.00000000000E+00  0.00000000000E+00  0.12525980253E-10  0.17130000000E+03  0.17130000000E+03 0.  1.
       11    1    1    2    0    0  0.24940212405E-01 -0.12218171843E-01  0.68854129822E+00  0.68910135575E+00  0.51109989000E-03 0.  1.
     -623    1    1    2    0    0 -0.16690786031E-01  0.20575834481E-01  0.20934313710E-02  0.17130000206E+03  0.17130000000E+03 0.  1.
      622    1    1    2    0    0 -0.82494263739E-02 -0.83576626378E-02  0.33093652378E+01  0.33108965826E+01  0.10000000000E+00 0.  1.
</event>
<event>
 5   0  0.6262544E+06  0.9118800E+02  0.7818608E-02  0.1180000E+00
       11   -1    0    0    0    0  0.00000000000E+00  0.00000000000E+00  0.39999999673E+01  0.40000000000E+01  0.51109989000E-03 0.  1.
     -623   -1    0    0    0    0  0.00000000000E+00  0.00000000000E+00  0.12525980253E-10  0.17130000000E+03  0.17130000000E+03 0. -1.
       11    1    1    2    0    0 -0.24979261515E-02 -0.11609415780E-02  0.12162680239E+00  0.12165906338E+00  0.51109989000E-03 0.  1.
     -623    1    1    2    0    0 -0.36630067312E-03 -0.15058792356E-02  0.13236410575E-02  0.17130000001E+03  0.17130000000E+03 0. -1.
      622    1    1    2    0    0  0.28642268247E-02  0.26668208136E-02  0.38770495241E+01  0.38783409247E+01  0.10000000000E+00 0.  1.
</event>
<event>
 5   0  0.6262544E+06  0.9118800E+02  0.7818608E-02  0.1180000E+00
       11   -1    0    0    0    0  0.00000000000E+00  0.00000000000E+00  0.39999999673E+01  0.40000000000E+01  0.51109989000E-03 0. -1.
     -623   -1    0    0    0    0  0.00000000000E+00  0.00000000000E+00  0.12525980253E-10  0.17130000000E+03  0.17130000000E+03 0.  1.
       11    1    1    2    0    0 -0.17694833018E-01 -0.25871872909E-01  0.19903085067E+00  0.20148449485E+00  0.51109989000E-03 0. -1.
     -623    1    1    2    0    0  0.12653884973E-01  0.13279689042E-01  0.37953929753E-02  0.17130000102E+03  0.17130000000E+03 0.  1.
      622    1    1    2    0    0  0.50409480451E-02  0.12592183867E-01  0.37971737237E+01  0.37985144810E+01  0.10000000000E+00 0.  0.
</event>
<event>
 5   0  0.6262544E+06  0.9118800E+02  0.7818608E-02  0.1180000E+00
       11   -1    0    0    0    0  0.00000000000E+00  0.00000000000E+00  0.39999999673E+01  0.40000000000E+01  0.51109989000E-03 0.  1.
     -623   -1    0    0    0    0  0.00000000000E+00  0.00000000000E+00  0.12525980253E-10  0.17130000000E+03  0.17130000000E+03 0. -1.
       11    1    1    2    0    0 -0.18221412041E-01 -0.18746838344E-01  0.19569122627E+01  0.19570869497E+01  0.51109989000E-03 0.  1.
     -623    1    1    2    0    0  0.53524467381E-02  0.68328862127E-01  0.32804604690E-02  0.17130001374E+03  0.17130000000E+03 0. -1.
      622    1    1    2    0    0  0.12868965303E-01 -0.49582023785E-01  0.20398072444E+01  0.20428993078E+01  0.10000000000E+00 0.  1.
</event>
<event>
 5   0  0.6262544E+06  0.9118800E+02  0.7818608E-02  0.1180000E+00
       11   -1    0    0    0    0  0.00000000000E+00  0.00000000000E+00  0.39999999673E+01  0.40000000000E+01  0.51109989000E-03 0.  1.
     -623   -1    0    0    0    0  0.00000000000E+00  0.00000000000E+00  0.12525980253E-10  0.17130000000E+03  0.17130000000E+03 0.  1.
       11    1    1    2    0    0 -0.93658548979E-01 -0.12420810352E-01  0.28295159643E+01  0.28310929080E+01  0.51109989000E-03 0.  1.
     -623    1    1    2    0    0 -0.20438536253E-01 -0.12986556075E-01  0.11745392378E-01  0.17130000211E+03  0.17130000000E+03 0.  1.
      622    1    1    2    0    0  0.11409708523E+00  0.25407366427E-01  0.11587386107E+01  0.11689049777E+01  0.10000000000E+00 0. -1.
</event>
<event>
 5   0  0.6262544E+06  0.9118800E+02  0.7818608E-02  0.1180000E+00
       11   -1    0    0    0    0  0.00000000000E+00  0.00000000000E+00  0.39999999673E+01  0.40000000000E+01  0.51109989000E-03 0. -1.
     -623   -1    0    0    0    0  0.00000000000E+00  0.00000000000E+00  0.12525980253E-10  0.17130000000E+03  0.17130000000E+03 0.  1.
       11    1    1    2    0    0 -0.89573362629E-02  0.10420915633E-01  0.57531443780E+00  0.57547875106E+00  0.51109989000E-03 0. -1.
     -623    1    1    2    0    0  0.43375730307E-02  0.39388106855E-02  0.16579954485E-02  0.17130000011E+03  0.17130000000E+03 0.  1.
      622    1    1    2    0    0  0.46197632321E-02 -0.14359726318E-01  0.34230275341E+01  0.34245211407E+01  0.10000000000E+00 0. -1.
</event>
<event>
 5   0  0.6262544E+06  0.9118800E+02  0.7818608E-02  0.1180000E+00
       11   -1    0    0    0    0  0.00000000000E+00  0.00000000000E+00  0.39999999673E+01  0.40000000000E+01  0.51109989000E-03 0. -1.
     -623   -1    0    0    0    0  0.00000000000E+00  0.00000000000E+00  0.12525980253E-10  0.17130000000E+03  0.17130000000E+03 0.  1.
       11    1    1    2    0    0 -0.10979063394E-03  0.14079552768E-02  0.34532688646E-01  0.34565332328E-01  0.51109989000E-03 0. -1.
     -623    1    1    2    0    0  0.32651833915E-02  0.34347201916E-02  0.12979916292E-02  0.17130000007E+03  0.17130000000E+03 0.  1.
      622    1    1    2    0    0 -0.31553927576E-02 -0.48426754684E-02  0.39641692871E+01  0.39654345972E+01  0.10000000000E+00 0. -1.
</event>
<event>
 5   0  0.6262544E+06  0.9118800E+02  0.7818608E-02  0.1180000E+00
       11   -1    0    0    0    0  0.00000000000E+00  0.00000000000E+00  0.39999999673E+01  0.40000000000E+01  0.51109989000E-03 0.  1.
     -623   -1    0    0    0    0  0.00000000000E+00  0.00000000000E+00  0.12525980253E-10  0.17130000000E+03  0.17130000000E+03 0.  1.
       11    1    1    2    0    0  0.96809864072E-01  0.16534637225E+00  0.13179752466E+01  0.13318297881E+01  0.51109989000E-03 0.  1.
     -623    1    1    2    0    0  0.60233875238E-02 -0.46598594409E-01  0.20368146714E-01  0.17130000765E+03  0.17130000000E+03 0.  1.
      622    1    1    2    0    0 -0.10283325160E+00 -0.11874777784E+00  0.26616565741E+01  0.26681625570E+01  0.10000000000E+00 0.  1.
</event>
<event>
 5   0  0.6262544E+06  0.9118800E+02  0.7818608E-02  0.1180000E+00
       11   -1    0    0    0    0  0.00000000000E+00  0.00000000000E+00  0.39999999673E+01  0.40000000000E+01  0.51109989000E-03 0. -1.
     -623   -1    0    0    0    0  0.00000000000E+00  0.00000000000E+00  0.12525980253E-10  0.17130000000E+03  0.17130000000E+03 0. -1.
       11    1    1    2    0    0  0.25089548678E-01 -0.40085848781E-01  0.68957090111E+00  0.69119074763E+00  0.51109989000E-03 0. -1.
     -623    1    1    2    0    0 -0.98816243608E-02  0.52577672403E-02  0.33500294735E-02  0.17130000040E+03  0.17130000000E+03 0. -1.
      622    1    1    2    0    0 -0.15207924317E-01  0.34828081541E-01  0.33070790369E+01  0.33088088540E+01  0.10000000000E+00 0. -1.
</event>
<event>
 5   0  0.6262544E+06  0.9118800E+02  0.7818608E-02  0.1180000E+00
       11   -1    0    0    0    0  0.00000000000E+00  0.00000000000E+00  0.39999999673E+01  0.40000000000E+01  0.51109989000E-03 0. -1.
     -623   -1    0    0    0    0  0.00000000000E+00  0.00000000000E+00  0.12525980253E-10  0.17130000000E+03  0.17130000000E+03 0. -1.
       11    1    1    2    0    0  0.10476930553E-01  0.44978217672E-03  0.15982781621E-01  0.19122732788E-01  0.51109989000E-03 0. -1.
     -623    1    1    2    0    0 -0.49620057658E-02  0.30666277168E-02  0.44016520349E-02  0.17130000016E+03  0.17130000000E+03 0. -1.
      622    1    1    2    0    0 -0.55149247869E-02 -0.35164098935E-02  0.39796155337E+01  0.39808771114E+01  0.10000000000E+00 0. -1.
</event>
<event>
 5   0  0.6262544E+06  0.9118800E+02  0.7818608E-02  0.1180000E+00
       11   -1    0    0    0    0  0.00000000000E+00  0.00000000000E+00  0.39999999673E+01  0.40000000000E+01  0.51109989000E-03 0.  1.
     -623   -1    0    0    0    0  0.00000000000E+00  0.00000000000E+00  0.12525980253E-10  0.17130000000E+03  0.17130000000E+03 0.  1.
       11    1    1    2    0    0 -0.17558476111E-01  0.60675665524E-01  0.65669072879E+00  0.65972176785E+00  0.51109989000E-03 0.  1.
     -623    1    1    2    0    0  0.29929366488E-01 -0.14201544047E-01  0.48778821530E-02  0.17130000327E+03  0.17130000000E+03 0.  1.
      622    1    1    2    0    0 -0.12370890378E-01 -0.46474121477E-01  0.33384313565E+01  0.33402749595E+01  0.10000000000E+00 0.  1.
</event>
<event>
 5   0  0.6262544E+06  0.9118800E+02  0.7818608E-02  0.1180000E+00
       11   -1    0    0    0    0  0.00000000000E+00  0.00000000000E+00  0.39999999673E+01  0.40000000000E+01  0.51109989000E-03 0. -1.
     -623   -1    0    0    0    0  0.00000000000E+00  0.00000000000E+00  0.12525980253E-10  0.17130000000E+03  0.17130000000E+03 0. -1.
       11    1    1    2    0    0 -0.18927168100E-01 -0.24905831953E-02  0.28085839533E+00  0.28150690959E+00  0.51109989000E-03 0. -1.
     -623    1    1    2    0    0 -0.30837789484E-03 -0.98334449530E-02  0.20638512991E-02  0.17130000029E+03  0.17130000000E+03 0. -1.
      622    1    1    2    0    0  0.19235545995E-01  0.12324028149E-01  0.37170777208E+01  0.37184927955E+01  0.10000000000E+00 0. -1.
</event>
<event>
 5   0  0.6262544E+06  0.9118800E+02  0.7818608E-02  0.1180000E+00
       11   -1    0    0    0    0  0.00000000000E+00  0.00000000000E+00  0.39999999673E+01  0.40000000000E+01  0.51109989000E-03 0. -1.
     -623   -1    0    0    0    0  0.00000000000E+00  0.00000000000E+00  0.12525980253E-10  0.17130000000E+03  0.17130000000E+03 0. -1.
       11    1    1    2    0    0 -0.46235781966E-01 -0.67286980939E-02  0.10633558216E+00  0.11614878462E+00  0.51109989000E-03 0. -1.
     -623    1    1    2    0    0 -0.19114153152E-01 -0.66225135580E-02  0.11675329853E-01  0.17130000159E+03  0.17130000000E+03 0. -1.
      622    1    1    2    0    0  0.65349935118E-01  0.13351211652E-01  0.38819890553E+01  0.38838496231E+01  0.10000000000E+00 0. -1.
</event>
<event>
 5   0  0.6262544E+06  0.9118800E+02  0.7818608E-02  0.1180000E+00
       11   -1    0    0    0    0  0.00000000000E+00  0.00000000000E+00  0.39999999673E+01  0.40000000000E+01  0.51109989000E-03 0. -1.
     -623   -1    0    0    0    0  0.00000000000E+00  0.00000000000E+00  0.12525980253E-10  0.17130000000E+03  0.17130000000E+03 0. -1.
       11    1    1    2    0    0  0.14650133297E-01  0.18408003126E-01  0.42685763043E+00  0.42750576472E+00  0.51109989000E-03 0. -1.
     -623    1    1    2    0    0 -0.16015919774E-01  0.10367788832E-01  0.21652352819E-02  0.17130000108E+03  0.17130000000E+03 0. -1.
      622    1    1    2    0    0  0.13657864770E-02 -0.28775791958E-01  0.35709771016E+01  0.35724931591E+01  0.10000000000E+00 0. -1.
</event>
<event>
 5   0  0.6262544E+06  0.9118800E+02  0.7818608E-02  0.1180000E+00
       11   -1    0    0    0    0  0.00000000000E+00  0.00000000000E+00  0.39999999673E+01  0.40000000000E+01  0.51109989000E-03 0.  1.
     -623   -1    0    0    0    0  0.00000000000E+00  0.00000000000E+00  0.12525980253E-10  0.17130000000E+03  0.17130000000E+03 0.  1.
       11    1    1    2    0    0 -0.23200397808E-02 -0.74536402501E-02  0.34227717406E-01  0.35110357437E-01  0.51109989000E-03 0.  1.
     -623    1    1    2    0    0  0.10679609598E-01  0.18809305953E-02  0.21569670660E-02  0.17130000036E+03  0.17130000000E+03 0.  1.
      622    1    1    2    0    0 -0.83595698176E-02  0.55727096548E-02  0.39636152829E+01  0.39648892857E+01  0.10000000000E+00 0.  1.
</event>
<event>
 5   0  0.6262544E+06  0.9118800E+02  0.7818608E-02  0.1180000E+00
       11   -1    0    0    0    0  0.00000000000E+00  0.00000000000E+00  0.39999999673E+01  0.40000000000E+01  0.51109989000E-03 0. -1.
     -623   -1    0    0    0    0  0.00000000000E+00  0.00000000000E+00  0.12525980253E-10  0.17130000000E+03  0.17130000000E+03 0.  1.
       11    1    1    2    0    0 -0.35939485043E-02 -0.20327738357E-01  0.48439341930E+00  0.48483335209E+00  0.51109989000E-03 0. -1.
     -623    1    1    2    0    0  0.18010733270E-01  0.12161762462E-01  0.19030503681E-02  0.17130000139E+03  0.17130000000E+03 0.  1.
      622    1    1    2    0    0 -0.14416784767E-01  0.81659758940E-02  0.35137034979E+01  0.35151652590E+01  0.10000000000E+00 0. -1.
</event>
<event>
 5   0  0.6262544E+06  0.9118800E+02  0.7818608E-02  0.1180000E+00
       11   -1    0    0    0    0  0.00000000000E+00  0.00000000000E+00  0.39999999673E+01  0.40000000000E+01  0.51109989000E-03 0.  1.
     -623   -1    0    0    0    0  0.00000000000E+00  0.00000000000E+00  0.12525980253E-10  0.17130000000E+03  0.17130000000E+03 0.  1.
       11    1    1    2    0    0  0.97657735362E-02 -0.45474542912E-01  0.95267079140E+00  0.95380564184E+00  0.51109989000E-03 0.  1.
     -623    1    1    2    0    0  0.25278021609E-01  0.21170725917E-02  0.32890160716E-02  0.17130000191E+03  0.17130000000E+03 0.  1.
      622    1    1    2    0    0 -0.35043795144E-01  0.43357470320E-01  0.30440401598E+01  0.30461924483E+01  0.10000000000E+00 0.  1.
</event>
<event>
 5   0  0.6262544E+06  0.9118800E+02  0.7818608E-02  0.1180000E+00
       11   -1    0    0    0    0  0.00000000000E+00  0.00000000000E+00  0.39999999673E+01  0.40000000000E+01  0.51109989000E-03 0.  1.
     -623   -1    0    0    0    0  0.00000000000E+00  0.00000000000E+00  0.12525980253E-10  0.17130000000E+03  0.17130000000E+03 0. -1.
       11    1    1    2    0    0 -0.13964878524E-01 -0.89119393935E-01  0.89312975281E+00  0.89767382761E+00  0.51109989000E-03 0.  1.
     -623    1    1    2    0    0 -0.15578875881E-01  0.63508942352E-02  0.74028242543E-02  0.17130000099E+03  0.17130000000E+03 0. -1.
      622    1    1    2    0    0  0.29543754404E-01  0.82768499699E-01  0.30994673903E+01  0.31023251863E+01  0.10000000000E+00 0.  1.
</event>
<event>
 5   0  0.6262544E+06  0.9118800E+02  0.7818608E-02  0.1180000E+00
       11   -1    0    0    0    0  0.00000000000E+00  0.00000000000E+00  0.39999999673E+01  0.40000000000E+01  0.51109989000E-03 0. -1.
     -623   -1    0    0    0    0  0.00000000000E+00  0.00000000000E+00  0.12525980253E-10  0.17130000000E+03  0.17130000000E+03 0.  1.
       11    1    1    2    0    0 -0.95713694168E-01  0.14651466021E-01  0.95582468933E+00  0.96071685457E+00  0.51109989000E-03 0. -1.
     -623    1    1    2    0    0 -0.12898104116E-01  0.27944341617E-01  0.87819035735E-02  0.17130000299E+03  0.17130000000E+03 0.  1.
      622    1    1    2    0    0  0.10861179828E+00 -0.42595807638E-01  0.30353933745E+01  0.30392801554E+01  0.10000000000E+00 0. -1.
</event>
<event>
 5   0  0.6262544E+06  0.9118800E+02  0.7818608E-02  0.1180000E+00
       11   -1    0    0    0    0  0.00000000000E+00  0.00000000000E+00  0.39999999673E+01  0.40000000000E+01  0.51109989000E-03 0.  1.
     -623   -1    0    0    0    0  0.00000000000E+00  0.00000000000E+00  0.12525980253E-10  0.17130000000E+03  0.17130000000E+03 0.  1.
       11    1    1    2    0    0  0.12868400335E-01 -0.25524218344E-01  0.48597357501E+00  0.48681378193E+00  0.51109989000E-03 0.  1.
     -623    1    1    2    0    0 -0.17346763932E-01  0.46735399950E-01  0.23378592067E-02  0.17130000727E+03  0.17130000000E+03 0.  1.
      622    1    1    2    0    0  0.44783635967E-02 -0.21211181604E-01  0.35116885329E+01  0.35131789482E+01  0.10000000000E+00 0.  1.
</event>
<event>
 5   0  0.6262544E+06  0.9118800E+02  0.7818608E-02  0.1180000E+00
       11   -1    0    0    0    0  0.00000000000E+00  0.00000000000E+00  0.39999999673E+01  0.40000000000E+01  0.51109989000E-03 0. -1.
     -623   -1    0    0    0    0  0.00000000000E+00  0.00000000000E+00  0.12525980253E-10  0.17130000000E+03  0.17130000000E+03 0. -1.
       11    1    1    2    0    0  0.13444718297E-01 -0.10294856544E-01  0.88996500782E+00  0.89012623874E+00  0.51109989000E-03 0. -1.
     -623    1    1    2    0    0 -0.14317058520E-02  0.61089698430E-03  0.18077129993E-02  0.17130000002E+03  0.17130000000E+03 0. -1.
      622    1    1    2    0    0 -0.12013012445E-01  0.96839595600E-02  0.31082272467E+01  0.31098737448E+01  0.10000000000E+00 0. -1.
</event>
<event>
 5   0  0.6262544E+06  0.9118800E+02  0.7818608E-02  0.1180000E+00
       11   -1    0    0    0    0  0.00000000000E+00  0.00000000000E+00  0.39999999673E+01  0.40000000000E+01  0.51109989000E-03 0.  1.
     -623   -1    0    0    0    0  0.00000000000E+00  0.00000000000E+00  0.12525980253E-10  0.17130000000E+03  0.17130000000E+03 0.  1.
       11    1    1    2    0    0  0.18720326469E-01 -0.36422806332E-01  0.44885848127E+00  0.45072305119E+00  0.51109989000E-03 0.  1.
     -623    1    1    2    0    0 -0.96011240402E-02 -0.52055911434E-03  0.34779280518E-02  0.17130000031E+03  0.17130000000E+03 0.  1.
      622    1    1    2    0    0 -0.91192024288E-02  0.36943365447E-01  0.35476635581E+01  0.35492766437E+01  0.10000000000E+00 0.  1.
</event>
<event>
 5   0  0.6262544E+06  0.9118800E+02  0.7818608E-02  0.1180000E+00
       11   -1    0    0    0    0  0.00000000000E+00  0.00000000000E+00  0.39999999673E+01  0.40000000000E+01  0.51109989000E-03 0. -1.
     -623   -1    0    0    0    0  0.00000000000E+00  0.00000000000E+00  0.12525980253E-10  0.17130000000E+03  0.17130000000E+03 0.  1.
       11    1    1    2    0    0 -0.21788479501E-01 -0.30688874035E-01  0.12732933027E+00  0.13277636988E+00  0.51109989000E-03 0. -1.
     -623    1    1    2    0    0  0.21197323262E-01  0.44652274981E-01  0.67726705246E-02  0.17130000727E+03  0.17130000000E+03 0.  1.
      622    1    1    2    0    0  0.59115623854E-03 -0.13963400947E-01  0.38658979667E+01  0.38672163651E+01  0.10000000000E+00 0. -1.
</event>
<event>
 5   0  0.6262544E+06  0.9118800E+02  0.7818608E-02  0.1180000E+00
       11   -1    0    0    0    0  0.00000000000E+00  0.00000000000E+00  0.39999999673E+01  0.40000000000E+01  0.51109989000E-03 0.  1.
     -623   -1    0    0    0    0  0.00000000000E+00  0.00000000000E+00  0.12525980253E-10  0.17130000000E+03  0.17130000000E+03 0.  1.
       11    1    1    2    0    0 -0.70531841570E-01  0.84094752921E-01  0.87632478729E+00  0.88317159272E+00  0.51109989000E-03 0.  1.
     -623    1    1    2    0    0  0.52774118372E-01 -0.78697981349E-01  0.85331015022E-02  0.17130002642E+03  0.17130000000E+03 0.  1.
      622    1    1    2    0    0  0.17757723197E-01 -0.53967715719E-02  0.31151420786E+01  0.31168019879E+01  0.10000000000E+00 0.  1.
</event>
<event>
 5   0  0.6262544E+06  0.9118800E+02  0.7818608E-02  0.1180000E+00
       11   -1    0    0    0    0  0.00000000000E+00  0.00000000000E+00  0.39999999673E+01  0.40000000000E+01  0.51109989000E-03 0. -1.
     -623   -1    0    0    0    0  0.00000000000E+00  0.00000000000E+00  0.12525980253E-10  0.17130000000E+03  0.17130000000E+03 0. -1.
       11    1    1    2    0    0 -0.60667295778E-01  0.66265759471E-01  0.11158722383E+01  0.11194832670E+01  0.51109989000E-03 0. -1.
     -623    1    1    2    0    0  0.18777662155E-01 -0.41200546617E-01  0.57673259734E-02  0.17130000608E+03  0.17130000000E+03 0. -1.
      622    1    1    2    0    0  0.41889633623E-01 -0.25065212855E-01  0.28783604031E+01  0.28805106520E+01  0.10000000000E+00 0. -1.
</event>
<event>
 5   0  0.6262544E+06  0.9118800E+02  0.7818608E-02  0.1180000E+00
       11   -1    0    0    0    0  0.00000000000E+00  0.00000000000E+00  0.39999999673E+01  0.40000000000E+01  0.51109989000E-03 0.  1.
     -623   -1    0    0    0    0  0.00000000000E+00  0.00000000000E+00  0.12525980253E-10  0.17130000000E+03  0.17130000000E+03 0.  1.
       11    1    1    2    0    0 -0.11160829331E-01 -0.21728350255E-03  0.67557292271E-01  0.68475253089E-01  0.51109989000E-03 0.  1.
     -623    1    1    2    0    0 -0.20164140305E-02 -0.29889618082E-01  0.23299479356E-02  0.17130000264E+03  0.17130000000E+03 0.  1.
      622    1    1    2    0    0  0.13177243362E-01  0.30106901584E-01  0.39301127271E+01  0.39315221115E+01  0.10000000000E+00 0.  1.
</event>
<event>
 5   0  0.6262544E+06  0.9118800E+02  0.7818608E-02  0.1180000E+00
       11   -1    0    0    0    0  0.00000000000E+00  0.00000000000E+00  0.39999999673E+01  0.40000000000E+01  0.51109989000E-03 0. -1.
     -623   -1    0    0    0    0  0.00000000000E+00  0.00000000000E+00  0.12525980253E-10  0.17130000000E+03  0.17130000000E+03 0. -1.
       11    1    1    2    0    0 -0.23961555075E-02 -0.43592255821E-02  0.11820655854E+00  0.11831228218E+00  0.51109989000E-03 0. -1.
     -623    1    1    2    0    0 -0.47426395741E-02  0.27682224202E-02  0.14009908801E-02  0.17130000009E+03  0.17130000000E+03 0. -1.
      622    1    1    2    0    0  0.71387950817E-02  0.15910031619E-02  0.38803924180E+01  0.38816876242E+01  0.10000000000E+00 0. -1.
</event>
<event>
 5   0  0.6262544E+06  0.9118800E+02  0.7818608E-02  0.1180000E+00
       11   -1    0    0    0    0  0.00000000000E+00  0.00000000000E+00  0.39999999673E+01  0.40000000000E+01  0.51109989000E-03 0. -1.
     -623   -1    0    0    0    0  0.00000000000E+00  0.00000000000E+00  0.12525980253E-10  0.17130000000E+03  0.17130000000E+03 0. -1.
       11    1    1    2    0    0  0.14347092670E-01  0.50068972014E-02  0.12928523622E+00  0.13017619450E+00  0.51109989000E-03 0. -1.
     -623    1    1    2    0    0 -0.28540599116E-01 -0.20616169603E-01  0.22443534220E-02  0.17130000363E+03  0.17130000000E+03 0. -1.
      622    1    1    2    0    0  0.14193506447E-01  0.15609272403E-01  0.38684703779E+01  0.38698201728E+01  0.10000000000E+00 0. -1.
</event>
<event>
 5   0  0.6262544E+06  0.9118800E+02  0.7818608E-02  0.1180000E+00
       11   -1    0    0    0    0  0.00000000000E+00  0.00000000000E+00  0.39999999673E+01  0.40000000000E+01  0.51109989000E-03 0.  1.
     -623   -1    0    0    0    0  0.00000000000E+00  0.00000000000E+00  0.12525980253E-10  0.17130000000E+03  0.17130000000E+03 0. -1.
       11    1    1    2    0    0  0.45087583234E-02 -0.24247872293E-02  0.35120254024E-01  0.35495097697E-01  0.51109989000E-03 0.  1.
     -623    1    1    2    0    0 -0.52246180918E-02  0.33379984788E-02  0.16364931465E-02  0.17130000012E+03  0.17130000000E+03 0. -1.
      622    1    1    2    0    0  0.71585976854E-03 -0.91321124952E-03  0.39632432203E+01  0.39645047824E+01  0.10000000000E+00 0.  1.
</event>
<event>
 5   0  0.6262544E+06  0.9118800E+02  0.7818608E-02  0.1180000E+00
       11   -1    0    0    0    0  0.00000000000E+00  0.00000000000E+00  0.39999999673E+01  0.40000000000E+01  0.51109989000E-03 0.  1.
     -623   -1    0    0    0    0  0.00000000000E+00  0.00000000000E+00  0.12525980253E-10  0.17130000000E+03  0.17130000000E+03 0.  1.
       11    1    1    2    0    0  0.94185148322E-02  0.85267734182E-02  0.30706057915E+00  0.30732372960E+00  0.51109989000E-03 0.  1.
     -623    1    1    2    0    0 -0.78648844121E-02  0.23596477140E-02  0.16339823892E-02  0.17130000020E+03  0.17130000000E+03 0.  1.
      622    1    1    2    0    0 -0.15536304201E-02 -0.10886421132E-01  0.36913054058E+01  0.36926760658E+01  0.10000000000E+00 0.  1.
</event>
<event>
 5   0  0.6262544E+06  0.9118800E+02  0.7818608E-02  0.1180000E+00
       11   -1    0    0    0    0  0.00000000000E+00  0.00000000000E+00  0.39999999673E+01  0.40000000000E+01  0.51109989000E-03 0.  1.
     -623   -1    0    0    0    0  0.00000000000E+00  0.00000000000E+00  0.12525980253E-10  0.17130000000E+03  0.17130000000E+03 0.  1.
       11    1    1    2    0    0  0.51601080320E-02 -0.66859947799E-02  0.93418617848E-01  0.93801005443E-01  0.51109989000E-03 0.  1.
     -623    1    1    2    0    0  0.56132972656E-02  0.30046857794E-02  0.16793048904E-02  0.17130000013E+03  0.17130000000E+03 0.  1.
      622    1    1    2    0    0 -0.10773405298E-01  0.36813090005E-02  0.39049020446E+01  0.39061988680E+01  0.10000000000E+00 0.  1.
</event>
<event>
 5   0  0.6262544E+06  0.9118800E+02  0.7818608E-02  0.1180000E+00
       11   -1    0    0    0    0  0.00000000000E+00  0.00000000000E+00  0.39999999673E+01  0.40000000000E+01  0.51109989000E-03 0. -1.
     -623   -1    0    0    0    0  0.00000000000E+00  0.00000000000E+00  0.12525980253E-10  0.17130000000E+03  0.17130000000E+03 0.  1.
       11    1    1    2    0    0 -0.15444568708E-01  0.96220333470E-01  0.12977131856E+01  0.13013672274E+01  0.51109989000E-03 0. -1.
     -623    1    1    2    0    0  0.45523554028E-03 -0.11452730762E-01  0.68822112134E-02  0.17130000052E+03  0.17130000000E+03 0.  1.
      622    1    1    2    0    0  0.14989333168E-01 -0.84767602708E-01  0.26954045706E+01  0.26986322509E+01  0.10000000000E+00 0.  0.
</event>
<event>
 5   0  0.6262544E+06  0.9118800E+02  0.7818608E-02  0.1180000E+00
       11   -1    0    0    0    0  0.00000000000E+00  0.00000000000E+00  0.39999999673E+01  0.40000000000E+01  0.51109989000E-03 0.  1.
     -623   -1    0    0    0    0  0.00000000000E+00  0.00000000000E+00  0.12525980253E-10  0.17130000000E+03  0.17130000000E+03 0.  1.
       11    1    1    2    0    0  0.33058308564E-02  0.96550233458E-02  0.68529840368E-01  0.69287432031E-01  0.51109989000E-03 0.  1.
     -623    1    1    2    0    0  0.30639126342E-02 -0.72644781292E-02  0.20358824480E-02  0.17130000019E+03  0.17130000000E+03 0.  1.
      622    1    1    2    0    0 -0.63697434907E-02 -0.23905452162E-02  0.39294342447E+01  0.39307123746E+01  0.10000000000E+00 0.  1.
</event>
<event>
 5   0  0.6262544E+06  0.9118800E+02  0.7818608E-02  0.1180000E+00
       11   -1    0    0    0    0  0.00000000000E+00  0.00000000000E+00  0.39999999673E+01  0.40000000000E+01  0.51109989000E-03 0. -1.
     -623   -1    0    0    0    0  0.00000000000E+00  0.00000000000E+00  0.12525980253E-10  0.17130000000E+03  0.17130000000E+03 0.  1.
       11    1    1    2    0    0  0.41442338198E-02 -0.14607804741E-02 -0.27271219164E-02  0.51968231249E-02  0.51109989000E-03 0. -1.
     -623    1    1    2    0    0 -0.58781802608E-02  0.69394938529E-03  0.91765328719E-02  0.17130000035E+03  0.17130000000E+03 0.  1.
      622    1    1    2    0    0  0.17339464411E-02  0.76683108878E-03  0.39935505565E+01  0.39948028289E+01  0.10000000000E+00 0. -1.
</event>
<event>
 5   0  0.6262544E+06  0.9118800E+02  0.7818608E-02  0.1180000E+00
       11   -1    0    0    0    0  0.00000000000E+00  0.00000000000E+00  0.39999999673E+01  0.40000000000E+01  0.51109989000E-03 0.  1.
     -623   -1    0    0    0    0  0.00000000000E+00  0.00000000000E+00  0.12525980253E-10  0.17130000000E+03  0.17130000000E+03 0.  1.
       11    1    1    2    0    0  0.11301729672E-02 -0.80666884252E-02  0.44095063416E-01  0.44844002854E-01  0.51109989000E-03 0.  1.
     -623    1    1    2    0    0  0.10046950215E-01  0.25582610015E-02  0.20332426858E-02  0.17130000033E+03  0.17130000000E+03 0.  1.
      622    1    1    2    0    0 -0.11177123182E-01  0.55084274237E-02  0.39538716613E+01  0.39551556713E+01  0.10000000000E+00 0.  1.
</event>
<event>
 5   0  0.6262544E+06  0.9118800E+02  0.7818608E-02  0.1180000E+00
       11   -1    0    0    0    0  0.00000000000E+00  0.00000000000E+00  0.39999999673E+01  0.40000000000E+01  0.51109989000E-03 0. -1.
     -623   -1    0    0    0    0  0.00000000000E+00  0.00000000000E+00  0.12525980253E-10  0.17130000000E+03  0.17130000000E+03 0.  1.
       11    1    1    2    0    0  0.10291703844E-01 -0.41373527715E-01  0.41451026908E+00  0.41669738703E+00  0.51109989000E-03 0. -1.
     -623    1    1    2    0    0 -0.92627568567E-02 -0.56893874563E-02  0.38924497633E-02  0.17130000039E+03  0.17130000000E+03 0.  1.
      622    1    1    2    0    0 -0.10289469874E-02  0.47062915171E-01  0.35815972486E+01  0.35833022239E+01  0.10000000000E+00 0. -1.
</event>
<event>
 5   0  0.6262544E+06  0.9118800E+02  0.7818608E-02  0.1180000E+00
       11   -1    0    0    0    0  0.00000000000E+00  0.00000000000E+00  0.39999999673E+01  0.40000000000E+01  0.51109989000E-03 0.  1.
     -623   -1    0    0    0    0  0.00000000000E+00  0.00000000000E+00  0.12525980253E-10  0.17130000000E+03  0.17130000000E+03 0. -1.
       11    1    1    2    0    0  0.96199643150E-02 -0.38105984758E-02  0.14193755413E+00  0.14231512523E+00  0.51109989000E-03 0.  1.
     -623    1    1    2    0    0 -0.77440217281E-03  0.50334777328E-02  0.16842930687E-02  0.17130000008E+03  0.17130000000E+03 0. -1.
      622    1    1    2    0    0 -0.88455621421E-02 -0.12228792572E-02  0.38563781203E+01  0.38576847909E+01  0.10000000000E+00 0.  1.
</event>
<event>
 5   0  0.6262544E+06  0.9118800E+02  0.7818608E-02  0.1180000E+00
       11   -1    0    0    0    0  0.00000000000E+00  0.00000000000E+00  0.39999999673E+01  0.40000000000E+01  0.51109989000E-03 0.  1.
     -623   -1    0    0    0    0  0.00000000000E+00  0.00000000000E+00  0.12525980253E-10  0.17130000000E+03  0.17130000000E+03 0. -1.
       11    1    1    2    0    0  0.62245223229E-01 -0.10847272570E+00  0.29698531681E+01  0.29724853071E+01  0.51109989000E-03 0.  1.
     -623    1    1    2    0    0 -0.34677342030E-01  0.60259476144E-01  0.90334583818E-02  0.17130001435E+03  0.17130000000E+03 0. -1.
      622    1    1    2    0    0 -0.27567881199E-01  0.48213249559E-01  0.10211133409E+01  0.10275003457E+01  0.10000000000E+00 0.  0.
</event>
<event>
 5   0  0.6262544E+06  0.9118800E+02  0.7818608E-02  0.1180000E+00
       11   -1    0    0    0    0  0.00000000000E+00  0.00000000000E+00  0.39999999673E+01  0.40000000000E+01  0.51109989000E-03 0.  1.
     -623   -1    0    0    0    0  0.00000000000E+00  0.00000000000E+00  0.12525980253E-10  0.17130000000E+03  0.17130000000E+03 0. -1.
       11    1    1    2    0    0  0.60407376233E-03 -0.87595528155E-02  0.13261623576E+00  0.13290756894E+00  0.51109989000E-03 0.  1.
     -623    1    1    2    0    0  0.76281981041E-02  0.12115330645E-01  0.15953056516E-02  0.17130000061E+03  0.17130000000E+03 0. -1.
      622    1    1    2    0    0 -0.82322718664E-02 -0.33557778293E-02  0.38657884259E+01  0.38670918254E+01  0.10000000000E+00 0.  1.
</event>
<event>
 5   0  0.6262544E+06  0.9118800E+02  0.7818608E-02  0.1180000E+00
       11   -1    0    0    0    0  0.00000000000E+00  0.00000000000E+00  0.39999999673E+01  0.40000000000E+01  0.51109989000E-03 0.  1.
     -623   -1    0    0    0    0  0.00000000000E+00  0.00000000000E+00  0.12525980253E-10  0.17130000000E+03  0.17130000000E+03 0.  1.
       11    1    1    2    0    0 -0.24945848442E-02  0.43494359821E-02  0.62795468284E-02  0.80519858799E-02  0.51109989000E-03 0.  1.
     -623    1    1    2    0    0  0.19267798964E-02  0.84593594924E-03  0.30285862495E-02  0.17130000004E+03  0.17130000000E+03 0.  1.
      622    1    1    2    0    0  0.56780494781E-03 -0.51953719314E-02  0.39906918343E+01  0.39919479744E+01  0.10000000000E+00 0.  1.
</event>
<event>
 5   0  0.6262544E+06  0.9118800E+02  0.7818608E-02  0.1180000E+00
       11   -1    0    0    0    0  0.00000000000E+00  0.00000000000E+00  0.39999999673E+01  0.40000000000E+01  0.51109989000E-03 0. -1.
     -623   -1    0    0    0    0  0.00000000000E+00  0.00000000000E+00  0.12525980253E-10  0.17130000000E+03  0.17130000000E+03 0.  1.
       11    1    1    2    0    0 -0.30830173940E-01 -0.41257258859E-02  0.26603931777E+00  0.26785201335E+00  0.51109989000E-03 0. -1.
     -623    1    1    2    0    0  0.15306149984E-01  0.12474264093E-02  0.31867412920E-02  0.17130000072E+03  0.17130000000E+03 0.  1.
      622    1    1    2    0    0  0.15524023956E-01  0.28782994766E-02  0.37307739083E+01  0.37321472686E+01  0.10000000000E+00 0.  0.
</event>
<event>
 5   0  0.6262544E+06  0.9118800E+02  0.7818608E-02  0.1180000E+00
       11   -1    0    0    0    0  0.00000000000E+00  0.00000000000E+00  0.39999999673E+01  0.40000000000E+01  0.51109989000E-03 0.  1.
     -623   -1    0    0    0    0  0.00000000000E+00  0.00000000000E+00  0.12525980253E-10  0.17130000000E+03  0.17130000000E+03 0.  1.
       11    1    1    2    0    0  0.14744822985E-01 -0.53262769562E-02  0.88569447152E+00  0.88583335742E+00  0.51109989000E-03 0.  1.
     -623    1    1    2    0    0 -0.77633087502E-02  0.54453077054E-02  0.17529370194E-02  0.17130000027E+03  0.17130000000E+03 0.  1.
      622    1    1    2    0    0 -0.69815142346E-02 -0.11903074917E-03  0.31125525588E+01  0.31141663711E+01  0.10000000000E+00 0.  1.
</event>
<event>
 5   0  0.6262544E+06  0.9118800E+02  0.7818608E-02  0.1180000E+00
       11   -1    0    0    0    0  0.00000000000E+00  0.00000000000E+00  0.39999999673E+01  0.40000000000E+01  0.51109989000E-03 0.  1.
     -623   -1    0    0    0    0  0.00000000000E+00  0.00000000000E+00  0.12525980253E-10  0.17130000000E+03  0.17130000000E+03 0.  1.
       11    1    1    2    0    0 -0.23747563726E-01 -0.12154701872E-01  0.12958300334E+01  0.12961047104E+01  0.51109989000E-03 0.  1.
     -623    1    1    2    0    0  0.15366799766E-02 -0.61070908984E-02  0.22775946941E-02  0.17130000013E+03  0.17130000000E+03 0.  1.
      622    1    1    2    0    0  0.22210883749E-01  0.18261792770E-01  0.27018923393E+01  0.27038951587E+01  0.10000000000E+00 0. -1.
</event>
<event>
 5   0  0.6262544E+06  0.9118800E+02  0.7818608E-02  0.1180000E+00
       11   -1    0    0    0    0  0.00000000000E+00  0.00000000000E+00  0.39999999673E+01  0.40000000000E+01  0.51109989000E-03 0. -1.
     -623   -1    0    0    0    0  0.00000000000E+00  0.00000000000E+00  0.12525980253E-10  0.17130000000E+03  0.17130000000E+03 0. -1.
       11    1    1    2    0    0  0.61967917222E-03 -0.18917080317E-03  0.10498098301E-02  0.13353320359E-02  0.51109989000E-03 0. -1.
     -623    1    1    2    0    0 -0.29600219598E-02  0.10143323257E-02  0.15369083086E-02  0.17130000004E+03  0.17130000000E+03 0. -1.
      622    1    1    2    0    0  0.23403427878E-02 -0.82516152256E-03  0.39974132495E+01  0.39986646328E+01  0.10000000000E+00 0. -1.
</event>
<event>
 5   0  0.6262544E+06  0.9118800E+02  0.7818608E-02  0.1180000E+00
       11   -1    0    0    0    0  0.00000000000E+00  0.00000000000E+00  0.39999999673E+01  0.40000000000E+01  0.51109989000E-03 0.  1.
     -623   -1    0    0    0    0  0.00000000000E+00  0.00000000000E+00  0.12525980253E-10  0.17130000000E+03  0.17130000000E+03 0. -1.
       11    1    1    2    0    0  0.46413881305E-02 -0.81945254029E-02  0.60517194504E-01  0.61247732890E-01  0.51109989000E-03 0.  1.
     -623    1    1    2    0    0 -0.13338369659E-01 -0.65378650218E-03  0.20202273704E-02  0.17130000053E+03  0.17130000000E+03 0. -1.
      622    1    1    2    0    0  0.86969815288E-02  0.88483119050E-02  0.39374625455E+01  0.39387517347E+01  0.10000000000E+00 0.  1.
</event>
<event>
 5   0  0.6262544E+06  0.9118800E+02  0.7818608E-02  0.1180000E+00
       11   -1    0    0    0    0  0.00000000000E+00  0.00000000000E+00  0.39999999673E+01  0.40000000000E+01  0.51109989000E-03 0. -1.
     -623   -1    0    0    0    0  0.00000000000E+00  0.00000000000E+00  0.12525980253E-10  0.17130000000E+03  0.17130000000E+03 0.  1.
       11    1    1    2    0    0 -0.12097695904E-02  0.90123244446E-01  0.14354583235E+01  0.14382852716E+01  0.51109989000E-03 0. -1.
     -623    1    1    2    0    0  0.40356890345E-02 -0.21773665300E-02  0.62924417821E-02  0.17130000018E+03  0.17130000000E+03 0.  1.
      622    1    1    2    0    0 -0.28259194441E-02 -0.87945877916E-01  0.25582492021E+01  0.25617145515E+01  0.10000000000E+00 0.  0.
</event>
<event>
 5   0  0.6262544E+06  0.9118800E+02  0.7818608E-02  0.1180000E+00
       11   -1    0    0    0    0  0.00000000000E+00  0.00000000000E+00  0.39999999673E+01  0.40000000000E+01  0.51109989000E-03 0. -1.
     -623   -1    0    0    0    0  0.00000000000E+00  0.00000000000E+00  0.12525980253E-10  0.17130000000E+03  0.17130000000E+03 0. -1.
       11    1    1    2    0    0 -0.41472733196E-02 -0.53852648771E-02  0.34966619571E-01  0.35624803983E-01  0.51109989000E-03 0. -1.
     -623    1    1    2    0    0  0.10226234230E-01  0.43200217051E-02  0.19247612804E-02  0.17130000037E+03  0.17130000000E+03 0. -1.
      622    1    1    2    0    0 -0.60789609099E-02  0.10652431720E-02  0.39631085865E+01  0.39643748255E+01  0.10000000000E+00 0. -1.
</event>
<event>
 5   0  0.6262544E+06  0.9118800E+02  0.7818608E-02  0.1180000E+00
       11   -1    0    0    0    0  0.00000000000E+00  0.00000000000E+00  0.39999999673E+01  0.40000000000E+01  0.51109989000E-03 0. -1.
     -623   -1    0    0    0    0  0.00000000000E+00  0.00000000000E+00  0.12525980253E-10  0.17130000000E+03  0.17130000000E+03 0.  1.
       11    1    1    2    0    0  0.73341947915E-02  0.15912805654E-01  0.91306124491E+00  0.91322949250E+00  0.51109989000E-03 0. -1.
     -623    1    1    2    0    0 -0.17961541000E-01 -0.14449195933E-01  0.18086686627E-02  0.17130000156E+03  0.17130000000E+03 0.  1.
      622    1    1    2    0    0  0.10627346209E-01 -0.14636097219E-02  0.30851300537E+01  0.30867689468E+01  0.10000000000E+00 0. -1.
</event>
<event>
 5   0  0.6262544E+06  0.9118800E+02  0.7818608E-02  0.1180000E+00
       11   -1    0    0    0    0  0.00000000000E+00  0.00000000000E+00  0.39999999673E+01  0.40000000000E+01  0.51109989000E-03 0. -1.
     -623   -1    0    0    0    0  0.00000000000E+00  0.00000000000E+00  0.12525980253E-10  0.17130000000E+03  0.17130000000E+03 0.  1.
       11    1    1    2    0    0 -0.73979816976E-02 -0.16618245958E-01  0.33500197943E+00  0.33549587729E+00  0.51109989000E-03 0. -1.
     -623    1    1    2    0    0  0.76493037366E-02 -0.81348176949E-02  0.19425774828E-02  0.17130000037E+03  0.17130000000E+03 0.  1.
      622    1    1    2    0    0 -0.25132203904E-03  0.24753063653E-01  0.36630554104E+01  0.36645037478E+01  0.10000000000E+00 0. -1.
</event>
<event>
 5   0  0.6262544E+06  0.9118800E+02  0.7818608E-02  0.1180000E+00
       11   -1    0    0    0    0  0.00000000000E+00  0.00000000000E+00  0.39999999673E+01  0.40000000000E+01  0.51109989000E-03 0. -1.
     -623   -1    0    0    0    0  0.00000000000E+00  0.00000000000E+00  0.12525980253E-10  0.17130000000E+03  0.17130000000E+03 0. -1.
       11    1    1    2    0    0 -0.65398502579E-01  0.11359882819E-01  0.94167305437E+00  0.94400975293E+00  0.51109989000E-03 0. -1.
     -623    1    1    2    0    0  0.33590876873E-02 -0.18841627136E-01  0.46136634632E-02  0.17130000113E+03  0.17130000000E+03 0. -1.
      622    1    1    2    0    0  0.62039414892E-01  0.74817443174E-02  0.30537132496E+01  0.30559891159E+01  0.10000000000E+00 0. -1.
</event>
<event>
 5   0  0.6262544E+06  0.9118800E+02  0.7818608E-02  0.1180000E+00
       11   -1    0    0    0    0  0.00000000000E+00  0.00000000000E+00  0.39999999673E+01  0.40000000000E+01  0.51109989000E-03 0.  1.
     -623   -1    0    0    0    0  0.00000000000E+00  0.00000000000E+00  0.12525980253E-10  0.17130000000E+03  0.17130000000E+03 0. -1.
       11    1    1    2    0    0  0.16172872291E-01 -0.31921764013E-01  0.28234130073E+00  0.28460047810E+00  0.51109989000E-03 0.  1.
     -623    1    1    2    0    0  0.57766289246E-02  0.28729053911E-02  0.37837660426E-02  0.17130000016E+03  0.17130000000E+03 0. -1.
      622    1    1    2    0    0 -0.21949501215E-01  0.29048858622E-01  0.37138749007E+01  0.37153993587E+01  0.10000000000E+00 0.  1.
</event>
<event>
 5   0  0.6262544E+06  0.9118800E+02  0.7818608E-02  0.1180000E+00
       11   -1    0    0    0    0  0.00000000000E+00  0.00000000000E+00  0.39999999673E+01  0.40000000000E+01  0.51109989000E-03 0. -1.
     -623   -1    0    0    0    0  0.00000000000E+00  0.00000000000E+00  0.12525980253E-10  0.17130000000E+03  0.17130000000E+03 0. -1.
       11    1    1    2    0    0  0.37047787898E-03 -0.21016906301E-02  0.13370521004E-01  0.13549406279E-01  0.51109989000E-03 0. -1.
     -623    1    1    2    0    0 -0.94097866448E-04 -0.43196662305E-02  0.14385421005E-02  0.17130000006E+03  0.17130000000E+03 0. -1.
      622    1    1    2    0    0 -0.27638001253E-03  0.64213568606E-02  0.39851909043E+01  0.39864505332E+01  0.10000000000E+00 0. -1.
</event>
<event>
 5   0  0.6262544E+06  0.9118800E+02  0.7818608E-02  0.1180000E+00
       11   -1    0    0    0    0  0.00000000000E+00  0.00000000000E+00  0.39999999673E+01  0.40000000000E+01  0.51109989000E-03 0. -1.
     -623   -1    0    0    0    0  0.00000000000E+00  0.00000000000E+00  0.12525980253E-10  0.17130000000E+03  0.17130000000E+03 0. -1.
       11    1    1    2    0    0 -0.34553469549E-02 -0.82799451808E-03  0.32800549845E-01  0.32996398148E-01  0.51109989000E-03 0. -1.
     -623    1    1    2    0    0  0.26466053851E-02 -0.10397646859E-02  0.14569651974E-02  0.17130000003E+03  0.17130000000E+03 0. -1.
      622    1    1    2    0    0  0.80874156980E-03  0.18677592040E-02  0.39657424524E+01  0.39670035721E+01  0.10000000000E+00 0. -1.
</event>
<event>
 5   0  0.6262544E+06  0.9118800E+02  0.7818608E-02  0.1180000E+00
       11   -1    0    0    0    0  0.00000000000E+00  0.00000000000E+00  0.39999999673E+01  0.40000000000E+01  0.51109989000E-03 0.  1.
     -623   -1    0    0    0    0  0.00000000000E+00  0.00000000000E+00  0.12525980253E-10  0.17130000000E+03  0.17130000000E+03 0. -1.
       11    1    1    2    0    0 -0.32355341442E-02 -0.15409471333E-02  0.74630621831E-02  0.82946801935E-02  0.51109989000E-03 0.  1.
     -623    1    1    2    0    0  0.96122715284E-02  0.43609625367E-02  0.20908089579E-02  0.17130000034E+03  0.17130000000E+03 0. -1.
      622    1    1    2    0    0 -0.63767373842E-02 -0.28200154035E-02  0.39904460962E+01  0.39917049819E+01  0.10000000000E+00 0.  1.
</event>
<event>
 5   0  0.6262544E+06  0.9118800E+02  0.7818608E-02  0.1180000E+00
       11   -1    0    0    0    0  0.00000000000E+00  0.00000000000E+00  0.39999999673E+01  0.40000000000E+01  0.51109989000E-03 0.  1.
     -623   -1    0    0    0    0  0.00000000000E+00  0.00000000000E+00  0.12525980253E-10  0.17130000000E+03  0.17130000000E+03 0.  1.
       11    1    1    2    0    0  0.53450027850E-03  0.20946628771E-02  0.86055202040E-01  0.86083867965E-01  0.51109989000E-03 0.  1.
     -623    1    1    2    0    0 -0.16301341207E-02  0.98748872175E-03  0.13077176924E-02  0.17130000002E+03  0.17130000000E+03 0.  1.
      622    1    1    2    0    0  0.10956338422E-02 -0.30821515989E-02  0.39126370476E+01  0.39139161164E+01  0.10000000000E+00 0.  1.
</event>
<event>
 5   0  0.6262544E+06  0.9118800E+02  0.7818608E-02  0.1180000E+00
       11   -1    0    0    0    0  0.00000000000E+00  0.00000000000E+00  0.39999999673E+01  0.40000000000E+01  0.51109989000E-03 0. -1.
     -623   -1    0    0    0    0  0.00000000000E+00  0.00000000000E+00  0.12525980253E-10  0.17130000000E+03  0.17130000000E+03 0.  1.
       11    1    1    2    0    0  0.34750998711E-02  0.16002210797E-01  0.17806466634E+00  0.17881676009E+00  0.51109989000E-03 0. -1.
     -623    1    1    2    0    0  0.33759773761E-02 -0.41577730700E-02  0.20853840584E-02  0.17130000010E+03  0.17130000000E+03 0.  1.
      622    1    1    2    0    0 -0.68510772472E-02 -0.11844437727E-01  0.38198499170E+01  0.38211831435E+01  0.10000000000E+00 0. -1.
</event>
<event>
 5   0  0.6262544E+06  0.9118800E+02  0.7818608E-02  0.1180000E+00
       11   -1    0    0    0    0  0.00000000000E+00  0.00000000000E+00  0.39999999673E+01  0.40000000000E+01  0.51109989000E-03 0.  1.
     -623   -1    0    0    0    0  0.00000000000E+00  0.00000000000E+00  0.12525980253E-10  0.17130000000E+03  0.17130000000E+03 0. -1.
       11    1    1    2    0    0 -0.53253202447E-01 -0.39018784101E-01  0.13830512683E+01  0.13846261015E+01  0.51109989000E-03 0.  1.
     -623    1    1    2    0    0  0.26586395837E-01  0.10622199918E+00  0.45226490245E-02  0.17130003506E+03  0.17130000000E+03 0. -1.
      622    1    1    2    0    0  0.26666806611E-01 -0.67203215081E-01  0.26124260500E+01  0.26153388418E+01  0.10000000000E+00 0. -1.
</event>
<event>
 5   0  0.6262544E+06  0.9118800E+02  0.7818608E-02  0.1180000E+00
       11   -1    0    0    0    0  0.00000000000E+00  0.00000000000E+00  0.39999999673E+01  0.40000000000E+01  0.51109989000E-03 0.  1.
     -623   -1    0    0    0    0  0.00000000000E+00  0.00000000000E+00  0.12525980253E-10  0.17130000000E+03  0.17130000000E+03 0. -1.
       11    1    1    2    0    0 -0.15560586756E-01  0.31642443333E-01  0.34288580677E+00  0.34469452242E+00  0.51109989000E-03 0.  1.
     -623    1    1    2    0    0  0.88931856612E-03 -0.99278255597E-03  0.33348553517E-02  0.17130000004E+03  0.17130000000E+03 0. -1.
      622    1    1    2    0    0  0.14671268190E-01 -0.30649660777E-01  0.36537793052E+01  0.36553054399E+01  0.10000000000E+00 0.  0.
</event>
<event>
 5   0  0.6262544E+06  0.9118800E+02  0.7818608E-02  0.1180000E+00
       11   -1    0    0    0    0  0.00000000000E+00  0.00000000000E+00  0.39999999673E+01  0.40000000000E+01  0.51109989000E-03 0. -1.
     -623   -1    0    0    0    0  0.00000000000E+00  0.00000000000E+00  0.12525980253E-10  0.17130000000E+03  0.17130000000E+03 0.  1.
       11    1    1    2    0    0 -0.49045199375E-02 -0.63164669729E-02  0.10913224988E-01  0.13539267742E-01  0.51109989000E-03 0. -1.
     -623    1    1    2    0    0  0.72562471328E-02 -0.13982729564E-03  0.38865744813E-02  0.17130000020E+03  0.17130000000E+03 0.  1.
      622    1    1    2    0    0 -0.23517271953E-02  0.64562942685E-02  0.39852001679E+01  0.39864605344E+01  0.10000000000E+00 0. -1.
</event>
<event>
 5   0  0.6262544E+06  0.9118800E+02  0.7818608E-02  0.1180000E+00
       11   -1    0    0    0    0  0.00000000000E+00  0.00000000000E+00  0.39999999673E+01  0.40000000000E+01  0.51109989000E-03 0.  1.
     -623   -1    0    0    0    0  0.00000000000E+00  0.00000000000E+00  0.12525980253E-10  0.17130000000E+03  0.17130000000E+03 0.  1.
       11    1    1    2    0    0 -0.28790291561E-02 -0.24292429124E-01  0.68177870117E-01  0.72435447941E-01  0.51109989000E-03 0.  1.
     -623    1    1    2    0    0 -0.95490204384E-02  0.36056941507E-02  0.56053681230E-02  0.17130000040E+03  0.17130000000E+03 0.  1.
      622    1    1    2    0    0  0.12428049595E-01  0.20686734973E-01  0.39262167292E+01  0.39275641563E+01  0.10000000000E+00 0.  1.
</event>
<event>
 5   0  0.6262544E+06  0.9118800E+02  0.7818608E-02  0.1180000E+00
       11   -1    0    0    0    0  0.00000000000E+00  0.00000000000E+00  0.39999999673E+01  0.40000000000E+01  0.51109989000E-03 0. -1.
     -623   -1    0    0    0    0  0.00000000000E+00  0.00000000000E+00  0.12525980253E-10  0.17130000000E+03  0.17130000000E+03 0. -1.
       11    1    1    2    0    0 -0.10711042315E-01  0.20577843356E-02  0.14383593140E+00  0.14424977396E+00  0.51109989000E-03 0. -1.
     -623    1    1    2    0    0  0.25487747646E-01 -0.60401498964E-01  0.21932763960E-02  0.17130001256E+03  0.17130000000E+03 0. -1.
      622    1    1    2    0    0 -0.14776705330E-01  0.58343714628E-01  0.38539707596E+01  0.38557376669E+01  0.10000000000E+00 0. -1.
</event>
<event>
 5   0  0.6262544E+06  0.9118800E+02  0.7818608E-02  0.1180000E+00
       11   -1    0    0    0    0  0.00000000000E+00  0.00000000000E+00  0.39999999673E+01  0.40000000000E+01  0.51109989000E-03 0. -1.
     -623   -1    0    0    0    0  0.00000000000E+00  0.00000000000E+00  0.12525980253E-10  0.17130000000E+03  0.17130000000E+03 0. -1.
       11    1    1    2    0    0  0.10277267512E-01 -0.38871815170E-02  0.62742803805E+00  0.62752445097E+00  0.51109989000E-03 0. -1.
     -623    1    1    2    0    0  0.98081525549E-02  0.17305348173E-01  0.16670043746E-02  0.17130000116E+03  0.17130000000E+03 0. -1.
      622    1    1    2    0    0 -0.20085420068E-01 -0.13418166657E-01  0.33709049251E+01  0.33724743862E+01  0.10000000000E+00 0. -1.
</event>
<event>
 5   0  0.6262544E+06  0.9118800E+02  0.7818608E-02  0.1180000E+00
       11   -1    0    0    0    0  0.00000000000E+00  0.00000000000E+00  0.39999999673E+01  0.40000000000E+01  0.51109989000E-03 0. -1.
     -623   -1    0    0    0    0  0.00000000000E+00  0.00000000000E+00  0.12525980253E-10  0.17130000000E+03  0.17130000000E+03 0.  1.
       11    1    1    2    0    0  0.27649301316E-01 -0.61067285640E-02  0.75138885623E-01  0.80298750630E-01  0.51109989000E-03 0. -1.
     -623    1    1    2    0    0  0.21417997817E-01  0.17818028627E-01  0.67627774518E-02  0.17130000240E+03  0.17130000000E+03 0.  1.
      622    1    1    2    0    0 -0.49067299133E-01 -0.11711300063E-01  0.39180983043E+01  0.39196988503E+01  0.10000000000E+00 0. -1.
</event>
<event>
 5   0  0.6262544E+06  0.9118800E+02  0.7818608E-02  0.1180000E+00
       11   -1    0    0    0    0  0.00000000000E+00  0.00000000000E+00  0.39999999673E+01  0.40000000000E+01  0.51109989000E-03 0. -1.
     -623   -1    0    0    0    0  0.00000000000E+00  0.00000000000E+00  0.12525980253E-10  0.17130000000E+03  0.17130000000E+03 0. -1.
       11    1    1    2    0    0 -0.46142978975E-01 -0.66547124873E-01  0.15695121163E+01  0.15715998978E+01  0.51109989000E-03 0. -1.
     -623    1    1    2    0    0 -0.11294399925E-01  0.20434313005E-01  0.52675535937E-02  0.17130000167E+03  0.17130000000E+03 0. -1.
      622    1    1    2    0    0  0.57437378900E-01  0.46112811867E-01  0.24252202975E+01  0.24283984301E+01  0.10000000000E+00 0. -1.
</event>
<event>
 5   0  0.6262544E+06  0.9118800E+02  0.7818608E-02  0.1180000E+00
       11   -1    0    0    0    0  0.00000000000E+00  0.00000000000E+00  0.39999999673E+01  0.40000000000E+01  0.51109989000E-03 0. -1.
     -623   -1    0    0    0    0  0.00000000000E+00  0.00000000000E+00  0.12525980253E-10  0.17130000000E+03  0.17130000000E+03 0. -1.
       11    1    1    2    0    0  0.34233045542E-02 -0.84127102975E-02  0.77582238473E-01  0.78113748199E-01  0.51109989000E-03 0. -1.
     -623    1    1    2    0    0 -0.25348479846E-01  0.18046151463E-01  0.18825603873E-02  0.17130000284E+03  0.17130000000E+03 0. -1.
      622    1    1    2    0    0  0.21925175292E-01 -0.96334411654E-02  0.39205351685E+01  0.39218834154E+01  0.10000000000E+00 0. -1.
</event>
<event>
 5   0  0.6262544E+06  0.9118800E+02  0.7818608E-02  0.1180000E+00
       11   -1    0    0    0    0  0.00000000000E+00  0.00000000000E+00  0.39999999673E+01  0.40000000000E+01  0.51109989000E-03 0.  1.
     -623   -1    0    0    0    0  0.00000000000E+00  0.00000000000E+00  0.12525980253E-10  0.17130000000E+03  0.17130000000E+03 0. -1.
       11    1    1    2    0    0  0.57324950328E-03  0.24905495497E-02  0.20445327192E-02  0.33125200664E-02  0.51109989000E-03 0.  1.
     -623    1    1    2    0    0  0.47450398462E-02 -0.77360806857E-02  0.25264286512E-02  0.17130000026E+03  0.17130000000E+03 0. -1.
      622    1    1    2    0    0 -0.53182893497E-02  0.52455311363E-02  0.39954290061E+01  0.39966872210E+01  0.10000000000E+00 0.  1.
</event>
<event>
 5   0  0.6262544E+06  0.9118800E+02  0.7818608E-02  0.1180000E+00
       11   -1    0    0    0    0  0.00000000000E+00  0.00000000000E+00  0.39999999673E+01  0.40000000000E+01  0.51109989000E-03 0.  1.
     -623   -1    0    0    0    0  0.00000000000E+00  0.00000000000E+00  0.12525980253E-10  0.17130000000E+03  0.17130000000E+03 0. -1.
       11    1    1    2    0    0  0.48032298515E-01  0.13070789625E+00  0.12336556465E+01  0.12414903025E+01  0.51109989000E-03 0.  1.
     -623    1    1    2    0    0 -0.17019050968E-01  0.47181090731E-01  0.15576242720E-01  0.17130000805E+03  0.17130000000E+03 0. -1.
      622    1    1    2    0    0 -0.31013247547E-01 -0.17788898698E+00  0.27507680781E+01  0.27585016464E+01  0.10000000000E+00 0.  1.
</event>
<event>
 5   0  0.6262544E+06  0.9118800E+02  0.7818608E-02  0.1180000E+00
       11   -1    0    0    0    0  0.00000000000E+00  0.00000000000E+00  0.39999999673E+01  0.40000000000E+01  0.51109989000E-03 0.  1.
     -623   -1    0    0    0    0  0.00000000000E+00  0.00000000000E+00  0.12525980253E-10  0.17130000000E+03  0.17130000000E+03 0. -1.
       11    1    1    2    0    0  0.15512712673E-01  0.22451485302E-01  0.77978107715E+00  0.78025861286E+00  0.51109989000E-03 0.  1.
     -623    1    1    2    0    0  0.72391039071E-02  0.56597141713E-02  0.22342671216E-02  0.17130000026E+03  0.17130000000E+03 0. -1.
      622    1    1    2    0    0 -0.22751816581E-01 -0.28111199473E-01  0.32179846231E+01  0.32197411261E+01  0.10000000000E+00 0.  0.
</event>
<event>
 5   0  0.6262544E+06  0.9118800E+02  0.7818608E-02  0.1180000E+00
       11   -1    0    0    0    0  0.00000000000E+00  0.00000000000E+00  0.39999999673E+01  0.40000000000E+01  0.51109989000E-03 0. -1.
     -623   -1    0    0    0    0  0.00000000000E+00  0.00000000000E+00  0.12525980253E-10  0.17130000000E+03  0.17130000000E+03 0. -1.
       11    1    1    2    0    0 -0.42149361059E-02  0.67858397991E-02  0.31032433252E+00  0.31042755336E+00  0.51109989000E-03 0. -1.
     -623    1    1    2    0    0  0.36762898078E-02  0.65649195108E-02  0.14829826924E-02  0.17130000017E+03  0.17130000000E+03 0. -1.
      622    1    1    2    0    0  0.53864629817E-03 -0.13350759310E-01  0.36881926522E+01  0.36895722750E+01  0.10000000000E+00 0. -1.
</event>
<event>
 5   0  0.6262544E+06  0.9118800E+02  0.7818608E-02  0.1180000E+00
       11   -1    0    0    0    0  0.00000000000E+00  0.00000000000E+00  0.39999999673E+01  0.40000000000E+01  0.51109989000E-03 0.  1.
     -623   -1    0    0    0    0  0.00000000000E+00  0.00000000000E+00  0.12525980253E-10  0.17130000000E+03  0.17130000000E+03 0.  1.
       11    1    1    2    0    0 -0.31719403462E-01 -0.38678925055E-01  0.18724911900E+01  0.18731592825E+01  0.51109989000E-03 0.  1.
     -623    1    1    2    0    0  0.43894570516E-02 -0.46206020770E-02  0.36375491599E-02  0.17130000016E+03  0.17130000000E+03 0.  1.
      622    1    1    2    0    0  0.27329946410E-01  0.43299527132E-01  0.21238712282E+01  0.21268405604E+01  0.10000000000E+00 0.  1.
</event>
<event>
 5   0  0.6262544E+06  0.9118800E+02  0.7818608E-02  0.1180000E+00
       11   -1    0    0    0    0  0.00000000000E+00  0.00000000000E+00  0.39999999673E+01  0.40000000000E+01  0.51109989000E-03 0.  1.
     -623   -1    0    0    0    0  0.00000000000E+00  0.00000000000E+00  0.12525980253E-10  0.17130000000E+03  0.17130000000E+03 0. -1.
       11    1    1    2    0    0 -0.93974175311E-02  0.47381331775E-02  0.16453150577E+00  0.16486855060E+00  0.51109989000E-03 0.  1.
     -623    1    1    2    0    0 -0.15810540589E-02 -0.11867834963E-02  0.16583533257E-02  0.17130000002E+03  0.17130000000E+03 0. -1.
      622    1    1    2    0    0  0.10978471590E-01 -0.35513496811E-02  0.38338101083E+01  0.38351314300E+01  0.10000000000E+00 0.  1.
</event>
<event>
 5   0  0.6262544E+06  0.9118800E+02  0.7818608E-02  0.1180000E+00
       11   -1    0    0    0    0  0.00000000000E+00  0.00000000000E+00  0.39999999673E+01  0.40000000000E+01  0.51109989000E-03 0.  1.
     -623   -1    0    0    0    0  0.00000000000E+00  0.00000000000E+00  0.12525980253E-10  0.17130000000E+03  0.17130000000E+03 0. -1.
       11    1    1    2    0    0  0.32801613945E-03  0.69711081058E-03  0.13198096250E+00  0.13198420073E+00  0.51109989000E-03 0.  1.
     -623    1    1    2    0    0 -0.13823068101E-02 -0.35765075493E-02  0.12973377372E-02  0.17130000005E+03  0.17130000000E+03 0. -1.
      622    1    1    2    0    0  0.10542906707E-02  0.28793967387E-02  0.38667216671E+01  0.38680157514E+01  0.10000000000E+00 0.  1.
</event>
<event>
 5   0  0.6262544E+06  0.9118800E+02  0.7818608E-02  0.1180000E+00
       11   -1    0    0    0    0  0.00000000000E+00  0.00000000000E+00  0.39999999673E+01  0.40000000000E+01  0.51109989000E-03 0.  1.
     -623   -1    0    0    0    0  0.00000000000E+00  0.00000000000E+00  0.12525980253E-10  0.17130000000E+03  0.17130000000E+03 0. -1.
       11    1    1    2    0    0  0.10701877870E-01 -0.10982679607E-01  0.11072354534E+00  0.11178154658E+00  0.51109989000E-03 0.  1.
     -623    1    1    2    0    0 -0.26843588054E-01  0.52356721464E-02  0.23840834660E-02  0.17130000220E+03  0.17130000000E+03 0. -1.
      622    1    1    2    0    0  0.16141710184E-01  0.57470074602E-02  0.38868923386E+01  0.38882162536E+01  0.10000000000E+00 0.  1.
</event>
<event>
 5   0  0.6262544E+06  0.9118800E+02  0.7818608E-02  0.1180000E+00
       11   -1    0    0    0    0  0.00000000000E+00  0.00000000000E+00  0.39999999673E+01  0.40000000000E+01  0.51109989000E-03 0. -1.
     -623   -1    0    0    0    0  0.00000000000E+00  0.00000000000E+00  0.12525980253E-10  0.17130000000E+03  0.17130000000E+03 0.  1.
       11    1    1    2    0    0  0.16756803329E-01 -0.12447223746E-02  0.77742864389E-01  0.79539637780E-01  0.51109989000E-03 0. -1.
     -623    1    1    2    0    0  0.10666556519E-01  0.66732703280E-02  0.31725046906E-02  0.17130000049E+03  0.17130000000E+03 0.  1.
      622    1    1    2    0    0 -0.27423359847E-01 -0.54285479533E-02  0.39190845982E+01  0.39204598707E+01  0.10000000000E+00 0. -1.
</event>
<event>
 5   0  0.6262544E+06  0.9118800E+02  0.7818608E-02  0.1180000E+00
       11   -1    0    0    0    0  0.00000000000E+00  0.00000000000E+00  0.39999999673E+01  0.40000000000E+01  0.51109989000E-03 0.  1.
     -623   -1    0    0    0    0  0.00000000000E+00  0.00000000000E+00  0.12525980253E-10  0.17130000000E+03  0.17130000000E+03 0. -1.
       11    1    1    2    0    0 -0.33455967595E-01 -0.45335154682E-01  0.40695480153E+00  0.41083701114E+00  0.51109989000E-03 0.  1.
     -623    1    1    2    0    0 -0.85023876393E-02  0.97010783669E-02  0.56984439915E-02  0.17130000058E+03  0.17130000000E+03 0. -1.
      622    1    1    2    0    0  0.41958355235E-01  0.35634076315E-01  0.35873467218E+01  0.35891624084E+01  0.10000000000E+00 0.  1.
</event>
<event>
 5   0  0.6262544E+06  0.9118800E+02  0.7818608E-02  0.1180000E+00
       11   -1    0    0    0    0  0.00000000000E+00  0.00000000000E+00  0.39999999673E+01  0.40000000000E+01  0.51109989000E-03 0. -1.
     -623   -1    0    0    0    0  0.00000000000E+00  0.00000000000E+00  0.12525980253E-10  0.17130000000E+03  0.17130000000E+03 0. -1.
       11    1    1    2    0    0  0.30111567916E-01  0.20348221191E-01  0.16618567623E+00  0.17011377614E+00  0.51109989000E-03 0. -1.
     -623    1    1    2    0    0  0.12875152245E-01 -0.74135181371E-02  0.54977273812E-02  0.17130000073E+03  0.17130000000E+03 0. -1.
      622    1    1    2    0    0 -0.42986720161E-01 -0.12934703054E-01  0.38283165637E+01  0.38298854914E+01  0.10000000000E+00 0. -1.
</event>
<event>
 5   0  0.6262544E+06  0.9118800E+02  0.7818608E-02  0.1180000E+00
       11   -1    0    0    0    0  0.00000000000E+00  0.00000000000E+00  0.39999999673E+01  0.40000000000E+01  0.51109989000E-03 0.  1.
     -623   -1    0    0    0    0  0.00000000000E+00  0.00000000000E+00  0.12525980253E-10  0.17130000000E+03  0.17130000000E+03 0.  1.
       11    1    1    2    0    0 -0.56895533620E-02 -0.50096825547E-02  0.61600323539E-01  0.62067133170E-01  0.51109989000E-03 0.  1.
     -623    1    1    2    0    0 -0.95267116215E-03  0.37874625259E-02  0.17425301956E-02  0.17130000005E+03  0.17130000000E+03 0.  1.
      622    1    1    2    0    0  0.66422245242E-02  0.12222200287E-02  0.39366571137E+01  0.39379328135E+01  0.10000000000E+00 0.  1.
</event>
<event>
 5   0  0.6262544E+06  0.9118800E+02  0.7818608E-02  0.1180000E+00
       11   -1    0    0    0    0  0.00000000000E+00  0.00000000000E+00  0.39999999673E+01  0.40000000000E+01  0.51109989000E-03 0.  1.
     -623   -1    0    0    0    0  0.00000000000E+00  0.00000000000E+00  0.12525980253E-10  0.17130000000E+03  0.17130000000E+03 0.  1.
       11    1    1    2    0    0  0.18570921030E-02  0.37675356694E-02 -0.34471945051E-03  0.42453705017E-02  0.51109989000E-03 0.  1.
     -623    1    1    2    0    0 -0.17090984542E-02 -0.84381240381E-02  0.58446308521E-02  0.17130000032E+03  0.17130000000E+03 0.  1.
      622    1    1    2    0    0 -0.14799364881E-03  0.46705883687E-02  0.39945000560E+01  0.39957543134E+01  0.10000000000E+00 0.  1.
</event>
<event>
 5   0  0.6262544E+06  0.9118800E+02  0.7818608E-02  0.1180000E+00
       11   -1    0    0    0    0  0.00000000000E+00  0.00000000000E+00  0.39999999673E+01  0.40000000000E+01  0.51109989000E-03 0. -1.
     -623   -1    0    0    0    0  0.00000000000E+00  0.00000000000E+00  0.12525980253E-10  0.17130000000E+03  0.17130000000E+03 0. -1.
       11    1    1    2    0    0 -0.73335899041E-02 -0.15739943040E-01  0.35105918784E-01  0.39169045234E-01  0.51109989000E-03 0. -1.
     -623    1    1    2    0    0 -0.84451725835E-02 -0.32253790919E-03  0.53899689783E-02  0.17130000029E+03  0.17130000000E+03 0. -1.
      622    1    1    2    0    0  0.15778762488E-01  0.16062480949E-01  0.39595040796E+01  0.39608306615E+01  0.10000000000E+00 0. -1.
</event>
<event>
 5   0  0.6262544E+06  0.9118800E+02  0.7818608E-02  0.1180000E+00
       11   -1    0    0    0    0  0.00000000000E+00  0.00000000000E+00  0.39999999673E+01  0.40000000000E+01  0.51109989000E-03 0.  1.
     -623   -1    0    0    0    0  0.00000000000E+00  0.00000000000E+00  0.12525980253E-10  0.17130000000E+03  0.17130000000E+03 0. -1.
       11    1    1    2    0    0 -0.36008715163E-02 -0.43916705957E-03  0.16534226301E-01  0.16935200202E-01  0.51109989000E-03 0.  1.
     -623    1    1    2    0    0  0.78823334189E-03 -0.12273134652E-02  0.16578102402E-02  0.17130000001E+03  0.17130000000E+03 0. -1.
      622    1    1    2    0    0  0.28126381744E-02  0.16664805248E-02  0.39818079308E+01  0.39830647855E+01  0.10000000000E+00 0.  1.
</event>
<event>
 5   0  0.6262544E+06  0.9118800E+02  0.7818608E-02  0.1180000E+00
       11   -1    0    0    0    0  0.00000000000E+00  0.00000000000E+00  0.39999999673E+01  0.40000000000E+01  0.51109989000E-03 0.  1.
     -623   -1    0    0    0    0  0.00000000000E+00  0.00000000000E+00  0.12525980253E-10  0.17130000000E+03  0.17130000000E+03 0.  1.
       11    1    1    2    0    0 -0.24571294420E-02 -0.42982905552E-02  0.55893357701E-02  0.74842958412E-02  0.51109989000E-03 0.  1.
     -623    1    1    2    0    0  0.24754788957E-01 -0.32793769190E-01  0.33870753803E-02  0.17130000496E+03  0.17130000000E+03 0.  1.
      622    1    1    2    0    0 -0.22297659516E-01  0.37092059746E-01  0.39910235563E+01  0.39925107431E+01  0.10000000000E+00 0.  1.
</event>
<event>
 5   0  0.6262544E+06  0.9118800E+02  0.7818608E-02  0.1180000E+00
       11   -1    0    0    0    0  0.00000000000E+00  0.00000000000E+00  0.39999999673E+01  0.40000000000E+01  0.51109989000E-03 0.  1.
     -623   -1    0    0    0    0  0.00000000000E+00  0.00000000000E+00  0.12525980253E-10  0.17130000000E+03  0.17130000000E+03 0.  1.
       11    1    1    2    0    0 -0.22450782645E-02 -0.10835922074E-01  0.21344548336E-02  0.11281609058E-01  0.51109989000E-03 0.  1.
     -623    1    1    2    0    0 -0.17959625995E-02  0.12538915424E-01  0.10404049954E-01  0.17130000078E+03  0.17130000000E+03 0.  1.
      622    1    1    2    0    0  0.40410408640E-02 -0.17029933497E-02  0.39874614626E+01  0.39887176067E+01  0.10000000000E+00 0.  1.
</event>
<event>
 5   0  0.6262544E+06  0.9118800E+02  0.7818608E-02  0.1180000E+00
       11   -1    0    0    0    0  0.00000000000E+00  0.00000000000E+00  0.39999999673E+01  0.40000000000E+01  0.51109989000E-03 0.  1.
     -623   -1    0    0    0    0  0.00000000000E+00  0.00000000000E+00  0.12525980253E-10  0.17130000000E+03  0.17130000000E+03 0. -1.
       11    1    1    2    0    0  0.66417968407E-02  0.22593645077E-01  0.29427773198E+00  0.29521895438E+00  0.51109989000E-03 0.  1.
     -623    1    1    2    0    0 -0.73173490251E-02 -0.17426677332E-02  0.23499838735E-02  0.17130000018E+03  0.17130000000E+03 0. -1.
      622    1    1    2    0    0  0.67555218443E-03 -0.20850977343E-01  0.37033722515E+01  0.37047808643E+01  0.10000000000E+00 0.  1.
</event>
<event>
 5   0  0.6262544E+06  0.9118800E+02  0.7818608E-02  0.1180000E+00
       11   -1    0    0    0    0  0.00000000000E+00  0.00000000000E+00  0.39999999673E+01  0.40000000000E+01  0.51109989000E-03 0. -1.
     -623   -1    0    0    0    0  0.00000000000E+00  0.00000000000E+00  0.12525980253E-10  0.17130000000E+03  0.17130000000E+03 0. -1.
       11    1    1    2    0    0 -0.13095532516E-02 -0.33513194862E-02  0.41062213966E-02  0.54834796683E-02  0.51109989000E-03 0. -1.
     -623    1    1    2    0    0  0.40099010312E-03  0.25485767154E-02  0.26293614161E-02  0.17130000004E+03  0.17130000000E+03 0. -1.
      622    1    1    2    0    0  0.90856314846E-03  0.80274277077E-03  0.39932643845E+01  0.39945164807E+01  0.10000000000E+00 0. -1.
</event>
<event>
 5   0  0.6262544E+06  0.9118800E+02  0.7818608E-02  0.1180000E+00
       11   -1    0    0    0    0  0.00000000000E+00  0.00000000000E+00  0.39999999673E+01  0.40000000000E+01  0.51109989000E-03 0. -1.
     -623   -1    0    0    0    0  0.00000000000E+00  0.00000000000E+00  0.12525980253E-10  0.17130000000E+03  0.17130000000E+03 0. -1.
       11    1    1    2    0    0 -0.68147309381E-02  0.35384678270E-02  0.49362619693E-01  0.49958890684E-01  0.51109989000E-03 0. -1.
     -623    1    1    2    0    0 -0.11322598335E-02 -0.27135321070E-02  0.18703692184E-02  0.17130000004E+03  0.17130000000E+03 0. -1.
      622    1    1    2    0    0  0.79469907716E-02 -0.82493571996E-03  0.39487669786E+01  0.39500410740E+01  0.10000000000E+00 0. -1.
</event>
<event>
 5   0  0.6262544E+06  0.9118800E+02  0.7818608E-02  0.1180000E+00
       11   -1    0    0    0    0  0.00000000000E+00  0.00000000000E+00  0.39999999673E+01  0.40000000000E+01  0.51109989000E-03 0. -1.
     -623   -1    0    0    0    0  0.00000000000E+00  0.00000000000E+00  0.12525980253E-10  0.17130000000E+03  0.17130000000E+03 0.  1.
       11    1    1    2    0    0 -0.41394746959E-02  0.43196984083E-02  0.13479852019E-01  0.14756784058E-01  0.51109989000E-03 0. -1.
     -623    1    1    2    0    0 -0.10179612016E-02 -0.27268837836E-02  0.25354256922E-02  0.17130000004E+03  0.17130000000E+03 0.  1.
      622    1    1    2    0    0  0.51574358975E-02 -0.15928146247E-02  0.39839846896E+01  0.39852431724E+01  0.10000000000E+00 0. -1.
</event>
<event>
 5   0  0.6262544E+06  0.9118800E+02  0.7818608E-02  0.1180000E+00
       11   -1    0    0    0    0  0.00000000000E+00  0.00000000000E+00  0.39999999673E+01  0.40000000000E+01  0.51109989000E-03 0.  1.
     -623   -1    0    0    0    0  0.00000000000E+00  0.00000000000E+00  0.12525980253E-10  0.17130000000E+03  0.17130000000E+03 0.  1.
       11    1    1    2    0    0  0.79783474911E-03 -0.22849428759E-03  0.16486329893E-02  0.19151928773E-02  0.51109989000E-03 0.  1.
     -623    1    1    2    0    0  0.10042087420E-02  0.10228924255E-02  0.15178196005E-02  0.17130000001E+03  0.17130000000E+03 0.  1.
      622    1    1    2    0    0 -0.18020434911E-02 -0.79439813789E-03  0.39968335147E+01  0.39980847943E+01  0.10000000000E+00 0.  1.
</event>
<event>
 5   0  0.6262544E+06  0.9118800E+02  0.7818608E-02  0.1180000E+00
       11   -1    0    0    0    0  0.00000000000E+00  0.00000000000E+00  0.39999999673E+01  0.40000000000E+01  0.51109989000E-03 0. -1.
     -623   -1    0    0    0    0  0.00000000000E+00  0.00000000000E+00  0.12525980253E-10  0.17130000000E+03  0.17130000000E+03 0.  1.
       11    1    1    2    0    0  0.27434989421E-02 -0.26704727829E-02  0.14306296842E-02  0.41189969313E-02  0.51109989000E-03 0. -1.
     -623    1    1    2    0    0  0.20234485199E-02 -0.75862370368E-02  0.39560568011E-02  0.17130000023E+03  0.17130000000E+03 0.  1.
      622    1    1    2    0    0 -0.47669474620E-02  0.10256709820E-01  0.39946132810E+01  0.39958807776E+01  0.10000000000E+00 0. -1.
</event>
<event>
 5   0  0.6262544E+06  0.9118800E+02  0.7818608E-02  0.1180000E+00
       11   -1    0    0    0    0  0.00000000000E+00  0.00000000000E+00  0.39999999673E+01  0.40000000000E+01  0.51109989000E-03 0.  1.
     -623   -1    0    0    0    0  0.00000000000E+00  0.00000000000E+00  0.12525980253E-10  0.17130000000E+03  0.17130000000E+03 0. -1.
       11    1    1    2    0    0  0.17076612933E-01  0.35036522215E-01  0.15096464382E+01  0.15101495946E+01  0.51109989000E-03 0.  1.
     -623    1    1    2    0    0  0.65813512621E-02 -0.14956380744E-01  0.27064194807E-02  0.17130000080E+03  0.17130000000E+03 0. -1.
      622    1    1    2    0    0 -0.23657964195E-01 -0.20080141470E-01  0.24876471098E+01  0.24898496048E+01  0.10000000000E+00 0.  1.
</event>
<event>
 5   0  0.6262544E+06  0.9118800E+02  0.7818608E-02  0.1180000E+00
       11   -1    0    0    0    0  0.00000000000E+00  0.00000000000E+00  0.39999999673E+01  0.40000000000E+01  0.51109989000E-03 0.  1.
     -623   -1    0    0    0    0  0.00000000000E+00  0.00000000000E+00  0.12525980253E-10  0.17130000000E+03  0.17130000000E+03 0. -1.
       11    1    1    2    0    0  0.32609672999E-03 -0.11610520544E-02  0.48523644769E-02  0.50260367154E-02  0.51109989000E-03 0.  1.
     -623    1    1    2    0    0 -0.66423154492E-03  0.43590070093E-03  0.14254962472E-02  0.17130000001E+03  0.17130000000E+03 0. -1.
      622    1    1    2    0    0  0.33813481492E-03  0.72515135345E-03  0.39937221066E+01  0.39949739555E+01  0.10000000000E+00 0.  1.
</event>
<event>
 5   0  0.6262544E+06  0.9118800E+02  0.7818608E-02  0.1180000E+00
       11   -1    0    0    0    0  0.00000000000E+00  0.00000000000E+00  0.39999999673E+01  0.40000000000E+01  0.51109989000E-03 0. -1.
     -623   -1    0    0    0    0  0.00000000000E+00  0.00000000000E+00  0.12525980253E-10  0.17130000000E+03  0.17130000000E+03 0.  1.
       11    1    1    2    0    0  0.39276368808E-02  0.33251313207E-02  0.23337319761E-01  0.23903442093E-01  0.51109989000E-03 0. -1.
     -623    1    1    2    0    0 -0.67884249937E-02 -0.13178736589E-02  0.18254890097E-02  0.17130000015E+03  0.17130000000E+03 0.  1.
      622    1    1    2    0    0  0.28607881129E-02 -0.20072576618E-02  0.39748371586E+01  0.39760964086E+01  0.10000000000E+00 0. -1.
</event>
<event>
 5   0  0.6262544E+06  0.9118800E+02  0.7818608E-02  0.1180000E+00
       11   -1    0    0    0    0  0.00000000000E+00  0.00000000000E+00  0.39999999673E+01  0.40000000000E+01  0.51109989000E-03 0. -1.
     -623   -1    0    0    0    0  0.00000000000E+00  0.00000000000E+00  0.12525980253E-10  0.17130000000E+03  0.17130000000E+03 0.  1.
       11    1    1    2    0    0 -0.12465708718E-01 -0.54448602177E-02  0.22473495277E+00  0.22514684235E+00  0.51109989000E-03 0. -1.
     -623    1    1    2    0    0 -0.12532610450E-04 -0.16253662855E-01  0.18204430073E-02  0.17130000078E+03  0.17130000000E+03 0.  1.
      622    1    1    2    0    0  0.12478241328E-01  0.21698523073E-01  0.37734445716E+01  0.37748523769E+01  0.10000000000E+00 0. -1.
</event>
<event>
 5   0  0.6262544E+06  0.9118800E+02  0.7818608E-02  0.1180000E+00
       11   -1    0    0    0    0  0.00000000000E+00  0.00000000000E+00  0.39999999673E+01  0.40000000000E+01  0.51109989000E-03 0. -1.
     -623   -1    0    0    0    0  0.00000000000E+00  0.00000000000E+00  0.12525980253E-10  0.17130000000E+03  0.17130000000E+03 0. -1.
       11    1    1    2    0    0  0.19247956588E-01  0.18814416053E-01  0.44965006120E+00  0.45045521958E+00  0.51109989000E-03 0. -1.
     -623    1    1    2    0    0  0.21972789626E-02 -0.63749321906E-02  0.23008003132E-02  0.17130000015E+03  0.17130000000E+03 0. -1.
      622    1    1    2    0    0 -0.21445235551E-01 -0.12439483863E-01  0.35480491059E+01  0.35495446323E+01  0.10000000000E+00 0. -1.
</event>
<event>
 5   0  0.6262544E+06  0.9118800E+02  0.7818608E-02  0.1180000E+00
       11   -1    0    0    0    0  0.00000000000E+00  0.00000000000E+00  0.39999999673E+01  0.40000000000E+01  0.51109989000E-03 0. -1.
     -623   -1    0    0    0    0  0.00000000000E+00  0.00000000000E+00  0.12525980253E-10  0.17130000000E+03  0.17130000000E+03 0. -1.
       11    1    1    2    0    0 -0.18237202692E-02 -0.10993268029E-02  0.21470156450E+00  0.21471273249E+00  0.51109989000E-03 0. -1.
     -623    1    1    2    0    0 -0.45666054423E-03  0.41454562157E-02  0.13342388084E-02  0.17130000006E+03  0.17130000000E+03 0. -1.
      622    1    1    2    0    0  0.22803808134E-02 -0.30461294129E-02  0.37839641641E+01  0.37852872115E+01  0.10000000000E+00 0. -1.
</event>
<event>
 5   0  0.6262544E+06  0.9118800E+02  0.7818608E-02  0.1180000E+00
       11   -1    0    0    0    0  0.00000000000E+00  0.00000000000E+00  0.39999999673E+01  0.40000000000E+01  0.51109989000E-03 0.  1.
     -623   -1    0    0    0    0  0.00000000000E+00  0.00000000000E+00  0.12525980253E-10  0.17130000000E+03  0.17130000000E+03 0. -1.
       11    1    1    2    0    0 -0.33179559075E-02  0.46632189406E-04  0.28768958564E-01  0.28964205559E-01  0.51109989000E-03 0.  1.
     -623    1    1    2    0    0  0.39256258868E-02 -0.33932648060E-02  0.14560733359E-02  0.17130000008E+03  0.17130000000E+03 0. -1.
      622    1    1    2    0    0 -0.60766997931E-03  0.33466326166E-02  0.39697749355E+01  0.39710357097E+01  0.10000000000E+00 0.  1.
</event>
<event>
 5   0  0.6262544E+06  0.9118800E+02  0.7818608E-02  0.1180000E+00
       11   -1    0    0    0    0  0.00000000000E+00  0.00000000000E+00  0.39999999673E+01  0.40000000000E+01  0.51109989000E-03 0.  1.
     -623   -1    0    0    0    0  0.00000000000E+00  0.00000000000E+00  0.12525980253E-10  0.17130000000E+03  0.17130000000E+03 0.  1.
       11    1    1    2    0    0  0.32054526293E-04  0.62066805718E-02  0.39658108866E+00  0.39662998501E+00  0.51109989000E-03 0.  1.
     -623    1    1    2    0    0  0.42751026527E-02 -0.59397411873E-02  0.14394684532E-02  0.17130000016E+03  0.17130000000E+03 0.  1.
      622    1    1    2    0    0 -0.43071571790E-02 -0.26693938446E-03  0.36019794102E+01  0.36033698526E+01  0.10000000000E+00 0.  1.
</event>
<event>
 5   0  0.6262544E+06  0.9118800E+02  0.7818608E-02  0.1180000E+00
       11   -1    0    0    0    0  0.00000000000E+00  0.00000000000E+00  0.39999999673E+01  0.40000000000E+01  0.51109989000E-03 0.  1.
     -623   -1    0    0    0    0  0.00000000000E+00  0.00000000000E+00  0.12525980253E-10  0.17130000000E+03  0.17130000000E+03 0.  1.
       11    1    1    2    0    0 -0.26982686826E-02 -0.66348520294E-02  0.24853709915E-01  0.25870253840E-01  0.51109989000E-03 0.  1.
     -623    1    1    2    0    0 -0.39166941948E-02 -0.28360616077E-02  0.22917271309E-02  0.17130000008E+03  0.17130000000E+03 0.  1.
      622    1    1    2    0    0  0.66149628774E-02  0.94709136371E-02  0.39728545303E+01  0.39741296626E+01  0.10000000000E+00 0.  1.
</event>
<event>
 5   0  0.6262544E+06  0.9118800E+02  0.7818608E-02  0.1180000E+00
       11   -1    0    0    0    0  0.00000000000E+00  0.00000000000E+00  0.39999999673E+01  0.40000000000E+01  0.51109989000E-03 0.  1.
     -623   -1    0    0    0    0  0.00000000000E+00  0.00000000000E+00  0.12525980253E-10  0.17130000000E+03  0.17130000000E+03 0. -1.
       11    1    1    2    0    0 -0.12892928071E-02  0.43615881192E-03  0.33176290999E-02  0.36222087728E-02  0.51109989000E-03 0.  1.
     -623    1    1    2    0    0  0.20234111141E-02 -0.15581780465E-02  0.15561270239E-02  0.17130000003E+03  0.17130000000E+03 0. -1.
      622    1    1    2    0    0 -0.73411830705E-03  0.11220192347E-02  0.39951262114E+01  0.39963777653E+01  0.10000000000E+00 0.  1.
</event>
<event>
 5   0  0.6262544E+06  0.9118800E+02  0.7818608E-02  0.1180000E+00
       11   -1    0    0    0    0  0.00000000000E+00  0.00000000000E+00  0.39999999673E+01  0.40000000000E+01  0.51109989000E-03 0. -1.
     -623   -1    0    0    0    0  0.00000000000E+00  0.00000000000E+00  0.12525980253E-10  0.17130000000E+03  0.17130000000E+03 0.  1.
       11    1    1    2    0    0 -0.61835964320E-02  0.60736208159E-03  0.45372017292E-01  0.45798328897E-01  0.51109989000E-03 0. -1.
     -623    1    1    2    0    0  0.40376059770E-02  0.54191159061E-02  0.16962770661E-02  0.17130000014E+03  0.17130000000E+03 0.  1.
      622    1    1    2    0    0  0.21459904547E-02 -0.60264779881E-02  0.39529316733E+01  0.39542015297E+01  0.10000000000E+00 0. -1.
</event>
<event>
 5   0  0.6262544E+06  0.9118800E+02  0.7818608E-02  0.1180000E+00
       11   -1    0    0    0    0  0.00000000000E+00  0.00000000000E+00  0.39999999673E+01  0.40000000000E+01  0.51109989000E-03 0.  1.
     -623   -1    0    0    0    0  0.00000000000E+00  0.00000000000E+00  0.12525980253E-10  0.17130000000E+03  0.17130000000E+03 0. -1.
       11    1    1    2    0    0  0.63131708980E-01  0.21879408028E-01  0.15496336236E+00  0.16875492903E+00  0.51109989000E-03 0.  1.
     -623    1    1    2    0    0 -0.16186662522E-01  0.10861303572E-01  0.15526308341E-01  0.17130000181E+03  0.17130000000E+03 0. -1.
      622    1    1    2    0    0 -0.46945046458E-01 -0.32740711600E-01  0.38295102967E+01  0.38312432582E+01  0.10000000000E+00 0.  1.
</event>
<event>
 5   0  0.6262544E+06  0.9118800E+02  0.7818608E-02  0.1180000E+00
       11   -1    0    0    0    0  0.00000000000E+00  0.00000000000E+00  0.39999999673E+01  0.40000000000E+01  0.51109989000E-03 0. -1.
     -623   -1    0    0    0    0  0.00000000000E+00  0.00000000000E+00  0.12525980253E-10  0.17130000000E+03  0.17130000000E+03 0.  1.
       11    1    1    2    0    0 -0.40207354019E-02 -0.82592871697E-01  0.31405878836E+00  0.32476288664E+00  0.51109989000E-03 0. -1.
     -623    1    1    2    0    0  0.36606230645E-01 -0.53928434474E-02  0.13267576811E-01  0.17130000451E+03  0.17130000000E+03 0.  1.
      622    1    1    2    0    0 -0.32585495243E-01  0.87985715144E-01  0.36726736022E+01  0.36752326034E+01  0.10000000000E+00 0. -1.
</event>
<event>
 5   0  0.6262544E+06  0.9118800E+02  0.7818608E-02  0.1180000E+00
       11   -1    0    0    0    0  0.00000000000E+00  0.00000000000E+00  0.39999999673E+01  0.40000000000E+01  0.51109989000E-03 0.  1.
     -623   -1    0    0    0    0  0.00000000000E+00  0.00000000000E+00  0.12525980253E-10  0.17130000000E+03  0.17130000000E+03 0. -1.
       11    1    1    2    0    0  0.96032958771E-03 -0.14563232302E-02  0.10055296997E-01  0.10218284048E-01  0.51109989000E-03 0.  1.
     -623    1    1    2    0    0 -0.30378440966E-02  0.80993398579E-02  0.14226502099E-02  0.17130000022E+03  0.17130000000E+03 0. -1.
      622    1    1    2    0    0  0.20775145088E-02 -0.66430166277E-02  0.39885220202E+01  0.39897814916E+01  0.10000000000E+00 0.  1.
</event>
<event>
 5   0  0.6262544E+06  0.9118800E+02  0.7818608E-02  0.1180000E+00
       11   -1    0    0    0    0  0.00000000000E+00  0.00000000000E+00  0.39999999673E+01  0.40000000000E+01  0.51109989000E-03 0.  1.
     -623   -1    0    0    0    0  0.00000000000E+00  0.00000000000E+00  0.12525980253E-10  0.17130000000E+03  0.17130000000E+03 0. -1.
       11    1    1    2    0    0  0.20032108072E-01 -0.29026429806E-01  0.24547599822E+00  0.24799706835E+00  0.51109989000E-03 0.  1.
     -623    1    1    2    0    0  0.58546219505E-02  0.10984740623E-01  0.39871233083E-02  0.17130000050E+03  0.17130000000E+03 0. -1.
      622    1    1    2    0    0 -0.25886730022E-01  0.18041689183E-01  0.37505368458E+01  0.37520024330E+01  0.10000000000E+00 0.  1.
</event>
<event>
 5   0  0.6262544E+06  0.9118800E+02  0.7818608E-02  0.1180000E+00
       11   -1    0    0    0    0  0.00000000000E+00  0.00000000000E+00  0.39999999673E+01  0.40000000000E+01  0.51109989000E-03 0. -1.
     -623   -1    0    0    0    0  0.00000000000E+00  0.00000000000E+00  0.12525980253E-10  0.17130000000E+03  0.17130000000E+03 0.  1.
       11    1    1    2    0    0 -0.19705631990E-01  0.91450253235E-02  0.23388303143E+00  0.23489035109E+00  0.51109989000E-03 0. -1.
     -623    1    1    2    0    0  0.10797928332E-01 -0.11754000432E-01  0.23477089582E-02  0.17130000076E+03  0.17130000000E+03 0.  1.
      622    1    1    2    0    0  0.89077036580E-02  0.26089751081E-02  0.37637692268E+01  0.37651088890E+01  0.10000000000E+00 0. -1.
</event>
<event>
 5   0  0.6262544E+06  0.9118800E+02  0.7818608E-02  0.1180000E+00
       11   -1    0    0    0    0  0.00000000000E+00  0.00000000000E+00  0.39999999673E+01  0.40000000000E+01  0.51109989000E-03 0. -1.
     -623   -1    0    0    0    0  0.00000000000E+00  0.00000000000E+00  0.12525980253E-10  0.17130000000E+03  0.17130000000E+03 0. -1.
       11    1    1    2    0    0 -0.30144333315E-02  0.14326672088E-03  0.30783052193E-01  0.30934848619E-01  0.51109989000E-03 0. -1.
     -623    1    1    2    0    0  0.39180073881E-03  0.24149635309E-02  0.14134210168E-02  0.17130000002E+03  0.17130000000E+03 0. -1.
      622    1    1    2    0    0  0.26226325927E-02 -0.25582302519E-02  0.39678034944E+01  0.39690651283E+01  0.10000000000E+00 0. -1.
</event>
<event>
 5   0  0.6262544E+06  0.9118800E+02  0.7818608E-02  0.1180000E+00
       11   -1    0    0    0    0  0.00000000000E+00  0.00000000000E+00  0.39999999673E+01  0.40000000000E+01  0.51109989000E-03 0. -1.
     -623   -1    0    0    0    0  0.00000000000E+00  0.00000000000E+00  0.12525980253E-10  0.17130000000E+03  0.17130000000E+03 0. -1.
       11    1    1    2    0    0 -0.88358474680E-02 -0.69288583448E-01  0.25666559651E+00  0.26600088280E+00  0.51109989000E-03 0. -1.
     -623    1    1    2    0    0 -0.27769012728E-01  0.47539538551E-01  0.10926596286E-01  0.17130000920E+03  0.17130000000E+03 0. -1.
      622    1    1    2    0    0  0.36604860196E-01  0.21749044897E-01  0.37324077746E+01  0.37339899213E+01  0.10000000000E+00 0. -1.
</event>
<event>
 5   0  0.6262544E+06  0.9118800E+02  0.7818608E-02  0.1180000E+00
       11   -1    0    0    0    0  0.00000000000E+00  0.00000000000E+00  0.39999999673E+01  0.40000000000E+01  0.51109989000E-03 0. -1.
     -623   -1    0    0    0    0  0.00000000000E+00  0.00000000000E+00  0.12525980253E-10  0.17130000000E+03  0.17130000000E+03 0. -1.
       11    1    1    2    0    0  0.57458199577E-01 -0.77764853388E-02  0.14192575338E+01  0.14204415253E+01  0.51109989000E-03 0. -1.
     -623    1    1    2    0    0  0.69217604712E-02  0.98967275937E-02  0.39284665196E-02  0.17130000047E+03  0.17130000000E+03 0. -1.
      622    1    1    2    0    0 -0.64379960048E-01 -0.21202422549E-02  0.25768139671E+01  0.25795580039E+01  0.10000000000E+00 0. -1.
</event>
<event>
 5   0  0.6262544E+06  0.9118800E+02  0.7818608E-02  0.1180000E+00
       11   -1    0    0    0    0  0.00000000000E+00  0.00000000000E+00  0.39999999673E+01  0.40000000000E+01  0.51109989000E-03 0. -1.
     -623   -1    0    0    0    0  0.00000000000E+00  0.00000000000E+00  0.12525980253E-10  0.17130000000E+03  0.17130000000E+03 0.  1.
       11    1    1    2    0    0 -0.91567099610E-02 -0.46284165877E-02  0.18019897168E+00  0.18049154604E+00  0.51109989000E-03 0. -1.
     -623    1    1    2    0    0 -0.38672032586E-02  0.26194724981E-02  0.16246474233E-02  0.17130000007E+03  0.17130000000E+03 0.  1.
      622    1    1    2    0    0  0.13023913220E-01  0.20089440897E-02  0.38181763483E+01  0.38195083826E+01  0.10000000000E+00 0. -1.
</event>
<event>
 5   0  0.6262544E+06  0.9118800E+02  0.7818608E-02  0.1180000E+00
       11   -1    0    0    0    0  0.00000000000E+00  0.00000000000E+00  0.39999999673E+01  0.40000000000E+01  0.51109989000E-03 0. -1.
     -623   -1    0    0    0    0  0.00000000000E+00  0.00000000000E+00  0.12525980253E-10  0.17130000000E+03  0.17130000000E+03 0.  1.
       11    1    1    2    0    0  0.90008634173E-03  0.54460292638E-03  0.10886597580E-01  0.10949245533E-01  0.51109989000E-03 0. -1.
     -623    1    1    2    0    0 -0.17602816981E-02 -0.19501452315E-02  0.13166090178E-02  0.17130000003E+03  0.17130000000E+03 0.  1.
      622    1    1    2    0    0  0.86019535630E-03  0.14055423050E-02  0.39877967606E+01  0.39890507291E+01  0.10000000000E+00 0. -1.
</event>
<event>
 5   0  0.6262544E+06  0.9118800E+02  0.7818608E-02  0.1180000E+00
       11   -1    0    0    0    0  0.00000000000E+00  0.00000000000E+00  0.39999999673E+01  0.40000000000E+01  0.51109989000E-03 0. -1.
     -623   -1    0    0    0    0  0.00000000000E+00  0.00000000000E+00  0.12525980253E-10  0.17130000000E+03  0.17130000000E+03 0.  1.
       11    1    1    2    0    0  0.21743888830E-01 -0.21876684298E-01  0.71574809908E+00  0.71641258265E+00  0.51109989000E-03 0. -1.
     -623    1    1    2    0    0 -0.52190445421E-02  0.65263276539E-03  0.22978519890E-02  0.17130000010E+03  0.17130000000E+03 0.  1.
      622    1    1    2    0    0 -0.16524844288E-01  0.21224051532E-01  0.32819540165E+01  0.32835873214E+01  0.10000000000E+00 0. -1.
</event>
<event>
 5   0  0.6262544E+06  0.9118800E+02  0.7818608E-02  0.1180000E+00
       11   -1    0    0    0    0  0.00000000000E+00  0.00000000000E+00  0.39999999673E+01  0.40000000000E+01  0.51109989000E-03 0. -1.
     -623   -1    0    0    0    0  0.00000000000E+00  0.00000000000E+00  0.12525980253E-10  0.17130000000E+03  0.17130000000E+03 0. -1.
       11    1    1    2    0    0  0.95512585584E-02  0.27033271613E-01  0.54760680261E+00  0.54835708785E+00  0.51109989000E-03 0. -1.
     -623    1    1    2    0    0  0.48775768002E-02 -0.28748937059E-02  0.23140032477E-02  0.17130000011E+03  0.17130000000E+03 0. -1.
      622    1    1    2    0    0 -0.14428835358E-01 -0.24158377907E-01  0.34500791614E+01  0.34516428028E+01  0.10000000000E+00 0. -1.
</event>
<event>
 5   0  0.6262544E+06  0.9118800E+02  0.7818608E-02  0.1180000E+00
       11   -1    0    0    0    0  0.00000000000E+00  0.00000000000E+00  0.39999999673E+01  0.40000000000E+01  0.51109989000E-03 0.  1.
     -623   -1    0    0    0    0  0.00000000000E+00  0.00000000000E+00  0.12525980253E-10  0.17130000000E+03  0.17130000000E+03 0.  1.
       11    1    1    2    0    0 -0.36911774270E-02 -0.35127106326E-02  0.34677877185E+00  0.34681658229E+00  0.51109989000E-03 0.  1.
     -623    1    1    2    0    0  0.41670822328E-02  0.22560079933E-01  0.14579522475E-02  0.17130000154E+03  0.17130000000E+03 0.  1.
      622    1    1    2    0    0 -0.47590480577E-03 -0.19047369301E-01  0.36517632433E+01  0.36531818752E+01  0.10000000000E+00 0.  1.
</event>
<event>
 5   0  0.6262544E+06  0.9118800E+02  0.7818608E-02  0.1180000E+00
       11   -1    0    0    0    0  0.00000000000E+00  0.00000000000E+00  0.39999999673E+01  0.40000000000E+01  0.51109989000E-03 0.  1.
     -623   -1    0    0    0    0  0.00000000000E+00  0.00000000000E+00  0.12525980253E-10  0.17130000000E+03  0.17130000000E+03 0. -1.
       11    1    1    2    0    0  0.65223076038E-03  0.15164914294E-01  0.62185096735E-01  0.64012869874E-01  0.51109989000E-03 0.  1.
     -623    1    1    2    0    0  0.12382964366E-01  0.18070208282E-01  0.32616649437E-02  0.17130000143E+03  0.17130000000E+03 0. -1.
      622    1    1    2    0    0 -0.13035195126E-01 -0.33235122576E-01  0.39345532057E+01  0.39359856984E+01  0.10000000000E+00 0.  1.
</event>
<event>
 5   0  0.6262544E+06  0.9118800E+02  0.7818608E-02  0.1180000E+00
       11   -1    0    0    0    0  0.00000000000E+00  0.00000000000E+00  0.39999999673E+01  0.40000000000E+01  0.51109989000E-03 0. -1.
     -623   -1    0    0    0    0  0.00000000000E+00  0.00000000000E+00  0.12525980253E-10  0.17130000000E+03  0.17130000000E+03 0.  1.
       11    1    1    2    0    0 -0.10310293216E-02 -0.98779680546E-02  0.72620439352E-02  0.12314048058E-01  0.51109989000E-03 0. -1.
     -623    1    1    2    0    0  0.11071939981E-01 -0.28094486067E-01  0.65023167241E-02  0.17130000279E+03  0.17130000000E+03 0.  1.
      622    1    1    2    0    0 -0.10040910660E-01  0.37972454122E-01  0.39862356068E+01  0.39876831670E+01  0.10000000000E+00 0. -1.
</event>
<event>
 5   0  0.6262544E+06  0.9118800E+02  0.7818608E-02  0.1180000E+00
       11   -1    0    0    0    0  0.00000000000E+00  0.00000000000E+00  0.39999999673E+01  0.40000000000E+01  0.51109989000E-03 0. -1.
     -623   -1    0    0    0    0  0.00000000000E+00  0.00000000000E+00  0.12525980253E-10  0.17130000000E+03  0.17130000000E+03 0. -1.
       11    1    1    2    0    0 -0.49130268369E-02  0.27891015707E-02  0.46877949846E-01  0.47219914498E-01  0.51109989000E-03 0. -1.
     -623    1    1    2    0    0  0.21012746610E-02  0.19902698147E-02  0.16109897134E-02  0.17130000003E+03  0.17130000000E+03 0. -1.
      622    1    1    2    0    0  0.28117521759E-02 -0.47793713855E-02  0.39515110279E+01  0.39527800535E+01  0.10000000000E+00 0. -1.
</event>
<event>
 5   0  0.6262544E+06  0.9118800E+02  0.7818608E-02  0.1180000E+00
       11   -1    0    0    0    0  0.00000000000E+00  0.00000000000E+00  0.39999999673E+01  0.40000000000E+01  0.51109989000E-03 0.  1.
     -623   -1    0    0    0    0  0.00000000000E+00  0.00000000000E+00  0.12525980253E-10  0.17130000000E+03  0.17130000000E+03 0.  1.
       11    1    1    2    0    0  0.11639348619E-02  0.26771029168E-02  0.36149409291E-01  0.36270685653E-01  0.51109989000E-03 0.  1.
     -623    1    1    2    0    0  0.30563683879E-02  0.42799292855E-02  0.13913240376E-02  0.17130000009E+03  0.17130000000E+03 0.  1.
      622    1    1    2    0    0 -0.42203032498E-02 -0.69570322023E-02  0.39624592340E+01  0.39637292280E+01  0.10000000000E+00 0.  1.
</event>
<event>
 5   0  0.6262544E+06  0.9118800E+02  0.7818608E-02  0.1180000E+00
       11   -1    0    0    0    0  0.00000000000E+00  0.00000000000E+00  0.39999999673E+01  0.40000000000E+01  0.51109989000E-03 0.  1.
     -623   -1    0    0    0    0  0.00000000000E+00  0.00000000000E+00  0.12525980253E-10  0.17130000000E+03  0.17130000000E+03 0.  1.
       11    1    1    2    0    0 -0.14888489260E-01  0.39563895775E-02  0.17999240921E+00  0.18065117970E+00  0.51109989000E-03 0.  1.
     -623    1    1    2    0    0 -0.14184969178E-02 -0.56464107400E-03  0.20044350746E-02  0.17130000002E+03  0.17130000000E+03 0.  1.
      622    1    1    2    0    0  0.16306986178E-01 -0.33917485035E-02  0.38180031230E+01  0.38193488017E+01  0.10000000000E+00 0.  1.
</event>
<event>
 5   0  0.6262544E+06  0.9118800E+02  0.7818608E-02  0.1180000E+00
       11   -1    0    0    0    0  0.00000000000E+00  0.00000000000E+00  0.39999999673E+01  0.40000000000E+01  0.51109989000E-03 0. -1.
     -623   -1    0    0    0    0  0.00000000000E+00  0.00000000000E+00  0.12525980253E-10  0.17130000000E+03  0.17130000000E+03 0. -1.
       11    1    1    2    0    0 -0.42627260029E-03 -0.72530284635E-03  0.37194960680E-02  0.38475504043E-02  0.51109989000E-03 0. -1.
     -623    1    1    2    0    0  0.54080990016E-02 -0.34616406904E-03  0.13827624543E-02  0.17130000009E+03  0.17130000000E+03 0. -1.
      622    1    1    2    0    0 -0.49818264013E-02  0.10714669154E-02  0.39948977088E+01  0.39961523583E+01  0.10000000000E+00 0. -1.
</event>
<event>
 5   0  0.6262544E+06  0.9118800E+02  0.7818608E-02  0.1180000E+00
       11   -1    0    0    0    0  0.00000000000E+00  0.00000000000E+00  0.39999999673E+01  0.40000000000E+01  0.51109989000E-03 0.  1.
     -623   -1    0    0    0    0  0.00000000000E+00  0.00000000000E+00  0.12525980253E-10  0.17130000000E+03  0.17130000000E+03 0. -1.
       11    1    1    2    0    0  0.72976941170E-02  0.10357903569E-01  0.16137397061E-01  0.20523628119E-01  0.51109989000E-03 0.  1.
     -623    1    1    2    0    0 -0.61436051897E-02  0.33420323526E-02  0.56668370713E-02  0.17130000024E+03  0.17130000000E+03 0. -1.
      622    1    1    2    0    0 -0.11540889273E-02 -0.13699935922E-01  0.39781957332E+01  0.39794761354E+01  0.10000000000E+00 0.  1.
</event>
<event>
 5   0  0.6262544E+06  0.9118800E+02  0.7818608E-02  0.1180000E+00
       11   -1    0    0    0    0  0.00000000000E+00  0.00000000000E+00  0.39999999673E+01  0.40000000000E+01  0.51109989000E-03 0. -1.
     -623   -1    0    0    0    0  0.00000000000E+00  0.00000000000E+00  0.12525980253E-10  0.17130000000E+03  0.17130000000E+03 0.  1.
       11    1    1    2    0    0  0.39116813769E-02 -0.17686094848E-02  0.12836297656E+00  0.12843575906E+00  0.51109989000E-03 0. -1.
     -623    1    1    2    0    0  0.38900211441E-02  0.44264213177E-02  0.13733158312E-02  0.17130000011E+03  0.17130000000E+03 0.  1.
      622    1    1    2    0    0 -0.78017025210E-02 -0.26578118329E-02  0.38702636750E+01  0.38715641341E+01  0.10000000000E+00 0. -1.
</event>
<event>
 5   0  0.6262544E+06  0.9118800E+02  0.7818608E-02  0.1180000E+00
       11   -1    0    0    0    0  0.00000000000E+00  0.00000000000E+00  0.39999999673E+01  0.40000000000E+01  0.51109989000E-03 0. -1.
     -623   -1    0    0    0    0  0.00000000000E+00  0.00000000000E+00  0.12525980253E-10  0.17130000000E+03  0.17130000000E+03 0.  1.
       11    1    1    2    0    0  0.42766853208E-01  0.35195399661E-01  0.97041333626E+00  0.97199281083E+00  0.51109989000E-03 0. -1.
     -623    1    1    2    0    0 -0.67598979098E-02 -0.18235873719E-01  0.34940169430E-02  0.17130000114E+03  0.17130000000E+03 0.  1.
      622    1    1    2    0    0 -0.36006955298E-01 -0.16959525942E-01  0.30260926142E+01  0.30280060495E+01  0.10000000000E+00 0.  0.
</event>
<event>
 5   0  0.6262544E+06  0.9118800E+02  0.7818608E-02  0.1180000E+00
       11   -1    0    0    0    0  0.00000000000E+00  0.00000000000E+00  0.39999999673E+01  0.40000000000E+01  0.51109989000E-03 0.  1.
     -623   -1    0    0    0    0  0.00000000000E+00  0.00000000000E+00  0.12525980253E-10  0.17130000000E+03  0.17130000000E+03 0.  1.
       11    1    1    2    0    0 -0.69279935533E-02  0.13832473191E-01  0.37980226659E-01  0.41013330129E-01  0.51109989000E-03 0.  1.
     -623    1    1    2    0    0 -0.17088940528E-02 -0.14889727694E-01  0.43064970979E-02  0.17130000071E+03  0.17130000000E+03 0.  1.
      622    1    1    2    0    0  0.86368876060E-02  0.10572545037E-02  0.39577132436E+01  0.39589859601E+01  0.10000000000E+00 0.  1.
</event>
<event>
 5   0  0.6262544E+06  0.9118800E+02  0.7818608E-02  0.1180000E+00
       11   -1    0    0    0    0  0.00000000000E+00  0.00000000000E+00  0.39999999673E+01  0.40000000000E+01  0.51109989000E-03 0. -1.
     -623   -1    0    0    0    0  0.00000000000E+00  0.00000000000E+00  0.12525980253E-10  0.17130000000E+03  0.17130000000E+03 0.  1.
       11    1    1    2    0    0 -0.30070736717E-01  0.17014974344E-01  0.38248218317E+00  0.38403989405E+00  0.51109989000E-03 0. -1.
     -623    1    1    2    0    0 -0.34650008360E-02  0.11709161514E-01  0.32108795478E-02  0.17130000047E+03  0.17130000000E+03 0.  1.
      622    1    1    2    0    0  0.33535737553E-01 -0.28724135858E-01  0.36143069046E+01  0.36159596406E+01  0.10000000000E+00 0. -1.
</event>
<event>
 5   0  0.6262544E+06  0.9118800E+02  0.7818608E-02  0.1180000E+00
       11   -1    0    0    0    0  0.00000000000E+00  0.00000000000E+00  0.39999999673E+01  0.40000000000E+01  0.51109989000E-03 0.  1.
     -623   -1    0    0    0    0  0.00000000000E+00  0.00000000000E+00  0.12525980253E-10  0.17130000000E+03  0.17130000000E+03 0. -1.
       11    1    1    2    0    0 -0.99416589417E-03  0.75750710367E-02  0.27850601520E-01  0.28884031837E-01  0.51109989000E-03 0.  1.
     -623    1    1    2    0    0  0.15257753500E-02 -0.66518227026E-02  0.22929835498E-02  0.17130000015E+03  0.17130000000E+03 0. -1.
      622    1    1    2    0    0 -0.53160945574E-03 -0.92324833430E-03  0.39698563822E+01  0.39711158167E+01  0.10000000000E+00 0.  1.
</event>
<event>
 5   0  0.6262544E+06  0.9118800E+02  0.7818608E-02  0.1180000E+00
       11   -1    0    0    0    0  0.00000000000E+00  0.00000000000E+00  0.39999999673E+01  0.40000000000E+01  0.51109989000E-03 0.  1.
     -623   -1    0    0    0    0  0.00000000000E+00  0.00000000000E+00  0.12525980253E-10  0.17130000000E+03  0.17130000000E+03 0.  1.
       11    1    1    2    0    0 -0.22609477702E-01 -0.64768564185E-02  0.80521234394E+00  0.80555590632E+00  0.51109989000E-03 0.  1.
     -623    1    1    2    0    0  0.21770556282E-02  0.50555079773E-02  0.19749252166E-02  0.17130000010E+03  0.17130000000E+03 0.  1.
      622    1    1    2    0    0  0.20432422074E-01  0.14213484412E-02  0.31928126982E+01  0.31944439939E+01  0.10000000000E+00 0. -1.
</event>
<event>
 5   0  0.6262544E+06  0.9118800E+02  0.7818608E-02  0.1180000E+00
       11   -1    0    0    0    0  0.00000000000E+00  0.00000000000E+00  0.39999999673E+01  0.40000000000E+01  0.51109989000E-03 0.  1.
     -623   -1    0    0    0    0  0.00000000000E+00  0.00000000000E+00  0.12525980253E-10  0.17130000000E+03  0.17130000000E+03 0.  1.
       11    1    1    2    0    0  0.14585085391E-01 -0.29853897712E-01  0.28257133855E+00  0.28451854512E+00  0.51109989000E-03 0.  1.
     -623    1    1    2    0    0 -0.84223832952E-02  0.26503589845E-02  0.33981377247E-02  0.17130000026E+03  0.17130000000E+03 0.  1.
      622    1    1    2    0    0 -0.61627020957E-02  0.27203538727E-01  0.37140304911E+01  0.37154811936E+01  0.10000000000E+00 0.  0.
</event>
<event>
 5   0  0.6262544E+06  0.9118800E+02  0.7818608E-02  0.1180000E+00
       11   -1    0    0    0    0  0.00000000000E+00  0.00000000000E+00  0.39999999673E+01  0.40000000000E+01  0.51109989000E-03 0.  1.
     -623   -1    0    0    0    0  0.00000000000E+00  0.00000000000E+00  0.12525980253E-10  0.17130000000E+03  0.17130000000E+03 0.  1.
       11    1    1    2    0    0  0.41793630535E-02  0.13927108809E-01  0.45901820124E-01  0.48152567420E-01  0.51109989000E-03 0.  1.
     -623    1    1    2    0    0 -0.69107541347E-02 -0.20301311854E-01  0.35236139328E-02  0.17130000138E+03  0.17130000000E+03 0.  1.
      622    1    1    2    0    0  0.27313910811E-02  0.63742030440E-02  0.39505745332E+01  0.39518460539E+01  0.10000000000E+00 0.  1.
</event>
<event>
 5   0  0.6262544E+06  0.9118800E+02  0.7818608E-02  0.1180000E+00
       11   -1    0    0    0    0  0.00000000000E+00  0.00000000000E+00  0.39999999673E+01  0.40000000000E+01  0.51109989000E-03 0. -1.
     -623   -1    0    0    0    0  0.00000000000E+00  0.00000000000E+00  0.12525980253E-10  0.17130000000E+03  0.17130000000E+03 0. -1.
       11    1    1    2    0    0 -0.11408040742E-01  0.65827368436E-01  0.11029172458E+01  0.11049389567E+01  0.51109989000E-03 0. -1.
     -623    1    1    2    0    0 -0.76951671529E-01 -0.25298258260E-01  0.54020666563E-02  0.17130001924E+03  0.17130000000E+03 0. -1.
      622    1    1    2    0    0  0.88359712272E-01 -0.40529110176E-01  0.28916806550E+01  0.28950418059E+01  0.10000000000E+00 0. -1.
</event>
<event>
 5   0  0.6262544E+06  0.9118800E+02  0.7818608E-02  0.1180000E+00
       11   -1    0    0    0    0  0.00000000000E+00  0.00000000000E+00  0.39999999673E+01  0.40000000000E+01  0.51109989000E-03 0. -1.
     -623   -1    0    0    0    0  0.00000000000E+00  0.00000000000E+00  0.12525980253E-10  0.17130000000E+03  0.17130000000E+03 0. -1.
       11    1    1    2    0    0 -0.43011287951E-03  0.16684366783E-02 -0.30749592400E-03  0.18233087723E-02  0.51109989000E-03 0. -1.
     -623    1    1    2    0    0  0.22029248131E-02 -0.23893888792E-02  0.33820601585E-02  0.17130000006E+03  0.17130000000E+03 0. -1.
      622    1    1    2    0    0 -0.17728119336E-02  0.72095220094E-03  0.39969254031E+01  0.39981766270E+01  0.10000000000E+00 0. -1.
</event>
<event>
 5   0  0.6262544E+06  0.9118800E+02  0.7818608E-02  0.1180000E+00
       11   -1    0    0    0    0  0.00000000000E+00  0.00000000000E+00  0.39999999673E+01  0.40000000000E+01  0.51109989000E-03 0. -1.
     -623   -1    0    0    0    0  0.00000000000E+00  0.00000000000E+00  0.12525980253E-10  0.17130000000E+03  0.17130000000E+03 0. -1.
       11    1    1    2    0    0  0.30328572038E-01  0.69244908803E-02  0.62908359313E+00  0.62985252180E+00  0.51109989000E-03 0. -1.
     -623    1    1    2    0    0  0.21290561356E-02 -0.84162081113E-03  0.24147328428E-02  0.17130000003E+03  0.17130000000E+03 0. -1.
      622    1    1    2    0    0 -0.32457628173E-01 -0.60828700691E-02  0.33685016414E+01  0.33701474459E+01  0.10000000000E+00 0.  0.
</event>
<event>
 5   0  0.6262544E+06  0.9118800E+02  0.7818608E-02  0.1180000E+00
       11   -1    0    0    0    0  0.00000000000E+00  0.00000000000E+00  0.39999999673E+01  0.40000000000E+01  0.51109989000E-03 0.  1.
     -623   -1    0    0    0    0  0.00000000000E+00  0.00000000000E+00  0.12525980253E-10  0.17130000000E+03  0.17130000000E+03 0. -1.
       11    1    1    2    0    0  0.26019849034E-02  0.50061238606E-02  0.18690525064E-01  0.19530195898E-01  0.51109989000E-03 0.  1.
     -623    1    1    2    0    0 -0.59894151573E-02 -0.53387025546E-03  0.21000430615E-02  0.17130000012E+03  0.17130000000E+03 0. -1.
      622    1    1    2    0    0  0.33874302542E-02 -0.44722536051E-02  0.39792093994E+01  0.39804696859E+01  0.10000000000E+00 0.  1.
</event>
<event>
 5   0  0.6262544E+06  0.9118800E+02  0.7818608E-02  0.1180000E+00
       11   -1    0    0    0    0  0.00000000000E+00  0.00000000000E+00  0.39999999673E+01  0.40000000000E+01  0.51109989000E-03 0.  1.
     -623   -1    0    0    0    0  0.00000000000E+00  0.00000000000E+00  0.12525980253E-10  0.17130000000E+03  0.17130000000E+03 0.  1.
       11    1    1    2    0    0  0.81991284850E-03 -0.33728776329E-04  0.13371825013E-02  0.16500529836E-02  0.51109989000E-03 0.  1.
     -623    1    1    2    0    0 -0.86749049471E-03 -0.11203733347E-02  0.15637292120E-02  0.17130000001E+03  0.17130000000E+03 0.  1.
      622    1    1    2    0    0  0.47577646196E-04  0.11541021110E-02  0.39970990556E+01  0.39983499340E+01  0.10000000000E+00 0.  1.
</event>
<event>
 5   0  0.6262544E+06  0.9118800E+02  0.7818608E-02  0.1180000E+00
       11   -1    0    0    0    0  0.00000000000E+00  0.00000000000E+00  0.39999999673E+01  0.40000000000E+01  0.51109989000E-03 0.  1.
     -623   -1    0    0    0    0  0.00000000000E+00  0.00000000000E+00  0.12525980253E-10  0.17130000000E+03  0.17130000000E+03 0.  1.
       11    1    1    2    0    0  0.42771058741E-02 -0.30124715867E-02  0.78395923997E-01  0.78571946279E-01  0.51109989000E-03 0.  1.
     -623    1    1    2    0    0  0.13857018161E-02  0.16127079396E-02  0.14556020690E-02  0.17130000002E+03  0.17130000000E+03 0.  1.
      622    1    1    2    0    0 -0.56628076903E-02  0.13997636470E-02  0.39201484416E+01  0.39214280347E+01  0.10000000000E+00 0.  1.
</event>
<event>
 5   0  0.6262544E+06  0.9118800E+02  0.7818608E-02  0.1180000E+00
       11   -1    0    0    0    0  0.00000000000E+00  0.00000000000E+00  0.39999999673E+01  0.40000000000E+01  0.51109989000E-03 0.  1.
     -623   -1    0    0    0    0  0.00000000000E+00  0.00000000000E+00  0.12525980253E-10  0.17130000000E+03  0.17130000000E+03 0.  1.
       11    1    1    2    0    0 -0.26915067415E-02  0.98956940441E-03  0.79924909231E-01  0.79977970673E-01  0.51109989000E-03 0.  1.
     -623    1    1    2    0    0  0.40632604060E-02 -0.25450250934E-02  0.13293604876E-02  0.17130000007E+03  0.17130000000E+03 0.  1.
      622    1    1    2    0    0 -0.13717536645E-02  0.15554556890E-02  0.39187456976E+01  0.39200219571E+01  0.10000000000E+00 0.  1.
</event>
<event>
 5   0  0.6262544E+06  0.9118800E+02  0.7818608E-02  0.1180000E+00
       11   -1    0    0    0    0  0.00000000000E+00  0.00000000000E+00  0.39999999673E+01  0.40000000000E+01  0.51109989000E-03 0.  1.
     -623   -1    0    0    0    0  0.00000000000E+00  0.00000000000E+00  0.12525980253E-10  0.17130000000E+03  0.17130000000E+03 0. -1.
       11    1    1    2    0    0 -0.88822569751E-02  0.26101152013E-02  0.12695281963E+00  0.12729095343E+00  0.51109989000E-03 0.  1.
     -623    1    1    2    0    0  0.11779763536E-02  0.78433295923E-03  0.16385700691E-02  0.17130000001E+03  0.17130000000E+03 0. -1.
      622    1    1    2    0    0  0.77042806214E-02 -0.33944481606E-02  0.38714085777E+01  0.38727090329E+01  0.10000000000E+00 0.  1.
</event>
<event>
 5   0  0.6262544E+06  0.9118800E+02  0.7818608E-02  0.1180000E+00
       11   -1    0    0    0    0  0.00000000000E+00  0.00000000000E+00  0.39999999673E+01  0.40000000000E+01  0.51109989000E-03 0.  1.
     -623   -1    0    0    0    0  0.00000000000E+00  0.00000000000E+00  0.12525980253E-10  0.17130000000E+03  0.17130000000E+03 0. -1.
       11    1    1    2    0    0 -0.71417549794E-02  0.46667595554E-02  0.24008527588E-01  0.25484385962E-01  0.51109989000E-03 0.  1.
     -623    1    1    2    0    0  0.23658740805E-02 -0.31698571903E-02  0.27372596778E-02  0.17130000007E+03  0.17130000000E+03 0. -1.
      622    1    1    2    0    0  0.47758808988E-02 -0.14969023651E-02  0.39732541801E+01  0.39745155465E+01  0.10000000000E+00 0.  1.
</event>
<event>
 5   0  0.6262544E+06  0.9118800E+02  0.7818608E-02  0.1180000E+00
       11   -1    0    0    0    0  0.00000000000E+00  0.00000000000E+00  0.39999999673E+01  0.40000000000E+01  0.51109989000E-03 0. -1.
     -623   -1    0    0    0    0  0.00000000000E+00  0.00000000000E+00  0.12525980253E-10  0.17130000000E+03  0.17130000000E+03 0. -1.
       11    1    1    2    0    0 -0.34655563620E-03 -0.17857219698E-03  0.14300379303E-01  0.14314819557E-01  0.51109989000E-03 0. -1.
     -623    1    1    2    0    0  0.17681130929E-02 -0.46400320312E-03  0.12694144144E-02  0.17130000001E+03  0.17130000000E+03 0. -1.
      622    1    1    2    0    0 -0.14215574567E-02  0.64257540010E-03  0.39844301736E+01  0.39856851660E+01  0.10000000000E+00 0. -1.
</event>
<event>
 5   0  0.6262544E+06  0.9118800E+02  0.7818608E-02  0.1180000E+00
       11   -1    0    0    0    0  0.00000000000E+00  0.00000000000E+00  0.39999999673E+01  0.40000000000E+01  0.51109989000E-03 0. -1.
     -623   -1    0    0    0    0  0.00000000000E+00  0.00000000000E+00  0.12525980253E-10  0.17130000000E+03  0.17130000000E+03 0.  1.
       11    1    1    2    0    0  0.41600822249E-02 -0.47719102504E-02  0.20775243312E+00  0.20784949387E+00  0.51109989000E-03 0. -1.
     -623    1    1    2    0    0  0.85254367136E-02  0.35946190003E-02  0.14374345432E-02  0.17130000026E+03  0.17130000000E+03 0.  1.
      622    1    1    2    0    0 -0.12685518938E-01  0.11772912501E-02  0.37908100997E+01  0.37921502502E+01  0.10000000000E+00 0. -1.
</event>
<event>
 5   0  0.6262544E+06  0.9118800E+02  0.7818608E-02  0.1180000E+00
       11   -1    0    0    0    0  0.00000000000E+00  0.00000000000E+00  0.39999999673E+01  0.40000000000E+01  0.51109989000E-03 0. -1.
     -623   -1    0    0    0    0  0.00000000000E+00  0.00000000000E+00  0.12525980253E-10  0.17130000000E+03  0.17130000000E+03 0.  1.
       11    1    1    2    0    0 -0.78706354723E-01  0.22209025431E-01  0.31062182706E+00  0.32120727226E+00  0.51109989000E-03 0. -1.
     -623    1    1    2    0    0  0.28142101909E-01 -0.43668564745E-01  0.12363395389E-01  0.17130000832E+03  0.17130000000E+03 0.  1.
      622    1    1    2    0    0  0.50564252813E-01  0.21459539314E-01  0.36770147449E+01  0.36787844038E+01  0.10000000000E+00 0. -1.
</event>
<event>
 5   0  0.6262544E+06  0.9118800E+02  0.7818608E-02  0.1180000E+00
       11   -1    0    0    0    0  0.00000000000E+00  0.00000000000E+00  0.39999999673E+01  0.40000000000E+01  0.51109989000E-03 0. -1.
     -623   -1    0    0    0    0  0.00000000000E+00  0.00000000000E+00  0.12525980253E-10  0.17130000000E+03  0.17130000000E+03 0. -1.
       11    1    1    2    0    0 -0.11777406137E-01  0.33735908092E-01  0.16147834802E+00  0.16538541922E+00  0.51109989000E-03 0. -1.
     -623    1    1    2    0    0 -0.13788584546E-01  0.21527156100E-02  0.54650920246E-02  0.17130000066E+03  0.17130000000E+03 0. -1.
      622    1    1    2    0    0  0.25565990683E-01 -0.35888623702E-01  0.38330565273E+01  0.38346139251E+01  0.10000000000E+00 0. -1.
</event>
<event>
 5   0  0.6262544E+06  0.9118800E+02  0.7818608E-02  0.1180000E+00
       11   -1    0    0    0    0  0.00000000000E+00  0.00000000000E+00  0.39999999673E+01  0.40000000000E+01  0.51109989000E-03 0. -1.
     -623   -1    0    0    0    0  0.00000000000E+00  0.00000000000E+00  0.12525980253E-10  0.17130000000E+03  0.17130000000E+03 0.  1.
       11    1    1    2    0    0  0.19126329602E-01  0.54021210945E-01  0.42738225724E+00  0.43120756341E+00  0.51109989000E-03 0. -1.
     -623    1    1    2    0    0 -0.30988011521E-01 -0.48794697078E-02  0.55877560645E-02  0.17130000296E+03  0.17130000000E+03 0.  1.
      622    1    1    2    0    0  0.11861681919E-01 -0.49141741237E-01  0.35670299541E+01  0.35687894731E+01  0.10000000000E+00 0. -1.
</event>
<event>
 5   0  0.6262544E+06  0.9118800E+02  0.7818608E-02  0.1180000E+00
       11   -1    0    0    0    0  0.00000000000E+00  0.00000000000E+00  0.39999999673E+01  0.40000000000E+01  0.51109989000E-03 0.  1.
     -623   -1    0    0    0    0  0.00000000000E+00  0.00000000000E+00  0.12525980253E-10  0.17130000000E+03  0.17130000000E+03 0. -1.
       11    1    1    2    0    0  0.45292343888E-02  0.15037424836E-01  0.61199428442E+00  0.61219596821E+00  0.51109989000E-03 0.  1.
     -623    1    1    2    0    0 -0.10477645319E-01  0.29264355782E-02  0.17310818267E-02  0.17130000035E+03  0.17130000000E+03 0. -1.
      622    1    1    2    0    0  0.59484109301E-02 -0.17963860415E-01  0.33862746012E+01  0.33878036777E+01  0.10000000000E+00 0.  1.
</event>
<event>
 5   0  0.6262544E+06  0.9118800E+02  0.7818608E-02  0.1180000E+00
       11   -1    0    0    0    0  0.00000000000E+00  0.00000000000E+00  0.39999999673E+01  0.40000000000E+01  0.51109989000E-03 0.  1.
     -623   -1    0    0    0    0  0.00000000000E+00  0.00000000000E+00  0.12525980253E-10  0.17130000000E+03  0.17130000000E+03 0. -1.
       11    1    1    2    0    0 -0.37544460662E-02 -0.46206551920E-02  0.32338124959E-01  0.32885587552E-01  0.51109989000E-03 0.  1.
     -623    1    1    2    0    0  0.18227436629E-03  0.21131073006E-02  0.18104163939E-02  0.17130000002E+03  0.17130000000E+03 0. -1.
      622    1    1    2    0    0  0.35721717000E-02  0.25075478915E-02  0.39658514258E+01  0.39671143896E+01  0.10000000000E+00 0.  1.
</event>
<event>
 5   0  0.6262544E+06  0.9118800E+02  0.7818608E-02  0.1180000E+00
       11   -1    0    0    0    0  0.00000000000E+00  0.00000000000E+00  0.39999999673E+01  0.40000000000E+01  0.51109989000E-03 0. -1.
     -623   -1    0    0    0    0  0.00000000000E+00  0.00000000000E+00  0.12525980253E-10  0.17130000000E+03  0.17130000000E+03 0. -1.
       11    1    1    2    0    0  0.38038909524E-02 -0.33523132135E-03  0.18691820508E-02  0.42821759717E-02  0.51109989000E-03 0. -1.
     -623    1    1    2    0    0 -0.32874940288E-02 -0.31338724247E-03  0.36646539920E-02  0.17130000007E+03  0.17130000000E+03 0. -1.
      622    1    1    2    0    0 -0.51639692353E-03  0.64861856383E-03  0.39944661314E+01  0.39957177530E+01  0.10000000000E+00 0. -1.
</event>
<event>
 5   0  0.6262544E+06  0.9118800E+02  0.7818608E-02  0.1180000E+00
       11   -1    0    0    0    0  0.00000000000E+00  0.00000000000E+00  0.39999999673E+01  0.40000000000E+01  0.51109989000E-03 0. -1.
     -623   -1    0    0    0    0  0.00000000000E+00  0.00000000000E+00  0.12525980253E-10  0.17130000000E+03  0.17130000000E+03 0. -1.
       11    1    1    2    0    0  0.87121752509E-02 -0.39313782992E-02  0.10496907333E+01  0.10497343734E+01  0.51109989000E-03 0. -1.
     -623    1    1    2    0    0  0.81954781788E-03 -0.60658336421E-02  0.17713301719E-02  0.17130000012E+03  0.17130000000E+03 0. -1.
      622    1    1    2    0    0 -0.95317230688E-02  0.99972119416E-02  0.29485379040E+01  0.29502655083E+01  0.10000000000E+00 0. -1.
</event>
<event>
 5   0  0.6262544E+06  0.9118800E+02  0.7818608E-02  0.1180000E+00
       11   -1    0    0    0    0  0.00000000000E+00  0.00000000000E+00  0.39999999673E+01  0.40000000000E+01  0.51109989000E-03 0.  1.
     -623   -1    0    0    0    0  0.00000000000E+00  0.00000000000E+00  0.12525980253E-10  0.17130000000E+03  0.17130000000E+03 0. -1.
       11    1    1    2    0    0  0.54871551718E-02  0.31072266758E-02  0.93924165057E-02  0.11324417857E-01  0.51109989000E-03 0.  1.
     -623    1    1    2    0    0 -0.26155575960E-02 -0.46298272874E-02  0.31871516159E-02  0.17130000011E+03  0.17130000000E+03 0. -1.
      622    1    1    2    0    0 -0.28715975758E-02  0.15226006116E-02  0.39874203992E+01  0.39886754700E+01  0.10000000000E+00 0.  1.
</event>
<event>
 5   0  0.6262544E+06  0.9118800E+02  0.7818608E-02  0.1180000E+00
       11   -1    0    0    0    0  0.00000000000E+00  0.00000000000E+00  0.39999999673E+01  0.40000000000E+01  0.51109989000E-03 0.  1.
     -623   -1    0    0    0    0  0.00000000000E+00  0.00000000000E+00  0.12525980253E-10  0.17130000000E+03  0.17130000000E+03 0.  1.
       11    1    1    2    0    0 -0.12619293010E-01  0.16588590888E-01  0.50238295148E+00  0.50281539263E+00  0.51109989000E-03 0.  1.
     -623    1    1    2    0    0 -0.13021388726E-01 -0.70925030456E-02  0.19700099585E-02  0.17130000065E+03  0.17130000000E+03 0.  1.
      622    1    1    2    0    0  0.25640681735E-01 -0.94960878425E-02  0.34956470059E+01  0.34971839543E+01  0.10000000000E+00 0.  1.
</event>
<event>
 5   0  0.6262544E+06  0.9118800E+02  0.7818608E-02  0.1180000E+00
       11   -1    0    0    0    0  0.00000000000E+00  0.00000000000E+00  0.39999999673E+01  0.40000000000E+01  0.51109989000E-03 0.  1.
     -623   -1    0    0    0    0  0.00000000000E+00  0.00000000000E+00  0.12525980253E-10  0.17130000000E+03  0.17130000000E+03 0.  1.
       11    1    1    2    0    0  0.53615928412E-01 -0.33522907157E-01  0.46133943663E+00  0.46565307912E+00  0.51109989000E-03 0.  1.
     -623    1    1    2    0    0 -0.90732347754E-02  0.21988922398E-01  0.60299743417E-02  0.17130000176E+03  0.17130000000E+03 0.  1.
      622    1    1    2    0    0 -0.44542693637E-01  0.11533984759E-01  0.35326305564E+01  0.35343451632E+01  0.10000000000E+00 0.  1.
</event>
<event>
 5   0  0.6262544E+06  0.9118800E+02  0.7818608E-02  0.1180000E+00
       11   -1    0    0    0    0  0.00000000000E+00  0.00000000000E+00  0.39999999673E+01  0.40000000000E+01  0.51109989000E-03 0. -1.
     -623   -1    0    0    0    0  0.00000000000E+00  0.00000000000E+00  0.12525980253E-10  0.17130000000E+03  0.17130000000E+03 0.  1.
       11    1    1    2    0    0  0.13067527087E+00  0.83208948772E-03  0.21565629859E+01  0.21605186628E+01  0.51109989000E-03 0. -1.
     -623    1    1    2    0    0 -0.29163663358E-01 -0.15500618976E-01  0.95451836258E-02  0.17130000345E+03  0.17130000000E+03 0.  1.
      622    1    1    2    0    0 -0.10151160751E+00  0.14668529489E-01  0.18338917979E+01  0.18394778875E+01  0.10000000000E+00 0.  0.
</event>
<event>
 5   0  0.6262544E+06  0.9118800E+02  0.7818608E-02  0.1180000E+00
       11   -1    0    0    0    0  0.00000000000E+00  0.00000000000E+00  0.39999999673E+01  0.40000000000E+01  0.51109989000E-03 0. -1.
     -623   -1    0    0    0    0  0.00000000000E+00  0.00000000000E+00  0.12525980253E-10  0.17130000000E+03  0.17130000000E+03 0. -1.
       11    1    1    2    0    0  0.34060089802E-02  0.60983492761E-02  0.30011604383E-01  0.30817987959E-01  0.51109989000E-03 0. -1.
     -623    1    1    2    0    0 -0.69102724801E-02  0.15236297306E-02  0.20752830003E-02  0.17130000016E+03  0.17130000000E+03 0. -1.
      622    1    1    2    0    0  0.35042634999E-02 -0.76219790066E-02  0.39679130799E+01  0.39691818533E+01  0.10000000000E+00 0. -1.
</event>
<event>
 5   0  0.6262544E+06  0.9118800E+02  0.7818608E-02  0.1180000E+00
       11   -1    0    0    0    0  0.00000000000E+00  0.00000000000E+00  0.39999999673E+01  0.40000000000E+01  0.51109989000E-03 0. -1.
     -623   -1    0    0    0    0  0.00000000000E+00  0.00000000000E+00  0.12525980253E-10  0.17130000000E+03  0.17130000000E+03 0. -1.
       11    1    1    2    0    0  0.15435212850E-01 -0.15307778585E-01  0.19034061898E+00  0.19157866879E+00  0.51109989000E-03 0. -1.
     -623    1    1    2    0    0 -0.67045113826E-02 -0.42020057180E-02  0.26113271938E-02  0.17130000020E+03  0.17130000000E+03 0. -1.
      622    1    1    2    0    0 -0.87307014678E-02  0.19509784303E-01  0.38070480211E+01  0.38084211285E+01  0.10000000000E+00 0. -1.
</event>
<event>
 5   0  0.6262544E+06  0.9118800E+02  0.7818608E-02  0.1180000E+00
       11   -1    0    0    0    0  0.00000000000E+00  0.00000000000E+00  0.39999999673E+01  0.40000000000E+01  0.51109989000E-03 0. -1.
     -623   -1    0    0    0    0  0.00000000000E+00  0.00000000000E+00  0.12525980253E-10  0.17130000000E+03  0.17130000000E+03 0.  1.
       11    1    1    2    0    0  0.27117095069E-02 -0.30922503980E-02  0.99858295009E-02  0.10811724881E-01  0.51109989000E-03 0. -1.
     -623    1    1    2    0    0  0.27988423325E-02  0.50866178048E-02  0.20838645748E-02  0.17130000011E+03  0.17130000000E+03 0.  1.
      622    1    1    2    0    0 -0.55105518394E-02 -0.19943674067E-02  0.39879302732E+01  0.39891881640E+01  0.10000000000E+00 0. -1.
</event>
<event>
 5   0  0.6262544E+06  0.9118800E+02  0.7818608E-02  0.1180000E+00
       11   -1    0    0    0    0  0.00000000000E+00  0.00000000000E+00  0.39999999673E+01  0.40000000000E+01  0.51109989000E-03 0. -1.
     -623   -1    0    0    0    0  0.00000000000E+00  0.00000000000E+00  0.12525980253E-10  0.17130000000E+03  0.17130000000E+03 0. -1.
       11    1    1    2    0    0 -0.90730110411E-02  0.28197946867E-02  0.63109230004E-01  0.63822463962E-01  0.51109989000E-03 0. -1.
     -623    1    1    2    0    0  0.50554006468E-02  0.13835005601E-02  0.19880620328E-02  0.17130000009E+03  0.17130000000E+03 0. -1.
      622    1    1    2    0    0  0.40176103943E-02 -0.42032952468E-02  0.39349026753E+01  0.39361774443E+01  0.10000000000E+00 0. -1.
</event>
<event>
 5   0  0.6262544E+06  0.9118800E+02  0.7818608E-02  0.1180000E+00
       11   -1    0    0    0    0  0.00000000000E+00  0.00000000000E+00  0.39999999673E+01  0.40000000000E+01  0.51109989000E-03 0.  1.
     -623   -1    0    0    0    0  0.00000000000E+00  0.00000000000E+00  0.12525980253E-10  0.17130000000E+03  0.17130000000E+03 0. -1.
       11    1    1    2    0    0 -0.89693662624E-02 -0.63278311111E-02  0.19506048019E+00  0.19536976002E+00  0.51109989000E-03 0.  1.
     -623    1    1    2    0    0  0.18464881475E-02  0.34249588947E-02  0.16314920811E-02  0.17130000005E+03  0.17130000000E+03 0. -1.
      622    1    1    2    0    0  0.71228781149E-02  0.29028722164E-02  0.38033079951E+01  0.38046301880E+01  0.10000000000E+00 0.  1.
</event>
<event>
 5   0  0.6262544E+06  0.9118800E+02  0.7818608E-02  0.1180000E+00
       11   -1    0    0    0    0  0.00000000000E+00  0.00000000000E+00  0.39999999673E+01  0.40000000000E+01  0.51109989000E-03 0.  1.
     -623   -1    0    0    0    0  0.00000000000E+00  0.00000000000E+00  0.12525980253E-10  0.17130000000E+03  0.17130000000E+03 0.  1.
       11    1    1    2    0    0  0.92504341666E-02  0.45830532675E-01  0.67651886376E+00  0.67813276171E+00  0.51109989000E-03 0.  1.
     -623    1    1    2    0    0  0.24247880735E-01  0.47469179824E-02  0.36754417413E-02  0.17130000182E+03  0.17130000000E+03 0.  1.
      622    1    1    2    0    0 -0.33498314903E-01 -0.50577450657E-01  0.33198056620E+01  0.33218654170E+01  0.10000000000E+00 0.  1.
</event>
<event>
 5   0  0.6262544E+06  0.9118800E+02  0.7818608E-02  0.1180000E+00
       11   -1    0    0    0    0  0.00000000000E+00  0.00000000000E+00  0.39999999673E+01  0.40000000000E+01  0.51109989000E-03 0.  1.
     -623   -1    0    0    0    0  0.00000000000E+00  0.00000000000E+00  0.12525980253E-10  0.17130000000E+03  0.17130000000E+03 0.  1.
       11    1    1    2    0    0  0.71860528337E-02  0.21902997450E-01  0.20976561080E+00  0.21102903438E+00  0.51109989000E-03 0.  1.
     -623    1    1    2    0    0  0.10089986903E-01 -0.17502833230E-01  0.26264076330E-02  0.17130000121E+03  0.17130000000E+03 0.  1.
      622    1    1    2    0    0 -0.17276039737E-01 -0.44001642205E-02  0.37876079489E+01  0.37889697541E+01  0.10000000000E+00 0.  1.
</event>
<event>
 5   0  0.6262544E+06  0.9118800E+02  0.7818608E-02  0.1180000E+00
       11   -1    0    0    0    0  0.00000000000E+00  0.00000000000E+00  0.39999999673E+01  0.40000000000E+01  0.51109989000E-03 0. -1.
     -623   -1    0    0    0    0  0.00000000000E+00  0.00000000000E+00  0.12525980253E-10  0.17130000000E+03  0.17130000000E+03 0.  1.
       11    1    1    2    0    0  0.21508558764E-01  0.12615079994E-02  0.28093388764E+00  0.28175932984E+00  0.51109989000E-03 0. -1.
     -623    1    1    2    0    0 -0.79702736065E-02  0.16961079867E-01  0.22407406477E-02  0.17130000104E+03  0.17130000000E+03 0.  1.
      622    1    1    2    0    0 -0.13538285158E-01 -0.18222587866E-01  0.37168253391E+01  0.37182396304E+01  0.10000000000E+00 0. -1.
</event>
<event>
 5   0  0.6262544E+06  0.9118800E+02  0.7818608E-02  0.1180000E+00
       11   -1    0    0    0    0  0.00000000000E+00  0.00000000000E+00  0.39999999673E+01  0.40000000000E+01  0.51109989000E-03 0. -1.
     -623   -1    0    0    0    0  0.00000000000E+00  0.00000000000E+00  0.12525980253E-10  0.17130000000E+03  0.17130000000E+03 0. -1.
       11    1    1    2    0    0  0.13337117549E+00 -0.46926947849E-01  0.30337143999E+01  0.30370072984E+01  0.51109989000E-03 0. -1.
     -623    1    1    2    0    0 -0.25492388390E-01  0.67968033368E-02  0.15443083920E-01  0.17130000273E+03  0.17130000000E+03 0. -1.
      622    1    1    2    0    0 -0.10787878710E+00  0.40130144512E-01  0.95084248354E+00  0.96298997384E+00  0.10000000000E+00 0.  0.
</event>
<event>
 5   0  0.6262544E+06  0.9118800E+02  0.7818608E-02  0.1180000E+00
       11   -1    0    0    0    0  0.00000000000E+00  0.00000000000E+00  0.39999999673E+01  0.40000000000E+01  0.51109989000E-03 0.  1.
     -623   -1    0    0    0    0  0.00000000000E+00  0.00000000000E+00  0.12525980253E-10  0.17130000000E+03  0.17130000000E+03 0.  1.
       11    1    1    2    0    0  0.50382232991E-02 -0.28761709985E-02  0.10149623387E+00  0.10166318294E+00  0.51109989000E-03 0.  1.
     -623    1    1    2    0    0 -0.10764692298E-01 -0.16864188287E-02  0.14569568321E-02  0.17130000035E+03  0.17130000000E+03 0.  1.
      622    1    1    2    0    0  0.57264689989E-02  0.45625898272E-02  0.38970467767E+01  0.38983364643E+01  0.10000000000E+00 0.  1.
</event>
<event>
 5   0  0.6262544E+06  0.9118800E+02  0.7818608E-02  0.1180000E+00
       11   -1    0    0    0    0  0.00000000000E+00  0.00000000000E+00  0.39999999673E+01  0.40000000000E+01  0.51109989000E-03 0.  1.
     -623   -1    0    0    0    0  0.00000000000E+00  0.00000000000E+00  0.12525980253E-10  0.17130000000E+03  0.17130000000E+03 0.  1.
       11    1    1    2    0    0 -0.52245921359E-02 -0.14132621004E-01  0.44512505768E+00  0.44538029316E+00  0.51109989000E-03 0.  1.
     -623    1    1    2    0    0 -0.11195288169E-01 -0.88562970862E-03  0.17321570474E-02  0.17130000038E+03  0.17130000000E+03 0.  1.
      622    1    1    2    0    0  0.16419880305E-01  0.15018250712E-01  0.35531427527E+01  0.35546193300E+01  0.10000000000E+00 0.  1.
</event>
<event>
 5   0  0.6262544E+06  0.9118800E+02  0.7818608E-02  0.1180000E+00
       11   -1    0    0    0    0  0.00000000000E+00  0.00000000000E+00  0.39999999673E+01  0.40000000000E+01  0.51109989000E-03 0. -1.
     -623   -1    0    0    0    0  0.00000000000E+00  0.00000000000E+00  0.12525980253E-10  0.17130000000E+03  0.17130000000E+03 0. -1.
       11    1    1    2    0    0 -0.65901535435E-02  0.30087242752E-02  0.55648335262E-01  0.56120236848E-01  0.51109989000E-03 0. -1.
     -623    1    1    2    0    0  0.55141071991E-03  0.41816925713E-02  0.17511023095E-02  0.17130000006E+03  0.17130000000E+03 0. -1.
      622    1    1    2    0    0  0.60387428236E-02 -0.71904168465E-02  0.39426005298E+01  0.39438797023E+01  0.10000000000E+00 0. -1.
</event>
<event>
 5   0  0.6262544E+06  0.9118800E+02  0.7818608E-02  0.1180000E+00
       11   -1    0    0    0    0  0.00000000000E+00  0.00000000000E+00  0.39999999673E+01  0.40000000000E+01  0.51109989000E-03 0. -1.
     -623   -1    0    0    0    0  0.00000000000E+00  0.00000000000E+00  0.12525980253E-10  0.17130000000E+03  0.17130000000E+03 0. -1.
       11    1    1    2    0    0  0.40879889828E-02 -0.47306907660E-02  0.24110149888E-01  0.24912880953E-01  0.51109989000E-03 0. -1.
     -623    1    1    2    0    0  0.85538271171E-03  0.15404916419E-02  0.20651083649E-02  0.17130000002E+03  0.17130000000E+03 0. -1.
      622    1    1    2    0    0 -0.49433716945E-02  0.31901991241E-02  0.39738247091E+01  0.39750870975E+01  0.10000000000E+00 0. -1.
</event>
<event>
 5   0  0.6262544E+06  0.9118800E+02  0.7818608E-02  0.1180000E+00
       11   -1    0    0    0    0  0.00000000000E+00  0.00000000000E+00  0.39999999673E+01  0.40000000000E+01  0.51109989000E-03 0.  1.
     -623   -1    0    0    0    0  0.00000000000E+00  0.00000000000E+00  0.12525980253E-10  0.17130000000E+03  0.17130000000E+03 0. -1.
       11    1    1    2    0    0  0.40193814603E-02  0.11562760840E-02  0.14297320923E-01  0.14905267873E-01  0.51109989000E-03 0.  1.
     -623    1    1    2    0    0 -0.33357629015E-02  0.15592639701E-02  0.18638210963E-02  0.17130000005E+03  0.17130000000E+03 0. -1.
      622    1    1    2    0    0 -0.68361855865E-03 -0.27155400541E-02  0.39838388254E+01  0.39850946825E+01  0.10000000000E+00 0.  1.
</event>
<event>
 5   0  0.6262544E+06  0.9118800E+02  0.7818608E-02  0.1180000E+00
       11   -1    0    0    0    0  0.00000000000E+00  0.00000000000E+00  0.39999999673E+01  0.40000000000E+01  0.51109989000E-03 0.  1.
     -623   -1    0    0    0    0  0.00000000000E+00  0.00000000000E+00  0.12525980253E-10  0.17130000000E+03  0.17130000000E+03 0.  1.
       11    1    1    2    0    0  0.25294237299E-01 -0.41950080786E-01  0.13726016839E+01  0.13734756101E+01  0.51109989000E-03 0.  1.
     -623    1    1    2    0    0  0.26080610507E-01  0.65407302627E-01  0.34004648561E-02  0.17130001451E+03  0.17130000000E+03 0.  1.
      622    1    1    2    0    0 -0.51374847806E-01 -0.23457221840E-01  0.26239978186E+01  0.26265098835E+01  0.10000000000E+00 0.  0.
</event>
<event>
 5   0  0.6262544E+06  0.9118800E+02  0.7818608E-02  0.1180000E+00
       11   -1    0    0    0    0  0.00000000000E+00  0.00000000000E+00  0.39999999673E+01  0.40000000000E+01  0.51109989000E-03 0. -1.
     -623   -1    0    0    0    0  0.00000000000E+00  0.00000000000E+00  0.12525980253E-10  0.17130000000E+03  0.17130000000E+03 0. -1.
       11    1    1    2    0    0  0.57130384362E-01 -0.10128652104E+00  0.17773149427E+01  0.17811152424E+01  0.51109989000E-03 0. -1.
     -623    1    1    2    0    0 -0.18752385310E-01  0.57390881149E-02  0.84489310670E-02  0.17130000133E+03  0.17130000000E+03 0. -1.
      622    1    1    2    0    0 -0.38377999052E-01  0.95547432921E-01  0.22142360936E+01  0.22188834266E+01  0.10000000000E+00 0. -1.
</event>
<event>
 5   0  0.6262544E+06  0.9118800E+02  0.7818608E-02  0.1180000E+00
       11   -1    0    0    0    0  0.00000000000E+00  0.00000000000E+00  0.39999999673E+01  0.40000000000E+01  0.51109989000E-03 0. -1.
     -623   -1    0    0    0    0  0.00000000000E+00  0.00000000000E+00  0.12525980253E-10  0.17130000000E+03  0.17130000000E+03 0.  1.
       11    1    1    2    0    0  0.65215831746E-01  0.42490975461E-01  0.18766520032E+01  0.18782655802E+01  0.51109989000E-03 0. -1.
     -623    1    1    2    0    0  0.39541710115E-01 -0.16353712693E-01  0.67288654077E-02  0.17130000548E+03  0.17130000000E+03 0.  1.
      622    1    1    2    0    0 -0.10475754186E+00 -0.26137262768E-01  0.21166190988E+01  0.21217289432E+01  0.10000000000E+00 0.  0.
</event>
<event>
 5   0  0.6262544E+06  0.9118800E+02  0.7818608E-02  0.1180000E+00
       11   -1    0    0    0    0  0.00000000000E+00  0.00000000000E+00  0.39999999673E+01  0.40000000000E+01  0.51109989000E-03 0.  1.
     -623   -1    0    0    0    0  0.00000000000E+00  0.00000000000E+00  0.12525980253E-10  0.17130000000E+03  0.17130000000E+03 0.  1.
       11    1    1    2    0    0 -0.47171339184E-03 -0.12872225670E-02  0.30239704403E-01  0.30275078841E-01  0.51109989000E-03 0.  1.
     -623    1    1    2    0    0  0.72062015567E-04 -0.17594396552E-02  0.12962783659E-02  0.17130000001E+03  0.17130000000E+03 0.  1.
      622    1    1    2    0    0  0.39965137627E-03  0.30466622222E-02  0.39684639846E+01  0.39697249072E+01  0.10000000000E+00 0.  1.
</event>
<event>
 5   0  0.6262544E+06  0.9118800E+02  0.7818608E-02  0.1180000E+00
       11   -1    0    0    0    0  0.00000000000E+00  0.00000000000E+00  0.39999999673E+01  0.40000000000E+01  0.51109989000E-03 0.  1.
     -623   -1    0    0    0    0  0.00000000000E+00  0.00000000000E+00  0.12525980253E-10  0.17130000000E+03  0.17130000000E+03 0.  1.
       11    1    1    2    0    0 -0.42745609637E-02  0.50575046816E-02  0.20332892578E-01  0.21390137183E-01  0.51109989000E-03 0.  1.
     -623    1    1    2    0    0  0.75639227497E-02  0.79699204115E-02  0.23371945992E-02  0.17130000037E+03  0.17130000000E+03 0.  1.
      622    1    1    2    0    0 -0.32893617863E-02 -0.13027425093E-01  0.39773298803E+01  0.39786094946E+01  0.10000000000E+00 0.  1.
</event>
<event>
 5   0  0.6262544E+06  0.9118800E+02  0.7818608E-02  0.1180000E+00
       11   -1    0    0    0    0  0.00000000000E+00  0.00000000000E+00  0.39999999673E+01  0.40000000000E+01  0.51109989000E-03 0. -1.
     -623   -1    0    0    0    0  0.00000000000E+00  0.00000000000E+00  0.12525980253E-10  0.17130000000E+03  0.17130000000E+03 0. -1.
       11    1    1    2    0    0 -0.79110134279E-03  0.76796095596E-02  0.14773573487E+01  0.14773776088E+01  0.51109989000E-03 0. -1.
     -623    1    1    2    0    0  0.42226980519E-02 -0.37625876632E-02  0.20085558136E-02  0.17130000011E+03  0.17130000000E+03 0. -1.
      622    1    1    2    0    0 -0.34315967091E-02 -0.39170218964E-02  0.25206340629E+01  0.25226222860E+01  0.10000000000E+00 0. -1.
</event>
<event>
 5   0  0.6262544E+06  0.9118800E+02  0.7818608E-02  0.1180000E+00
       11   -1    0    0    0    0  0.00000000000E+00  0.00000000000E+00  0.39999999673E+01  0.40000000000E+01  0.51109989000E-03 0. -1.
     -623   -1    0    0    0    0  0.00000000000E+00  0.00000000000E+00  0.12525980253E-10  0.17130000000E+03  0.17130000000E+03 0. -1.
       11    1    1    2    0    0 -0.61283273451E-03  0.55137919865E-02  0.20042884195E+00  0.20050625770E+00  0.51109989000E-03 0. -1.
     -623    1    1    2    0    0 -0.16007434403E-02 -0.33229675274E-02  0.13948981554E-02  0.17130000005E+03  0.17130000000E+03 0. -1.
      622    1    1    2    0    0  0.22135761749E-02 -0.21908244589E-02  0.37981762274E+01  0.37994936971E+01  0.10000000000E+00 0. -1.
</event>
<event>
 5   0  0.6262544E+06  0.9118800E+02  0.7818608E-02  0.1180000E+00
       11   -1    0    0    0    0  0.00000000000E+00  0.00000000000E+00  0.39999999673E+01  0.40000000000E+01  0.51109989000E-03 0. -1.
     -623   -1    0    0    0    0  0.00000000000E+00  0.00000000000E+00  0.12525980253E-10  0.17130000000E+03  0.17130000000E+03 0. -1.
       11    1    1    2    0    0  0.72875949003E-02  0.16760395730E-03  0.14554737207E+00  0.14573069639E+00  0.51109989000E-03 0. -1.
     -623    1    1    2    0    0 -0.51544026023E-02  0.11150177940E-01  0.14984330396E-02  0.17130000045E+03  0.17130000000E+03 0. -1.
      622    1    1    2    0    0 -0.21331922978E-02 -0.11317781898E-01  0.38529541624E+01  0.38542688568E+01  0.10000000000E+00 0. -1.
</event>
<event>
 5   0  0.6262544E+06  0.9118800E+02  0.7818608E-02  0.1180000E+00
       11   -1    0    0    0    0  0.00000000000E+00  0.00000000000E+00  0.39999999673E+01  0.40000000000E+01  0.51109989000E-03 0.  1.
     -623   -1    0    0    0    0  0.00000000000E+00  0.00000000000E+00  0.12525980253E-10  0.17130000000E+03  0.17130000000E+03 0.  1.
       11    1    1    2    0    0  0.62798026174E-02 -0.89677237957E-02  0.43743343675E-01  0.45095424712E-01  0.51109989000E-03 0.  1.
     -623    1    1    2    0    0  0.76775127049E-02  0.48557036991E-02  0.26435397203E-02  0.17130000026E+03  0.17130000000E+03 0.  1.
      622    1    1    2    0    0 -0.13957315323E-01  0.41120200964E-02  0.39536130841E+01  0.39549043142E+01  0.10000000000E+00 0.  1.
</event>
<event>
 5   0  0.6262544E+06  0.9118800E+02  0.7818608E-02  0.1180000E+00
       11   -1    0    0    0    0  0.00000000000E+00  0.00000000000E+00  0.39999999673E+01  0.40000000000E+01  0.51109989000E-03 0. -1.
     -623   -1    0    0    0    0  0.00000000000E+00  0.00000000000E+00  0.12525980253E-10  0.17130000000E+03  0.17130000000E+03 0. -1.
       11    1    1    2    0    0  0.66914960898E-02  0.17096068562E-01  0.37306501422E+00  0.37351682390E+00  0.51109989000E-03 0. -1.
     -623    1    1    2    0    0  0.26027481849E-01  0.12028910103E-01  0.20978626240E-02  0.17130000241E+03  0.17130000000E+03 0. -1.
      622    1    1    2    0    0 -0.32718977939E-01 -0.29124978666E-01  0.36248370906E+01  0.36264807637E+01  0.10000000000E+00 0. -1.
</event>
<event>
 5   0  0.6262544E+06  0.9118800E+02  0.7818608E-02  0.1180000E+00
       11   -1    0    0    0    0  0.00000000000E+00  0.00000000000E+00  0.39999999673E+01  0.40000000000E+01  0.51109989000E-03 0. -1.
     -623   -1    0    0    0    0  0.00000000000E+00  0.00000000000E+00  0.12525980253E-10  0.17130000000E+03  0.17130000000E+03 0.  1.
       11    1    1    2    0    0 -0.41632181409E-02 -0.11718668402E-01  0.65524922037E+00  0.65536742487E+00  0.51109989000E-03 0. -1.
     -623    1    1    2    0    0  0.45275129713E-01  0.45762961228E-02  0.18799210581E-02  0.17130000605E+03  0.17130000000E+03 0.  1.
      622    1    1    2    0    0 -0.41111911572E-01  0.71423722793E-02  0.33428708259E+01  0.33446265205E+01  0.10000000000E+00 0. -1.
</event>
<event>
 5   0  0.6262544E+06  0.9118800E+02  0.7818608E-02  0.1180000E+00
       11   -1    0    0    0    0  0.00000000000E+00  0.00000000000E+00  0.39999999673E+01  0.40000000000E+01  0.51109989000E-03 0.  1.
     -623   -1    0    0    0    0  0.00000000000E+00  0.00000000000E+00  0.12525980253E-10  0.17130000000E+03  0.17130000000E+03 0.  1.
       11    1    1    2    0    0  0.10790257368E-01  0.72535762659E-02  0.29021497855E+00  0.29050652148E+00  0.51109989000E-03 0.  1.
     -623    1    1    2    0    0 -0.75699537765E-02  0.13258108670E-02  0.16511518316E-02  0.17130000018E+03  0.17130000000E+03 0.  1.
      622    1    1    2    0    0 -0.32203035916E-02 -0.85793871328E-02  0.37081338368E+01  0.37094932980E+01  0.10000000000E+00 0.  1.
</event>
<event>
 5   0  0.6262544E+06  0.9118800E+02  0.7818608E-02  0.1180000E+00
       11   -1    0    0    0    0  0.00000000000E+00  0.00000000000E+00  0.39999999673E+01  0.40000000000E+01  0.51109989000E-03 0. -1.
     -623   -1    0    0    0    0  0.00000000000E+00  0.00000000000E+00  0.12525980253E-10  0.17130000000E+03  0.17130000000E+03 0.  1.
       11    1    1    2    0    0  0.84905655868E-02  0.14524254406E-01  0.22534880905E-01  0.28126957674E-01  0.51109989000E-03 0. -1.
     -623    1    1    2    0    0 -0.10346183995E-01 -0.22396592684E-02  0.68709978062E-02  0.17130000046E+03  0.17130000000E+03 0.  1.
      622    1    1    2    0    0  0.18556184080E-02 -0.12284595138E-01  0.39705940886E+01  0.39718725774E+01  0.10000000000E+00 0. -1.
</event>
<event>
 5   0  0.6262544E+06  0.9118800E+02  0.7818608E-02  0.1180000E+00
       11   -1    0    0    0    0  0.00000000000E+00  0.00000000000E+00  0.39999999673E+01  0.40000000000E+01  0.51109989000E-03 0.  1.
     -623   -1    0    0    0    0  0.00000000000E+00  0.00000000000E+00  0.12525980253E-10  0.17130000000E+03  0.17130000000E+03 0. -1.
       11    1    1    2    0    0 -0.16942606122E-02 -0.42542014248E-03  0.22164961486E-02  0.28680271257E-02  0.51109989000E-03 0.  1.
     -623    1    1    2    0    0  0.32404481110E-02  0.11823592188E-02  0.19030071862E-02  0.17130000005E+03  0.17130000000E+03 0. -1.
      622    1    1    2    0    0 -0.15461874988E-02 -0.75693907633E-03  0.39958804639E+01  0.39971319275E+01  0.10000000000E+00 0.  1.
</event>
<event>
 5   0  0.6262544E+06  0.9118800E+02  0.7818608E-02  0.1180000E+00
       11   -1    0    0    0    0  0.00000000000E+00  0.00000000000E+00  0.39999999673E+01  0.40000000000E+01  0.51109989000E-03 0.  1.
     -623   -1    0    0    0    0  0.00000000000E+00  0.00000000000E+00  0.12525980253E-10  0.17130000000E+03  0.17130000000E+03 0. -1.
       11    1    1    2    0    0  0.87556749479E-02 -0.61539615461E-04  0.23556829531E-01  0.25136647978E-01  0.51109989000E-03 0.  1.
     -623    1    1    2    0    0 -0.22889111948E-01 -0.61726843636E-02  0.28695804921E-02  0.17130000166E+03  0.17130000000E+03 0. -1.
      622    1    1    2    0    0  0.14133437000E-01  0.62342239790E-02  0.39735735573E+01  0.39748616875E+01  0.10000000000E+00 0.  1.
</event>
<event>
 5   0  0.6262544E+06  0.9118800E+02  0.7818608E-02  0.1180000E+00
       11   -1    0    0    0    0  0.00000000000E+00  0.00000000000E+00  0.39999999673E+01  0.40000000000E+01  0.51109989000E-03 0. -1.
     -623   -1    0    0    0    0  0.00000000000E+00  0.00000000000E+00  0.12525980253E-10  0.17130000000E+03  0.17130000000E+03 0. -1.
       11    1    1    2    0    0  0.24928836862E-02  0.95840083460E-02  0.57753546416E-01  0.58598643600E-01  0.51109989000E-03 0. -1.
     -623    1    1    2    0    0  0.30875573601E-02 -0.47398182659E-02  0.21208893162E-02  0.17130000011E+03  0.17130000000E+03 0. -1.
      622    1    1    2    0    0 -0.55804410463E-02 -0.48441900801E-02  0.39401255316E+01  0.39414012499E+01  0.10000000000E+00 0. -1.
</event>
<event>
 5   0  0.6262544E+06  0.9118800E+02  0.7818608E-02  0.1180000E+00
       11   -1    0    0    0    0  0.00000000000E+00  0.00000000000E+00  0.39999999673E+01  0.40000000000E+01  0.51109989000E-03 0.  1.
     -623   -1    0    0    0    0  0.00000000000E+00  0.00000000000E+00  0.12525980253E-10  0.17130000000E+03  0.17130000000E+03 0.  1.
       11    1    1    2    0    0  0.94600418472E-02  0.52410491069E-02  0.18652374147E+01  0.18652688373E+01  0.51109989000E-03 0.  1.
     -623    1    1    2    0    0  0.19634263888E-01  0.11043768322E-01  0.26370750251E-02  0.17130000150E+03  0.17130000000E+03 0.  1.
      622    1    1    2    0    0 -0.29094305735E-01 -0.16284817429E-01  0.21321254776E+01  0.21347296612E+01  0.10000000000E+00 0.  0.
</event>
<event>
 5   0  0.6262544E+06  0.9118800E+02  0.7818608E-02  0.1180000E+00
       11   -1    0    0    0    0  0.00000000000E+00  0.00000000000E+00  0.39999999673E+01  0.40000000000E+01  0.51109989000E-03 0. -1.
     -623   -1    0    0    0    0  0.00000000000E+00  0.00000000000E+00  0.12525980253E-10  0.17130000000E+03  0.17130000000E+03 0. -1.
       11    1    1    2    0    0  0.29125716833E-02 -0.41114037218E-02  0.25567332313E-01  0.26064082931E-01  0.51109989000E-03 0. -1.
     -623    1    1    2    0    0 -0.58352175554E-02  0.12365401051E-02  0.17573438557E-02  0.17130000011E+03  0.17130000000E+03 0. -1.
      622    1    1    2    0    0  0.29226458722E-02  0.28748636167E-02  0.39726752913E+01  0.39739358043E+01  0.10000000000E+00 0. -1.
</event>
<event>
 5   0  0.6262544E+06  0.9118800E+02  0.7818608E-02  0.1180000E+00
       11   -1    0    0    0    0  0.00000000000E+00  0.00000000000E+00  0.39999999673E+01  0.40000000000E+01  0.51109989000E-03 0. -1.
     -623   -1    0    0    0    0  0.00000000000E+00  0.00000000000E+00  0.12525980253E-10  0.17130000000E+03  0.17130000000E+03 0. -1.
       11    1    1    2    0    0 -0.32765920196E-01  0.60494188341E-01  0.75591631560E+00  0.75904076950E+00  0.51109989000E-03 0. -1.
     -623    1    1    2    0    0  0.15799166953E-01  0.22046984222E-01  0.57659913227E-02  0.17130000224E+03  0.17130000000E+03 0. -1.
      622    1    1    2    0    0  0.16966753243E-01 -0.82541172563E-01  0.32383176605E+01  0.32409569861E+01  0.10000000000E+00 0. -1.
</event>
<event>
 5   0  0.6262544E+06  0.9118800E+02  0.7818608E-02  0.1180000E+00
       11   -1    0    0    0    0  0.00000000000E+00  0.00000000000E+00  0.39999999673E+01  0.40000000000E+01  0.51109989000E-03 0.  1.
     -623   -1    0    0    0    0  0.00000000000E+00  0.00000000000E+00  0.12525980253E-10  0.17130000000E+03  0.17130000000E+03 0.  1.
       11    1    1    2    0    0  0.11346762319E-02 -0.19284209048E-02 -0.12009292119E-02  0.25903187849E-02  0.51109989000E-03 0.  1.
     -623    1    1    2    0    0 -0.20120654019E-02  0.48740393417E-02  0.50435585095E-02  0.17130000016E+03  0.17130000000E+03 0.  1.
      622    1    1    2    0    0  0.87738917003E-03 -0.29456184370E-02  0.39961573381E+01  0.39974095259E+01  0.10000000000E+00 0.  1.
</event>
<event>
 5   0  0.6262544E+06  0.9118800E+02  0.7818608E-02  0.1180000E+00
       11   -1    0    0    0    0  0.00000000000E+00  0.00000000000E+00  0.39999999673E+01  0.40000000000E+01  0.51109989000E-03 0.  1.
     -623   -1    0    0    0    0  0.00000000000E+00  0.00000000000E+00  0.12525980253E-10  0.17130000000E+03  0.17130000000E+03 0.  1.
       11    1    1    2    0    0  0.79233784035E-02  0.97934320123E-03  0.14967892633E-01  0.16971684401E-01  0.51109989000E-03 0.  1.
     -623    1    1    2    0    0 -0.94145490855E-02 -0.16994701290E-01  0.32929045911E-02  0.17130000113E+03  0.17130000000E+03 0.  1.
      622    1    1    2    0    0  0.14911706822E-02  0.16015358089E-01  0.39817391702E+01  0.39830271823E+01  0.10000000000E+00 0.  1.
</event>
<event>
 5   0  0.6262544E+06  0.9118800E+02  0.7818608E-02  0.1180000E+00
       11   -1    0    0    0    0  0.00000000000E+00  0.00000000000E+00  0.39999999673E+01  0.40000000000E+01  0.51109989000E-03 0.  1.
     -623   -1    0    0    0    0  0.00000000000E+00  0.00000000000E+00  0.12525980253E-10  0.17130000000E+03  0.17130000000E+03 0.  1.
       11    1    1    2    0    0  0.48162704826E-02 -0.76211865270E-02  0.23688190604E-01  0.25350947549E-01  0.51109989000E-03 0.  1.
     -623    1    1    2    0    0 -0.32465045445E-02  0.28986204482E-02  0.29240929945E-02  0.17130000008E+03  0.17130000000E+03 0.  1.
      622    1    1    2    0    0 -0.15697659381E-02  0.47225660788E-02  0.39733876838E+01  0.39746489722E+01  0.10000000000E+00 0.  1.
</event>
<event>
 5   0  0.6262544E+06  0.9118800E+02  0.7818608E-02  0.1180000E+00
       11   -1    0    0    0    0  0.00000000000E+00  0.00000000000E+00  0.39999999673E+01  0.40000000000E+01  0.51109989000E-03 0.  1.
     -623   -1    0    0    0    0  0.00000000000E+00  0.00000000000E+00  0.12525980253E-10  0.17130000000E+03  0.17130000000E+03 0.  1.
       11    1    1    2    0    0 -0.93284657994E-02  0.85432614822E-02  0.29703793980E+00  0.29730759575E+00  0.51109989000E-03 0.  1.
     -623    1    1    2    0    0 -0.23573557552E-02 -0.56596229377E-02  0.16399264681E-02  0.17130000012E+03  0.17130000000E+03 0.  1.
      622    1    1    2    0    0  0.11685821555E-01 -0.28836385442E-02  0.37013221014E+01  0.37026922870E+01  0.10000000000E+00 0.  1.
</event>
<event>
 5   0  0.6262544E+06  0.9118800E+02  0.7818608E-02  0.1180000E+00
       11   -1    0    0    0    0  0.00000000000E+00  0.00000000000E+00  0.39999999673E+01  0.40000000000E+01  0.51109989000E-03 0.  1.
     -623   -1    0    0    0    0  0.00000000000E+00  0.00000000000E+00  0.12525980253E-10  0.17130000000E+03  0.17130000000E+03 0. -1.
       11    1    1    2    0    0  0.23970529661E-01 -0.12523048294E-01  0.55175716714E+00  0.55241980934E+00  0.51109989000E-03 0.  1.
     -623    1    1    2    0    0  0.30327798071E-02  0.10001383668E-02  0.22383154836E-02  0.17130000004E+03  0.17130000000E+03 0. -1.
      622    1    1    2    0    0 -0.27003309468E-01  0.11522909927E-01  0.34460044848E+01  0.34475801464E+01  0.10000000000E+00 0.  1.
</event>
<event>
 5   0  0.6262544E+06  0.9118800E+02  0.7818608E-02  0.1180000E+00
       11   -1    0    0    0    0  0.00000000000E+00  0.00000000000E+00  0.39999999673E+01  0.40000000000E+01  0.51109989000E-03 0.  1.
     -623   -1    0    0    0    0  0.00000000000E+00  0.00000000000E+00  0.12525980253E-10  0.17130000000E+03  0.17130000000E+03 0.  1.
       11    1    1    2    0    0  0.94772857027E-03  0.19414898817E-01  0.94139411424E+00  0.94159491079E+00  0.51109989000E-03 0.  1.
     -623    1    1    2    0    0  0.12313563617E-01  0.28594507908E-01  0.22446949294E-02  0.17130000284E+03  0.17130000000E+03 0.  1.
      622    1    1    2    0    0 -0.13261292188E-01 -0.48009406726E-01  0.30563611584E+01  0.30584022455E+01  0.10000000000E+00 0.  0.
</event>
<event>
 5   0  0.6262544E+06  0.9118800E+02  0.7818608E-02  0.1180000E+00
       11   -1    0    0    0    0  0.00000000000E+00  0.00000000000E+00  0.39999999673E+01  0.40000000000E+01  0.51109989000E-03 0.  1.
     -623   -1    0    0    0    0  0.00000000000E+00  0.00000000000E+00  0.12525980253E-10  0.17130000000E+03  0.17130000000E+03 0. -1.
       11    1    1    2    0    0 -0.91369639154E-02 -0.21144566068E-02 -0.90421558805E-03  0.94357757346E-02  0.51109989000E-03 0.  1.
     -623    1    1    2    0    0  0.28764688119E-02  0.15936930694E-01  0.11623130344E-01  0.17130000116E+03  0.17130000000E+03 0. -1.
      622    1    1    2    0    0  0.62604951035E-02 -0.13822474087E-01  0.39892810526E+01  0.39905630644E+01  0.10000000000E+00 0.  1.
</event>
<event>
 5   0  0.6262544E+06  0.9118800E+02  0.7818608E-02  0.1180000E+00
       11   -1    0    0    0    0  0.00000000000E+00  0.00000000000E+00  0.39999999673E+01  0.40000000000E+01  0.51109989000E-03 0.  1.
     -623   -1    0    0    0    0  0.00000000000E+00  0.00000000000E+00  0.12525980253E-10  0.17130000000E+03  0.17130000000E+03 0. -1.
       11    1    1    2    0    0  0.15034999079E-02  0.20383474927E-02  0.10408664557E-01  0.10724592926E-01  0.51109989000E-03 0.  1.
     -623    1    1    2    0    0 -0.29273230859E-02 -0.58354863225E-02  0.15716466536E-02  0.17130000013E+03  0.17130000000E+03 0. -1.
      622    1    1    2    0    0  0.14238231783E-02  0.37971388303E-02  0.39880196565E+01  0.39892752758E+01  0.10000000000E+00 0.  1.
</event>
<event>
 5   0  0.6262544E+06  0.9118800E+02  0.7818608E-02  0.1180000E+00
       11   -1    0    0    0    0  0.00000000000E+00  0.00000000000E+00  0.39999999673E+01  0.40000000000E+01  0.51109989000E-03 0.  1.
     -623   -1    0    0    0    0  0.00000000000E+00  0.00000000000E+00  0.12525980253E-10  0.17130000000E+03  0.17130000000E+03 0. -1.
       11    1    1    2    0    0  0.39507165470E-01  0.13634923639E-01  0.33012674141E+00  0.33276215812E+00  0.51109989000E-03 0.  1.
     -623    1    1    2    0    0  0.14140459748E-02 -0.11534634625E-01  0.42285134632E-02  0.17130000045E+03  0.17130000000E+03 0. -1.
      622    1    1    2    0    0 -0.40921211445E-01 -0.21002890142E-02  0.36656447125E+01  0.36672373955E+01  0.10000000000E+00 0.  1.
</event>
<event>
 5   0  0.6262544E+06  0.9118800E+02  0.7818608E-02  0.1180000E+00
       11   -1    0    0    0    0  0.00000000000E+00  0.00000000000E+00  0.39999999673E+01  0.40000000000E+01  0.51109989000E-03 0.  1.
     -623   -1    0    0    0    0  0.00000000000E+00  0.00000000000E+00  0.12525980253E-10  0.17130000000E+03  0.17130000000E+03 0. -1.
       11    1    1    2    0    0  0.17162449300E-01  0.13299130926E-01  0.46343654833E+00  0.46394516066E+00  0.51109989000E-03 0.  1.
     -623    1    1    2    0    0 -0.20952183013E-01 -0.35230108478E-02  0.19397479133E-02  0.17130000133E+03  0.17130000000E+03 0. -1.
      622    1    1    2    0    0  0.37897337145E-02 -0.97761200781E-02  0.35346236714E+01  0.35360535110E+01  0.10000000000E+00 0.  1.
</event>
<event>
 5   0  0.6262544E+06  0.9118800E+02  0.7818608E-02  0.1180000E+00
       11   -1    0    0    0    0  0.00000000000E+00  0.00000000000E+00  0.39999999673E+01  0.40000000000E+01  0.51109989000E-03 0. -1.
     -623   -1    0    0    0    0  0.00000000000E+00  0.00000000000E+00  0.12525980253E-10  0.17130000000E+03  0.17130000000E+03 0.  1.
       11    1    1    2    0    0  0.26774907960E-02 -0.22070933497E-01  0.22119307940E+00  0.22230819746E+00  0.51109989000E-03 0. -1.
     -623    1    1    2    0    0  0.20675205448E-01 -0.21381613610E-02  0.25899648156E-02  0.17130000128E+03  0.17130000000E+03 0.  1.
      622    1    1    2    0    0 -0.23352696245E-01  0.24209094858E-01  0.37762169231E+01  0.37776905219E+01  0.10000000000E+00 0. -1.
</event>
<event>
 5   0  0.6262544E+06  0.9118800E+02  0.7818608E-02  0.1180000E+00
       11   -1    0    0    0    0  0.00000000000E+00  0.00000000000E+00  0.39999999673E+01  0.40000000000E+01  0.51109989000E-03 0. -1.
     -623   -1    0    0    0    0  0.00000000000E+00  0.00000000000E+00  0.12525980253E-10  0.17130000000E+03  0.17130000000E+03 0.  1.
       11    1    1    2    0    0 -0.47622236305E-01 -0.91821093389E-01  0.88027773751E+00  0.88633410572E+00  0.51109989000E-03 0. -1.
     -623    1    1    2    0    0  0.84662954725E-02 -0.11446997308E-02  0.92983718239E-02  0.17130000047E+03  0.17130000000E+03 0.  1.
      622    1    1    2    0    0  0.39155940832E-01  0.92965793120E-01  0.31104238581E+01  0.31136654289E+01  0.10000000000E+00 0. -1.
</event>
<event>
 5   0  0.6262544E+06  0.9118800E+02  0.7818608E-02  0.1180000E+00
       11   -1    0    0    0    0  0.00000000000E+00  0.00000000000E+00  0.39999999673E+01  0.40000000000E+01  0.51109989000E-03 0. -1.
     -623   -1    0    0    0    0  0.00000000000E+00  0.00000000000E+00  0.12525980253E-10  0.17130000000E+03  0.17130000000E+03 0.  1.
       11    1    1    2    0    0 -0.38340797513E-02 -0.28709279749E-01  0.63431043853E+00  0.63497158721E+00  0.51109989000E-03 0. -1.
     -623    1    1    2    0    0 -0.23849180637E-01  0.21664193060E-01  0.22716647419E-02  0.17130000305E+03  0.17130000000E+03 0.  1.
      622    1    1    2    0    0  0.27683260388E-01  0.70450866887E-02  0.33634178641E+01  0.33650253676E+01  0.10000000000E+00 0. -1.
</event>
<event>
 5   0  0.6262544E+06  0.9118800E+02  0.7818608E-02  0.1180000E+00
       11   -1    0    0    0    0  0.00000000000E+00  0.00000000000E+00  0.39999999673E+01  0.40000000000E+01  0.51109989000E-03 0. -1.
     -623   -1    0    0    0    0  0.00000000000E+00  0.00000000000E+00  0.12525980253E-10  0.17130000000E+03  0.17130000000E+03 0. -1.
       11    1    1    2    0    0 -0.63415678730E-02  0.25547378132E-02  0.34657290391E-01  0.35328899872E-01  0.51109989000E-03 0. -1.
     -623    1    1    2    0    0 -0.19332784823E-02 -0.38047557210E-02  0.19418156191E-02  0.17130000006E+03  0.17130000000E+03 0. -1.
      622    1    1    2    0    0  0.82748463552E-02  0.12500179078E-02  0.39634008613E+01  0.39646710360E+01  0.10000000000E+00 0. -1.
</event>
<event>
 5   0  0.6262544E+06  0.9118800E+02  0.7818608E-02  0.1180000E+00
       11   -1    0    0    0    0  0.00000000000E+00  0.00000000000E+00  0.39999999673E+01  0.40000000000E+01  0.51109989000E-03 0.  1.
     -623   -1    0    0    0    0  0.00000000000E+00  0.00000000000E+00  0.12525980253E-10  0.17130000000E+03  0.17130000000E+03 0.  1.
       11    1    1    2    0    0 -0.77816848063E-02  0.44517812964E-03  0.10839473942E+00  0.10867581864E+00  0.51109989000E-03 0.  1.
     -623    1    1    2    0    0  0.34286480277E-02 -0.38841365019E-02  0.15702096805E-02  0.17130000009E+03  0.17130000000E+03 0.  1.
      622    1    1    2    0    0  0.43530367786E-02  0.34389583723E-02  0.38900350183E+01  0.38913240958E+01  0.10000000000E+00 0.  1.
</event>
<event>
 5   0  0.6262544E+06  0.9118800E+02  0.7818608E-02  0.1180000E+00
       11   -1    0    0    0    0  0.00000000000E+00  0.00000000000E+00  0.39999999673E+01  0.40000000000E+01  0.51109989000E-03 0.  1.
     -623   -1    0    0    0    0  0.00000000000E+00  0.00000000000E+00  0.12525980253E-10  0.17130000000E+03  0.17130000000E+03 0.  1.
       11    1    1    2    0    0 -0.26360199284E-02  0.10131047046E-02  0.69373656984E-02  0.75075460795E-02  0.51109989000E-03 0.  1.
     -623    1    1    2    0    0 -0.73002656161E-03 -0.14165245920E-02  0.18241516496E-02  0.17130000002E+03  0.17130000000E+03 0.  1.
      622    1    1    2    0    0  0.33660464900E-02  0.40341988740E-03  0.39912384501E+01  0.39924924369E+01  0.10000000000E+00 0.  1.
</event>
<event>
 5   0  0.6262544E+06  0.9118800E+02  0.7818608E-02  0.1180000E+00
       11   -1    0    0    0    0  0.00000000000E+00  0.00000000000E+00  0.39999999673E+01  0.40000000000E+01  0.51109989000E-03 0.  1.
     -623   -1    0    0    0    0  0.00000000000E+00  0.00000000000E+00  0.12525980253E-10  0.17130000000E+03  0.17130000000E+03 0. -1.
       11    1    1    2    0    0 -0.12461366491E-01  0.82388373865E-02  0.34066015477E+00  0.34098792701E+00  0.51109989000E-03 0.  1.
     -623    1    1    2    0    0  0.91219427280E-03  0.35275506223E-02  0.17316909621E-02  0.17130000005E+03  0.17130000000E+03 0. -1.
      622    1    1    2    0    0  0.11549172218E-01 -0.11766388009E-01  0.36576081216E+01  0.36590120255E+01  0.10000000000E+00 0. -1.
</event>
<event>
 5   0  0.6262544E+06  0.9118800E+02  0.7818608E-02  0.1180000E+00
       11   -1    0    0    0    0  0.00000000000E+00  0.00000000000E+00  0.39999999673E+01  0.40000000000E+01  0.51109989000E-03 0.  1.
     -623   -1    0    0    0    0  0.00000000000E+00  0.00000000000E+00  0.12525980253E-10  0.17130000000E+03  0.17130000000E+03 0.  1.
       11    1    1    2    0    0 -0.41838129726E-02 -0.88503443506E-02  0.14671211442E+01  0.14671538931E+01  0.51109989000E-03 0.  1.
     -623    1    1    2    0    0  0.33779962896E-02 -0.83551663202E-02  0.20664123829E-02  0.17130000025E+03  0.17130000000E+03 0.  1.
      622    1    1    2    0    0  0.80581668305E-03  0.17205510671E-01  0.25308124107E+01  0.25328458574E+01  0.10000000000E+00 0.  1.
</event>
<event>
 5   0  0.6262544E+06  0.9118800E+02  0.7818608E-02  0.1180000E+00
       11   -1    0    0    0    0  0.00000000000E+00  0.00000000000E+00  0.39999999673E+01  0.40000000000E+01  0.51109989000E-03 0.  1.
     -623   -1    0    0    0    0  0.00000000000E+00  0.00000000000E+00  0.12525980253E-10  0.17130000000E+03  0.17130000000E+03 0. -1.
       11    1    1    2    0    0 -0.32897904750E-01  0.61536086601E-01  0.24043219055E+01  0.24053342904E+01  0.51109989000E-03 0.  1.
     -623    1    1    2    0    0  0.12481251542E-01 -0.93837802165E-02  0.51374283151E-02  0.17130000079E+03  0.17130000000E+03 0. -1.
      622    1    1    2    0    0  0.20416653208E-01 -0.52152306384E-01  0.15905406335E+01  0.15946649208E+01  0.10000000000E+00 0.  1.
</event>
<event>
 5   0  0.6262544E+06  0.9118800E+02  0.7818608E-02  0.1180000E+00
       11   -1    0    0    0    0  0.00000000000E+00  0.00000000000E+00  0.39999999673E+01  0.40000000000E+01  0.51109989000E-03 0.  1.
     -623   -1    0    0    0    0  0.00000000000E+00  0.00000000000E+00  0.12525980253E-10  0.17130000000E+03  0.17130000000E+03 0. -1.
       11    1    1    2    0    0 -0.73431050557E-01 -0.80881070815E-01  0.80176359132E+00  0.80917178917E+00  0.51109989000E-03 0.  1.
     -623    1    1    2    0    0  0.38477817783E-01  0.44114762718E-01  0.93892943616E-02  0.17130001026E+03  0.17130000000E+03 0. -1.
      622    1    1    2    0    0  0.34953232774E-01  0.36766308097E-01  0.31888470817E+01  0.31908179516E+01  0.10000000000E+00 0.  1.
</event>
<event>
 5   0  0.6262544E+06  0.9118800E+02  0.7818608E-02  0.1180000E+00
       11   -1    0    0    0    0  0.00000000000E+00  0.00000000000E+00  0.39999999673E+01  0.40000000000E+01  0.51109989000E-03 0. -1.
     -623   -1    0    0    0    0  0.00000000000E+00  0.00000000000E+00  0.12525980253E-10  0.17130000000E+03  0.17130000000E+03 0.  1.
       11    1    1    2    0    0 -0.35364775949E-02  0.50429667669E-02  0.78055546960E-01  0.78299858378E-01  0.51109989000E-03 0. -1.
     -623    1    1    2    0    0  0.24116425897E-02 -0.12495327254E-01  0.15271674974E-02  0.17130000048E+03  0.17130000000E+03 0.  1.
      622    1    1    2    0    0  0.11248350050E-02  0.74523604886E-02  0.39204172533E+01  0.39216996625E+01  0.10000000000E+00 0. -1.
</event>
<event>
 5   0  0.6262544E+06  0.9118800E+02  0.7818608E-02  0.1180000E+00
       11   -1    0    0    0    0  0.00000000000E+00  0.00000000000E+00  0.39999999673E+01  0.40000000000E+01  0.51109989000E-03 0.  1.
     -623   -1    0    0    0    0  0.00000000000E+00  0.00000000000E+00  0.12525980253E-10  0.17130000000E+03  0.17130000000E+03 0.  1.
       11    1    1    2    0    0 -0.19899415736E-02 -0.19860193201E-02  0.26994319672E+00  0.26995832052E+00  0.51109989000E-03 0.  1.
     -623    1    1    2    0    0  0.24649278153E-03  0.64185026092E-02  0.13589677128E-02  0.17130000013E+03  0.17130000000E+03 0.  1.
      622    1    1    2    0    0  0.17434487921E-02 -0.44324832891E-02  0.37286978029E+01  0.37300415537E+01  0.10000000000E+00 0.  1.
</event>
<event>
 5   0  0.6262544E+06  0.9118800E+02  0.7818608E-02  0.1180000E+00
       11   -1    0    0    0    0  0.00000000000E+00  0.00000000000E+00  0.39999999673E+01  0.40000000000E+01  0.51109989000E-03 0.  1.
     -623   -1    0    0    0    0  0.00000000000E+00  0.00000000000E+00  0.12525980253E-10  0.17130000000E+03  0.17130000000E+03 0. -1.
       11    1    1    2    0    0  0.96845297251E-02 -0.39357188928E-01  0.15947530464E+00  0.16454608002E+00  0.51109989000E-03 0.  1.
     -623    1    1    2    0    0 -0.62292462565E-02  0.35050037190E-02  0.65440483460E-02  0.17130000027E+03  0.17130000000E+03 0. -1.
      622    1    1    2    0    0 -0.34552834686E-02  0.35852185209E-01  0.38339806144E+01  0.38354536459E+01  0.10000000000E+00 0.  1.
</event>
<event>
 5   0  0.6262544E+06  0.9118800E+02  0.7818608E-02  0.1180000E+00
       11   -1    0    0    0    0  0.00000000000E+00  0.00000000000E+00  0.39999999673E+01  0.40000000000E+01  0.51109989000E-03 0.  1.
     -623   -1    0    0    0    0  0.00000000000E+00  0.00000000000E+00  0.12525980253E-10  0.17130000000E+03  0.17130000000E+03 0.  1.
       11    1    1    2    0    0 -0.55952439316E-01  0.36120173665E-01  0.19554560759E+01  0.19565899081E+01  0.51109989000E-03 0.  1.
     -623    1    1    2    0    0 -0.23391615102E-02  0.17334697929E-01  0.51161512082E-02  0.17130000097E+03  0.17130000000E+03 0.  1.
      622    1    1    2    0    0  0.58291600826E-01 -0.53454871594E-01  0.20394277402E+01  0.20434091224E+01  0.10000000000E+00 0.  0.
</event>
<event>
 5   0  0.6262544E+06  0.9118800E+02  0.7818608E-02  0.1180000E+00
       11   -1    0    0    0    0  0.00000000000E+00  0.00000000000E+00  0.39999999673E+01  0.40000000000E+01  0.51109989000E-03 0.  1.
     -623   -1    0    0    0    0  0.00000000000E+00  0.00000000000E+00  0.12525980253E-10  0.17130000000E+03  0.17130000000E+03 0. -1.
       11    1    1    2    0    0 -0.16107729274E-02  0.15492546703E-01  0.80225772473E+00  0.80240908002E+00  0.51109989000E-03 0.  1.
     -623    1    1    2    0    0 -0.22554066242E-01 -0.18524670622E-02  0.18373507745E-02  0.17130000150E+03  0.17130000000E+03 0. -1.
      622    1    1    2    0    0  0.24164839169E-01 -0.13640079640E-01  0.31959048919E+01  0.31975894153E+01  0.10000000000E+00 0.  1.
</event>
<event>
 5   0  0.6262544E+06  0.9118800E+02  0.7818608E-02  0.1180000E+00
       11   -1    0    0    0    0  0.00000000000E+00  0.00000000000E+00  0.39999999673E+01  0.40000000000E+01  0.51109989000E-03 0.  1.
     -623   -1    0    0    0    0  0.00000000000E+00  0.00000000000E+00  0.12525980253E-10  0.17130000000E+03  0.17130000000E+03 0.  1.
       11    1    1    2    0    0 -0.72449384463E-02 -0.19474099713E-01  0.83719415638E+00  0.83745211588E+00  0.51109989000E-03 0.  1.
     -623    1    1    2    0    0  0.32139256906E-02 -0.28203504482E-02  0.19205833700E-02  0.17130000006E+03  0.17130000000E+03 0.  1.
      622    1    1    2    0    0  0.40310127558E-02  0.22294450162E-01  0.31608852275E+01  0.31625478199E+01  0.10000000000E+00 0.  1.
</event>
<event>
 5   0  0.6262544E+06  0.9118800E+02  0.7818608E-02  0.1180000E+00
       11   -1    0    0    0    0  0.00000000000E+00  0.00000000000E+00  0.39999999673E+01  0.40000000000E+01  0.51109989000E-03 0.  1.
     -623   -1    0    0    0    0  0.00000000000E+00  0.00000000000E+00  0.12525980253E-10  0.17130000000E+03  0.17130000000E+03 0. -1.
       11    1    1    2    0    0  0.20807098694E-02  0.15313010353E-02  0.22516466041E+00  0.22518006075E+00  0.51109989000E-03 0.  1.
     -623    1    1    2    0    0  0.68447763952E-02  0.86923394000E-02  0.13649349681E-02  0.17130000036E+03  0.17130000000E+03 0. -1.
      622    1    1    2    0    0 -0.89254862646E-02 -0.10223640435E-01  0.37734703720E+01  0.37748195765E+01  0.10000000000E+00 0.  1.
</event>
<event>
 5   0  0.6262544E+06  0.9118800E+02  0.7818608E-02  0.1180000E+00
       11   -1    0    0    0    0  0.00000000000E+00  0.00000000000E+00  0.39999999673E+01  0.40000000000E+01  0.51109989000E-03 0.  1.
     -623   -1    0    0    0    0  0.00000000000E+00  0.00000000000E+00  0.12525980253E-10  0.17130000000E+03  0.17130000000E+03 0. -1.
       11    1    1    2    0    0  0.10385157276E-01  0.77658014456E-02  0.77033111838E-01  0.78118632246E-01  0.51109989000E-03 0.  1.
     -623    1    1    2    0    0 -0.30842033386E-02 -0.42018285724E-02  0.23691069121E-02  0.17130000010E+03  0.17130000000E+03 0. -1.
      622    1    1    2    0    0 -0.73009539377E-02 -0.35639728732E-02  0.39205977486E+01  0.39218812721E+01  0.10000000000E+00 0.  1.
</event>
<event>
 5   0  0.6262544E+06  0.9118800E+02  0.7818608E-02  0.1180000E+00
       11   -1    0    0    0    0  0.00000000000E+00  0.00000000000E+00  0.39999999673E+01  0.40000000000E+01  0.51109989000E-03 0.  1.
     -623   -1    0    0    0    0  0.00000000000E+00  0.00000000000E+00  0.12525980253E-10  0.17130000000E+03  0.17130000000E+03 0.  1.
       11    1    1    2    0    0  0.53152042547E-01 -0.36903700191E-01  0.89850461505E+00  0.90083174189E+00  0.51109989000E-03 0.  1.
     -623    1    1    2    0    0 -0.31047386604E-01  0.20233673545E-01  0.40686396317E-02  0.17130000406E+03  0.17130000000E+03 0.  1.
      622    1    1    2    0    0 -0.22104655942E-01  0.16670026646E-01  0.30974267127E+01  0.30991642012E+01  0.10000000000E+00 0.  0.
</event>
<event>
 5   0  0.6262544E+06  0.9118800E+02  0.7818608E-02  0.1180000E+00
       11   -1    0    0    0    0  0.00000000000E+00  0.00000000000E+00  0.39999999673E+01  0.40000000000E+01  0.51109989000E-03 0.  1.
     -623   -1    0    0    0    0  0.00000000000E+00  0.00000000000E+00  0.12525980253E-10  0.17130000000E+03  0.17130000000E+03 0. -1.
       11    1    1    2    0    0 -0.10188456604E-01  0.17000431793E-01  0.60866915711E+00  0.60899197315E+00  0.51109989000E-03 0.  1.
     -623    1    1    2    0    0  0.31139632153E-01  0.96751628475E-02  0.19704319979E-02  0.17130000311E+03  0.17130000000E+03 0. -1.
      622    1    1    2    0    0 -0.20951175549E-01 -0.26675594640E-01  0.33893603783E+01  0.33910049119E+01  0.10000000000E+00 0.  1.
</event>
<event>
 5   0  0.6262544E+06  0.9118800E+02  0.7818608E-02  0.1180000E+00
       11   -1    0    0    0    0  0.00000000000E+00  0.00000000000E+00  0.39999999673E+01  0.40000000000E+01  0.51109989000E-03 0.  1.
     -623   -1    0    0    0    0  0.00000000000E+00  0.00000000000E+00  0.12525980253E-10  0.17130000000E+03  0.17130000000E+03 0. -1.
       11    1    1    2    0    0  0.26861010598E-01  0.62685993240E-01  0.31630248491E+01  0.31637600265E+01  0.51109989000E-03 0.  1.
     -623    1    1    2    0    0 -0.23623506723E-01 -0.61714987823E-02  0.86698323570E-02  0.17130000196E+03  0.17130000000E+03 0. -1.
      622    1    1    2    0    0 -0.32375038746E-02 -0.56514494458E-01  0.82830528587E+00  0.83623801403E+00  0.10000000000E+00 0.  1.
</event>
<event>
 5   0  0.6262544E+06  0.9118800E+02  0.7818608E-02  0.1180000E+00
       11   -1    0    0    0    0  0.00000000000E+00  0.00000000000E+00  0.39999999673E+01  0.40000000000E+01  0.51109989000E-03 0. -1.
     -623   -1    0    0    0    0  0.00000000000E+00  0.00000000000E+00  0.12525980253E-10  0.17130000000E+03  0.17130000000E+03 0.  1.
       11    1    1    2    0    0  0.46501857466E-01  0.60028698926E-01  0.56124556679E+00  0.56635917483E+00  0.51109989000E-03 0. -1.
     -623    1    1    2    0    0 -0.37517209863E-01  0.22398130605E-01  0.75774902668E-02  0.17130000574E+03  0.17130000000E+03 0.  1.
      622    1    1    2    0    0 -0.89846476022E-02 -0.82426829532E-01  0.34311769103E+01  0.34336350849E+01  0.10000000000E+00 0. -1.
</event>
<event>
 5   0  0.6262544E+06  0.9118800E+02  0.7818608E-02  0.1180000E+00
       11   -1    0    0    0    0  0.00000000000E+00  0.00000000000E+00  0.39999999673E+01  0.40000000000E+01  0.51109989000E-03 0. -1.
     -623   -1    0    0    0    0  0.00000000000E+00  0.00000000000E+00  0.12525980253E-10  0.17130000000E+03  0.17130000000E+03 0.  1.
       11    1    1    2    0    0  0.95799150982E-02  0.30088289827E-02  0.16475343787E-01  0.19300932649E-01  0.51109989000E-03 0. -1.
     -623    1    1    2    0    0 -0.15119718905E-01  0.41360417752E-03  0.40878597016E-02  0.17130000072E+03  0.17130000000E+03 0.  1.
      622    1    1    2    0    0  0.55398038074E-02 -0.34224331603E-02  0.39794367639E+01  0.39806983509E+01  0.10000000000E+00 0. -1.
</event>
<event>
 5   0  0.6262544E+06  0.9118800E+02  0.7818608E-02  0.1180000E+00
       11   -1    0    0    0    0  0.00000000000E+00  0.00000000000E+00  0.39999999673E+01  0.40000000000E+01  0.51109989000E-03 0.  1.
     -623   -1    0    0    0    0  0.00000000000E+00  0.00000000000E+00  0.12525980253E-10  0.17130000000E+03  0.17130000000E+03 0.  1.
       11    1    1    2    0    0  0.46106413623E-02  0.92726116537E-03  0.39486641861E-02  0.61620611408E-02  0.51109989000E-03 0.  1.
     -623    1    1    2    0    0 -0.81854336621E-02 -0.55387205586E-02  0.34700730592E-02  0.17130000032E+03  0.17130000000E+03 0.  1.
      622    1    1    2    0    0  0.35747922998E-02  0.46114593933E-02  0.39925812301E+01  0.39938376186E+01  0.10000000000E+00 0.  1.
</event>
<event>
 5   0  0.6262544E+06  0.9118800E+02  0.7818608E-02  0.1180000E+00
       11   -1    0    0    0    0  0.00000000000E+00  0.00000000000E+00  0.39999999673E+01  0.40000000000E+01  0.51109989000E-03 0.  1.
     -623   -1    0    0    0    0  0.00000000000E+00  0.00000000000E+00  0.12525980253E-10  0.17130000000E+03  0.17130000000E+03 0.  1.
       11    1    1    2    0    0  0.92304312118E-02 -0.12859541251E-03  0.78124276621E+00  0.78129747111E+00  0.51109989000E-03 0.  1.
     -623    1    1    2    0    0 -0.20604829001E-02  0.22827780424E-02  0.16172144634E-02  0.17130000004E+03  0.17130000000E+03 0.  1.
      622    1    1    2    0    0 -0.71699483116E-02 -0.21541826299E-02  0.32171399868E+01  0.32187024938E+01  0.10000000000E+00 0.  1.
</event>
<event>
 5   0  0.6262544E+06  0.9118800E+02  0.7818608E-02  0.1180000E+00
       11   -1    0    0    0    0  0.00000000000E+00  0.00000000000E+00  0.39999999673E+01  0.40000000000E+01  0.51109989000E-03 0. -1.
     -623   -1    0    0    0    0  0.00000000000E+00  0.00000000000E+00  0.12525980253E-10  0.17130000000E+03  0.17130000000E+03 0. -1.
       11    1    1    2    0    0 -0.20450504965E-02  0.96739745401E-02  0.81109270342E-01  0.81711339320E-01  0.51109989000E-03 0. -1.
     -623    1    1    2    0    0  0.43219392376E-02 -0.10399830371E-01  0.18794211454E-02  0.17130000038E+03  0.17130000000E+03 0. -1.
      622    1    1    2    0    0 -0.22768887411E-02  0.72585583103E-03  0.39170112759E+01  0.39182882802E+01  0.10000000000E+00 0. -1.
</event>
<event>
 5   0  0.6262544E+06  0.9118800E+02  0.7818608E-02  0.1180000E+00
       11   -1    0    0    0    0  0.00000000000E+00  0.00000000000E+00  0.39999999673E+01  0.40000000000E+01  0.51109989000E-03 0. -1.
     -623   -1    0    0    0    0  0.00000000000E+00  0.00000000000E+00  0.12525980253E-10  0.17130000000E+03  0.17130000000E+03 0. -1.
       11    1    1    2    0    0  0.25741967871E-01 -0.12910822595E-01  0.14069165553E+00  0.14360968425E+00  0.51109989000E-03 0. -1.
     -623    1    1    2    0    0  0.84056564202E-02  0.35035717166E-02  0.43777790674E-02  0.17130000030E+03  0.17130000000E+03 0. -1.
      622    1    1    2    0    0 -0.34147624291E-01  0.94072508785E-02  0.38549305327E+01  0.38563900177E+01  0.10000000000E+00 0. -1.
</event>
<event>
 5   0  0.6262544E+06  0.9118800E+02  0.7818608E-02  0.1180000E+00
       11   -1    0    0    0    0  0.00000000000E+00  0.00000000000E+00  0.39999999673E+01  0.40000000000E+01  0.51109989000E-03 0. -1.
     -623   -1    0    0    0    0  0.00000000000E+00  0.00000000000E+00  0.12525980253E-10  0.17130000000E+03  0.17130000000E+03 0. -1.
       11    1    1    2    0    0 -0.25850840590E-02  0.30160670844E-01  0.57588083162E+00  0.57667611549E+00  0.51109989000E-03 0. -1.
     -623    1    1    2    0    0 -0.30213313673E-02 -0.43126467430E-02  0.23584484992E-02  0.17130000010E+03  0.17130000000E+03 0. -1.
      622    1    1    2    0    0  0.56064154265E-02 -0.25848024101E-01  0.34217606874E+01  0.34233237875E+01  0.10000000000E+00 0. -1.
</event>
<event>
 5   0  0.6262544E+06  0.9118800E+02  0.7818608E-02  0.1180000E+00
       11   -1    0    0    0    0  0.00000000000E+00  0.00000000000E+00  0.39999999673E+01  0.40000000000E+01  0.51109989000E-03 0. -1.
     -623   -1    0    0    0    0  0.00000000000E+00  0.00000000000E+00  0.12525980253E-10  0.17130000000E+03  0.17130000000E+03 0. -1.
       11    1    1    2    0    0 -0.10933305837E-02 -0.15721770368E-02  0.37253587657E-02  0.42197905819E-02  0.51109989000E-03 0. -1.
     -623    1    1    2    0    0 -0.25661812414E-02  0.68111269179E-02  0.17511907037E-02  0.17130000016E+03  0.17130000000E+03 0. -1.
      622    1    1    2    0    0  0.36595118251E-02 -0.52389498811E-02  0.39945234179E+01  0.39957800458E+01  0.10000000000E+00 0. -1.
</event>
<event>
 5   0  0.6262544E+06  0.9118800E+02  0.7818608E-02  0.1180000E+00
       11   -1    0    0    0    0  0.00000000000E+00  0.00000000000E+00  0.39999999673E+01  0.40000000000E+01  0.51109989000E-03 0.  1.
     -623   -1    0    0    0    0  0.00000000000E+00  0.00000000000E+00  0.12525980253E-10  0.17130000000E+03  0.17130000000E+03 0. -1.
       11    1    1    2    0    0 -0.34494301091E-01 -0.66304892160E-01  0.12204237022E+01  0.12227102967E+01  0.51109989000E-03 0.  1.
     -623    1    1    2    0    0  0.10214445212E-01  0.33073512747E-02  0.49091437078E-02  0.17130000041E+03  0.17130000000E+03 0. -1.
      622    1    1    2    0    0  0.24279855879E-01  0.62997540886E-01  0.27746671214E+01  0.27772892965E+01  0.10000000000E+00 0.  1.
</event>
<event>
 5   0  0.6262544E+06  0.9118800E+02  0.7818608E-02  0.1180000E+00
       11   -1    0    0    0    0  0.00000000000E+00  0.00000000000E+00  0.39999999673E+01  0.40000000000E+01  0.51109989000E-03 0.  1.
     -623   -1    0    0    0    0  0.00000000000E+00  0.00000000000E+00  0.12525980253E-10  0.17130000000E+03  0.17130000000E+03 0. -1.
       11    1    1    2    0    0 -0.60528628822E-03  0.24023717906E-02  0.16125648900E-01  0.16322853221E-01  0.51109989000E-03 0.  1.
     -623    1    1    2    0    0  0.12250993117E-02 -0.78486890767E-03  0.14528803181E-02  0.17130000001E+03  0.17130000000E+03 0. -1.
      622    1    1    2    0    0 -0.61981302344E-03 -0.16175028830E-02  0.39824214380E+01  0.39836771343E+01  0.10000000000E+00 0.  1.
</event>
<event>
 5   0  0.6262544E+06  0.9118800E+02  0.7818608E-02  0.1180000E+00
       11   -1    0    0    0    0  0.00000000000E+00  0.00000000000E+00  0.39999999673E+01  0.40000000000E+01  0.51109989000E-03 0.  1.
     -623   -1    0    0    0    0  0.00000000000E+00  0.00000000000E+00  0.12525980253E-10  0.17130000000E+03  0.17130000000E+03 0.  1.
       11    1    1    2    0    0 -0.33955909562E-02 -0.34763016651E-02  0.12011179508E+00  0.12021114445E+00  0.51109989000E-03 0.  1.
     -623    1    1    2    0    0  0.69533816065E-02  0.70995178336E-03  0.13910274147E-02  0.17130000015E+03  0.17130000000E+03 0.  1.
      622    1    1    2    0    0 -0.35577906502E-02  0.27663498818E-02  0.38784971449E+01  0.38797887073E+01  0.10000000000E+00 0.  1.
</event>
<event>
 5   0  0.6262544E+06  0.9118800E+02  0.7818608E-02  0.1180000E+00
       11   -1    0    0    0    0  0.00000000000E+00  0.00000000000E+00  0.39999999673E+01  0.40000000000E+01  0.51109989000E-03 0. -1.
     -623   -1    0    0    0    0  0.00000000000E+00  0.00000000000E+00  0.12525980253E-10  0.17130000000E+03  0.17130000000E+03 0. -1.
       11    1    1    2    0    0  0.24909022908E-01  0.10428802747E+00  0.34449363167E+00  0.36079436744E+00  0.51109989000E-03 0. -1.
     -623    1    1    2    0    0 -0.75834074208E-02 -0.95434441231E-02  0.18951628820E-01  0.17130000148E+03  0.17130000000E+03 0. -1.
      622    1    1    2    0    0 -0.17325615487E-01 -0.94744583352E-01  0.36365547069E+01  0.36392041505E+01  0.10000000000E+00 0. -1.
</event>
<event>
 5   0  0.6262544E+06  0.9118800E+02  0.7818608E-02  0.1180000E+00
       11   -1    0    0    0    0  0.00000000000E+00  0.00000000000E+00  0.39999999673E+01  0.40000000000E+01  0.51109989000E-03 0.  1.
     -623   -1    0    0    0    0  0.00000000000E+00  0.00000000000E+00  0.12525980253E-10  0.17130000000E+03  0.17130000000E+03 0. -1.
       11    1    1    2    0    0  0.21685444882E-02  0.53093084005E-03  0.54899818597E-02  0.59485793827E-02  0.51109989000E-03 0.  1.
     -623    1    1    2    0    0  0.21479678735E-02 -0.10200400431E-01  0.17249904546E-02  0.17130000033E+03  0.17130000000E+03 0. -1.
      622    1    1    2    0    0 -0.43165123617E-02  0.96694695911E-02  0.39927849951E+01  0.39940510948E+01  0.10000000000E+00 0.  1.
</event>
<event>
 5   0  0.6262544E+06  0.9118800E+02  0.7818608E-02  0.1180000E+00
       11   -1    0    0    0    0  0.00000000000E+00  0.00000000000E+00  0.39999999673E+01  0.40000000000E+01  0.51109989000E-03 0. -1.
     -623   -1    0    0    0    0  0.00000000000E+00  0.00000000000E+00  0.12525980253E-10  0.17130000000E+03  0.17130000000E+03 0.  1.
       11    1    1    2    0    0  0.23138909308E-01  0.11787404996E-01  0.83040970492E+00  0.83081579865E+00  0.51109989000E-03 0. -1.
     -623    1    1    2    0    0 -0.14960109473E-01  0.28977131319E-02  0.20294367402E-02  0.17130000069E+03  0.17130000000E+03 0.  1.
      622    1    1    2    0    0 -0.81787998349E-02 -0.14685118127E-01  0.31675608257E+01  0.31691835116E+01  0.10000000000E+00 0. -1.
</event>
<event>
 5   0  0.6262544E+06  0.9118800E+02  0.7818608E-02  0.1180000E+00
       11   -1    0    0    0    0  0.00000000000E+00  0.00000000000E+00  0.39999999673E+01  0.40000000000E+01  0.51109989000E-03 0. -1.
     -623   -1    0    0    0    0  0.00000000000E+00  0.00000000000E+00  0.12525980253E-10  0.17130000000E+03  0.17130000000E+03 0. -1.
       11    1    1    2    0    0 -0.47186514060E-01 -0.97362994081E-02  0.53063729485E+00  0.53282038488E+00  0.51109989000E-03 0. -1.
     -623    1    1    2    0    0  0.52375362641E-04 -0.39571907712E-02  0.39731261100E-02  0.17130000009E+03  0.17130000000E+03 0. -1.
      622    1    1    2    0    0  0.47134138697E-01  0.13693490179E-01  0.34653895464E+01  0.34671795233E+01  0.10000000000E+00 0. -1.
</event>
<event>
 5   0  0.6262544E+06  0.9118800E+02  0.7818608E-02  0.1180000E+00
       11   -1    0    0    0    0  0.00000000000E+00  0.00000000000E+00  0.39999999673E+01  0.40000000000E+01  0.51109989000E-03 0.  1.
     -623   -1    0    0    0    0  0.00000000000E+00  0.00000000000E+00  0.12525980253E-10  0.17130000000E+03  0.17130000000E+03 0.  1.
       11    1    1    2    0    0 -0.12815837413E-01  0.18026688352E-01  0.93937875894E+00  0.93963925054E+00  0.51109989000E-03 0.  1.
     -623    1    1    2    0    0 -0.58259826214E-03 -0.33923697682E-02  0.19590899012E-02  0.17130000005E+03  0.17130000000E+03 0.  1.
      622    1    1    2    0    0  0.13398435675E-01 -0.14634318584E-01  0.30586621185E+01  0.30603607037E+01  0.10000000000E+00 0.  1.
</event>
<event>
 5   0  0.6262544E+06  0.9118800E+02  0.7818608E-02  0.1180000E+00
       11   -1    0    0    0    0  0.00000000000E+00  0.00000000000E+00  0.39999999673E+01  0.40000000000E+01  0.51109989000E-03 0.  1.
     -623   -1    0    0    0    0  0.00000000000E+00  0.00000000000E+00  0.12525980253E-10  0.17130000000E+03  0.17130000000E+03 0. -1.
       11    1    1    2    0    0 -0.48288490036E-02 -0.38968515540E-02  0.81767767166E-01  0.82004464544E-01  0.51109989000E-03 0.  1.
     -623    1    1    2    0    0  0.13674898149E-02 -0.59388840194E-03  0.15171525276E-02  0.17130000001E+03  0.17130000000E+03 0. -1.
      622    1    1    2    0    0  0.34613591887E-02  0.44907399560E-02  0.39167150476E+01  0.39179955222E+01  0.10000000000E+00 0.  1.
</event>
<event>
 5   0  0.6262544E+06  0.9118800E+02  0.7818608E-02  0.1180000E+00
       11   -1    0    0    0    0  0.00000000000E+00  0.00000000000E+00  0.39999999673E+01  0.40000000000E+01  0.51109989000E-03 0.  1.
     -623   -1    0    0    0    0  0.00000000000E+00  0.00000000000E+00  0.12525980253E-10  0.17130000000E+03  0.17130000000E+03 0. -1.
       11    1    1    2    0    0  0.43374937926E-02 -0.46063313821E-03  0.67501073880E-02  0.80530247817E-02  0.51109989000E-03 0.  1.
     -623    1    1    2    0    0 -0.70449094278E-02  0.70692937611E-02  0.25623033889E-02  0.17130000031E+03  0.17130000000E+03 0. -1.
      622    1    1    2    0    0  0.27074156351E-02 -0.66086606227E-02  0.39906875565E+01  0.39919466653E+01  0.10000000000E+00 0.  1.
</event>
<event>
 5   0  0.6262544E+06  0.9118800E+02  0.7818608E-02  0.1180000E+00
       11   -1    0    0    0    0  0.00000000000E+00  0.00000000000E+00  0.39999999673E+01  0.40000000000E+01  0.51109989000E-03 0.  1.
     -623   -1    0    0    0    0  0.00000000000E+00  0.00000000000E+00  0.12525980253E-10  0.17130000000E+03  0.17130000000E+03 0.  1.
       11    1    1    2    0    0 -0.84392560542E-04  0.14332586279E-01  0.22192826775E+00  0.22239120352E+00  0.51109989000E-03 0.  1.
     -623    1    1    2    0    0  0.12073545824E-01 -0.22525012215E-02  0.18255276785E-02  0.17130000045E+03  0.17130000000E+03 0.  1.
      622    1    1    2    0    0 -0.11989153264E-01 -0.12080085058E-01  0.37762461720E+01  0.37776083465E+01  0.10000000000E+00 0.  1.
</event>
<event>
 5   0  0.6262544E+06  0.9118800E+02  0.7818608E-02  0.1180000E+00
       11   -1    0    0    0    0  0.00000000000E+00  0.00000000000E+00  0.39999999673E+01  0.40000000000E+01  0.51109989000E-03 0.  1.
     -623   -1    0    0    0    0  0.00000000000E+00  0.00000000000E+00  0.12525980253E-10  0.17130000000E+03  0.17130000000E+03 0. -1.
       11    1    1    2    0    0 -0.15153235942E-01 -0.73021675083E-02  0.11759127214E+01  0.11760331337E+01  0.51109989000E-03 0.  1.
     -623    1    1    2    0    0  0.38701341822E-02  0.90491761577E-02  0.19148834560E-02  0.17130000029E+03  0.17130000000E+03 0. -1.
      622    1    1    2    0    0  0.11283101760E-01 -0.17470086494E-02  0.28221723626E+01  0.28239665728E+01  0.10000000000E+00 0.  1.
</event>
<event>
 5   0  0.6262544E+06  0.9118800E+02  0.7818608E-02  0.1180000E+00
       11   -1    0    0    0    0  0.00000000000E+00  0.00000000000E+00  0.39999999673E+01  0.40000000000E+01  0.51109989000E-03 0.  1.
     -623   -1    0    0    0    0  0.00000000000E+00  0.00000000000E+00  0.12525980253E-10  0.17130000000E+03  0.17130000000E+03 0.  1.
       11    1    1    2    0    0  0.24302016087E-01 -0.23107641845E-01  0.19501863129E+01  0.19504746774E+01  0.51109989000E-03 0.  1.
     -623    1    1    2    0    0 -0.10866061209E-01  0.63710209886E-02  0.28423763330E-02  0.17130000049E+03  0.17130000000E+03 0.  1.
      622    1    1    2    0    0 -0.13435954878E-01  0.16736620857E-01  0.20469712781E+01  0.20495248359E+01  0.10000000000E+00 0.  1.
</event>
<event>
 5   0  0.6262544E+06  0.9118800E+02  0.7818608E-02  0.1180000E+00
       11   -1    0    0    0    0  0.00000000000E+00  0.00000000000E+00  0.39999999673E+01  0.40000000000E+01  0.51109989000E-03 0.  1.
     -623   -1    0    0    0    0  0.00000000000E+00  0.00000000000E+00  0.12525980253E-10  0.17130000000E+03  0.17130000000E+03 0.  1.
       11    1    1    2    0    0  0.21384051452E-01 -0.21285417731E-01  0.78389752793E+00  0.78447813365E+00  0.51109989000E-03 0.  1.
     -623    1    1    2    0    0 -0.49605685823E-02 -0.64638095454E-02  0.22978751724E-02  0.17130000021E+03  0.17130000000E+03 0.  1.
      622    1    1    2    0    0 -0.16423482870E-01  0.27749227276E-01  0.32138045643E+01  0.32155216572E+01  0.10000000000E+00 0.  1.
</event>
<event>
 5   0  0.6262544E+06  0.9118800E+02  0.7818608E-02  0.1180000E+00
       11   -1    0    0    0    0  0.00000000000E+00  0.00000000000E+00  0.39999999673E+01  0.40000000000E+01  0.51109989000E-03 0.  1.
     -623   -1    0    0    0    0  0.00000000000E+00  0.00000000000E+00  0.12525980253E-10  0.17130000000E+03  0.17130000000E+03 0.  1.
       11    1    1    2    0    0  0.15244074688E-01  0.27687974729E-02  0.24617157119E+00  0.24665918134E+00  0.51109989000E-03 0.  1.
     -623    1    1    2    0    0 -0.18546301828E-01  0.54344046334E-02  0.18314816411E-02  0.17130000110E+03  0.17130000000E+03 0.  1.
      622    1    1    2    0    0  0.33022271417E-02 -0.82032021065E-02  0.37519969147E+01  0.37533397189E+01  0.10000000000E+00 0.  1.
</event>
<event>
 5   0  0.6262544E+06  0.9118800E+02  0.7818608E-02  0.1180000E+00
       11   -1    0    0    0    0  0.00000000000E+00  0.00000000000E+00  0.39999999673E+01  0.40000000000E+01  0.51109989000E-03 0.  1.
     -623   -1    0    0    0    0  0.00000000000E+00  0.00000000000E+00  0.12525980253E-10  0.17130000000E+03  0.17130000000E+03 0.  1.
       11    1    1    2    0    0  0.13674262376E-01 -0.13735891046E-01  0.92485384736E+00  0.92505705790E+00  0.51109989000E-03 0.  1.
     -623    1    1    2    0    0  0.36409222138E-03 -0.36624268460E-02  0.19110148301E-02  0.17130000005E+03  0.17130000000E+03 0.  1.
      622    1    1    2    0    0 -0.14038354597E-01  0.17398317893E-01  0.30732351054E+01  0.30749428921E+01  0.10000000000E+00 0.  1.
</event>
<event>
 5   0  0.6262544E+06  0.9118800E+02  0.7818608E-02  0.1180000E+00
       11   -1    0    0    0    0  0.00000000000E+00  0.00000000000E+00  0.39999999673E+01  0.40000000000E+01  0.51109989000E-03 0. -1.
     -623   -1    0    0    0    0  0.00000000000E+00  0.00000000000E+00  0.12525980253E-10  0.17130000000E+03  0.17130000000E+03 0. -1.
       11    1    1    2    0    0  0.10298372189E-01  0.21642182606E-02  0.48718050657E+00  0.48729441564E+00  0.51109989000E-03 0. -1.
     -623    1    1    2    0    0 -0.32873286407E-02  0.71926148590E-03  0.15457927308E-02  0.17130000004E+03  0.17130000000E+03 0. -1.
      622    1    1    2    0    0 -0.70110435486E-02 -0.28834797465E-02  0.35112736681E+01  0.35127055443E+01  0.10000000000E+00 0. -1.
</event>
<event>
 5   0  0.6262544E+06  0.9118800E+02  0.7818608E-02  0.1180000E+00
       11   -1    0    0    0    0  0.00000000000E+00  0.00000000000E+00  0.39999999673E+01  0.40000000000E+01  0.51109989000E-03 0.  1.
     -623   -1    0    0    0    0  0.00000000000E+00  0.00000000000E+00  0.12525980253E-10  0.17130000000E+03  0.17130000000E+03 0. -1.
       11    1    1    2    0    0 -0.59051710918E-03  0.71104378594E-02  0.23588383683E-01  0.24649140044E-01  0.51109989000E-03 0.  1.
     -623    1    1    2    0    0  0.50116815436E-03 -0.56542386449E-02  0.23190509486E-02  0.17130000011E+03  0.17130000000E+03 0. -1.
      622    1    1    2    0    0  0.89348954815E-04 -0.14561992144E-02  0.39740925328E+01  0.39753507503E+01  0.10000000000E+00 0.  1.
</event>
<event>
 5   0  0.6262544E+06  0.9118800E+02  0.7818608E-02  0.1180000E+00
       11   -1    0    0    0    0  0.00000000000E+00  0.00000000000E+00  0.39999999673E+01  0.40000000000E+01  0.51109989000E-03 0.  1.
     -623   -1    0    0    0    0  0.00000000000E+00  0.00000000000E+00  0.12525980253E-10  0.17130000000E+03  0.17130000000E+03 0.  1.
       11    1    1    2    0    0  0.88805160887E-02 -0.60637616024E-02  0.94958106640E-01  0.95566395816E-01  0.51109989000E-03 0.  1.
     -623    1    1    2    0    0 -0.14839602715E-01  0.18647535924E-01  0.19155652194E-02  0.17130000167E+03  0.17130000000E+03 0.  1.
      622    1    1    2    0    0  0.59590866265E-02 -0.12583774321E-01  0.39031262955E+01  0.39044319357E+01  0.10000000000E+00 0.  1.
</event>
<event>
 5   0  0.6262544E+06  0.9118800E+02  0.7818608E-02  0.1180000E+00
       11   -1    0    0    0    0  0.00000000000E+00  0.00000000000E+00  0.39999999673E+01  0.40000000000E+01  0.51109989000E-03 0. -1.
     -623   -1    0    0    0    0  0.00000000000E+00  0.00000000000E+00  0.12525980253E-10  0.17130000000E+03  0.17130000000E+03 0. -1.
       11    1    1    2    0    0 -0.56202425944E-02 -0.91810864655E-02  0.22458835458E-01  0.24910640070E-01  0.51109989000E-03 0. -1.
     -623    1    1    2    0    0  0.55801072575E-02 -0.19157844244E-02  0.37254407214E-02  0.17130000014E+03  0.17130000000E+03 0. -1.
      622    1    1    2    0    0  0.40135336873E-04  0.11096870890E-01  0.39738156912E+01  0.39750892179E+01  0.10000000000E+00 0. -1.
</event>
<event>
 5   0  0.6262544E+06  0.9118800E+02  0.7818608E-02  0.1180000E+00
       11   -1    0    0    0    0  0.00000000000E+00  0.00000000000E+00  0.39999999673E+01  0.40000000000E+01  0.51109989000E-03 0.  1.
     -623   -1    0    0    0    0  0.00000000000E+00  0.00000000000E+00  0.12525980253E-10  0.17130000000E+03  0.17130000000E+03 0. -1.
       11    1    1    2    0    0  0.12136472650E-02 -0.70221815873E-02  0.20823568874E-01  0.22015136062E-01  0.51109989000E-03 0.  1.
     -623    1    1    2    0    0  0.49911448772E-02  0.11265312739E-01  0.24562161718E-02  0.17130000046E+03  0.17130000000E+03 0. -1.
      622    1    1    2    0    0 -0.62047921422E-02 -0.42431311520E-02  0.39767201823E+01  0.39779844032E+01  0.10000000000E+00 0.  1.
</event>
<event>
 5   0  0.6262544E+06  0.9118800E+02  0.7818608E-02  0.1180000E+00
       11   -1    0    0    0    0  0.00000000000E+00  0.00000000000E+00  0.39999999673E+01  0.40000000000E+01  0.51109989000E-03 0. -1.
     -623   -1    0    0    0    0  0.00000000000E+00  0.00000000000E+00  0.12525980253E-10  0.17130000000E+03  0.17130000000E+03 0. -1.
       11    1    1    2    0    0  0.10782321599E-01  0.11543394870E-01  0.15837545117E-01  0.22374035903E-01  0.51109989000E-03 0. -1.
     -623    1    1    2    0    0  0.60390627743E-02 -0.13355080323E-02  0.78426622326E-02  0.17130000029E+03  0.17130000000E+03 0. -1.
      622    1    1    2    0    0 -0.16821384373E-01 -0.10207886838E-01  0.39763197601E+01  0.39776256730E+01  0.10000000000E+00 0. -1.
</event>
<event>
 5   0  0.6262544E+06  0.9118800E+02  0.7818608E-02  0.1180000E+00
       11   -1    0    0    0    0  0.00000000000E+00  0.00000000000E+00  0.39999999673E+01  0.40000000000E+01  0.51109989000E-03 0. -1.
     -623   -1    0    0    0    0  0.00000000000E+00  0.00000000000E+00  0.12525980253E-10  0.17130000000E+03  0.17130000000E+03 0.  1.
       11    1    1    2    0    0 -0.47017434417E-02  0.17293908229E-01  0.54126653936E+00  0.54156339749E+00  0.51109989000E-03 0. -1.
     -623    1    1    2    0    0  0.98438153371E-02  0.19519573888E-02  0.18005691562E-02  0.17130000030E+03  0.17130000000E+03 0.  1.
      622    1    1    2    0    0 -0.51420718954E-02 -0.19245865618E-01  0.34569328588E+01  0.34584362991E+01  0.10000000000E+00 0. -1.
</event>
<event>
 5   0  0.6262544E+06  0.9118800E+02  0.7818608E-02  0.1180000E+00
       11   -1    0    0    0    0  0.00000000000E+00  0.00000000000E+00  0.39999999673E+01  0.40000000000E+01  0.51109989000E-03 0. -1.
     -623   -1    0    0    0    0  0.00000000000E+00  0.00000000000E+00  0.12525980253E-10  0.17130000000E+03  0.17130000000E+03 0. -1.
       11    1    1    2    0    0 -0.21438369080E-01  0.12632365253E-01  0.31603658612E+00  0.31701508688E+00  0.51109989000E-03 0. -1.
     -623    1    1    2    0    0  0.64901809252E-02  0.26816440642E-02  0.23986705346E-02  0.17130000016E+03  0.17130000000E+03 0. -1.
      622    1    1    2    0    0  0.14948188155E-01 -0.15314009318E-01  0.36815647107E+01  0.36829847524E+01  0.10000000000E+00 0. -1.
</event>
<event>
 5   0  0.6262544E+06  0.9118800E+02  0.7818608E-02  0.1180000E+00
       11   -1    0    0    0    0  0.00000000000E+00  0.00000000000E+00  0.39999999673E+01  0.40000000000E+01  0.51109989000E-03 0.  1.
     -623   -1    0    0    0    0  0.00000000000E+00  0.00000000000E+00  0.12525980253E-10  0.17130000000E+03  0.17130000000E+03 0.  1.
       11    1    1    2    0    0  0.50327716700E-01  0.25379439747E-01  0.40962107574E+00  0.41348117483E+00  0.51109989000E-03 0.  1.
     -623    1    1    2    0    0 -0.51380028459E-02  0.98000895226E-02  0.57123343206E-02  0.17130000045E+03  0.17130000000E+03 0.  1.
      622    1    1    2    0    0 -0.45189713854E-01 -0.35179529270E-01  0.35846665573E+01  0.35865183725E+01  0.10000000000E+00 0.  1.
</event>
<event>
 5   0  0.6262544E+06  0.9118800E+02  0.7818608E-02  0.1180000E+00
       11   -1    0    0    0    0  0.00000000000E+00  0.00000000000E+00  0.39999999673E+01  0.40000000000E+01  0.51109989000E-03 0.  1.
     -623   -1    0    0    0    0  0.00000000000E+00  0.00000000000E+00  0.12525980253E-10  0.17130000000E+03  0.17130000000E+03 0. -1.
       11    1    1    2    0    0 -0.13700174078E-01  0.34809117210E-02  0.15679419688E+00  0.15743091473E+00  0.51109989000E-03 0.  1.
     -623    1    1    2    0    0  0.12380565569E-01  0.11361626959E-01  0.19678564801E-02  0.17130000084E+03  0.17130000000E+03 0. -1.
      622    1    1    2    0    0  0.13196085088E-02 -0.14842538680E-01  0.38412379140E+01  0.38425682498E+01  0.10000000000E+00 0.  1.
</event>
<event>
 5   0  0.6262544E+06  0.9118800E+02  0.7818608E-02  0.1180000E+00
       11   -1    0    0    0    0  0.00000000000E+00  0.00000000000E+00  0.39999999673E+01  0.40000000000E+01  0.51109989000E-03 0. -1.
     -623   -1    0    0    0    0  0.00000000000E+00  0.00000000000E+00  0.12525980253E-10  0.17130000000E+03  0.17130000000E+03 0.  1.
       11    1    1    2    0    0  0.18759921757E-01  0.24634958945E-01  0.12972246948E+01  0.12975943071E+01  0.51109989000E-03 0. -1.
     -623    1    1    2    0    0  0.12642326658E-02 -0.47451948551E-02  0.23679902229E-02  0.17130000009E+03  0.17130000000E+03 0.  1.
      622    1    1    2    0    0 -0.20024154422E-01 -0.19889764089E-01  0.27004072825E+01  0.27024056063E+01  0.10000000000E+00 0. -1.
</event>
<event>
 5   0  0.6262544E+06  0.9118800E+02  0.7818608E-02  0.1180000E+00
       11   -1    0    0    0    0  0.00000000000E+00  0.00000000000E+00  0.39999999673E+01  0.40000000000E+01  0.51109989000E-03 0.  1.
     -623   -1    0    0    0    0  0.00000000000E+00  0.00000000000E+00  0.12525980253E-10  0.17130000000E+03  0.17130000000E+03 0. -1.
       11    1    1    2    0    0  0.12065086002E-02  0.11715688361E-02  0.45914602767E-02  0.49163977779E-02  0.51109989000E-03 0.  1.
     -623    1    1    2    0    0 -0.72572471780E-03  0.16684667412E-02  0.15776948766E-02  0.17130000002E+03  0.17130000000E+03 0. -1.
      622    1    1    2    0    0 -0.48078388236E-03 -0.28400355773E-02  0.39938308122E+01  0.39950835853E+01  0.10000000000E+00 0.  1.
</event>
<event>
 5   0  0.6262544E+06  0.9118800E+02  0.7818608E-02  0.1180000E+00
       11   -1    0    0    0    0  0.00000000000E+00  0.00000000000E+00  0.39999999673E+01  0.40000000000E+01  0.51109989000E-03 0. -1.
     -623   -1    0    0    0    0  0.00000000000E+00  0.00000000000E+00  0.12525980253E-10  0.17130000000E+03  0.17130000000E+03 0. -1.
       11    1    1    2    0    0  0.52724297934E-01  0.52974964931E-01  0.13965761516E+01  0.13985747771E+01  0.51109989000E-03 0. -1.
     -623    1    1    2    0    0  0.14049604788E-01 -0.72854427805E-02  0.51815844164E-02  0.17130000081E+03  0.17130000000E+03 0. -1.
      622    1    1    2    0    0 -0.66773902722E-01 -0.45689522151E-01  0.25982422313E+01  0.26014244135E+01  0.10000000000E+00 0. -1.
</event>
<event>
 5   0  0.6262544E+06  0.9118800E+02  0.7818608E-02  0.1180000E+00
       11   -1    0    0    0    0  0.00000000000E+00  0.00000000000E+00  0.39999999673E+01  0.40000000000E+01  0.51109989000E-03 0.  1.
     -623   -1    0    0    0    0  0.00000000000E+00  0.00000000000E+00  0.12525980253E-10  0.17130000000E+03  0.17130000000E+03 0.  1.
       11    1    1    2    0    0  0.83907148491E-02 -0.32068386453E-01  0.25634472860E+01  0.25636616459E+01  0.51109989000E-03 0.  1.
     -623    1    1    2    0    0 -0.14747949974E-01  0.61019597377E-02  0.39498296062E-02  0.17130000079E+03  0.17130000000E+03 0.  1.
      622    1    1    2    0    0  0.63572351251E-02  0.25966426715E-01  0.14326028519E+01  0.14363375651E+01  0.10000000000E+00 0.  1.
</event>
<event>
 5   0  0.6262544E+06  0.9118800E+02  0.7818608E-02  0.1180000E+00
       11   -1    0    0    0    0  0.00000000000E+00  0.00000000000E+00  0.39999999673E+01  0.40000000000E+01  0.51109989000E-03 0.  1.
     -623   -1    0    0    0    0  0.00000000000E+00  0.00000000000E+00  0.12525980253E-10  0.17130000000E+03  0.17130000000E+03 0. -1.
       11    1    1    2    0    0 -0.20236920176E-02  0.27063162909E-02  0.14706829530E+00  0.14710800177E+00  0.51109989000E-03 0.  1.
     -623    1    1    2    0    0  0.97993949366E-02 -0.13744849538E-01  0.13621233592E-02  0.17130000084E+03  0.17130000000E+03 0. -1.
      622    1    1    2    0    0 -0.77757029190E-02  0.11038533247E-01  0.38515695487E+01  0.38528911611E+01  0.10000000000E+00 0.  1.
</event>
<event>
 5   0  0.6262544E+06  0.9118800E+02  0.7818608E-02  0.1180000E+00
       11   -1    0    0    0    0  0.00000000000E+00  0.00000000000E+00  0.39999999673E+01  0.40000000000E+01  0.51109989000E-03 0.  1.
     -623   -1    0    0    0    0  0.00000000000E+00  0.00000000000E+00  0.12525980253E-10  0.17130000000E+03  0.17130000000E+03 0. -1.
       11    1    1    2    0    0 -0.55323691277E-02  0.28266184871E-02  0.12250789547E+00  0.12266638722E+00  0.51109989000E-03 0.  1.
     -623    1    1    2    0    0  0.10591298124E-01  0.25043199110E-02  0.14555390201E-02  0.17130000035E+03  0.17130000000E+03 0. -1.
      622    1    1    2    0    0 -0.50589289967E-02 -0.53309383981E-02  0.38760365329E+01  0.38773332609E+01  0.10000000000E+00 0.  1.
</event>
<event>
 5   0  0.6262544E+06  0.9118800E+02  0.7818608E-02  0.1180000E+00
       11   -1    0    0    0    0  0.00000000000E+00  0.00000000000E+00  0.39999999673E+01  0.40000000000E+01  0.51109989000E-03 0. -1.
     -623   -1    0    0    0    0  0.00000000000E+00  0.00000000000E+00  0.12525980253E-10  0.17130000000E+03  0.17130000000E+03 0. -1.
       11    1    1    2    0    0 -0.35208584407E-01  0.27918037849E-02  0.87546704446E+00  0.87617934565E+00  0.51109989000E-03 0. -1.
     -623    1    1    2    0    0 -0.79745978990E-02  0.34156678144E-02  0.26183399664E-02  0.17130000024E+03  0.17130000000E+03 0. -1.
      622    1    1    2    0    0  0.43183182306E-01 -0.62074715995E-02  0.31219145831E+01  0.31238204149E+01  0.10000000000E+00 0.  0.
</event>
<event>
 5   0  0.6262544E+06  0.9118800E+02  0.7818608E-02  0.1180000E+00
       11   -1    0    0    0    0  0.00000000000E+00  0.00000000000E+00  0.39999999673E+01  0.40000000000E+01  0.51109989000E-03 0.  1.
     -623   -1    0    0    0    0  0.00000000000E+00  0.00000000000E+00  0.12525980253E-10  0.17130000000E+03  0.17130000000E+03 0. -1.
       11    1    1    2    0    0  0.14558324649E-01 -0.17414071953E-01  0.54957419744E+00  0.55004295690E+00  0.51109989000E-03 0.  1.
     -623    1    1    2    0    0 -0.22456049712E-02  0.33042456581E-02  0.19692297506E-02  0.17130000006E+03  0.17130000000E+03 0. -1.
      622    1    1    2    0    0 -0.12312719677E-01  0.14109826295E-01  0.34484565403E+01  0.34499569853E+01  0.10000000000E+00 0.  0.
</event>
<event>
 5   0  0.6262544E+06  0.9118800E+02  0.7818608E-02  0.1180000E+00
       11   -1    0    0    0    0  0.00000000000E+00  0.00000000000E+00  0.39999999673E+01  0.40000000000E+01  0.51109989000E-03 0. -1.
     -623   -1    0    0    0    0  0.00000000000E+00  0.00000000000E+00  0.12525980253E-10  0.17130000000E+03  0.17130000000E+03 0.  1.
       11    1    1    2    0    0 -0.77421413803E-01 -0.25555879076E-01  0.32456423010E+00  0.33464814202E+00  0.51109989000E-03 0. -1.
     -623    1    1    2    0    0  0.50864344574E-01 -0.22766864472E-01  0.11872661256E-01  0.17130000948E+03  0.17130000000E+03 0.  1.
      622    1    1    2    0    0  0.26557069229E-01  0.48322743548E-01  0.36635630760E+01  0.36653423820E+01  0.10000000000E+00 0. -1.
</event>
<event>
 5   0  0.6262544E+06  0.9118800E+02  0.7818608E-02  0.1180000E+00
       11   -1    0    0    0    0  0.00000000000E+00  0.00000000000E+00  0.39999999673E+01  0.40000000000E+01  0.51109989000E-03 0. -1.
     -623   -1    0    0    0    0  0.00000000000E+00  0.00000000000E+00  0.12525980253E-10  0.17130000000E+03  0.17130000000E+03 0.  1.
       11    1    1    2    0    0  0.11220800292E-01  0.20000802671E-02  0.25551895821E+00  0.25577354419E+00  0.51109989000E-03 0. -1.
     -623    1    1    2    0    0 -0.36555140659E-02 -0.37380659497E-02  0.15983173079E-02  0.17130000009E+03  0.17130000000E+03 0.  1.
      622    1    1    2    0    0 -0.75652862262E-02  0.17379856825E-02  0.37428826918E+01  0.37442263685E+01  0.10000000000E+00 0. -1.
</event>
<event>
 5   0  0.6262544E+06  0.9118800E+02  0.7818608E-02  0.1180000E+00
       11   -1    0    0    0    0  0.00000000000E+00  0.00000000000E+00  0.39999999673E+01  0.40000000000E+01  0.51109989000E-03 0. -1.
     -623   -1    0    0    0    0  0.00000000000E+00  0.00000000000E+00  0.12525980253E-10  0.17130000000E+03  0.17130000000E+03 0.  1.
       11    1    1    2    0    0  0.38504821778E-02  0.17453956408E-02  0.37960094894E-01  0.38198202122E-01  0.51109989000E-03 0. -1.
     -623    1    1    2    0    0  0.26791737568E-02 -0.15415412414E-01  0.15300234981E-02  0.17130000072E+03  0.17130000000E+03 0.  1.
      622    1    1    2    0    0 -0.65296559346E-02  0.13670016773E-01  0.39605098490E+01  0.39618010765E+01  0.10000000000E+00 0. -1.
</event>
<event>
 5   0  0.6262544E+06  0.9118800E+02  0.7818608E-02  0.1180000E+00
       11   -1    0    0    0    0  0.00000000000E+00  0.00000000000E+00  0.39999999673E+01  0.40000000000E+01  0.51109989000E-03 0. -1.
     -623   -1    0    0    0    0  0.00000000000E+00  0.00000000000E+00  0.12525980253E-10  0.17130000000E+03  0.17130000000E+03 0. -1.
       11    1    1    2    0    0 -0.20332314143E-01 -0.43652717153E-02  0.84931276700E-01  0.87441646717E-01  0.51109989000E-03 0. -1.
     -623    1    1    2    0    0 -0.27641208437E-02 -0.32547498040E-02  0.38641958411E-02  0.17130000010E+03  0.17130000000E+03 0. -1.
      622    1    1    2    0    0  0.23096434987E-01  0.76200215193E-02  0.39112044949E+01  0.39125582565E+01  0.10000000000E+00 0. -1.
</event>
<event>
 5   0  0.6262544E+06  0.9118800E+02  0.7818608E-02  0.1180000E+00
       11   -1    0    0    0    0  0.00000000000E+00  0.00000000000E+00  0.39999999673E+01  0.40000000000E+01  0.51109989000E-03 0. -1.
     -623   -1    0    0    0    0  0.00000000000E+00  0.00000000000E+00  0.12525980253E-10  0.17130000000E+03  0.17130000000E+03 0. -1.
       11    1    1    2    0    0 -0.23777118967E-01  0.93235315610E-01  0.26778552103E+01  0.26795833565E+01  0.51109989000E-03 0. -1.
     -623    1    1    2    0    0 -0.97895308861E-02  0.24345868911E-01  0.11213110868E-01  0.17130000238E+03  0.17130000000E+03 0. -1.
      622    1    1    2    0    0  0.33566649853E-01 -0.11758118452E+00  0.13109316461E+01  0.13204142667E+01  0.10000000000E+00 0. -1.
</event>
<event>
 5   0  0.6262544E+06  0.9118800E+02  0.7818608E-02  0.1180000E+00
       11   -1    0    0    0    0  0.00000000000E+00  0.00000000000E+00  0.39999999673E+01  0.40000000000E+01  0.51109989000E-03 0.  1.
     -623   -1    0    0    0    0  0.00000000000E+00  0.00000000000E+00  0.12525980253E-10  0.17130000000E+03  0.17130000000E+03 0. -1.
       11    1    1    2    0    0  0.26967745826E-01  0.33458021131E-02  0.51583843896E+00  0.51655397592E+00  0.51109989000E-03 0.  1.
     -623    1    1    2    0    0 -0.71883643982E-03  0.50665145959E-02  0.22603531855E-02  0.17130000009E+03  0.17130000000E+03 0. -1.
      622    1    1    2    0    0 -0.26248909386E-01 -0.84123167091E-02  0.34819011753E+01  0.34834459328E+01  0.10000000000E+00 0.  1.
</event>
<event>
 5   0  0.6262544E+06  0.9118800E+02  0.7818608E-02  0.1180000E+00
       11   -1    0    0    0    0  0.00000000000E+00  0.00000000000E+00  0.39999999673E+01  0.40000000000E+01  0.51109989000E-03 0. -1.
     -623   -1    0    0    0    0  0.00000000000E+00  0.00000000000E+00  0.12525980253E-10  0.17130000000E+03  0.17130000000E+03 0.  1.
       11    1    1    2    0    0 -0.53324519236E-02  0.75274514587E-03  0.10311136418E-01  0.11643986620E-01  0.51109989000E-03 0. -1.
     -623    1    1    2    0    0  0.47938872178E-03  0.31131471019E-02  0.25915403372E-02  0.17130000005E+03  0.17130000000E+03 0.  1.
      622    1    1    2    0    0  0.48530632018E-02 -0.38658922477E-02  0.39870972906E+01  0.39883559648E+01  0.10000000000E+00 0. -1.
</event>
<event>
 5   0  0.6262544E+06  0.9118800E+02  0.7818608E-02  0.1180000E+00
       11   -1    0    0    0    0  0.00000000000E+00  0.00000000000E+00  0.39999999673E+01  0.40000000000E+01  0.51109989000E-03 0.  1.
     -623   -1    0    0    0    0  0.00000000000E+00  0.00000000000E+00  0.12525980253E-10  0.17130000000E+03  0.17130000000E+03 0. -1.
       11    1    1    2    0    0  0.47081611922E-01  0.56461665264E-01  0.11457334051E+01  0.11480896719E+01  0.51109989000E-03 0.  1.
     -623    1    1    2    0    0 -0.11509435350E-01 -0.56181414351E-02  0.47860896309E-02  0.17130000055E+03  0.17130000000E+03 0. -1.
      622    1    1    2    0    0 -0.35572176572E-01 -0.50843523829E-01  0.28494804727E+01  0.28519097825E+01  0.10000000000E+00 0.  1.
</event>
<event>
 5   0  0.6262544E+06  0.9118800E+02  0.7818608E-02  0.1180000E+00
       11   -1    0    0    0    0  0.00000000000E+00  0.00000000000E+00  0.39999999673E+01  0.40000000000E+01  0.51109989000E-03 0. -1.
     -623   -1    0    0    0    0  0.00000000000E+00  0.00000000000E+00  0.12525980253E-10  0.17130000000E+03  0.17130000000E+03 0. -1.
       11    1    1    2    0    0  0.16513469424E-02  0.11543118914E-01  0.46880745198E+00  0.46895272555E+00  0.51109989000E-03 0. -1.
     -623    1    1    2    0    0 -0.19021496204E-02 -0.14660758803E-01  0.15635665644E-02  0.17130000065E+03  0.17130000000E+03 0. -1.
      622    1    1    2    0    0  0.25080267808E-03  0.31176398893E-02  0.35296289490E+01  0.35310466296E+01  0.10000000000E+00 0. -1.
</event>
<event>
 5   0  0.6262544E+06  0.9118800E+02  0.7818608E-02  0.1180000E+00
       11   -1    0    0    0    0  0.00000000000E+00  0.00000000000E+00  0.39999999673E+01  0.40000000000E+01  0.51109989000E-03 0.  1.
     -623   -1    0    0    0    0  0.00000000000E+00  0.00000000000E+00  0.12525980253E-10  0.17130000000E+03  0.17130000000E+03 0.  1.
       11    1    1    2    0    0 -0.16776285590E-02  0.11311336535E-01  0.10414034876E+00  0.10476752472E+00  0.51109989000E-03 0.  1.
     -623    1    1    2    0    0 -0.43476321538E-02 -0.18811915678E-02  0.19271319760E-02  0.17130000008E+03  0.17130000000E+03 0.  1.
      622    1    1    2    0    0  0.60252607128E-02 -0.94301449669E-02  0.38939324867E+01  0.38952323990E+01  0.10000000000E+00 0.  1.
</event>
<event>
 5   0  0.6262544E+06  0.9118800E+02  0.7818608E-02  0.1180000E+00
       11   -1    0    0    0    0  0.00000000000E+00  0.00000000000E+00  0.39999999673E+01  0.40000000000E+01  0.51109989000E-03 0.  1.
     -623   -1    0    0    0    0  0.00000000000E+00  0.00000000000E+00  0.12525980253E-10  0.17130000000E+03  0.17130000000E+03 0. -1.
       11    1    1    2    0    0  0.18269775161E-01  0.25435480594E-01  0.20272434651E+01  0.20274854072E+01  0.51109989000E-03 0.  1.
     -623    1    1    2    0    0 -0.71743130640E-01  0.34729837345E-01  0.44422058671E-02  0.17130001860E+03  0.17130000000E+03 0. -1.
      622    1    1    2    0    0  0.53473355478E-01 -0.60165317939E-01  0.19683142964E+01  0.19724959910E+01  0.10000000000E+00 0.  1.
</event>
<event>
 5   0  0.6262544E+06  0.9118800E+02  0.7818608E-02  0.1180000E+00
       11   -1    0    0    0    0  0.00000000000E+00  0.00000000000E+00  0.39999999673E+01  0.40000000000E+01  0.51109989000E-03 0.  1.
     -623   -1    0    0    0    0  0.00000000000E+00  0.00000000000E+00  0.12525980253E-10  0.17130000000E+03  0.17130000000E+03 0.  1.
       11    1    1    2    0    0 -0.22379771385E-02  0.69245189103E-02  0.92981035327E-02  0.11818352517E-01  0.51109989000E-03 0.  1.
     -623    1    1    2    0    0  0.23499219879E-02 -0.24438632095E-02  0.37767121827E-02  0.17130000008E+03  0.17130000000E+03 0.  1.
      622    1    1    2    0    0 -0.11194484937E-03 -0.44806557009E-02  0.39869251515E+01  0.39881815722E+01  0.10000000000E+00 0.  1.
</event>
<event>
 5   0  0.6262544E+06  0.9118800E+02  0.7818608E-02  0.1180000E+00
       11   -1    0    0    0    0  0.00000000000E+00  0.00000000000E+00  0.39999999673E+01  0.40000000000E+01  0.51109989000E-03 0.  1.
     -623   -1    0    0    0    0  0.00000000000E+00  0.00000000000E+00  0.12525980253E-10  0.17130000000E+03  0.17130000000E+03 0. -1.
       11    1    1    2    0    0 -0.85170467347E-03 -0.12998169108E-02  0.59060514108E-03  0.17392418988E-02  0.51109989000E-03 0.  1.
     -623    1    1    2    0    0  0.75565923214E-03  0.37115846988E-03  0.23994714112E-02  0.17130000002E+03  0.17130000000E+03 0. -1.
      622    1    1    2    0    0  0.96045441326E-04  0.92865844094E-03  0.39970098908E+01  0.39982607393E+01  0.10000000000E+00 0.  1.
</event>
<event>
 5   0  0.6262544E+06  0.9118800E+02  0.7818608E-02  0.1180000E+00
       11   -1    0    0    0    0  0.00000000000E+00  0.00000000000E+00  0.39999999673E+01  0.40000000000E+01  0.51109989000E-03 0.  1.
     -623   -1    0    0    0    0  0.00000000000E+00  0.00000000000E+00  0.12525980253E-10  0.17130000000E+03  0.17130000000E+03 0. -1.
       11    1    1    2    0    0  0.26190652820E-01 -0.65443360308E-01  0.26818929507E+01  0.26828191971E+01  0.51109989000E-03 0.  1.
     -623    1    1    2    0    0 -0.18617463083E-01  0.31886505642E-01  0.51823568954E-02  0.17130000406E+03  0.17130000000E+03 0. -1.
      622    1    1    2    0    0 -0.75731897370E-02  0.33556854666E-01  0.13129246596E+01  0.13171767450E+01  0.10000000000E+00 0.  0.
</event>
<event>
 5   0  0.6262544E+06  0.9118800E+02  0.7818608E-02  0.1180000E+00
       11   -1    0    0    0    0  0.00000000000E+00  0.00000000000E+00  0.39999999673E+01  0.40000000000E+01  0.51109989000E-03 0.  1.
     -623   -1    0    0    0    0  0.00000000000E+00  0.00000000000E+00  0.12525980253E-10  0.17130000000E+03  0.17130000000E+03 0.  1.
       11    1    1    2    0    0 -0.11437342909E-01 -0.10759103195E-01  0.28336513558E-01  0.32400468177E-01  0.51109989000E-03 0.  1.
     -623    1    1    2    0    0  0.11442411379E-01 -0.36901314512E-01  0.56151400225E-02  0.17130000445E+03  0.17130000000E+03 0.  1.
      622    1    1    2    0    0 -0.50684700988E-05  0.47660417707E-01  0.39660483138E+01  0.39675950830E+01  0.10000000000E+00 0.  1.
</event>
<event>
 5   0  0.6262544E+06  0.9118800E+02  0.7818608E-02  0.1180000E+00
       11   -1    0    0    0    0  0.00000000000E+00  0.00000000000E+00  0.39999999673E+01  0.40000000000E+01  0.51109989000E-03 0.  1.
     -623   -1    0    0    0    0  0.00000000000E+00  0.00000000000E+00  0.12525980253E-10  0.17130000000E+03  0.17130000000E+03 0. -1.
       11    1    1    2    0    0  0.60255464347E-02 -0.15149566892E-01  0.49652907775E-01  0.52263649495E-01  0.51109989000E-03 0.  1.
     -623    1    1    2    0    0  0.17181776520E-02  0.46175696949E-02  0.38992270310E-02  0.17130000012E+03  0.17130000000E+03 0. -1.
      622    1    1    2    0    0 -0.77437240867E-02  0.10531997197E-01  0.39464478326E+01  0.39477362353E+01  0.10000000000E+00 0.  1.
</event>
<event>
 5   0  0.6262544E+06  0.9118800E+02  0.7818608E-02  0.1180000E+00
       11   -1    0    0    0    0  0.00000000000E+00  0.00000000000E+00  0.39999999673E+01  0.40000000000E+01  0.51109989000E-03 0.  1.
     -623   -1    0    0    0    0  0.00000000000E+00  0.00000000000E+00  0.12525980253E-10  0.17130000000E+03  0.17130000000E+03 0. -1.
       11    1    1    2    0    0  0.87995510841E-04 -0.23765231561E-01  0.15209122329E+00  0.15393763477E+00  0.51109989000E-03 0.  1.
     -623    1    1    2    0    0 -0.11805892817E-01  0.17392169206E-01  0.31710878016E-02  0.17130000132E+03  0.17130000000E+03 0. -1.
      622    1    1    2    0    0  0.11717897307E-01  0.63730623549E-02  0.38447376564E+01  0.38460610462E+01  0.10000000000E+00 0.  1.
</event>
<event>
 5   0  0.6262544E+06  0.9118800E+02  0.7818608E-02  0.1180000E+00
       11   -1    0    0    0    0  0.00000000000E+00  0.00000000000E+00  0.39999999673E+01  0.40000000000E+01  0.51109989000E-03 0. -1.
     -623   -1    0    0    0    0  0.00000000000E+00  0.00000000000E+00  0.12525980253E-10  0.17130000000E+03  0.17130000000E+03 0.  1.
       11    1    1    2    0    0 -0.29676221485E-01  0.48636950219E-02  0.45861191161E+00  0.45959708478E+00  0.51109989000E-03 0. -1.
     -623    1    1    2    0    0  0.93618826947E-02 -0.15506668651E-02  0.24578264916E-02  0.17130000028E+03  0.17130000000E+03 0.  1.
      622    1    1    2    0    0  0.20314338791E-01 -0.33130281569E-02  0.35389302293E+01  0.35404026347E+01  0.10000000000E+00 0.  0.
</event>
<event>
 5   0  0.6262544E+06  0.9118800E+02  0.7818608E-02  0.1180000E+00
       11   -1    0    0    0    0  0.00000000000E+00  0.00000000000E+00  0.39999999673E+01  0.40000000000E+01  0.51109989000E-03 0. -1.
     -623   -1    0    0    0    0  0.00000000000E+00  0.00000000000E+00  0.12525980253E-10  0.17130000000E+03  0.17130000000E+03 0.  1.
       11    1    1    2    0    0  0.68927089774E-02  0.37238159732E-02  0.37017708393E-01  0.37841091396E-01  0.51109989000E-03 0. -1.
     -623    1    1    2    0    0  0.12150755960E-02 -0.16066827134E-01  0.21137907380E-02  0.17130000077E+03  0.17130000000E+03 0.  1.
      622    1    1    2    0    0 -0.81077845733E-02  0.12343011160E-01  0.39608684682E+01  0.39621581378E+01  0.10000000000E+00 0. -1.
</event>
<event>
 5   0  0.6262544E+06  0.9118800E+02  0.7818608E-02  0.1180000E+00
       11   -1    0    0    0    0  0.00000000000E+00  0.00000000000E+00  0.39999999673E+01  0.40000000000E+01  0.51109989000E-03 0. -1.
     -623   -1    0    0    0    0  0.00000000000E+00  0.00000000000E+00  0.12525980253E-10  0.17130000000E+03  0.17130000000E+03 0. -1.
       11    1    1    2    0    0 -0.88293935435E-02 -0.21959609160E-01  0.29706846361E+00  0.29801026143E+00  0.51109989000E-03 0. -1.
     -623    1    1    2    0    0  0.13205608455E-01 -0.11573386379E-02  0.23679573271E-02  0.17130000053E+03  0.17130000000E+03 0. -1.
      622    1    1    2    0    0 -0.43762149110E-02  0.23116947797E-01  0.37005635464E+01  0.37019892093E+01  0.10000000000E+00 0. -1.
</event>
<event>
 5   0  0.6262544E+06  0.9118800E+02  0.7818608E-02  0.1180000E+00
       11   -1    0    0    0    0  0.00000000000E+00  0.00000000000E+00  0.39999999673E+01  0.40000000000E+01  0.51109989000E-03 0.  1.
     -623   -1    0    0    0    0  0.00000000000E+00  0.00000000000E+00  0.12525980253E-10  0.17130000000E+03  0.17130000000E+03 0. -1.
       11    1    1    2    0    0 -0.34396854603E-02  0.14724819218E-02  0.31519535863E+00  0.31521798007E+00  0.51109989000E-03 0.  1.
     -623    1    1    2    0    0  0.17642680488E-02 -0.14760134281E-02  0.13801731634E-02  0.17130000002E+03  0.17130000000E+03 0. -1.
      622    1    1    2    0    0  0.16754174115E-02  0.35315063065E-05  0.36834244356E+01  0.36847819989E+01  0.10000000000E+00 0.  1.
</event>
<event>
 5   0  0.6262544E+06  0.9118800E+02  0.7818608E-02  0.1180000E+00
       11   -1    0    0    0    0  0.00000000000E+00  0.00000000000E+00  0.39999999673E+01  0.40000000000E+01  0.51109989000E-03 0. -1.
     -623   -1    0    0    0    0  0.00000000000E+00  0.00000000000E+00  0.12525980253E-10  0.17130000000E+03  0.17130000000E+03 0. -1.
       11    1    1    2    0    0  0.13241342810E-01 -0.22890135935E-01  0.10786223300E+00  0.11105770577E+00  0.51109989000E-03 0. -1.
     -623    1    1    2    0    0 -0.44429001248E-01  0.36498966404E-01  0.46399849333E-02  0.17130000971E+03  0.17130000000E+03 0. -1.
      622    1    1    2    0    0  0.31187658438E-01 -0.13608830469E-01  0.38874977494E+01  0.38889325813E+01  0.10000000000E+00 0. -1.
</event>
<event>
 5   0  0.6262544E+06  0.9118800E+02  0.7818608E-02  0.1180000E+00
       11   -1    0    0    0    0  0.00000000000E+00  0.00000000000E+00  0.39999999673E+01  0.40000000000E+01  0.51109989000E-03 0.  1.
     -623   -1    0    0    0    0  0.00000000000E+00  0.00000000000E+00  0.12525980253E-10  0.17130000000E+03  0.17130000000E+03 0. -1.
       11    1    1    2    0    0 -0.17071112718E-02  0.17662457292E-02  0.64493728394E-03  0.25905636584E-02  0.51109989000E-03 0.  1.
     -623    1    1    2    0    0 -0.81144396712E-03 -0.22151049180E-02  0.31974645246E-02  0.17130000005E+03  0.17130000000E+03 0. -1.
      622    1    1    2    0    0  0.25185552389E-02  0.44885918888E-03  0.39961575657E+01  0.39974093904E+01  0.10000000000E+00 0.  1.
</event>
<event>
 5   0  0.6262544E+06  0.9118800E+02  0.7818608E-02  0.1180000E+00
       11   -1    0    0    0    0  0.00000000000E+00  0.00000000000E+00  0.39999999673E+01  0.40000000000E+01  0.51109989000E-03 0. -1.
     -623   -1    0    0    0    0  0.00000000000E+00  0.00000000000E+00  0.12525980253E-10  0.17130000000E+03  0.17130000000E+03 0.  1.
       11    1    1    2    0    0  0.48625255549E-02  0.71403240140E-02  0.60873449948E+00  0.60879600890E+00  0.51109989000E-03 0. -1.
     -623    1    1    2    0    0 -0.26162523456E-01 -0.18567937085E-01  0.16253983718E-02  0.17130000301E+03  0.17130000000E+03 0.  1.
      622    1    1    2    0    0  0.21299997902E-01  0.11427613071E-01  0.33896400695E+01  0.33912009792E+01  0.10000000000E+00 0. -1.
</event>
<event>
 5   0  0.6262544E+06  0.9118800E+02  0.7818608E-02  0.1180000E+00
       11   -1    0    0    0    0  0.00000000000E+00  0.00000000000E+00  0.39999999673E+01  0.40000000000E+01  0.51109989000E-03 0. -1.
     -623   -1    0    0    0    0  0.00000000000E+00  0.00000000000E+00  0.12525980253E-10  0.17130000000E+03  0.17130000000E+03 0.  1.
       11    1    1    2    0    0 -0.78035758814E-01  0.15024782110E-01  0.60994767337E+00  0.61510303950E+00  0.51109989000E-03 0. -1.
     -623    1    1    2    0    0 -0.32616455769E-02 -0.18215098478E-01  0.76123350741E-02  0.17130000117E+03  0.17130000000E+03 0.  1.
      622    1    1    2    0    0  0.81297404391E-01  0.31903163681E-02  0.33824399590E+01  0.33848957919E+01  0.10000000000E+00 0. -1.
</event>
<event>
 5   0  0.6262544E+06  0.9118800E+02  0.7818608E-02  0.1180000E+00
       11   -1    0    0    0    0  0.00000000000E+00  0.00000000000E+00  0.39999999673E+01  0.40000000000E+01  0.51109989000E-03 0. -1.
     -623   -1    0    0    0    0  0.00000000000E+00  0.00000000000E+00  0.12525980253E-10  0.17130000000E+03  0.17130000000E+03 0. -1.
       11    1    1    2    0    0 -0.10009509124E-02  0.23506437431E-02  0.88622171572E-02  0.92372909868E-02  0.51109989000E-03 0. -1.
     -623    1    1    2    0    0  0.39759696108E-02 -0.69511107142E-02  0.16320880163E-02  0.17130000019E+03  0.17130000000E+03 0. -1.
      622    1    1    2    0    0 -0.29750186985E-02  0.46004669712E-02  0.39895056622E+01  0.39907625141E+01  0.10000000000E+00 0. -1.
</event>
<event>
 5   0  0.6262544E+06  0.9118800E+02  0.7818608E-02  0.1180000E+00
       11   -1    0    0    0    0  0.00000000000E+00  0.00000000000E+00  0.39999999673E+01  0.40000000000E+01  0.51109989000E-03 0.  1.
     -623   -1    0    0    0    0  0.00000000000E+00  0.00000000000E+00  0.12525980253E-10  0.17130000000E+03  0.17130000000E+03 0.  1.
       11    1    1    2    0    0 -0.41048016665E-02  0.91328462671E-02  0.76359007735E+00  0.76365589484E+00  0.51109989000E-03 0.  1.
     -623    1    1    2    0    0  0.88462304016E-02 -0.21073062904E-01  0.16381518384E-02  0.17130000153E+03  0.17130000000E+03 0.  1.
      622    1    1    2    0    0 -0.47414287347E-02  0.11940216636E-01  0.32347717380E+01  0.32363425726E+01  0.10000000000E+00 0.  1.
</event>
<event>
 5   0  0.6262544E+06  0.9118800E+02  0.7818608E-02  0.1180000E+00
       11   -1    0    0    0    0  0.00000000000E+00  0.00000000000E+00  0.39999999673E+01  0.40000000000E+01  0.51109989000E-03 0. -1.
     -623   -1    0    0    0    0  0.00000000000E+00  0.00000000000E+00  0.12525980253E-10  0.17130000000E+03  0.17130000000E+03 0.  1.
       11    1    1    2    0    0  0.67457271212E-02  0.33779898840E-01  0.31172643154E+01  0.31174546764E+01  0.51109989000E-03 0. -1.
     -623    1    1    2    0    0 -0.27230235407E-01  0.14220695572E-01  0.74314594600E-02  0.17130000292E+03  0.17130000000E+03 0.  1.
      622    1    1    2    0    0  0.20484508286E-01 -0.48000594412E-01  0.87530419255E+00  0.88254240784E+00  0.10000000000E+00 0.  1.
</event>
<event>
 5   0  0.6262544E+06  0.9118800E+02  0.7818608E-02  0.1180000E+00
       11   -1    0    0    0    0  0.00000000000E+00  0.00000000000E+00  0.39999999673E+01  0.40000000000E+01  0.51109989000E-03 0.  1.
     -623   -1    0    0    0    0  0.00000000000E+00  0.00000000000E+00  0.12525980253E-10  0.17130000000E+03  0.17130000000E+03 0. -1.
       11    1    1    2    0    0 -0.18896673703E-02 -0.59306517686E-02  0.40652721393E+00  0.40657518415E+00  0.51109989000E-03 0.  1.
     -623    1    1    2    0    0  0.18157124131E-02 -0.40911736095E-03  0.14452490000E-02  0.17130000002E+03  0.17130000000E+03 0. -1.
      622    1    1    2    0    0  0.73954957087E-04  0.63397691296E-02  0.35920275047E+01  0.35934247999E+01  0.10000000000E+00 0.  1.
</event>
<event>
 5   0  0.6262544E+06  0.9118800E+02  0.7818608E-02  0.1180000E+00
       11   -1    0    0    0    0  0.00000000000E+00  0.00000000000E+00  0.39999999673E+01  0.40000000000E+01  0.51109989000E-03 0. -1.
     -623   -1    0    0    0    0  0.00000000000E+00  0.00000000000E+00  0.12525980253E-10  0.17130000000E+03  0.17130000000E+03 0.  1.
       11    1    1    2    0    0  0.55500684805E-01 -0.13039505502E-01  0.27459460960E+00  0.28045109299E+00  0.51109989000E-03 0. -1.
     -623    1    1    2    0    0 -0.15265006791E-01 -0.85947605201E-02  0.74826526874E-02  0.17130000106E+03  0.17130000000E+03 0.  1.
      622    1    1    2    0    0 -0.40235678014E-01  0.21634266022E-01  0.37179227052E+01  0.37195478479E+01  0.10000000000E+00 0. -1.
</event>
<event>
 5   0  0.6262544E+06  0.9118800E+02  0.7818608E-02  0.1180000E+00
       11   -1    0    0    0    0  0.00000000000E+00  0.00000000000E+00  0.39999999673E+01  0.40000000000E+01  0.51109989000E-03 0.  1.
     -623   -1    0    0    0    0  0.00000000000E+00  0.00000000000E+00  0.12525980253E-10  0.17130000000E+03  0.17130000000E+03 0.  1.
       11    1    1    2    0    0  0.13364381482E-01  0.96359751609E-01  0.26561972677E+01  0.26579781780E+01  0.51109989000E-03 0.  1.
     -623    1    1    2    0    0 -0.19278737639E-02 -0.75781788860E-02  0.85092625710E-02  0.17130000039E+03  0.17130000000E+03 0.  1.
      622    1    1    2    0    0 -0.11436507718E-01 -0.88781572723E-01  0.13352934371E+01  0.13420214322E+01  0.10000000000E+00 0.  0.
</event>
<event>
 5   0  0.6262544E+06  0.9118800E+02  0.7818608E-02  0.1180000E+00
       11   -1    0    0    0    0  0.00000000000E+00  0.00000000000E+00  0.39999999673E+01  0.40000000000E+01  0.51109989000E-03 0. -1.
     -623   -1    0    0    0    0  0.00000000000E+00  0.00000000000E+00  0.12525980253E-10  0.17130000000E+03  0.17130000000E+03 0.  1.
       11    1    1    2    0    0 -0.65209245113E-02  0.50732211089E-02  0.45975702658E-01  0.46714949287E-01  0.51109989000E-03 0. -1.
     -623    1    1    2    0    0  0.99339974126E-02 -0.10473986008E-01  0.20099716606E-02  0.17130000062E+03  0.17130000000E+03 0.  1.
      622    1    1    2    0    0 -0.34130729008E-02  0.54007648989E-02  0.39520142929E+01  0.39532844305E+01  0.10000000000E+00 0. -1.
</event>
<event>
 5   0  0.6262544E+06  0.9118800E+02  0.7818608E-02  0.1180000E+00
       11   -1    0    0    0    0  0.00000000000E+00  0.00000000000E+00  0.39999999673E+01  0.40000000000E+01  0.51109989000E-03 0. -1.
     -623   -1    0    0    0    0  0.00000000000E+00  0.00000000000E+00  0.12525980253E-10  0.17130000000E+03  0.17130000000E+03 0.  1.
       11    1    1    2    0    0 -0.11908979247E-01 -0.13326770950E-01  0.48742075743E+00  0.48774858545E+00  0.51109989000E-03 0. -1.
     -623    1    1    2    0    0  0.17553572303E-02  0.27578095866E-02  0.17823038432E-02  0.17130000004E+03  0.17130000000E+03 0.  1.
      622    1    1    2    0    0  0.10153622017E-01  0.10568961363E-01  0.35107969061E+01  0.35122513741E+01  0.10000000000E+00 0. -1.
</event>
<event>
 5   0  0.6262544E+06  0.9118800E+02  0.7818608E-02  0.1180000E+00
       11   -1    0    0    0    0  0.00000000000E+00  0.00000000000E+00  0.39999999673E+01  0.40000000000E+01  0.51109989000E-03 0. -1.
     -623   -1    0    0    0    0  0.00000000000E+00  0.00000000000E+00  0.12525980253E-10  0.17130000000E+03  0.17130000000E+03 0.  1.
       11    1    1    2    0    0  0.34779188990E-03 -0.75355979981E-02  0.17550539972E-01  0.19109915562E-01  0.51109989000E-03 0. -1.
     -623    1    1    2    0    0 -0.56752255369E-02  0.20431049623E-01  0.28413369700E-02  0.17130000134E+03  0.17130000000E+03 0.  1.
      622    1    1    2    0    0  0.53274336469E-02 -0.12895451625E-01  0.39796080903E+01  0.39808887484E+01  0.10000000000E+00 0. -1.
</event>
<event>
 5   0  0.6262544E+06  0.9118800E+02  0.7818608E-02  0.1180000E+00
       11   -1    0    0    0    0  0.00000000000E+00  0.00000000000E+00  0.39999999673E+01  0.40000000000E+01  0.51109989000E-03 0.  1.
     -623   -1    0    0    0    0  0.00000000000E+00  0.00000000000E+00  0.12525980253E-10  0.17130000000E+03  0.17130000000E+03 0. -1.
       11    1    1    2    0    0  0.23715824246E-02  0.31708977998E-03  0.18149157645E-01  0.18313331086E-01  0.51109989000E-03 0.  1.
     -623    1    1    2    0    0 -0.63460211809E-02 -0.58458713238E-02  0.14261353710E-02  0.17130000022E+03  0.17130000000E+03 0. -1.
      622    1    1    2    0    0  0.39744387565E-02  0.55287815440E-02  0.39804246745E+01  0.39816864458E+01  0.10000000000E+00 0.  1.
</event>
<event>
 5   0  0.6262544E+06  0.9118800E+02  0.7818608E-02  0.1180000E+00
       11   -1    0    0    0    0  0.00000000000E+00  0.00000000000E+00  0.39999999673E+01  0.40000000000E+01  0.51109989000E-03 0.  1.
     -623   -1    0    0    0    0  0.00000000000E+00  0.00000000000E+00  0.12525980253E-10  0.17130000000E+03  0.17130000000E+03 0. -1.
       11    1    1    2    0    0  0.19064524959E-03  0.10078258162E-02 -0.60968081183E-03  0.12980725237E-02  0.51109989000E-03 0.  1.
     -623    1    1    2    0    0  0.50923549306E-04  0.76188967488E-03  0.31587519089E-02  0.17130000003E+03  0.17130000000E+03 0. -1.
      622    1    1    2    0    0 -0.24156879889E-03 -0.17697154911E-02  0.39974508964E+01  0.39987018968E+01  0.10000000000E+00 0.  1.
</event>
<event>
 5   0  0.6262544E+06  0.9118800E+02  0.7818608E-02  0.1180000E+00
       11   -1    0    0    0    0  0.00000000000E+00  0.00000000000E+00  0.39999999673E+01  0.40000000000E+01  0.51109989000E-03 0.  1.
     -623   -1    0    0    0    0  0.00000000000E+00  0.00000000000E+00  0.12525980253E-10  0.17130000000E+03  0.17130000000E+03 0. -1.
       11    1    1    2    0    0  0.41520063210E-02  0.11956133545E-01  0.31540856483E+00  0.31566281421E+00  0.51109989000E-03 0.  1.
     -623    1    1    2    0    0  0.14926164297E-02 -0.17788415250E-02  0.16299736776E-02  0.17130000002E+03  0.17130000000E+03 0. -1.
      622    1    1    2    0    0 -0.56446227508E-02 -0.10177292020E-01  0.36829614290E+01  0.36843371624E+01  0.10000000000E+00 0.  1.
</event>
<event>
 5   0  0.6262544E+06  0.9118800E+02  0.7818608E-02  0.1180000E+00
       11   -1    0    0    0    0  0.00000000000E+00  0.00000000000E+00  0.39999999673E+01  0.40000000000E+01  0.51109989000E-03 0.  1.
     -623   -1    0    0    0    0  0.00000000000E+00  0.00000000000E+00  0.12525980253E-10  0.17130000000E+03  0.17130000000E+03 0. -1.
       11    1    1    2    0    0  0.40202388397E-02 -0.85210701822E-02  0.34353605464E-01  0.35625866829E-01  0.51109989000E-03 0.  1.
     -623    1    1    2    0    0 -0.16798553491E-02 -0.18820565778E-02  0.25480452031E-02  0.17130000004E+03  0.17130000000E+03 0. -1.
      622    1    1    2    0    0 -0.23403834906E-02  0.10403126760E-01  0.39630983167E+01  0.39643740956E+01  0.10000000000E+00 0.  1.
</event>
<event>
 5   0  0.6262544E+06  0.9118800E+02  0.7818608E-02  0.1180000E+00
       11   -1    0    0    0    0  0.00000000000E+00  0.00000000000E+00  0.39999999673E+01  0.40000000000E+01  0.51109989000E-03 0.  1.
     -623   -1    0    0    0    0  0.00000000000E+00  0.00000000000E+00  0.12525980253E-10  0.17130000000E+03  0.17130000000E+03 0.  1.
       11    1    1    2    0    0 -0.56783547489E-02 -0.14156957636E-03  0.42055697385E-01  0.42440625090E-01  0.51109989000E-03 0.  1.
     -623    1    1    2    0    0  0.96785705824E-02  0.68180474228E-02  0.16565747596E-02  0.17130000042E+03  0.17130000000E+03 0.  1.
      622    1    1    2    0    0 -0.40002158335E-02 -0.66764778465E-02  0.39562876952E+01  0.39575589578E+01  0.10000000000E+00 0.  1.
</event>
<event>
 5   0  0.6262544E+06  0.9118800E+02  0.7818608E-02  0.1180000E+00
       11   -1    0    0    0    0  0.00000000000E+00  0.00000000000E+00  0.39999999673E+01  0.40000000000E+01  0.51109989000E-03 0.  1.
     -623   -1    0    0    0    0  0.00000000000E+00  0.00000000000E+00  0.12525980253E-10  0.17130000000E+03  0.17130000000E+03 0. -1.
       11    1    1    2    0    0 -0.95670909234E-02 -0.85859338538E-02  0.94285768974E-01  0.95159418572E-01  0.51109989000E-03 0.  1.
     -623    1    1    2    0    0  0.12612155221E-02 -0.19741354532E-02  0.21774391687E-02  0.17130000003E+03  0.17130000000E+03 0. -1.
      622    1    1    2    0    0  0.83058754012E-02  0.10560069307E-01  0.39035367593E+01  0.39048405516E+01  0.10000000000E+00 0.  1.
</event>
<event>
 5   0  0.6262544E+06  0.9118800E+02  0.7818608E-02  0.1180000E+00
       11   -1    0    0    0    0  0.00000000000E+00  0.00000000000E+00  0.39999999673E+01  0.40000000000E+01  0.51109989000E-03 0.  1.
     -623   -1    0    0    0    0  0.00000000000E+00  0.00000000000E+00  0.12525980253E-10  0.17130000000E+03  0.17130000000E+03 0. -1.
       11    1    1    2    0    0 -0.12945195763E-01  0.43444479461E-02  0.37321739811E-01  0.39744506589E-01  0.51109989000E-03 0.  1.
     -623    1    1    2    0    0  0.48219497763E-02 -0.14057142102E-01  0.37064132957E-02  0.17130000068E+03  0.17130000000E+03 0. -1.
      622    1    1    2    0    0  0.81232459870E-02  0.97126941558E-02  0.39589718143E+01  0.39602548087E+01  0.10000000000E+00 0.  1.
</event>
<event>
 5   0  0.6262544E+06  0.9118800E+02  0.7818608E-02  0.1180000E+00
       11   -1    0    0    0    0  0.00000000000E+00  0.00000000000E+00  0.39999999673E+01  0.40000000000E+01  0.51109989000E-03 0.  1.
     -623   -1    0    0    0    0  0.00000000000E+00  0.00000000000E+00  0.12525980253E-10  0.17130000000E+03  0.17130000000E+03 0.  1.
       11    1    1    2    0    0  0.11825463106E-01  0.20820431474E-01  0.11774163100E+00  0.12015275626E+00  0.51109989000E-03 0.  1.
     -623    1    1    2    0    0 -0.28824777184E-03  0.26694100946E-02  0.37883717492E-02  0.17130000006E+03  0.17130000000E+03 0.  1.
      622    1    1    2    0    0 -0.11537215334E-01 -0.23489841569E-01  0.38784699646E+01  0.38798471808E+01  0.10000000000E+00 0.  1.
</event>
<event>
 5   0  0.6262544E+06  0.9118800E+02  0.7818608E-02  0.1180000E+00
       11   -1    0    0    0    0  0.00000000000E+00  0.00000000000E+00  0.39999999673E+01  0.40000000000E+01  0.51109989000E-03 0. -1.
     -623   -1    0    0    0    0  0.00000000000E+00  0.00000000000E+00  0.12525980253E-10  0.17130000000E+03  0.17130000000E+03 0. -1.
       11    1    1    2    0    0  0.98141372424E-01  0.79675193394E-02  0.83815080064E+00  0.84391482757E+00  0.51109989000E-03 0. -1.
     -623    1    1    2    0    0 -0.23093497815E-01 -0.10353251259E-01  0.82444534762E-02  0.17130000207E+03  0.17130000000E+03 0. -1.
      622    1    1    2    0    0 -0.75047874609E-01  0.23857319196E-02  0.31536047133E+01  0.31560831046E+01  0.10000000000E+00 0. -1.
</event>
<event>
 5   0  0.6262544E+06  0.9118800E+02  0.7818608E-02  0.1180000E+00
       11   -1    0    0    0    0  0.00000000000E+00  0.00000000000E+00  0.39999999673E+01  0.40000000000E+01  0.51109989000E-03 0.  1.
     -623   -1    0    0    0    0  0.00000000000E+00  0.00000000000E+00  0.12525980253E-10  0.17130000000E+03  0.17130000000E+03 0. -1.
       11    1    1    2    0    0 -0.99709745904E-02  0.18371976549E-01  0.65656649796E+00  0.65689936621E+00  0.51109989000E-03 0.  1.
     -623    1    1    2    0    0  0.38572947926E-01  0.19015885281E-02  0.20170676335E-02  0.17130000437E+03  0.17130000000E+03 0. -1.
      622    1    1    2    0    0 -0.28601973337E-01 -0.20273565078E-01  0.33414164019E+01  0.33430962686E+01  0.10000000000E+00 0.  1.
</event>
<event>
 5   0  0.6262544E+06  0.9118800E+02  0.7818608E-02  0.1180000E+00
       11   -1    0    0    0    0  0.00000000000E+00  0.00000000000E+00  0.39999999673E+01  0.40000000000E+01  0.51109989000E-03 0. -1.
     -623   -1    0    0    0    0  0.00000000000E+00  0.00000000000E+00  0.12525980253E-10  0.17130000000E+03  0.17130000000E+03 0. -1.
       11    1    1    2    0    0 -0.21468766230E-01 -0.21640132861E-01  0.60858423261E+00  0.60934738260E+00  0.51109989000E-03 0. -1.
     -623    1    1    2    0    0  0.13299457615E-02  0.72224968180E-04  0.23665643787E-02  0.17130000002E+03  0.17130000000E+03 0. -1.
      622    1    1    2    0    0  0.20138820469E-01  0.21567907893E-01  0.33890491704E+01  0.33906525959E+01  0.10000000000E+00 0.  0.
</event>
<event>
 5   0  0.6262544E+06  0.9118800E+02  0.7818608E-02  0.1180000E+00
       11   -1    0    0    0    0  0.00000000000E+00  0.00000000000E+00  0.39999999673E+01  0.40000000000E+01  0.51109989000E-03 0. -1.
     -623   -1    0    0    0    0  0.00000000000E+00  0.00000000000E+00  0.12525980253E-10  0.17130000000E+03  0.17130000000E+03 0.  1.
       11    1    1    2    0    0 -0.47400966073E-02 -0.48488760283E-03  0.60126383367E-01  0.60317052579E-01  0.51109989000E-03 0. -1.
     -623    1    1    2    0    0 -0.10503669267E-02  0.17088828873E-02  0.14644436528E-02  0.17130000002E+03  0.17130000000E+03 0.  1.
      622    1    1    2    0    0  0.57904635340E-02 -0.12239952845E-02  0.39384091404E+01  0.39396829295E+01  0.10000000000E+00 0. -1.
</event>
<event>
 5   0  0.6262544E+06  0.9118800E+02  0.7818608E-02  0.1180000E+00
       11   -1    0    0    0    0  0.00000000000E+00  0.00000000000E+00  0.39999999673E+01  0.40000000000E+01  0.51109989000E-03 0. -1.
     -623   -1    0    0    0    0  0.00000000000E+00  0.00000000000E+00  0.12525980253E-10  0.17130000000E+03  0.17130000000E+03 0. -1.
       11    1    1    2    0    0 -0.30991464556E-03 -0.74904553761E-03  0.95800995617E-02  0.96279097947E-02  0.51109989000E-03 0. -1.
     -623    1    1    2    0    0  0.38785856202E-02  0.31826031480E-02  0.13034073878E-02  0.17130000008E+03  0.17130000000E+03 0. -1.
      622    1    1    2    0    0 -0.35686709745E-02 -0.24335576102E-02  0.39891164602E+01  0.39903720115E+01  0.10000000000E+00 0. -1.
</event>
<event>
 5   0  0.6262544E+06  0.9118800E+02  0.7818608E-02  0.1180000E+00
       11   -1    0    0    0    0  0.00000000000E+00  0.00000000000E+00  0.39999999673E+01  0.40000000000E+01  0.51109989000E-03 0. -1.
     -623   -1    0    0    0    0  0.00000000000E+00  0.00000000000E+00  0.12525980253E-10  0.17130000000E+03  0.17130000000E+03 0.  1.
       11    1    1    2    0    0 -0.10358840558E-02 -0.38359648032E-02  0.14685628299E-02  0.42667999287E-02  0.51109989000E-03 0. -1.
     -623    1    1    2    0    0 -0.12037041220E-01  0.28293133205E-01  0.41488116818E-02  0.17130000281E+03  0.17130000000E+03 0.  1.
      622    1    1    2    0    0  0.13072925276E-01 -0.24457168403E-01  0.39943825929E+01  0.39957303904E+01  0.10000000000E+00 0. -1.
</event>
<event>
 5   0  0.6262544E+06  0.9118800E+02  0.7818608E-02  0.1180000E+00
       11   -1    0    0    0    0  0.00000000000E+00  0.00000000000E+00  0.39999999673E+01  0.40000000000E+01  0.51109989000E-03 0.  1.
     -623   -1    0    0    0    0  0.00000000000E+00  0.00000000000E+00  0.12525980253E-10  0.17130000000E+03  0.17130000000E+03 0. -1.
       11    1    1    2    0    0 -0.53666614948E-01 -0.95298740807E-02  0.10275775543E+01  0.10290222619E+01  0.51109989000E-03 0.  1.
     -623    1    1    2    0    0  0.60247555782E-02  0.11634312233E-01  0.35116104000E-02  0.17130000054E+03  0.17130000000E+03 0. -1.
      622    1    1    2    0    0  0.47641859370E-01 -0.21044381521E-02  0.29689108027E+01  0.29709772012E+01  0.10000000000E+00 0.  1.
</event>
<event>
 5   0  0.6262544E+06  0.9118800E+02  0.7818608E-02  0.1180000E+00
       11   -1    0    0    0    0  0.00000000000E+00  0.00000000000E+00  0.39999999673E+01  0.40000000000E+01  0.51109989000E-03 0. -1.
     -623   -1    0    0    0    0  0.00000000000E+00  0.00000000000E+00  0.12525980253E-10  0.17130000000E+03  0.17130000000E+03 0. -1.
       11    1    1    2    0    0  0.14122962475E-01 -0.21100472247E-01  0.65194830245E+00  0.65244274714E+00  0.51109989000E-03 0. -1.
     -623    1    1    2    0    0 -0.10191165173E-02  0.92539576911E-02  0.20352668956E-02  0.17130000027E+03  0.17130000000E+03 0. -1.
      622    1    1    2    0    0 -0.13103845958E-01  0.11846514556E-01  0.33460163981E+01  0.33475569879E+01  0.10000000000E+00 0.  0.
</event>
<event>
 5   0  0.6262544E+06  0.9118800E+02  0.7818608E-02  0.1180000E+00
       11   -1    0    0    0    0  0.00000000000E+00  0.00000000000E+00  0.39999999673E+01  0.40000000000E+01  0.51109989000E-03 0.  1.
     -623   -1    0    0    0    0  0.00000000000E+00  0.00000000000E+00  0.12525980253E-10  0.17130000000E+03  0.17130000000E+03 0.  1.
       11    1    1    2    0    0 -0.16624551659E-01 -0.89161052473E-01  0.16193287303E+00  0.18560330165E+00  0.51109989000E-03 0.  1.
     -623    1    1    2    0    0  0.15269470450E-01  0.20743885946E-01  0.25599381493E-01  0.17130000385E+03  0.17130000000E+03 0.  1.
      622    1    1    2    0    0  0.13550812082E-02  0.68417166526E-01  0.38124677128E+01  0.38143928490E+01  0.10000000000E+00 0.  1.
</event>
<event>
 5   0  0.6262544E+06  0.9118800E+02  0.7818608E-02  0.1180000E+00
       11   -1    0    0    0    0  0.00000000000E+00  0.00000000000E+00  0.39999999673E+01  0.40000000000E+01  0.51109989000E-03 0.  1.
     -623   -1    0    0    0    0  0.00000000000E+00  0.00000000000E+00  0.12525980253E-10  0.17130000000E+03  0.17130000000E+03 0.  1.
       11    1    1    2    0    0 -0.28936728161E-02  0.28393652034E-02  0.56941797189E-02  0.70085834535E-02  0.51109989000E-03 0.  1.
     -623    1    1    2    0    0 -0.36839953326E-02 -0.10019814914E-02  0.25726656904E-02  0.17130000006E+03  0.17130000000E+03 0.  1.
      622    1    1    2    0    0  0.65776681486E-02 -0.18373837119E-02  0.39917331220E+01  0.39929913547E+01  0.10000000000E+00 0.  1.
</event>
<event>
 5   0  0.6262544E+06  0.9118800E+02  0.7818608E-02  0.1180000E+00
       11   -1    0    0    0    0  0.00000000000E+00  0.00000000000E+00  0.39999999673E+01  0.40000000000E+01  0.51109989000E-03 0.  1.
     -623   -1    0    0    0    0  0.00000000000E+00  0.00000000000E+00  0.12525980253E-10  0.17130000000E+03  0.17130000000E+03 0.  1.
       11    1    1    2    0    0 -0.33683375540E-01  0.29591520725E-02  0.96085111191E+00  0.96144601868E+00  0.51109989000E-03 0.  1.
     -623    1    1    2    0    0  0.33457882599E-01  0.76149504322E-02  0.22627102699E-02  0.17130000345E+03  0.17130000000E+03 0.  1.
      622    1    1    2    0    0  0.22549294039E-03 -0.10574102505E-01  0.30368861452E+01  0.30385505297E+01  0.10000000000E+00 0.  1.
</event>
<event>
 5   0  0.6262544E+06  0.9118800E+02  0.7818608E-02  0.1180000E+00
       11   -1    0    0    0    0  0.00000000000E+00  0.00000000000E+00  0.39999999673E+01  0.40000000000E+01  0.51109989000E-03 0. -1.
     -623   -1    0    0    0    0  0.00000000000E+00  0.00000000000E+00  0.12525980253E-10  0.17130000000E+03  0.17130000000E+03 0. -1.
       11    1    1    2    0    0  0.99650930492E-02  0.24821882640E-01  0.43810117582E-01  0.51332412401E-01  0.51109989000E-03 0. -1.
     -623    1    1    2    0    0 -0.16089565510E-01 -0.10716959522E-01  0.88199847562E-02  0.17130000132E+03  0.17130000000E+03 0. -1.
      622    1    1    2    0    0  0.61244724611E-02 -0.14104923117E-01  0.39473698650E+01  0.39486662697E+01  0.10000000000E+00 0. -1.
</event>
<event>
 5   0  0.6262544E+06  0.9118800E+02  0.7818608E-02  0.1180000E+00
       11   -1    0    0    0    0  0.00000000000E+00  0.00000000000E+00  0.39999999673E+01  0.40000000000E+01  0.51109989000E-03 0. -1.
     -623   -1    0    0    0    0  0.00000000000E+00  0.00000000000E+00  0.12525980253E-10  0.17130000000E+03  0.17130000000E+03 0.  1.
       11    1    1    2    0    0  0.14765473050E-01 -0.22144488818E-02  0.44807922790E-01  0.47232765580E-01  0.51109989000E-03 0. -1.
     -623    1    1    2    0    0 -0.67294641174E-02 -0.68281901080E-02  0.37087756551E-02  0.17130000031E+03  0.17130000000E+03 0.  1.
      622    1    1    2    0    0 -0.80360089329E-02  0.90426389899E-02  0.39514832689E+01  0.39527669260E+01  0.10000000000E+00 0. -1.
</event>
<event>
 5   0  0.6262544E+06  0.9118800E+02  0.7818608E-02  0.1180000E+00
       11   -1    0    0    0    0  0.00000000000E+00  0.00000000000E+00  0.39999999673E+01  0.40000000000E+01  0.51109989000E-03 0. -1.
     -623   -1    0    0    0    0  0.00000000000E+00  0.00000000000E+00  0.12525980253E-10  0.17130000000E+03  0.17130000000E+03 0.  1.
       11    1    1    2    0    0  0.24143488989E-01  0.80519325283E-01  0.48712902300E+00  0.49432905647E+00  0.51109989000E-03 0. -1.
     -623    1    1    2    0    0  0.39144716300E-02 -0.77419881632E-02  0.94952024535E-02  0.17130000048E+03  0.17130000000E+03 0.  1.
      622    1    1    2    0    0 -0.28057960619E-01 -0.72777337120E-01  0.35033757419E+01  0.35056704607E+01  0.10000000000E+00 0. -1.
</event>
<event>
 5   0  0.6262544E+06  0.9118800E+02  0.7818608E-02  0.1180000E+00
       11   -1    0    0    0    0  0.00000000000E+00  0.00000000000E+00  0.39999999673E+01  0.40000000000E+01  0.51109989000E-03 0. -1.
     -623   -1    0    0    0    0  0.00000000000E+00  0.00000000000E+00  0.12525980253E-10  0.17130000000E+03  0.17130000000E+03 0. -1.
       11    1    1    2    0    0  0.80964374624E-02  0.23454673038E-01  0.16992408737E+00  0.17172690727E+00  0.51109989000E-03 0. -1.
     -623    1    1    2    0    0 -0.10916132618E-01  0.56525567639E-02  0.32212861985E-02  0.17130000047E+03  0.17130000000E+03 0. -1.
      622    1    1    2    0    0  0.28196951563E-02 -0.29107229802E-01  0.38268545939E+01  0.38282726215E+01  0.10000000000E+00 0. -1.
</event>
<event>
 5   0  0.6262544E+06  0.9118800E+02  0.7818608E-02  0.1180000E+00
       11   -1    0    0    0    0  0.00000000000E+00  0.00000000000E+00  0.39999999673E+01  0.40000000000E+01  0.51109989000E-03 0.  1.
     -623   -1    0    0    0    0  0.00000000000E+00  0.00000000000E+00  0.12525980253E-10  0.17130000000E+03  0.17130000000E+03 0. -1.
       11    1    1    2    0    0  0.18427531820E-01  0.52540416400E-03  0.42763681674E+00  0.42803429563E+00  0.51109989000E-03 0.  1.
     -623    1    1    2    0    0 -0.63476144064E-02  0.24599264097E-02  0.18193375213E-02  0.17130000014E+03  0.17130000000E+03 0. -1.
      622    1    1    2    0    0 -0.12079917414E-01 -0.29853305737E-02  0.35705438131E+01  0.35719655594E+01  0.10000000000E+00 0.  1.
</event>
<event>
 5   0  0.6262544E+06  0.9118800E+02  0.7818608E-02  0.1180000E+00
       11   -1    0    0    0    0  0.00000000000E+00  0.00000000000E+00  0.39999999673E+01  0.40000000000E+01  0.51109989000E-03 0. -1.
     -623   -1    0    0    0    0  0.00000000000E+00  0.00000000000E+00  0.12525980253E-10  0.17130000000E+03  0.17130000000E+03 0. -1.
       11    1    1    2    0    0 -0.36824474008E-02  0.12771287198E-01  0.21518635435E+00  0.21559706518E+00  0.51109989000E-03 0. -1.
     -623    1    1    2    0    0  0.41689857049E-02 -0.16093745327E-01  0.17344273384E-02  0.17130000082E+03  0.17130000000E+03 0. -1.
      622    1    1    2    0    0 -0.48653830412E-03  0.33224581292E-02  0.37830791857E+01  0.37844021193E+01  0.10000000000E+00 0. -1.
</event>
<event>
 5   0  0.6262544E+06  0.9118800E+02  0.7818608E-02  0.1180000E+00
       11   -1    0    0    0    0  0.00000000000E+00  0.00000000000E+00  0.39999999673E+01  0.40000000000E+01  0.51109989000E-03 0. -1.
     -623   -1    0    0    0    0  0.00000000000E+00  0.00000000000E+00  0.12525980253E-10  0.17130000000E+03  0.17130000000E+03 0.  1.
       11    1    1    2    0    0 -0.91994723654E-02 -0.11365723458E-01  0.24281331957E+00  0.24325373449E+00  0.51109989000E-03 0. -1.
     -623    1    1    2    0    0 -0.93565522560E-02  0.10314478599E-01  0.18181243800E-02  0.17130000058E+03  0.17130000000E+03 0.  1.
      622    1    1    2    0    0  0.18556024622E-01  0.10512448584E-02  0.37553685235E+01  0.37567456899E+01  0.10000000000E+00 0. -1.
</event>
<event>
 5   0  0.6262544E+06  0.9118800E+02  0.7818608E-02  0.1180000E+00
       11   -1    0    0    0    0  0.00000000000E+00  0.00000000000E+00  0.39999999673E+01  0.40000000000E+01  0.51109989000E-03 0. -1.
     -623   -1    0    0    0    0  0.00000000000E+00  0.00000000000E+00  0.12525980253E-10  0.17130000000E+03  0.17130000000E+03 0.  1.
       11    1    1    2    0    0 -0.35479434008E-01  0.83146710384E-01  0.54672178235E+00  0.55414540890E+00  0.51109989000E-03 0. -1.
     -623    1    1    2    0    0  0.11370713345E-01 -0.94815525265E-01  0.90059254377E-02  0.17130002685E+03  0.17130000000E+03 0.  1.
      622    1    1    2    0    0  0.24108720663E-01  0.11668814881E-01  0.34442722596E+01  0.34458277365E+01  0.10000000000E+00 0. -1.
</event>
<event>
 5   0  0.6262544E+06  0.9118800E+02  0.7818608E-02  0.1180000E+00
       11   -1    0    0    0    0  0.00000000000E+00  0.00000000000E+00  0.39999999673E+01  0.40000000000E+01  0.51109989000E-03 0.  1.
     -623   -1    0    0    0    0  0.00000000000E+00  0.00000000000E+00  0.12525980253E-10  0.17130000000E+03  0.17130000000E+03 0. -1.
       11    1    1    2    0    0  0.42283754546E-01 -0.34838628265E-01  0.18632476614E+01  0.18640530451E+01  0.51109989000E-03 0.  1.
     -623    1    1    2    0    0  0.87198053018E-02  0.24001433982E-01  0.37866999421E-02  0.17130000195E+03  0.17130000000E+03 0. -1.
      622    1    1    2    0    0 -0.51003559848E-01  0.10837194283E-01  0.21329656060E+01  0.21359450097E+01  0.10000000000E+00 0.  1.
</event>
<event>
 5   0  0.6262544E+06  0.9118800E+02  0.7818608E-02  0.1180000E+00
       11   -1    0    0    0    0  0.00000000000E+00  0.00000000000E+00  0.39999999673E+01  0.40000000000E+01  0.51109989000E-03 0. -1.
     -623   -1    0    0    0    0  0.00000000000E+00  0.00000000000E+00  0.12525980253E-10  0.17130000000E+03  0.17130000000E+03 0.  1.
       11    1    1    2    0    0  0.95625736357E-02  0.28705448204E-01  0.83651055397E+00  0.83705771228E+00  0.51109989000E-03 0. -1.
     -623    1    1    2    0    0 -0.13054675235E-01 -0.74850017543E-02  0.22021530320E-02  0.17130000068E+03  0.17130000000E+03 0.  1.
      622    1    1    2    0    0  0.34921016002E-02 -0.21220446449E-01  0.31612872606E+01  0.31629416128E+01  0.10000000000E+00 0. -1.
</event>
<event>
 5   0  0.6262544E+06  0.9118800E+02  0.7818608E-02  0.1180000E+00
       11   -1    0    0    0    0  0.00000000000E+00  0.00000000000E+00  0.39999999673E+01  0.40000000000E+01  0.51109989000E-03 0.  1.
     -623   -1    0    0    0    0  0.00000000000E+00  0.00000000000E+00  0.12525980253E-10  0.17130000000E+03  0.17130000000E+03 0.  1.
       11    1    1    2    0    0  0.25747570553E-02  0.22290166405E-02  0.18033192992E-01  0.18359062113E-01  0.51109989000E-03 0.  1.
     -623    1    1    2    0    0 -0.22125832921E-02 -0.71941811975E-02  0.15850842486E-02  0.17130000017E+03  0.17130000000E+03 0.  1.
      622    1    1    2    0    0 -0.36217376312E-03  0.49651645574E-02  0.39803816903E+01  0.39816407654E+01  0.10000000000E+00 0.  1.
</event>
<event>
 5   0  0.6262544E+06  0.9118800E+02  0.7818608E-02  0.1180000E+00
       11   -1    0    0    0    0  0.00000000000E+00  0.00000000000E+00  0.39999999673E+01  0.40000000000E+01  0.51109989000E-03 0.  1.
     -623   -1    0    0    0    0  0.00000000000E+00  0.00000000000E+00  0.12525980253E-10  0.17130000000E+03  0.17130000000E+03 0. -1.
       11    1    1    2    0    0  0.10872043584E-02  0.34836857447E-03 -0.26463223017E-02  0.29270495047E-02  0.51109989000E-03 0.  1.
     -623    1    1    2    0    0 -0.92879962210E-02 -0.13552856949E-01  0.68556088906E-02  0.17130000093E+03  0.17130000000E+03 0. -1.
      622    1    1    2    0    0  0.82007918626E-02  0.13204488374E-01  0.39957906808E+01  0.39970720254E+01  0.10000000000E+00 0.  1.
</event>
<event>
 5   0  0.6262544E+06  0.9118800E+02  0.7818608E-02  0.1180000E+00
       11   -1    0    0    0    0  0.00000000000E+00  0.00000000000E+00  0.39999999673E+01  0.40000000000E+01  0.51109989000E-03 0.  1.
     -623   -1    0    0    0    0  0.00000000000E+00  0.00000000000E+00  0.12525980253E-10  0.17130000000E+03  0.17130000000E+03 0.  1.
       11    1    1    2    0    0 -0.12160204298E-01  0.29755989671E-01  0.76524720713E+00  0.76592221455E+00  0.51109989000E-03 0.  1.
     -623    1    1    2    0    0  0.93266215058E-02 -0.15356663789E-01  0.22556508791E-02  0.17130000096E+03  0.17130000000E+03 0.  1.
      622    1    1    2    0    0  0.28335827919E-02 -0.14399325882E-01  0.32324971093E+01  0.32340768284E+01  0.10000000000E+00 0.  0.
</event>
<event>
 5   0  0.6262544E+06  0.9118800E+02  0.7818608E-02  0.1180000E+00
       11   -1    0    0    0    0  0.00000000000E+00  0.00000000000E+00  0.39999999673E+01  0.40000000000E+01  0.51109989000E-03 0.  1.
     -623   -1    0    0    0    0  0.00000000000E+00  0.00000000000E+00  0.12525980253E-10  0.17130000000E+03  0.17130000000E+03 0.  1.
       11    1    1    2    0    0  0.29678767612E-01 -0.29681685707E-01  0.69288525762E+00  0.69415565486E+00  0.51109989000E-03 0.  1.
     -623    1    1    2    0    0  0.18534734495E-01 -0.30232252378E-01  0.36819372225E-02  0.17130000371E+03  0.17130000000E+03 0.  1.
      622    1    1    2    0    0 -0.48213502107E-01  0.59913938086E-01  0.33034327725E+01  0.33058406350E+01  0.10000000000E+00 0.  1.
</event>
<event>
 5   0  0.6262544E+06  0.9118800E+02  0.7818608E-02  0.1180000E+00
       11   -1    0    0    0    0  0.00000000000E+00  0.00000000000E+00  0.39999999673E+01  0.40000000000E+01  0.51109989000E-03 0.  1.
     -623   -1    0    0    0    0  0.00000000000E+00  0.00000000000E+00  0.12525980253E-10  0.17130000000E+03  0.17130000000E+03 0.  1.
       11    1    1    2    0    0 -0.14905305684E-01  0.74755752623E-01  0.18339800486E+01  0.18355635839E+01  0.51109989000E-03 0.  1.
     -623    1    1    2    0    0 -0.88256002493E-02  0.23638692336E-02  0.54012610783E-02  0.17130000033E+03  0.17130000000E+03 0.  1.
      622    1    1    2    0    0  0.23730905933E-01 -0.77119621856E-01  0.21606186577E+01  0.21644360873E+01  0.10000000000E+00 0.  0.
</event>
<event>
 5   0  0.6262544E+06  0.9118800E+02  0.7818608E-02  0.1180000E+00
       11   -1    0    0    0    0  0.00000000000E+00  0.00000000000E+00  0.39999999673E+01  0.40000000000E+01  0.51109989000E-03 0. -1.
     -623   -1    0    0    0    0  0.00000000000E+00  0.00000000000E+00  0.12525980253E-10  0.17130000000E+03  0.17130000000E+03 0. -1.
       11    1    1    2    0    0 -0.12556933817E-01 -0.83821631060E-02  0.75488305813E-01  0.76984951664E-01  0.51109989000E-03 0. -1.
     -623    1    1    2    0    0  0.30219040421E-02  0.67405673822E-02  0.27834671489E-02  0.17130000018E+03  0.17130000000E+03 0. -1.
      622    1    1    2    0    0  0.95350297749E-02  0.16415957236E-02  0.39217281945E+01  0.39230148665E+01  0.10000000000E+00 0. -1.
</event>
<event>
 5   0  0.6262544E+06  0.9118800E+02  0.7818608E-02  0.1180000E+00
       11   -1    0    0    0    0  0.00000000000E+00  0.00000000000E+00  0.39999999673E+01  0.40000000000E+01  0.51109989000E-03 0.  1.
     -623   -1    0    0    0    0  0.00000000000E+00  0.00000000000E+00  0.12525980253E-10  0.17130000000E+03  0.17130000000E+03 0.  1.
       11    1    1    2    0    0  0.13950484968E-01  0.93077761401E-02  0.73765666740E-01  0.75649755718E-01  0.51109989000E-03 0.  1.
     -623    1    1    2    0    0 -0.20141337565E-01 -0.11060115727E-01  0.31652065470E-02  0.17130000157E+03  0.17130000000E+03 0.  1.
      622    1    1    2    0    0  0.61908525979E-02  0.17523395874E-02  0.39230690942E+01  0.39243486740E+01  0.10000000000E+00 0.  1.
</event>
<event>
 5   0  0.6262544E+06  0.9118800E+02  0.7818608E-02  0.1180000E+00
       11   -1    0    0    0    0  0.00000000000E+00  0.00000000000E+00  0.39999999673E+01  0.40000000000E+01  0.51109989000E-03 0.  1.
     -623   -1    0    0    0    0  0.00000000000E+00  0.00000000000E+00  0.12525980253E-10  0.17130000000E+03  0.17130000000E+03 0.  1.
       11    1    1    2    0    0 -0.27121811282E-01 -0.15827736593E-01  0.25905353046E+00  0.26095038371E+00  0.51109989000E-03 0.  1.
     -623    1    1    2    0    0 -0.13410578565E-01  0.14325736727E-01  0.34555356790E-02  0.17130000116E+03  0.17130000000E+03 0.  1.
      622    1    1    2    0    0  0.40532389847E-01  0.15019998660E-02  0.37374909012E+01  0.37390484575E+01  0.10000000000E+00 0.  1.
</event>
<event>
 5   0  0.6262544E+06  0.9118800E+02  0.7818608E-02  0.1180000E+00
       11   -1    0    0    0    0  0.00000000000E+00  0.00000000000E+00  0.39999999673E+01  0.40000000000E+01  0.51109989000E-03 0.  1.
     -623   -1    0    0    0    0  0.00000000000E+00  0.00000000000E+00  0.12525980253E-10  0.17130000000E+03  0.17130000000E+03 0.  1.
       11    1    1    2    0    0  0.18028646188E-02 -0.50274430097E-02  0.35835021946E-01  0.36234452184E-01  0.51109989000E-03 0.  1.
     -623    1    1    2    0    0 -0.86408019691E-02  0.86375717031E-02  0.16690136615E-02  0.17130000044E+03  0.17130000000E+03 0.  1.
      622    1    1    2    0    0  0.68379373504E-02 -0.36101286935E-02  0.39624959318E+01  0.39637651040E+01  0.10000000000E+00 0.  1.
</event>
<event>
 5   0  0.6262544E+06  0.9118800E+02  0.7818608E-02  0.1180000E+00
       11   -1    0    0    0    0  0.00000000000E+00  0.00000000000E+00  0.39999999673E+01  0.40000000000E+01  0.51109989000E-03 0.  1.
     -623   -1    0    0    0    0  0.00000000000E+00  0.00000000000E+00  0.12525980253E-10  0.17130000000E+03  0.17130000000E+03 0.  1.
       11    1    1    2    0    0  0.42892105381E-02  0.10147450130E-01  0.51711388075E-01  0.52874350566E-01  0.51109989000E-03 0.  1.
     -623    1    1    2    0    0  0.10972459142E-01 -0.24824621330E-02  0.24672243080E-02  0.17130000039E+03  0.17130000000E+03 0.  1.
      622    1    1    2    0    0 -0.15261669680E-01 -0.76649879967E-02  0.39458213550E+01  0.39471252623E+01  0.10000000000E+00 0.  1.
</event>
<event>
 5   0  0.6262544E+06  0.9118800E+02  0.7818608E-02  0.1180000E+00
       11   -1    0    0    0    0  0.00000000000E+00  0.00000000000E+00  0.39999999673E+01  0.40000000000E+01  0.51109989000E-03 0.  1.
     -623   -1    0    0    0    0  0.00000000000E+00  0.00000000000E+00  0.12525980253E-10  0.17130000000E+03  0.17130000000E+03 0. -1.
       11    1    1    2    0    0  0.45643879794E-02  0.15721059438E-02  0.10482367509E-01  0.11551900554E-01  0.51109989000E-03 0.  1.
     -623    1    1    2    0    0 -0.23576789383E-02  0.10267075560E-02  0.23248105858E-02  0.17130000004E+03  0.17130000000E+03 0. -1.
      622    1    1    2    0    0 -0.22067090410E-02 -0.25988134998E-02  0.39871927894E+01  0.39884480645E+01  0.10000000000E+00 0.  1.
</event>
<event>
 5   0  0.6262544E+06  0.9118800E+02  0.7818608E-02  0.1180000E+00
       11   -1    0    0    0    0  0.00000000000E+00  0.00000000000E+00  0.39999999673E+01  0.40000000000E+01  0.51109989000E-03 0. -1.
     -623   -1    0    0    0    0  0.00000000000E+00  0.00000000000E+00  0.12525980253E-10  0.17130000000E+03  0.17130000000E+03 0. -1.
       11    1    1    2    0    0  0.34348467635E-02  0.54453644449E-03  0.52686994650E-01  0.52804122193E-01  0.51109989000E-03 0. -1.
     -623    1    1    2    0    0 -0.20947938638E-03 -0.68223758848E-02  0.13904740491E-02  0.17130000014E+03  0.17130000000E+03 0. -1.
      622    1    1    2    0    0 -0.32253673771E-02  0.62778394400E-02  0.39459224985E+01  0.39471957360E+01  0.10000000000E+00 0. -1.
</event>
<event>
 5   0  0.6262544E+06  0.9118800E+02  0.7818608E-02  0.1180000E+00
       11   -1    0    0    0    0  0.00000000000E+00  0.00000000000E+00  0.39999999673E+01  0.40000000000E+01  0.51109989000E-03 0.  1.
     -623   -1    0    0    0    0  0.00000000000E+00  0.00000000000E+00  0.12525980253E-10  0.17130000000E+03  0.17130000000E+03 0.  1.
       11    1    1    2    0    0 -0.76740158877E-02 -0.56462021266E-03  0.16730636006E-01  0.18422397241E-01  0.51109989000E-03 0.  1.
     -623    1    1    2    0    0  0.27950428086E-02 -0.16522404947E-02  0.29513741491E-02  0.17130000006E+03  0.17130000000E+03 0.  1.
      622    1    1    2    0    0  0.48789730791E-02  0.22168607074E-02  0.39803179572E+01  0.39815775465E+01  0.10000000000E+00 0.  1.
</event>
<event>
 5   0  0.6262544E+06  0.9118800E+02  0.7818608E-02  0.1180000E+00
       11   -1    0    0    0    0  0.00000000000E+00  0.00000000000E+00  0.39999999673E+01  0.40000000000E+01  0.51109989000E-03 0. -1.
     -623   -1    0    0    0    0  0.00000000000E+00  0.00000000000E+00  0.12525980253E-10  0.17130000000E+03  0.17130000000E+03 0.  1.
       11    1    1    2    0    0  0.71523246095E-02  0.98966804067E-02  0.34174603004E+00  0.34196448690E+00  0.51109989000E-03 0. -1.
     -623    1    1    2    0    0 -0.14469598550E-02 -0.96087470165E-02  0.15902789201E-02  0.17130000028E+03  0.17130000000E+03 0.  1.
      622    1    1    2    0    0 -0.57053647544E-02 -0.28793338980E-03  0.36566636586E+01  0.36580352303E+01  0.10000000000E+00 0. -1.
</event>
<event>
 5   0  0.6262544E+06  0.9118800E+02  0.7818608E-02  0.1180000E+00
       11   -1    0    0    0    0  0.00000000000E+00  0.00000000000E+00  0.39999999673E+01  0.40000000000E+01  0.51109989000E-03 0. -1.
     -623   -1    0    0    0    0  0.00000000000E+00  0.00000000000E+00  0.12525980253E-10  0.17130000000E+03  0.17130000000E+03 0.  1.
       11    1    1    2    0    0  0.28708602113E-02  0.22703890591E-01  0.15038926351E+00  0.15212133410E+00  0.51109989000E-03 0. -1.
     -623    1    1    2    0    0  0.40657325293E-02 -0.14511845851E-02  0.30967236826E-02  0.17130000008E+03  0.17130000000E+03 0.  1.
      622    1    1    2    0    0 -0.69365927406E-02 -0.21252706006E-01  0.38465139802E+01  0.38478785835E+01  0.10000000000E+00 0. -1.
</event>
<event>
 5   0  0.6262544E+06  0.9118800E+02  0.7818608E-02  0.1180000E+00
       11   -1    0    0    0    0  0.00000000000E+00  0.00000000000E+00  0.39999999673E+01  0.40000000000E+01  0.51109989000E-03 0. -1.
     -623   -1    0    0    0    0  0.00000000000E+00  0.00000000000E+00  0.12525980253E-10  0.17130000000E+03  0.17130000000E+03 0.  1.
       11    1    1    2    0    0  0.11001897810E-02 -0.70727953424E-03  0.23891925175E-01  0.23933156364E-01  0.51109989000E-03 0. -1.
     -623    1    1    2    0    0 -0.22306832230E-02 -0.41451500286E-03  0.12992606264E-02  0.17130000002E+03  0.17130000000E+03 0.  1.
      622    1    1    2    0    0  0.11304934422E-02  0.11217945371E-02  0.39748087818E+01  0.39760668239E+01  0.10000000000E+00 0. -1.
</event>
<event>
 5   0  0.6262544E+06  0.9118800E+02  0.7818608E-02  0.1180000E+00
       11   -1    0    0    0    0  0.00000000000E+00  0.00000000000E+00  0.39999999673E+01  0.40000000000E+01  0.51109989000E-03 0. -1.
     -623   -1    0    0    0    0  0.00000000000E+00  0.00000000000E+00  0.12525980253E-10  0.17130000000E+03  0.17130000000E+03 0. -1.
       11    1    1    2    0    0  0.46422431759E-01 -0.84196486610E-01  0.16036037759E+01  0.16064835579E+01  0.51109989000E-03 0. -1.
     -623    1    1    2    0    0 -0.41963972795E-02  0.32341178727E-02  0.67137871638E-02  0.17130000021E+03  0.17130000000E+03 0. -1.
      622    1    1    2    0    0 -0.42226034479E-01  0.80962368737E-01  0.23896824043E+01  0.23935162286E+01  0.10000000000E+00 0.  0.
</event>
<event>
 5   0  0.6262544E+06  0.9118800E+02  0.7818608E-02  0.1180000E+00
       11   -1    0    0    0    0  0.00000000000E+00  0.00000000000E+00  0.39999999673E+01  0.40000000000E+01  0.51109989000E-03 0. -1.
     -623   -1    0    0    0    0  0.00000000000E+00  0.00000000000E+00  0.12525980253E-10  0.17130000000E+03  0.17130000000E+03 0. -1.
       11    1    1    2    0    0  0.41652559397E-02 -0.28005685032E-01  0.92191342462E+00  0.92234824848E+00  0.51109989000E-03 0. -1.
     -623    1    1    2    0    0 -0.11804377399E-02  0.54453909294E-03  0.21838843435E-02  0.17130000002E+03  0.17130000000E+03 0. -1.
      622    1    1    2    0    0 -0.29848181998E-02  0.27461145939E-01  0.30759026584E+01  0.30776517327E+01  0.10000000000E+00 0.  1.
</event>
<event>
 5   0  0.6262544E+06  0.9118800E+02  0.7818608E-02  0.1180000E+00
       11   -1    0    0    0    0  0.00000000000E+00  0.00000000000E+00  0.39999999673E+01  0.40000000000E+01  0.51109989000E-03 0.  1.
     -623   -1    0    0    0    0  0.00000000000E+00  0.00000000000E+00  0.12525980253E-10  0.17130000000E+03  0.17130000000E+03 0.  1.
       11    1    1    2    0    0  0.19437945659E-01 -0.48822544569E-01  0.15702184925E+01  0.15710976577E+01  0.51109989000E-03 0.  1.
     -623    1    1    2    0    0 -0.20850745447E-02 -0.14335659467E-02  0.35210759916E-02  0.17130000005E+03  0.17130000000E+03 0.  1.
      622    1    1    2    0    0 -0.17352871114E-01  0.50256110516E-01  0.24262603989E+01  0.24289022875E+01  0.10000000000E+00 0.  1.
</event>
<event>
 5   0  0.6262544E+06  0.9118800E+02  0.7818608E-02  0.1180000E+00
       11   -1    0    0    0    0  0.00000000000E+00  0.00000000000E+00  0.39999999673E+01  0.40000000000E+01  0.51109989000E-03 0. -1.
     -623   -1    0    0    0    0  0.00000000000E+00  0.00000000000E+00  0.12525980253E-10  0.17130000000E+03  0.17130000000E+03 0. -1.
       11    1    1    2    0    0 -0.14880094704E-01  0.46934474931E-03  0.10132499781E+00  0.10241412942E+00  0.51109989000E-03 0. -1.
     -623    1    1    2    0    0  0.58445542091E-02 -0.11977645724E-01  0.24001635297E-02  0.17130000054E+03  0.17130000000E+03 0. -1.
      622    1    1    2    0    0  0.90355404945E-02  0.11508300975E-01  0.38962748060E+01  0.38975853353E+01  0.10000000000E+00 0. -1.
</event>
<event>
 5   0  0.6262544E+06  0.9118800E+02  0.7818608E-02  0.1180000E+00
       11   -1    0    0    0    0  0.00000000000E+00  0.00000000000E+00  0.39999999673E+01  0.40000000000E+01  0.51109989000E-03 0.  1.
     -623   -1    0    0    0    0  0.00000000000E+00  0.00000000000E+00  0.12525980253E-10  0.17130000000E+03  0.17130000000E+03 0.  1.
       11    1    1    2    0    0 -0.53067357372E-02 -0.26098080772E-01  0.15316073755E+00  0.15545978262E+00  0.51109989000E-03 0.  1.
     -623    1    1    2    0    0  0.66280788523E-02  0.14061761000E-02  0.36794994964E-02  0.17130000017E+03  0.17130000000E+03 0.  1.
      622    1    1    2    0    0 -0.13213431152E-02  0.24691904672E-01  0.38431597304E+01  0.38445400439E+01  0.10000000000E+00 0.  1.
</event>
<event>
 5   0  0.6262544E+06  0.9118800E+02  0.7818608E-02  0.1180000E+00
       11   -1    0    0    0    0  0.00000000000E+00  0.00000000000E+00  0.39999999673E+01  0.40000000000E+01  0.51109989000E-03 0.  1.
     -623   -1    0    0    0    0  0.00000000000E+00  0.00000000000E+00  0.12525980253E-10  0.17130000000E+03  0.17130000000E+03 0.  1.
       11    1    1    2    0    0 -0.36828221832E-02 -0.57013703709E-02  0.47921540357E+00  0.47926374059E+00  0.51109989000E-03 0.  1.
     -623    1    1    2    0    0 -0.30876049434E-02  0.41996343656E-02  0.14756669699E-02  0.17130000009E+03  0.17130000000E+03 0.  1.
      622    1    1    2    0    0  0.67704271266E-02  0.15017360053E-02  0.35193088969E+01  0.35207361738E+01  0.10000000000E+00 0.  1.
</event>
<event>
 5   0  0.6262544E+06  0.9118800E+02  0.7818608E-02  0.1180000E+00
       11   -1    0    0    0    0  0.00000000000E+00  0.00000000000E+00  0.39999999673E+01  0.40000000000E+01  0.51109989000E-03 0. -1.
     -623   -1    0    0    0    0  0.00000000000E+00  0.00000000000E+00  0.12525980253E-10  0.17130000000E+03  0.17130000000E+03 0.  1.
       11    1    1    2    0    0 -0.33928385161E-02 -0.15330391626E-03  0.39671892422E-02  0.52473487466E-02  0.51109989000E-03 0. -1.
     -623    1    1    2    0    0  0.59563924519E-02  0.46395084979E-02  0.25354928300E-02  0.17130000019E+03  0.17130000000E+03 0.  1.
      622    1    1    2    0    0 -0.25635539359E-02 -0.44862045817E-02  0.39934972854E+01  0.39947524662E+01  0.10000000000E+00 0. -1.
</event>
<event>
 5   0  0.6262544E+06  0.9118800E+02  0.7818608E-02  0.1180000E+00
       11   -1    0    0    0    0  0.00000000000E+00  0.00000000000E+00  0.39999999673E+01  0.40000000000E+01  0.51109989000E-03 0. -1.
     -623   -1    0    0    0    0  0.00000000000E+00  0.00000000000E+00  0.12525980253E-10  0.17130000000E+03  0.17130000000E+03 0. -1.
       11    1    1    2    0    0  0.12813013956E-02  0.10866968842E-02  0.22093615549E-01  0.22163296516E-01  0.51109989000E-03 0. -1.
     -623    1    1    2    0    0 -0.37000522618E-02 -0.25699790749E-02  0.13278882470E-02  0.17130000006E+03  0.17130000000E+03 0. -1.
      622    1    1    2    0    0  0.24187508662E-02  0.14832821907E-02  0.39765784636E+01  0.39778366391E+01  0.10000000000E+00 0. -1.
</event>
<event>
 5   0  0.6262544E+06  0.9118800E+02  0.7818608E-02  0.1180000E+00
       11   -1    0    0    0    0  0.00000000000E+00  0.00000000000E+00  0.39999999673E+01  0.40000000000E+01  0.51109989000E-03 0.  1.
     -623   -1    0    0    0    0  0.00000000000E+00  0.00000000000E+00  0.12525980253E-10  0.17130000000E+03  0.17130000000E+03 0.  1.
       11    1    1    2    0    0 -0.11826872837E-01 -0.15166046616E-02  0.64649409407E+00  0.64660424519E+00  0.51109989000E-03 0.  1.
     -623    1    1    2    0    0 -0.28666419981E-02  0.41321980587E-02  0.16347838515E-02  0.17130000008E+03  0.17130000000E+03 0.  1.
      622    1    1    2    0    0  0.14693514835E-01 -0.26155933971E-02  0.33518710894E+01  0.33533956732E+01  0.10000000000E+00 0. -1.
</event>
<event>
 5   0  0.6262544E+06  0.9118800E+02  0.7818608E-02  0.1180000E+00
       11   -1    0    0    0    0  0.00000000000E+00  0.00000000000E+00  0.39999999673E+01  0.40000000000E+01  0.51109989000E-03 0.  1.
     -623   -1    0    0    0    0  0.00000000000E+00  0.00000000000E+00  0.12525980253E-10  0.17130000000E+03  0.17130000000E+03 0. -1.
       11    1    1    2    0    0  0.18565496731E-01 -0.86867632502E-02  0.62519473544E+00  0.62553085932E+00  0.51109989000E-03 0.  1.
     -623    1    1    2    0    0 -0.58297357590E-02 -0.18287996312E-02  0.18586860533E-02  0.17130000012E+03  0.17130000000E+03 0. -1.
      622    1    1    2    0    0 -0.12735760972E-01  0.10515562881E-01  0.33729465459E+01  0.33744690216E+01  0.10000000000E+00 0.  1.
</event>
<event>
 5   0  0.6262544E+06  0.9118800E+02  0.7818608E-02  0.1180000E+00
       11   -1    0    0    0    0  0.00000000000E+00  0.00000000000E+00  0.39999999673E+01  0.40000000000E+01  0.51109989000E-03 0.  1.
     -623   -1    0    0    0    0  0.00000000000E+00  0.00000000000E+00  0.12525980253E-10  0.17130000000E+03  0.17130000000E+03 0.  1.
       11    1    1    2    0    0 -0.33211786280E-01 -0.75838920911E-01  0.80359484329E+00  0.80784868513E+00  0.51109989000E-03 0.  1.
     -623    1    1    2    0    0 -0.82655256485E-02  0.63549283309E-02  0.68473608317E-02  0.17130000045E+03  0.17130000000E+03 0.  1.
      622    1    1    2    0    0  0.41477311928E-01  0.69483992580E-01  0.31895577632E+01  0.31921508607E+01  0.10000000000E+00 0.  1.
</event>
<event>
 5   0  0.6262544E+06  0.9118800E+02  0.7818608E-02  0.1180000E+00
       11   -1    0    0    0    0  0.00000000000E+00  0.00000000000E+00  0.39999999673E+01  0.40000000000E+01  0.51109989000E-03 0. -1.
     -623   -1    0    0    0    0  0.00000000000E+00  0.00000000000E+00  0.12525980253E-10  0.17130000000E+03  0.17130000000E+03 0.  1.
       11    1    1    2    0    0  0.17166821101E-01  0.12030971611E-01  0.67778036756E+00  0.67810466146E+00  0.51109989000E-03 0. -1.
     -623    1    1    2    0    0 -0.13917480806E-01 -0.68943288810E-03  0.18513040241E-02  0.17130000058E+03  0.17130000000E+03 0.  1.
      622    1    1    2    0    0 -0.32493402948E-02 -0.11341538723E-01  0.33203682959E+01  0.33218947619E+01  0.10000000000E+00 0. -1.
</event>
<event>
 5   0  0.6262544E+06  0.9118800E+02  0.7818608E-02  0.1180000E+00
       11   -1    0    0    0    0  0.00000000000E+00  0.00000000000E+00  0.39999999673E+01  0.40000000000E+01  0.51109989000E-03 0.  1.
     -623   -1    0    0    0    0  0.00000000000E+00  0.00000000000E+00  0.12525980253E-10  0.17130000000E+03  0.17130000000E+03 0.  1.
       11    1    1    2    0    0  0.18420114651E-02  0.52073834939E-02  0.11112574939E+00  0.11126411483E+00  0.51109989000E-03 0.  1.
     -623    1    1    2    0    0 -0.36764749084E-02  0.12606452338E-01  0.14660681555E-02  0.17130000051E+03  0.17130000000E+03 0.  1.
      622    1    1    2    0    0  0.18344634434E-02 -0.17813835832E-01  0.38874081498E+01  0.38887353756E+01  0.10000000000E+00 0.  1.
</event>
<event>
 5   0  0.6262544E+06  0.9118800E+02  0.7818608E-02  0.1180000E+00
       11   -1    0    0    0    0  0.00000000000E+00  0.00000000000E+00  0.39999999673E+01  0.40000000000E+01  0.51109989000E-03 0. -1.
     -623   -1    0    0    0    0  0.00000000000E+00  0.00000000000E+00  0.12525980253E-10  0.17130000000E+03  0.17130000000E+03 0.  1.
       11    1    1    2    0    0  0.10527683733E-02  0.85243014157E-02  0.85002733422E+00  0.85007088068E+00  0.51109989000E-03 0. -1.
     -623    1    1    2    0    0 -0.16963127119E-02 -0.62458982917E-03  0.16412453203E-02  0.17130000002E+03  0.17130000000E+03 0.  1.
      622    1    1    2    0    0  0.64354433859E-03 -0.78997115865E-02  0.31483313879E+01  0.31499291020E+01  0.10000000000E+00 0. -1.
</event>
<event>
 5   0  0.6262544E+06  0.9118800E+02  0.7818608E-02  0.1180000E+00
       11   -1    0    0    0    0  0.00000000000E+00  0.00000000000E+00  0.39999999673E+01  0.40000000000E+01  0.51109989000E-03 0.  1.
     -623   -1    0    0    0    0  0.00000000000E+00  0.00000000000E+00  0.12525980253E-10  0.17130000000E+03  0.17130000000E+03 0. -1.
       11    1    1    2    0    0 -0.34946554825E-02  0.41398200855E-02  0.61966855423E-01  0.62205330323E-01  0.51109989000E-03 0.  1.
     -623    1    1    2    0    0 -0.10280051268E-01 -0.19577062096E-02  0.15334250475E-02  0.17130000033E+03  0.17130000000E+03 0. -1.
      622    1    1    2    0    0  0.13774706751E-01 -0.21821138759E-02  0.39364996869E+01  0.39377943432E+01  0.10000000000E+00 0.  1.
</event>
<event>
 5   0  0.6262544E+06  0.9118800E+02  0.7818608E-02  0.1180000E+00
       11   -1    0    0    0    0  0.00000000000E+00  0.00000000000E+00  0.39999999673E+01  0.40000000000E+01  0.51109989000E-03 0.  1.
     -623   -1    0    0    0    0  0.00000000000E+00  0.00000000000E+00  0.12525980253E-10  0.17130000000E+03  0.17130000000E+03 0. -1.
       11    1    1    2    0    0  0.48225491114E-02  0.15950782953E-02  0.40899790065E-01  0.41217172443E-01  0.51109989000E-03 0.  1.
     -623    1    1    2    0    0  0.61795566905E-03 -0.29928378934E-02  0.15845867902E-02  0.17130000003E+03  0.17130000000E+03 0. -1.
      622    1    1    2    0    0 -0.54405047804E-02  0.13977595981E-02  0.39575155905E+01  0.39587827930E+01  0.10000000000E+00 0.  1.
</event>
<event>
 5   0  0.6262544E+06  0.9118800E+02  0.7818608E-02  0.1180000E+00
       11   -1    0    0    0    0  0.00000000000E+00  0.00000000000E+00  0.39999999673E+01  0.40000000000E+01  0.51109989000E-03 0. -1.
     -623   -1    0    0    0    0  0.00000000000E+00  0.00000000000E+00  0.12525980253E-10  0.17130000000E+03  0.17130000000E+03 0. -1.
       11    1    1    2    0    0  0.22484369067E-02  0.33824095600E-02  0.57194569996E-02  0.70334610558E-02  0.51109989000E-03 0. -1.
     -623    1    1    2    0    0 -0.17895148840E-02 -0.36490828875E-02  0.25664724019E-02  0.17130000007E+03  0.17130000000E+03 0. -1.
      622    1    1    2    0    0 -0.45892202261E-03  0.26667332761E-03  0.39917140381E+01  0.39929664716E+01  0.10000000000E+00 0. -1.
</event>
<event>
 5   0  0.6262544E+06  0.9118800E+02  0.7818608E-02  0.1180000E+00
       11   -1    0    0    0    0  0.00000000000E+00  0.00000000000E+00  0.39999999673E+01  0.40000000000E+01  0.51109989000E-03 0. -1.
     -623   -1    0    0    0    0  0.00000000000E+00  0.00000000000E+00  0.12525980253E-10  0.17130000000E+03  0.17130000000E+03 0. -1.
       11    1    1    2    0    0 -0.12632929978E-01 -0.16879940345E-02  0.75030780131E-01  0.76107288966E-01  0.51109989000E-03 0. -1.
     -623    1    1    2    0    0  0.22480035302E-01 -0.21615297064E-01  0.24353652339E-02  0.17130000286E+03  0.17130000000E+03 0. -1.
      622    1    1    2    0    0 -0.98471053243E-02  0.23303291099E-01  0.39225338220E+01  0.39238898550E+01  0.10000000000E+00 0. -1.
</event>
<event>
 5   0  0.6262544E+06  0.9118800E+02  0.7818608E-02  0.1180000E+00
       11   -1    0    0    0    0  0.00000000000E+00  0.00000000000E+00  0.39999999673E+01  0.40000000000E+01  0.51109989000E-03 0.  1.
     -623   -1    0    0    0    0  0.00000000000E+00  0.00000000000E+00  0.12525980253E-10  0.17130000000E+03  0.17130000000E+03 0.  1.
       11    1    1    2    0    0  0.29051106662E-01  0.62457404128E-02  0.12347721753E+01  0.12351297754E+01  0.51109989000E-03 0.  1.
     -623    1    1    2    0    0  0.39683904193E-02 -0.12361049642E-01  0.23711429899E-02  0.17130000051E+03  0.17130000000E+03 0.  1.
      622    1    1    2    0    0 -0.33019497081E-01  0.61153092291E-02  0.27628566491E+01  0.27648697162E+01  0.10000000000E+00 0.  1.
</event>
<event>
 5   0  0.6262544E+06  0.9118800E+02  0.7818608E-02  0.1180000E+00
       11   -1    0    0    0    0  0.00000000000E+00  0.00000000000E+00  0.39999999673E+01  0.40000000000E+01  0.51109989000E-03 0.  1.
     -623   -1    0    0    0    0  0.00000000000E+00  0.00000000000E+00  0.12525980253E-10  0.17130000000E+03  0.17130000000E+03 0. -1.
       11    1    1    2    0    0  0.56733391956E-01 -0.18585714204E-01  0.48802553502E+00  0.49166379834E+00  0.51109989000E-03 0.  1.
     -623    1    1    2    0    0 -0.25629740236E-03 -0.89586420898E-02  0.56270085079E-02  0.17130000033E+03  0.17130000000E+03 0. -1.
      622    1    1    2    0    0 -0.56477094553E-01  0.27544356293E-01  0.35063474238E+01  0.35083358747E+01  0.10000000000E+00 0.  1.
</event>
<event>
 5   0  0.6262544E+06  0.9118800E+02  0.7818608E-02  0.1180000E+00
       11   -1    0    0    0    0  0.00000000000E+00  0.00000000000E+00  0.39999999673E+01  0.40000000000E+01  0.51109989000E-03 0. -1.
     -623   -1    0    0    0    0  0.00000000000E+00  0.00000000000E+00  0.12525980253E-10  0.17130000000E+03  0.17130000000E+03 0.  1.
       11    1    1    2    0    0 -0.53654254150E-01 -0.24770063521E-01  0.32007814088E+00  0.32548826788E+00  0.51109989000E-03 0. -1.
     -623    1    1    2    0    0  0.12193365675E-01 -0.98057122712E-02  0.71686866950E-02  0.17130000086E+03  0.17130000000E+03 0.  1.
      622    1    1    2    0    0  0.41460888475E-01  0.34575775792E-01  0.36727531398E+01  0.36745108675E+01  0.10000000000E+00 0. -1.
</event>
<event>
 5   0  0.6262544E+06  0.9118800E+02  0.7818608E-02  0.1180000E+00
       11   -1    0    0    0    0  0.00000000000E+00  0.00000000000E+00  0.39999999673E+01  0.40000000000E+01  0.51109989000E-03 0. -1.
     -623   -1    0    0    0    0  0.00000000000E+00  0.00000000000E+00  0.12525980253E-10  0.17130000000E+03  0.17130000000E+03 0. -1.
       11    1    1    2    0    0 -0.82347400009E-02 -0.41604860642E-01  0.85009018592E+00  0.85114767273E+00  0.51109989000E-03 0. -1.
     -623    1    1    2    0    0  0.37083147448E-01  0.48129203619E-02  0.29971305626E-02  0.17130000411E+03  0.17130000000E+03 0. -1.
      622    1    1    2    0    0 -0.28848407449E-01  0.36791940280E-01  0.31469126511E+01  0.31488482198E+01  0.10000000000E+00 0. -1.
</event>
<event>
 5   0  0.6262544E+06  0.9118800E+02  0.7818608E-02  0.1180000E+00
       11   -1    0    0    0    0  0.00000000000E+00  0.00000000000E+00  0.39999999673E+01  0.40000000000E+01  0.51109989000E-03 0. -1.
     -623   -1    0    0    0    0  0.00000000000E+00  0.00000000000E+00  0.12525980253E-10  0.17130000000E+03  0.17130000000E+03 0.  1.
       11    1    1    2    0    0 -0.31587783722E-01  0.62142716902E-02  0.24194795562E+00  0.24408088763E+00  0.51109989000E-03 0. -1.
     -623    1    1    2    0    0  0.10843771308E-01  0.12431372476E-01  0.35688038007E-02  0.17130000083E+03  0.17130000000E+03 0.  1.
      622    1    1    2    0    0  0.20744012414E-01 -0.18645644166E-01  0.37544832079E+01  0.37559182809E+01  0.10000000000E+00 0.  1.
</event>
<event>
 5   0  0.6262544E+06  0.9118800E+02  0.7818608E-02  0.1180000E+00
       11   -1    0    0    0    0  0.00000000000E+00  0.00000000000E+00  0.39999999673E+01  0.40000000000E+01  0.51109989000E-03 0.  1.
     -623   -1    0    0    0    0  0.00000000000E+00  0.00000000000E+00  0.12525980253E-10  0.17130000000E+03  0.17130000000E+03 0. -1.
       11    1    1    2    0    0  0.29296245072E-01  0.27853040051E-01  0.16221895144E+01  0.16226931761E+01  0.51109989000E-03 0.  1.
     -623    1    1    2    0    0 -0.30466809196E-01 -0.24724816497E-01  0.26146466279E-02  0.17130000451E+03  0.17130000000E+03 0. -1.
      622    1    1    2    0    0  0.11705641235E-02 -0.31282235533E-02  0.23751958063E+01  0.23773023102E+01  0.10000000000E+00 0.  0.
</event>
<event>
 5   0  0.6262544E+06  0.9118800E+02  0.7818608E-02  0.1180000E+00
       11   -1    0    0    0    0  0.00000000000E+00  0.00000000000E+00  0.39999999673E+01  0.40000000000E+01  0.51109989000E-03 0. -1.
     -623   -1    0    0    0    0  0.00000000000E+00  0.00000000000E+00  0.12525980253E-10  0.17130000000E+03  0.17130000000E+03 0. -1.
       11    1    1    2    0    0 -0.30784135997E-01 -0.29281890472E-02  0.36442721905E-01  0.47797181121E-01  0.51109989000E-03 0. -1.
     -623    1    1    2    0    0  0.82983795603E-02  0.11901889507E-01  0.12695009227E-01  0.17130000108E+03  0.17130000000E+03 0. -1.
      622    1    1    2    0    0  0.22485756437E-01 -0.89737004598E-02  0.39508622362E+01  0.39522017340E+01  0.10000000000E+00 0. -1.
</event>
<event>
 5   0  0.6262544E+06  0.9118800E+02  0.7818608E-02  0.1180000E+00
       11   -1    0    0    0    0  0.00000000000E+00  0.00000000000E+00  0.39999999673E+01  0.40000000000E+01  0.51109989000E-03 0.  1.
     -623   -1    0    0    0    0  0.00000000000E+00  0.00000000000E+00  0.12525980253E-10  0.17130000000E+03  0.17130000000E+03 0.  1.
       11    1    1    2    0    0  0.62766836198E-02 -0.16019846360E-02  0.36877656029E-01  0.37445772116E-01  0.51109989000E-03 0.  1.
     -623    1    1    2    0    0 -0.54299706577E-02 -0.65736431356E-02  0.18388461846E-02  0.17130000022E+03  0.17130000000E+03 0.  1.
      622    1    1    2    0    0 -0.84671296190E-03  0.81756277718E-02  0.39612834653E+01  0.39625540059E+01  0.10000000000E+00 0.  1.
</event>
<event>
 5   0  0.6262544E+06  0.9118800E+02  0.7818608E-02  0.1180000E+00
       11   -1    0    0    0    0  0.00000000000E+00  0.00000000000E+00  0.39999999673E+01  0.40000000000E+01  0.51109989000E-03 0.  1.
     -623   -1    0    0    0    0  0.00000000000E+00  0.00000000000E+00  0.12525980253E-10  0.17130000000E+03  0.17130000000E+03 0.  1.
       11    1    1    2    0    0  0.15056030050E-01 -0.73588797006E-02  0.83094321201E-01  0.84768889280E-01  0.51109989000E-03 0.  1.
     -623    1    1    2    0    0 -0.11830917886E-01 -0.12007166777E-01  0.30019037404E-02  0.17130000086E+03  0.17130000000E+03 0.  1.
      622    1    1    2    0    0 -0.32251121634E-02  0.19366046478E-01  0.39139037424E+01  0.39152302550E+01  0.10000000000E+00 0.  1.
</event>
<event>
 5   0  0.6262544E+06  0.9118800E+02  0.7818608E-02  0.1180000E+00
       11   -1    0    0    0    0  0.00000000000E+00  0.00000000000E+00  0.39999999673E+01  0.40000000000E+01  0.51109989000E-03 0. -1.
     -623   -1    0    0    0    0  0.00000000000E+00  0.00000000000E+00  0.12525980253E-10  0.17130000000E+03  0.17130000000E+03 0.  1.
       11    1    1    2    0    0  0.91236522033E-03  0.15177712614E-02 -0.15597627936E-03  0.18497544687E-02  0.51109989000E-03 0. -1.
     -623    1    1    2    0    0  0.55881366078E-04 -0.12096987989E-02  0.32566364680E-02  0.17130000004E+03  0.17130000000E+03 0.  1.
      622    1    1    2    0    0 -0.96824658641E-03 -0.30807246248E-03  0.39968993071E+01  0.39981502102E+01  0.10000000000E+00 0. -1.
</event>
<event>
 5   0  0.6262544E+06  0.9118800E+02  0.7818608E-02  0.1180000E+00
       11   -1    0    0    0    0  0.00000000000E+00  0.00000000000E+00  0.39999999673E+01  0.40000000000E+01  0.51109989000E-03 0. -1.
     -623   -1    0    0    0    0  0.00000000000E+00  0.00000000000E+00  0.12525980253E-10  0.17130000000E+03  0.17130000000E+03 0.  1.
       11    1    1    2    0    0  0.18254104996E-02 -0.10982350102E-01 -0.58489419208E-02  0.12586321223E-01  0.51109989000E-03 0. -1.
     -623    1    1    2    0    0  0.27295505400E-01  0.42750352975E-01  0.19931012364E-01  0.17130000867E+03  0.17130000000E+03 0.  1.
      622    1    1    2    0    0 -0.29120915899E-01 -0.31768002874E-01  0.39859178969E+01  0.39874050101E+01  0.10000000000E+00 0. -1.
</event>
<event>
 5   0  0.6262544E+06  0.9118800E+02  0.7818608E-02  0.1180000E+00
       11   -1    0    0    0    0  0.00000000000E+00  0.00000000000E+00  0.39999999673E+01  0.40000000000E+01  0.51109989000E-03 0.  1.
     -623   -1    0    0    0    0  0.00000000000E+00  0.00000000000E+00  0.12525980253E-10  0.17130000000E+03  0.17130000000E+03 0. -1.
       11    1    1    2    0    0 -0.35354174200E-01  0.16197180571E-01  0.87294875808E+00  0.87381466098E+00  0.51109989000E-03 0.  1.
     -623    1    1    2    0    0  0.37691924092E-01 -0.64182969644E-02  0.24861370539E-02  0.17130000429E+03  0.17130000000E+03 0. -1.
      622    1    1    2    0    0 -0.23377498922E-02 -0.97788836062E-02  0.31245650723E+01  0.31261810540E+01  0.10000000000E+00 0.  1.
</event>
<event>
 5   0  0.6262544E+06  0.9118800E+02  0.7818608E-02  0.1180000E+00
       11   -1    0    0    0    0  0.00000000000E+00  0.00000000000E+00  0.39999999673E+01  0.40000000000E+01  0.51109989000E-03 0.  1.
     -623   -1    0    0    0    0  0.00000000000E+00  0.00000000000E+00  0.12525980253E-10  0.17130000000E+03  0.17130000000E+03 0. -1.
       11    1    1    2    0    0  0.90300019722E-02  0.28252703906E-01  0.62471593780E-01  0.69157193879E-01  0.51109989000E-03 0.  1.
     -623    1    1    2    0    0 -0.17121228104E-01  0.20601164300E-01  0.82720874287E-02  0.17130000229E+03  0.17130000000E+03 0. -1.
      622    1    1    2    0    0  0.80912261321E-02 -0.48853868205E-01  0.39292562862E+01  0.39308405120E+01  0.10000000000E+00 0.  1.
</event>
<event>
 5   0  0.6262544E+06  0.9118800E+02  0.7818608E-02  0.1180000E+00
       11   -1    0    0    0    0  0.00000000000E+00  0.00000000000E+00  0.39999999673E+01  0.40000000000E+01  0.51109989000E-03 0.  1.
     -623   -1    0    0    0    0  0.00000000000E+00  0.00000000000E+00  0.12525980253E-10  0.17130000000E+03  0.17130000000E+03 0. -1.
       11    1    1    2    0    0 -0.14855782605E-01  0.12127355029E-01  0.20333489330E-01  0.27954946374E-01  0.51109989000E-03 0.  1.
     -623    1    1    2    0    0  0.62151478677E-02 -0.28068912889E-01  0.89244689099E-02  0.17130000264E+03  0.17130000000E+03 0. -1.
      622    1    1    2    0    0  0.86406347375E-02  0.15941557859E-01  0.39707420091E+01  0.39720424087E+01  0.10000000000E+00 0.  1.
</event>
<event>
 5   0  0.6262544E+06  0.9118800E+02  0.7818608E-02  0.1180000E+00
       11   -1    0    0    0    0  0.00000000000E+00  0.00000000000E+00  0.39999999673E+01  0.40000000000E+01  0.51109989000E-03 0.  1.
     -623   -1    0    0    0    0  0.00000000000E+00  0.00000000000E+00  0.12525980253E-10  0.17130000000E+03  0.17130000000E+03 0.  1.
       11    1    1    2    0    0 -0.46407848192E-01 -0.28808497394E-01  0.10931005036E+01  0.10944645221E+01  0.51109989000E-03 0.  1.
     -623    1    1    2    0    0  0.48702946095E-02 -0.53587043639E-02  0.35836800045E-02  0.17130000019E+03  0.17130000000E+03 0.  1.
      622    1    1    2    0    0  0.41537553582E-01  0.34167201758E-01  0.29033157838E+01  0.29055352874E+01  0.10000000000E+00 0.  1.
</event>
<event>
 5   0  0.6262544E+06  0.9118800E+02  0.7818608E-02  0.1180000E+00
       11   -1    0    0    0    0  0.00000000000E+00  0.00000000000E+00  0.39999999673E+01  0.40000000000E+01  0.51109989000E-03 0.  1.
     -623   -1    0    0    0    0  0.00000000000E+00  0.00000000000E+00  0.12525980253E-10  0.17130000000E+03  0.17130000000E+03 0.  1.
       11    1    1    2    0    0 -0.16181951232E-01  0.16753791158E-01  0.30796983934E+00  0.30884984739E+00  0.51109989000E-03 0.  1.
     -623    1    1    2    0    0 -0.20218726246E-01 -0.41627481299E-02  0.24371158591E-02  0.17130000126E+03  0.17130000000E+03 0.  1.
      622    1    1    2    0    0  0.36400677478E-01 -0.12591043028E-01  0.36895930123E+01  0.36911488917E+01  0.10000000000E+00 0.  0.
</event>
<event>
 5   0  0.6262544E+06  0.9118800E+02  0.7818608E-02  0.1180000E+00
       11   -1    0    0    0    0  0.00000000000E+00  0.00000000000E+00  0.39999999673E+01  0.40000000000E+01  0.51109989000E-03 0. -1.
     -623   -1    0    0    0    0  0.00000000000E+00  0.00000000000E+00  0.12525980253E-10  0.17130000000E+03  0.17130000000E+03 0. -1.
       11    1    1    2    0    0  0.16097827830E-02 -0.76792647003E-02  0.19564395980E-01  0.21085286781E-01  0.51109989000E-03 0. -1.
     -623    1    1    2    0    0 -0.45045500486E-02 -0.42345004396E-04  0.27863107672E-02  0.17130000008E+03  0.17130000000E+03 0. -1.
      622    1    1    2    0    0  0.28947672656E-02  0.77216097047E-02  0.39776492606E+01  0.39789146313E+01  0.10000000000E+00 0. -1.
</event>
<event>
 5   0  0.6262544E+06  0.9118800E+02  0.7818608E-02  0.1180000E+00
       11   -1    0    0    0    0  0.00000000000E+00  0.00000000000E+00  0.39999999673E+01  0.40000000000E+01  0.51109989000E-03 0. -1.
     -623   -1    0    0    0    0  0.00000000000E+00  0.00000000000E+00  0.12525980253E-10  0.17130000000E+03  0.17130000000E+03 0.  1.
       11    1    1    2    0    0  0.27784814559E-02 -0.36351274371E-02  0.87583246411E-01  0.87704164015E-01  0.51109989000E-03 0. -1.
     -623    1    1    2    0    0 -0.38856045302E-02  0.29615830783E-02  0.13994058488E-02  0.17130000008E+03  0.17130000000E+03 0.  1.
      622    1    1    2    0    0  0.11071230742E-02  0.67354435883E-03  0.39110173151E+01  0.39122957606E+01  0.10000000000E+00 0. -1.
</event>
<event>
 5   0  0.6262544E+06  0.9118800E+02  0.7818608E-02  0.1180000E+00
       11   -1    0    0    0    0  0.00000000000E+00  0.00000000000E+00  0.39999999673E+01  0.40000000000E+01  0.51109989000E-03 0. -1.
     -623   -1    0    0    0    0  0.00000000000E+00  0.00000000000E+00  0.12525980253E-10  0.17130000000E+03  0.17130000000E+03 0. -1.
       11    1    1    2    0    0  0.29433976103E-02  0.92633491057E-02  0.53514199137E-02  0.11107301355E-01  0.51109989000E-03 0. -1.
     -623    1    1    2    0    0  0.95650022408E-02 -0.52231629062E-02  0.70316825664E-02  0.17130000049E+03  0.17130000000E+03 0. -1.
      622    1    1    2    0    0 -0.12508399851E-01 -0.40401861994E-02  0.39876168649E+01  0.39888922076E+01  0.10000000000E+00 0. -1.
</event>
<event>
 5   0  0.6262544E+06  0.9118800E+02  0.7818608E-02  0.1180000E+00
       11   -1    0    0    0    0  0.00000000000E+00  0.00000000000E+00  0.39999999673E+01  0.40000000000E+01  0.51109989000E-03 0. -1.
     -623   -1    0    0    0    0  0.00000000000E+00  0.00000000000E+00  0.12525980253E-10  0.17130000000E+03  0.17130000000E+03 0. -1.
       11    1    1    2    0    0  0.15009888670E-02  0.12387111930E-02  0.13356791813E-01  0.13507497216E-01  0.51109989000E-03 0. -1.
     -623    1    1    2    0    0 -0.25424928582E-02  0.35975256763E-02  0.14082385499E-02  0.17130000006E+03  0.17130000000E+03 0. -1.
      622    1    1    2    0    0  0.10415039912E-02 -0.48362368693E-02  0.39852349370E+01  0.39864924404E+01  0.10000000000E+00 0. -1.
</event>
<event>
 5   0  0.6262544E+06  0.9118800E+02  0.7818608E-02  0.1180000E+00
       11   -1    0    0    0    0  0.00000000000E+00  0.00000000000E+00  0.39999999673E+01  0.40000000000E+01  0.51109989000E-03 0. -1.
     -623   -1    0    0    0    0  0.00000000000E+00  0.00000000000E+00  0.12525980253E-10  0.17130000000E+03  0.17130000000E+03 0. -1.
       11    1    1    2    0    0  0.89836909523E-02 -0.46470510164E-02  0.11800742190E-01  0.15550579529E-01  0.51109989000E-03 0. -1.
     -623    1    1    2    0    0  0.58652672334E-03  0.17373842660E-01  0.50376662265E-02  0.17130000096E+03  0.17130000000E+03 0. -1.
      622    1    1    2    0    0 -0.95702176756E-02 -0.12726791644E-01  0.39831615589E+01  0.39844484643E+01  0.10000000000E+00 0. -1.
</event>
<event>
 5   0  0.6262544E+06  0.9118800E+02  0.7818608E-02  0.1180000E+00
       11   -1    0    0    0    0  0.00000000000E+00  0.00000000000E+00  0.39999999673E+01  0.40000000000E+01  0.51109989000E-03 0.  1.
     -623   -1    0    0    0    0  0.00000000000E+00  0.00000000000E+00  0.12525980253E-10  0.17130000000E+03  0.17130000000E+03 0. -1.
       11    1    1    2    0    0 -0.46698055872E-02  0.15055112982E-01  0.44122732809E+00  0.44150909366E+00  0.51109989000E-03 0.  1.
     -623    1    1    2    0    0  0.30360058188E-02 -0.23136045770E-02  0.17103469116E-02  0.17130000005E+03  0.17130000000E+03 0. -1.
      622    1    1    2    0    0  0.16337997683E-02 -0.12741508405E-01  0.35570622924E+01  0.35584908553E+01  0.10000000000E+00 0.  0.
</event>
<event>
 5   0  0.6262544E+06  0.9118800E+02  0.7818608E-02  0.1180000E+00
       11   -1    0    0    0    0  0.00000000000E+00  0.00000000000E+00  0.39999999673E+01  0.40000000000E+01  0.51109989000E-03 0.  1.
     -623   -1    0    0    0    0  0.00000000000E+00  0.00000000000E+00  0.12525980253E-10  0.17130000000E+03  0.17130000000E+03 0.  1.
       11    1    1    2    0    0 -0.39883113951E-02  0.38293467440E-01  0.53882992580E-01  0.66226387390E-01  0.51109989000E-03 0.  1.
     -623    1    1    2    0    0 -0.46307927703E-02 -0.29322624609E-01  0.13637405608E-01  0.17130000312E+03  0.17130000000E+03 0.  1.
      622    1    1    2    0    0  0.86191041654E-02 -0.89708428311E-02  0.39324795692E+01  0.39337704975E+01  0.10000000000E+00 0.  1.
</event>
<event>
 5   0  0.6262544E+06  0.9118800E+02  0.7818608E-02  0.1180000E+00
       11   -1    0    0    0    0  0.00000000000E+00  0.00000000000E+00  0.39999999673E+01  0.40000000000E+01  0.51109989000E-03 0. -1.
     -623   -1    0    0    0    0  0.00000000000E+00  0.00000000000E+00  0.12525980253E-10  0.17130000000E+03  0.17130000000E+03 0.  1.
       11    1    1    2    0    0  0.37549913706E-02 -0.14344975487E-02  0.27304594680E-01  0.27603620363E-01  0.51109989000E-03 0. -1.
     -623    1    1    2    0    0 -0.26915479205E-02  0.17349380926E-02  0.15580693770E-02  0.17130000004E+03  0.17130000000E+03 0.  1.
      622    1    1    2    0    0 -0.10634434501E-02 -0.30044054396E-03  0.39711373033E+01  0.39723963426E+01  0.10000000000E+00 0. -1.
</event>
<event>
 5   0  0.6262544E+06  0.9118800E+02  0.7818608E-02  0.1180000E+00
       11   -1    0    0    0    0  0.00000000000E+00  0.00000000000E+00  0.39999999673E+01  0.40000000000E+01  0.51109989000E-03 0. -1.
     -623   -1    0    0    0    0  0.00000000000E+00  0.00000000000E+00  0.12525980253E-10  0.17130000000E+03  0.17130000000E+03 0.  1.
       11    1    1    2    0    0 -0.25546385757E-01  0.25883126637E-01  0.45444388864E+00  0.45589698750E+00  0.51109989000E-03 0. -1.
     -623    1    1    2    0    0 -0.43163991455E-02 -0.17410944202E-02  0.30723601890E-02  0.17130000009E+03  0.17130000000E+03 0.  1.
      622    1    1    2    0    0  0.29862784902E-01 -0.24142032217E-01  0.35424837185E+01  0.35441029217E+01  0.10000000000E+00 0. -1.
</event>
<event>
 5   0  0.6262544E+06  0.9118800E+02  0.7818608E-02  0.1180000E+00
       11   -1    0    0    0    0  0.00000000000E+00  0.00000000000E+00  0.39999999673E+01  0.40000000000E+01  0.51109989000E-03 0. -1.
     -623   -1    0    0    0    0  0.00000000000E+00  0.00000000000E+00  0.12525980253E-10  0.17130000000E+03  0.17130000000E+03 0.  1.
       11    1    1    2    0    0  0.58410823592E-01 -0.33496920898E-01  0.34953295032E+00  0.35595984690E+00  0.51109989000E-03 0. -1.
     -623    1    1    2    0    0 -0.89435331287E-02 -0.26510299082E-01  0.86319684613E-02  0.17130000250E+03  0.17130000000E+03 0.  1.
      622    1    1    2    0    0 -0.49467290463E-01  0.60007219980E-01  0.36418350486E+01  0.36440376508E+01  0.10000000000E+00 0. -1.
</event>
<event>
 5   0  0.6262544E+06  0.9118800E+02  0.7818608E-02  0.1180000E+00
       11   -1    0    0    0    0  0.00000000000E+00  0.00000000000E+00  0.39999999673E+01  0.40000000000E+01  0.51109989000E-03 0. -1.
     -623   -1    0    0    0    0  0.00000000000E+00  0.00000000000E+00  0.12525980253E-10  0.17130000000E+03  0.17130000000E+03 0.  1.
       11    1    1    2    0    0  0.15377752081E-01  0.10513904022E+00  0.81222901402E+00  0.81915012389E+00  0.51109989000E-03 0. -1.
     -623    1    1    2    0    0 -0.39272127803E-01 -0.16977035076E-01  0.98114388432E-02  0.17130000562E+03  0.17130000000E+03 0.  1.
      622    1    1    2    0    0  0.23894375723E-01 -0.88162005149E-01  0.31779595145E+01  0.31808442521E+01  0.10000000000E+00 0. -1.
</event>
<event>
 5   0  0.6262544E+06  0.9118800E+02  0.7818608E-02  0.1180000E+00
       11   -1    0    0    0    0  0.00000000000E+00  0.00000000000E+00  0.39999999673E+01  0.40000000000E+01  0.51109989000E-03 0.  1.
     -623   -1    0    0    0    0  0.00000000000E+00  0.00000000000E+00  0.12525980253E-10  0.17130000000E+03  0.17130000000E+03 0. -1.
       11    1    1    2    0    0 -0.61385937507E-02  0.54145219377E-03  0.92658619018E-02  0.11139700256E-01  0.51109989000E-03 0.  1.
     -623    1    1    2    0    0 -0.97311934992E-02 -0.97526049418E-02  0.31702951246E-02  0.17130000058E+03  0.17130000000E+03 0. -1.
      622    1    1    2    0    0  0.15869787250E-01  0.92111527481E-02  0.39875638103E+01  0.39888597164E+01  0.10000000000E+00 0.  1.
</event>
<event>
 5   0  0.6262544E+06  0.9118800E+02  0.7818608E-02  0.1180000E+00
       11   -1    0    0    0    0  0.00000000000E+00  0.00000000000E+00  0.39999999673E+01  0.40000000000E+01  0.51109989000E-03 0. -1.
     -623   -1    0    0    0    0  0.00000000000E+00  0.00000000000E+00  0.12525980253E-10  0.17130000000E+03  0.17130000000E+03 0.  1.
       11    1    1    2    0    0 -0.31875261516E-02  0.11804820181E-01  0.87078605896E-01  0.87934401285E-01  0.51109989000E-03 0. -1.
     -623    1    1    2    0    0  0.41771937285E-02 -0.19488440480E-01  0.21429154059E-02  0.17130000117E+03  0.17130000000E+03 0.  1.
      622    1    1    2    0    0 -0.98966757688E-03  0.76836202992E-02  0.39107784461E+01  0.39120644258E+01  0.10000000000E+00 0. -1.
</event>
<event>
 5   0  0.6262544E+06  0.9118800E+02  0.7818608E-02  0.1180000E+00
       11   -1    0    0    0    0  0.00000000000E+00  0.00000000000E+00  0.39999999673E+01  0.40000000000E+01  0.51109989000E-03 0. -1.
     -623   -1    0    0    0    0  0.00000000000E+00  0.00000000000E+00  0.12525980253E-10  0.17130000000E+03  0.17130000000E+03 0. -1.
       11    1    1    2    0    0 -0.49684231198E-02  0.94418646588E-03  0.19067112776E-01  0.19733036489E-01  0.51109989000E-03 0. -1.
     -623    1    1    2    0    0  0.62206037425E-02 -0.45721613430E-03  0.19226377278E-02  0.17130000012E+03  0.17130000000E+03 0. -1.
      622    1    1    2    0    0 -0.12521806230E-02 -0.48697033157E-03  0.39790102170E+01  0.39802668393E+01  0.10000000000E+00 0. -1.
</event>
<event>
 5   0  0.6262544E+06  0.9118800E+02  0.7818608E-02  0.1180000E+00
       11   -1    0    0    0    0  0.00000000000E+00  0.00000000000E+00  0.39999999673E+01  0.40000000000E+01  0.51109989000E-03 0. -1.
     -623   -1    0    0    0    0  0.00000000000E+00  0.00000000000E+00  0.12525980253E-10  0.17130000000E+03  0.17130000000E+03 0.  1.
       11    1    1    2    0    0  0.22855434135E-01 -0.32493979322E-01  0.85243218634E-01  0.94047313129E-01  0.51109989000E-03 0. -1.
     -623    1    1    2    0    0  0.82793665019E-02  0.10229066374E-01  0.10272796297E-01  0.17130000081E+03  0.17130000000E+03 0.  1.
      622    1    1    2    0    0 -0.31134800637E-01  0.22264912948E-01  0.39044839524E+01  0.39059518734E+01  0.10000000000E+00 0. -1.
</event>
<event>
 5   0  0.6262544E+06  0.9118800E+02  0.7818608E-02  0.1180000E+00
       11   -1    0    0    0    0  0.00000000000E+00  0.00000000000E+00  0.39999999673E+01  0.40000000000E+01  0.51109989000E-03 0.  1.
     -623   -1    0    0    0    0  0.00000000000E+00  0.00000000000E+00  0.12525980253E-10  0.17130000000E+03  0.17130000000E+03 0.  1.
       11    1    1    2    0    0  0.40346249225E-02  0.42288521303E-02  0.18298258532E-01  0.19215849630E-01  0.51109989000E-03 0.  1.
     -623    1    1    2    0    0 -0.99522345489E-02  0.11541294243E-01  0.22101300508E-02  0.17130000069E+03  0.17130000000E+03 0.  1.
      622    1    1    2    0    0  0.59176096264E-02 -0.15770146373E-01  0.39794915788E+01  0.39807834582E+01  0.10000000000E+00 0.  1.
</event>
<event>
 5   0  0.6262544E+06  0.9118800E+02  0.7818608E-02  0.1180000E+00
       11   -1    0    0    0    0  0.00000000000E+00  0.00000000000E+00  0.39999999673E+01  0.40000000000E+01  0.51109989000E-03 0. -1.
     -623   -1    0    0    0    0  0.00000000000E+00  0.00000000000E+00  0.12525980253E-10  0.17130000000E+03  0.17130000000E+03 0. -1.
       11    1    1    2    0    0 -0.66716423652E-02 -0.84677612008E-02  0.46653801518E+00  0.46666282755E+00  0.51109989000E-03 0. -1.
     -623    1    1    2    0    0 -0.34152981345E-02 -0.12109699527E-02  0.15678670719E-02  0.17130000005E+03  0.17130000000E+03 0. -1.
      622    1    1    2    0    0  0.10086940500E-01  0.96787311535E-02  0.35318940851E+01  0.35333371270E+01  0.10000000000E+00 0.  0.
</event>
<event>
 5   0  0.6262544E+06  0.9118800E+02  0.7818608E-02  0.1180000E+00
       11   -1    0    0    0    0  0.00000000000E+00  0.00000000000E+00  0.39999999673E+01  0.40000000000E+01  0.51109989000E-03 0. -1.
     -623   -1    0    0    0    0  0.00000000000E+00  0.00000000000E+00  0.12525980253E-10  0.17130000000E+03  0.17130000000E+03 0.  1.
       11    1    1    2    0    0 -0.47697611146E-01  0.30217621055E-01  0.23148883680E+01  0.23155769442E+01  0.51109989000E-03 0. -1.
     -623    1    1    2    0    0  0.32541005612E-01  0.20215986824E-01  0.44887593711E-02  0.17130000434E+03  0.17130000000E+03 0.  1.
      622    1    1    2    0    0  0.15156605534E-01 -0.50433607879E-01  0.16806228400E+01  0.16844187133E+01  0.10000000000E+00 0. -1.
</event>
<event>
 5   0  0.6262544E+06  0.9118800E+02  0.7818608E-02  0.1180000E+00
       11   -1    0    0    0    0  0.00000000000E+00  0.00000000000E+00  0.39999999673E+01  0.40000000000E+01  0.51109989000E-03 0.  1.
     -623   -1    0    0    0    0  0.00000000000E+00  0.00000000000E+00  0.12525980253E-10  0.17130000000E+03  0.17130000000E+03 0. -1.
       11    1    1    2    0    0 -0.21802391529E-02 -0.46312976457E-03  0.88571527898E-02  0.91475848829E-02  0.51109989000E-03 0.  1.
     -623    1    1    2    0    0 -0.20016294563E-02  0.40344632796E-02  0.15473177220E-02  0.17130000007E+03  0.17130000000E+03 0. -1.
      622    1    1    2    0    0  0.41818686093E-02 -0.35713335150E-02  0.39895954968E+01  0.39908523489E+01  0.10000000000E+00 0.  1.
</event>
<event>
 5   0  0.6262544E+06  0.9118800E+02  0.7818608E-02  0.1180000E+00
       11   -1    0    0    0    0  0.00000000000E+00  0.00000000000E+00  0.39999999673E+01  0.40000000000E+01  0.51109989000E-03 0. -1.
     -623   -1    0    0    0    0  0.00000000000E+00  0.00000000000E+00  0.12525980253E-10  0.17130000000E+03  0.17130000000E+03 0.  1.
       11    1    1    2    0    0 -0.18586994780E-01  0.38035064381E-01  0.34421151164E+00  0.34680537549E+00  0.51109989000E-03 0. -1.
     -623    1    1    2    0    0 -0.78706654497E-02 -0.17417596774E-01  0.41179168752E-02  0.17130000112E+03  0.17130000000E+03 0.  1.
      622    1    1    2    0    0  0.26457660230E-01 -0.20617467606E-01  0.36516705390E+01  0.36531935088E+01  0.10000000000E+00 0. -1.
</event>
<event>
 5   0  0.6262544E+06  0.9118800E+02  0.7818608E-02  0.1180000E+00
       11   -1    0    0    0    0  0.00000000000E+00  0.00000000000E+00  0.39999999673E+01  0.40000000000E+01  0.51109989000E-03 0. -1.
     -623   -1    0    0    0    0  0.00000000000E+00  0.00000000000E+00  0.12525980253E-10  0.17130000000E+03  0.17130000000E+03 0.  1.
       11    1    1    2    0    0 -0.51088874206E-02 -0.10352831906E-01  0.91904456811E-01  0.92628139685E-01  0.51109989000E-03 0. -1.
     -623    1    1    2    0    0 -0.49776530887E-02  0.15423892997E-01  0.20205860143E-02  0.17130000078E+03  0.17130000000E+03 0.  1.
      622    1    1    2    0    0  0.10086540509E-01 -0.50710610912E-02  0.39060749245E+01  0.39073710817E+01  0.10000000000E+00 0. -1.
</event>
<event>
 5   0  0.6262544E+06  0.9118800E+02  0.7818608E-02  0.1180000E+00
       11   -1    0    0    0    0  0.00000000000E+00  0.00000000000E+00  0.39999999673E+01  0.40000000000E+01  0.51109989000E-03 0.  1.
     -623   -1    0    0    0    0  0.00000000000E+00  0.00000000000E+00  0.12525980253E-10  0.17130000000E+03  0.17130000000E+03 0.  1.
       11    1    1    2    0    0  0.20582562283E-02 -0.95550426084E-03  0.15309159380E-03  0.23311085833E-02  0.51109989000E-03 0.  1.
     -623    1    1    2    0    0 -0.38659609001E-02 -0.10629322002E-02  0.34299088048E-02  0.17130000008E+03  0.17130000000E+03 0.  1.
      622    1    1    2    0    0  0.18077046719E-02  0.20184364610E-02  0.39964169670E+01  0.39976688102E+01  0.10000000000E+00 0.  1.
</event>
<event>
 5   0  0.6262544E+06  0.9118800E+02  0.7818608E-02  0.1180000E+00
       11   -1    0    0    0    0  0.00000000000E+00  0.00000000000E+00  0.39999999673E+01  0.40000000000E+01  0.51109989000E-03 0.  1.
     -623   -1    0    0    0    0  0.00000000000E+00  0.00000000000E+00  0.12525980253E-10  0.17130000000E+03  0.17130000000E+03 0.  1.
       11    1    1    2    0    0 -0.39726437749E-02 -0.41306171474E-02  0.16031620788E+00  0.16041942409E+00  0.51109989000E-03 0.  1.
     -623    1    1    2    0    0  0.14152188797E-02  0.90637059426E-03  0.14078503049E-02  0.17130000001E+03  0.17130000000E+03 0.  1.
      622    1    1    2    0    0  0.25574248951E-02  0.32242465531E-02  0.38382759092E+01  0.38395805619E+01  0.10000000000E+00 0.  1.
</event>
<event>
 5   0  0.6262544E+06  0.9118800E+02  0.7818608E-02  0.1180000E+00
       11   -1    0    0    0    0  0.00000000000E+00  0.00000000000E+00  0.39999999673E+01  0.40000000000E+01  0.51109989000E-03 0. -1.
     -623   -1    0    0    0    0  0.00000000000E+00  0.00000000000E+00  0.12525980253E-10  0.17130000000E+03  0.17130000000E+03 0. -1.
       11    1    1    2    0    0 -0.10345527158E-01 -0.50640393484E-02  0.45650721620E+00  0.45665279381E+00  0.51109989000E-03 0. -1.
     -623    1    1    2    0    0  0.58242954714E-02  0.37700212788E-02  0.15601908768E-02  0.17130000015E+03  0.17130000000E+03 0. -1.
      622    1    1    2    0    0  0.45212316862E-02  0.12940180695E-02  0.35419325603E+01  0.35433470586E+01  0.10000000000E+00 0. -1.
</event>
<event>
 5   0  0.6262544E+06  0.9118800E+02  0.7818608E-02  0.1180000E+00
       11   -1    0    0    0    0  0.00000000000E+00  0.00000000000E+00  0.39999999673E+01  0.40000000000E+01  0.51109989000E-03 0. -1.
     -623   -1    0    0    0    0  0.00000000000E+00  0.00000000000E+00  0.12525980253E-10  0.17130000000E+03  0.17130000000E+03 0.  1.
       11    1    1    2    0    0  0.90503874225E-02 -0.75346653543E-02  0.15984722357E-01  0.19860847549E-01  0.51109989000E-03 0. -1.
     -623    1    1    2    0    0 -0.81777506451E-02 -0.12738474560E-02  0.51426514855E-02  0.17130000028E+03  0.17130000000E+03 0.  1.
      622    1    1    2    0    0 -0.87263677736E-03  0.88085128103E-02  0.39788725935E+01  0.39801388753E+01  0.10000000000E+00 0. -1.
</event>
<event>
 5   0  0.6262544E+06  0.9118800E+02  0.7818608E-02  0.1180000E+00
       11   -1    0    0    0    0  0.00000000000E+00  0.00000000000E+00  0.39999999673E+01  0.40000000000E+01  0.51109989000E-03 0.  1.
     -623   -1    0    0    0    0  0.00000000000E+00  0.00000000000E+00  0.12525980253E-10  0.17130000000E+03  0.17130000000E+03 0.  1.
       11    1    1    2    0    0  0.10753756284E-01  0.24360081373E-02  0.60632406182E-01  0.61628948647E-01  0.51109989000E-03 0.  1.
     -623    1    1    2    0    0 -0.10743336034E-01 -0.89333364763E-02  0.22722212547E-02  0.17130000058E+03  0.17130000000E+03 0.  1.
      622    1    1    2    0    0 -0.10420250444E-04  0.64973283389E-02  0.39370953399E+01  0.39383704665E+01  0.10000000000E+00 0.  1.
</event>
<event>
 5   0  0.6262544E+06  0.9118800E+02  0.7818608E-02  0.1180000E+00
       11   -1    0    0    0    0  0.00000000000E+00  0.00000000000E+00  0.39999999673E+01  0.40000000000E+01  0.51109989000E-03 0.  1.
     -623   -1    0    0    0    0  0.00000000000E+00  0.00000000000E+00  0.12525980253E-10  0.17130000000E+03  0.17130000000E+03 0.  1.
       11    1    1    2    0    0  0.26709887582E-02  0.49113223791E-02  0.12396294035E-01  0.13608254750E-01  0.51109989000E-03 0.  1.
     -623    1    1    2    0    0 -0.61025315058E-02 -0.11100845529E-02  0.24698130362E-02  0.17130000013E+03  0.17130000000E+03 0.  1.
      622    1    1    2    0    0  0.34315427480E-02 -0.38012378261E-02  0.39851338605E+01  0.39863916154E+01  0.10000000000E+00 0.  1.
</event>
<event>
 5   0  0.6262544E+06  0.9118800E+02  0.7818608E-02  0.1180000E+00
       11   -1    0    0    0    0  0.00000000000E+00  0.00000000000E+00  0.39999999673E+01  0.40000000000E+01  0.51109989000E-03 0.  1.
     -623   -1    0    0    0    0  0.00000000000E+00  0.00000000000E+00  0.12525980253E-10  0.17130000000E+03  0.17130000000E+03 0. -1.
       11    1    1    2    0    0  0.66048617311E-02  0.48831916391E-02  0.12091287333E+00  0.12119263146E+00  0.51109989000E-03 0.  1.
     -623    1    1    2    0    0 -0.80933534956E-02  0.25551680715E-02  0.15766336757E-02  0.17130000022E+03  0.17130000000E+03 0. -1.
      622    1    1    2    0    0  0.14884917640E-02 -0.74383597105E-02  0.38775104601E+01  0.38788071508E+01  0.10000000000E+00 0.  1.
</event>
<event>
 5   0  0.6262544E+06  0.9118800E+02  0.7818608E-02  0.1180000E+00
       11   -1    0    0    0    0  0.00000000000E+00  0.00000000000E+00  0.39999999673E+01  0.40000000000E+01  0.51109989000E-03 0.  1.
     -623   -1    0    0    0    0  0.00000000000E+00  0.00000000000E+00  0.12525980253E-10  0.17130000000E+03  0.17130000000E+03 0.  1.
       11    1    1    2    0    0  0.79498620852E-03  0.29714173488E-03 -0.63057304441E-03  0.11743686577E-02  0.51109989000E-03 0.  1.
     -623    1    1    2    0    0  0.21022795170E-02 -0.14059942516E-03  0.30565649162E-02  0.17130000004E+03  0.17130000000E+03 0.  1.
      622    1    1    2    0    0 -0.28972657255E-02 -0.15654230972E-03  0.39975739754E+01  0.39988255910E+01  0.10000000000E+00 0.  1.
</event>
<event>
 5   0  0.6262544E+06  0.9118800E+02  0.7818608E-02  0.1180000E+00
       11   -1    0    0    0    0  0.00000000000E+00  0.00000000000E+00  0.39999999673E+01  0.40000000000E+01  0.51109989000E-03 0.  1.
     -623   -1    0    0    0    0  0.00000000000E+00  0.00000000000E+00  0.12525980253E-10  0.17130000000E+03  0.17130000000E+03 0.  1.
       11    1    1    2    0    0 -0.43319513614E-01  0.22181426239E+00  0.24029841559E+01  0.24135888759E+01  0.51109989000E-03 0.  1.
     -623    1    1    2    0    0 -0.13081811535E-01 -0.12260441787E+00  0.17923419004E-01  0.17130004531E+03  0.17130000000E+03 0.  1.
      622    1    1    2    0    0  0.56401325149E-01 -0.99209844518E-01  0.15790923925E+01  0.15863658112E+01  0.10000000000E+00 0.  0.
</event>
<event>
 5   0  0.6262544E+06  0.9118800E+02  0.7818608E-02  0.1180000E+00
       11   -1    0    0    0    0  0.00000000000E+00  0.00000000000E+00  0.39999999673E+01  0.40000000000E+01  0.51109989000E-03 0. -1.
     -623   -1    0    0    0    0  0.00000000000E+00  0.00000000000E+00  0.12525980253E-10  0.17130000000E+03  0.17130000000E+03 0. -1.
       11    1    1    2    0    0 -0.28057155312E-01 -0.17568944753E-01  0.17593187862E+00  0.17901999587E+00  0.51109989000E-03 0. -1.
     -623    1    1    2    0    0 -0.10860655935E-03  0.20236603708E-01  0.45029069160E-02  0.17130000125E+03  0.17130000000E+03 0. -1.
      622    1    1    2    0    0  0.28165761871E-01 -0.26676589544E-02  0.38195651818E+01  0.38209787495E+01  0.10000000000E+00 0. -1.
</event>
<event>
 5   0  0.6262544E+06  0.9118800E+02  0.7818608E-02  0.1180000E+00
       11   -1    0    0    0    0  0.00000000000E+00  0.00000000000E+00  0.39999999673E+01  0.40000000000E+01  0.51109989000E-03 0. -1.
     -623   -1    0    0    0    0  0.00000000000E+00  0.00000000000E+00  0.12525980253E-10  0.17130000000E+03  0.17130000000E+03 0. -1.
       11    1    1    2    0    0 -0.39802700803E-01  0.49939649556E-03  0.71799465103E-01  0.82097069377E-01  0.51109989000E-03 0. -1.
     -623    1    1    2    0    0  0.15052949438E-01  0.12172583408E-01  0.11674164287E-01  0.17130000149E+03  0.17130000000E+03 0. -1.
      622    1    1    2    0    0  0.24749751366E-01 -0.12671979904E-01  0.39165263380E+01  0.39179014389E+01  0.10000000000E+00 0. -1.
</event>
<event>
 5   0  0.6262544E+06  0.9118800E+02  0.7818608E-02  0.1180000E+00
       11   -1    0    0    0    0  0.00000000000E+00  0.00000000000E+00  0.39999999673E+01  0.40000000000E+01  0.51109989000E-03 0. -1.
     -623   -1    0    0    0    0  0.00000000000E+00  0.00000000000E+00  0.12525980253E-10  0.17130000000E+03  0.17130000000E+03 0. -1.
       11    1    1    2    0    0 -0.40617208841E-02  0.31337208810E-01  0.18817318771E+00  0.19080861623E+00  0.51109989000E-03 0. -1.
     -623    1    1    2    0    0  0.19088433534E-01  0.80311713542E-02  0.41827047707E-02  0.17130000130E+03  0.17130000000E+03 0. -1.
      622    1    1    2    0    0 -0.15026712650E-01 -0.39368380165E-01  0.38076440749E+01  0.38091900809E+01  0.10000000000E+00 0. -1.
</event>
<event>
 5   0  0.6262544E+06  0.9118800E+02  0.7818608E-02  0.1180000E+00
       11   -1    0    0    0    0  0.00000000000E+00  0.00000000000E+00  0.39999999673E+01  0.40000000000E+01  0.51109989000E-03 0. -1.
     -623   -1    0    0    0    0  0.00000000000E+00  0.00000000000E+00  0.12525980253E-10  0.17130000000E+03  0.17130000000E+03 0. -1.
       11    1    1    2    0    0  0.43214278268E-03  0.31728029989E-02  0.44825639293E-02  0.55324523253E-02  0.51109989000E-03 0. -1.
     -623    1    1    2    0    0  0.61184434962E-02 -0.62160037781E-03  0.23080970658E-02  0.17130000013E+03  0.17130000000E+03 0. -1.
      622    1    1    2    0    0 -0.65505862791E-02 -0.25512026210E-02  0.39932093065E+01  0.39944674218E+01  0.10000000000E+00 0. -1.
</event>
<event>
 5   0  0.6262544E+06  0.9118800E+02  0.7818608E-02  0.1180000E+00
       11   -1    0    0    0    0  0.00000000000E+00  0.00000000000E+00  0.39999999673E+01  0.40000000000E+01  0.51109989000E-03 0.  1.
     -623   -1    0    0    0    0  0.00000000000E+00  0.00000000000E+00  0.12525980253E-10  0.17130000000E+03  0.17130000000E+03 0.  1.
       11    1    1    2    0    0  0.92771519770E-03  0.20172052761E-01  0.13176776403E+01  0.13178324618E+01  0.51109989000E-03 0.  1.
     -623    1    1    2    0    0 -0.65884093002E-02 -0.79937707561E-02  0.20535713535E-02  0.17130000033E+03  0.17130000000E+03 0.  1.
      622    1    1    2    0    0  0.56606941027E-02 -0.12178282005E-01  0.26802687559E+01  0.26821672128E+01  0.10000000000E+00 0.  1.
</event>
<event>
 5   0  0.6262544E+06  0.9118800E+02  0.7818608E-02  0.1180000E+00
       11   -1    0    0    0    0  0.00000000000E+00  0.00000000000E+00  0.39999999673E+01  0.40000000000E+01  0.51109989000E-03 0. -1.
     -623   -1    0    0    0    0  0.00000000000E+00  0.00000000000E+00  0.12525980253E-10  0.17130000000E+03  0.17130000000E+03 0. -1.
       11    1    1    2    0    0 -0.18974005947E-01 -0.95148931981E-02  0.79211373221E-01  0.82007615281E-01  0.51109989000E-03 0. -1.
     -623    1    1    2    0    0  0.38365246906E-01  0.13270534421E-01  0.41272456366E-02  0.17130000486E+03  0.17130000000E+03 0. -1.
      622    1    1    2    0    0 -0.19391240959E-01 -0.37556412225E-02  0.39166613485E+01  0.39179875247E+01  0.10000000000E+00 0. -1.
</event>
<event>
 5   0  0.6262544E+06  0.9118800E+02  0.7818608E-02  0.1180000E+00
       11   -1    0    0    0    0  0.00000000000E+00  0.00000000000E+00  0.39999999673E+01  0.40000000000E+01  0.51109989000E-03 0.  1.
     -623   -1    0    0    0    0  0.00000000000E+00  0.00000000000E+00  0.12525980253E-10  0.17130000000E+03  0.17130000000E+03 0.  1.
       11    1    1    2    0    0 -0.41228427128E-02 -0.10301555149E-02  0.18688453102E-01  0.19172338273E-01  0.51109989000E-03 0.  1.
     -623    1    1    2    0    0  0.18098966334E-02  0.64374438183E-02  0.17445561586E-02  0.17130000014E+03  0.17130000000E+03 0.  1.
      622    1    1    2    0    0  0.23129460793E-02 -0.54072883037E-02  0.39795669583E+01  0.39808275225E+01  0.10000000000E+00 0.  1.
</event>
<event>
 5   0  0.6262544E+06  0.9118800E+02  0.7818608E-02  0.1180000E+00
       11   -1    0    0    0    0  0.00000000000E+00  0.00000000000E+00  0.39999999673E+01  0.40000000000E+01  0.51109989000E-03 0. -1.
     -623   -1    0    0    0    0  0.00000000000E+00  0.00000000000E+00  0.12525980253E-10  0.17130000000E+03  0.17130000000E+03 0.  1.
       11    1    1    2    0    0 -0.77304374157E-02  0.16255885870E-01  0.13320323346E-02  0.18056827530E-01  0.51109989000E-03 0. -1.
     -623    1    1    2    0    0  0.12955622581E-01 -0.33551566032E-01  0.18026358241E-01  0.17130000472E+03  0.17130000000E+03 0.  1.
      622    1    1    2    0    0 -0.52251851649E-02  0.17295680162E-01  0.39806415768E+01  0.39819384483E+01  0.10000000000E+00 0. -1.
</event>
<event>
 5   0  0.6262544E+06  0.9118800E+02  0.7818608E-02  0.1180000E+00
       11   -1    0    0    0    0  0.00000000000E+00  0.00000000000E+00  0.39999999673E+01  0.40000000000E+01  0.51109989000E-03 0.  1.
     -623   -1    0    0    0    0  0.00000000000E+00  0.00000000000E+00  0.12525980253E-10  0.17130000000E+03  0.17130000000E+03 0.  1.
       11    1    1    2    0    0 -0.39187434477E-02  0.39618388257E-02  0.21369401913E-01  0.22089936101E-01  0.51109989000E-03 0.  1.
     -623    1    1    2    0    0  0.11911928161E-01  0.19061370837E-02  0.19904408067E-02  0.17130000044E+03  0.17130000000E+03 0.  1.
      622    1    1    2    0    0 -0.79931847134E-02 -0.58679759095E-02  0.39766401246E+01  0.39779096276E+01  0.10000000000E+00 0.  1.
</event>
<event>
 5   0  0.6262544E+06  0.9118800E+02  0.7818608E-02  0.1180000E+00
       11   -1    0    0    0    0  0.00000000000E+00  0.00000000000E+00  0.39999999673E+01  0.40000000000E+01  0.51109989000E-03 0. -1.
     -623   -1    0    0    0    0  0.00000000000E+00  0.00000000000E+00  0.12525980253E-10  0.17130000000E+03  0.17130000000E+03 0.  1.
       11    1    1    2    0    0  0.16015762642E-02 -0.22369275286E-01  0.29040193163E+00  0.29126704695E+00  0.51109989000E-03 0. -1.
     -623    1    1    2    0    0  0.11508485001E-01  0.12095255411E-02  0.22974686271E-02  0.17130000041E+03  0.17130000000E+03 0.  1.
      622    1    1    2    0    0 -0.13110061265E-01  0.21159749745E-01  0.37073005673E+01  0.37087325469E+01  0.10000000000E+00 0. -1.
</event>
<event>
 5   0  0.6262544E+06  0.9118800E+02  0.7818608E-02  0.1180000E+00
       11   -1    0    0    0    0  0.00000000000E+00  0.00000000000E+00  0.39999999673E+01  0.40000000000E+01  0.51109989000E-03 0. -1.
     -623   -1    0    0    0    0  0.00000000000E+00  0.00000000000E+00  0.12525980253E-10  0.17130000000E+03  0.17130000000E+03 0.  1.
       11    1    1    2    0    0  0.80376330943E-02  0.53703782250E-01  0.14779769093E+01  0.14789742071E+01  0.51109989000E-03 0. -1.
     -623    1    1    2    0    0  0.30023031248E-01 -0.73816109441E-01  0.33678006414E-02  0.17130001857E+03  0.17130000000E+03 0.  1.
      622    1    1    2    0    0 -0.38060664343E-01  0.20112327192E-01  0.25186552575E+01  0.25210072245E+01  0.10000000000E+00 0.  1.
</event>
<event>
 5   0  0.6262544E+06  0.9118800E+02  0.7818608E-02  0.1180000E+00
       11   -1    0    0    0    0  0.00000000000E+00  0.00000000000E+00  0.39999999673E+01  0.40000000000E+01  0.51109989000E-03 0.  1.
     -623   -1    0    0    0    0  0.00000000000E+00  0.00000000000E+00  0.12525980253E-10  0.17130000000E+03  0.17130000000E+03 0. -1.
       11    1    1    2    0    0  0.83639267760E-01 -0.60097928635E-01  0.18227255211E+01  0.18256330065E+01  0.51109989000E-03 0.  1.
     -623    1    1    2    0    0 -0.46451876859E-01 -0.56778764894E-02  0.65293843276E-02  0.17130000652E+03  0.17130000000E+03 0. -1.
      622    1    1    2    0    0 -0.37187390902E-01  0.65775805125E-01  0.21707450620E+01  0.21743604767E+01  0.10000000000E+00 0.  1.
</event>
<event>
 5   0  0.6262544E+06  0.9118800E+02  0.7818608E-02  0.1180000E+00
       11   -1    0    0    0    0  0.00000000000E+00  0.00000000000E+00  0.39999999673E+01  0.40000000000E+01  0.51109989000E-03 0.  1.
     -623   -1    0    0    0    0  0.00000000000E+00  0.00000000000E+00  0.12525980253E-10  0.17130000000E+03  0.17130000000E+03 0. -1.
       11    1    1    2    0    0  0.29930365847E-01 -0.47250470440E-01  0.91787104105E+00  0.91957378332E+00  0.51109989000E-03 0.  1.
     -623    1    1    2    0    0  0.14382217294E-01 -0.49206531808E-02  0.40880250854E-02  0.17130000072E+03  0.17130000000E+03 0. -1.
      622    1    1    2    0    0 -0.44312583141E-01  0.52171123621E-01  0.30780409012E+01  0.30804254935E+01  0.10000000000E+00 0.  0.
</event>
<event>
 5   0  0.6262544E+06  0.9118800E+02  0.7818608E-02  0.1180000E+00
       11   -1    0    0    0    0  0.00000000000E+00  0.00000000000E+00  0.39999999673E+01  0.40000000000E+01  0.51109989000E-03 0. -1.
     -623   -1    0    0    0    0  0.00000000000E+00  0.00000000000E+00  0.12525980253E-10  0.17130000000E+03  0.17130000000E+03 0. -1.
       11    1    1    2    0    0  0.13487248962E-02 -0.18525962798E-01  0.51048638340E+00  0.51082447007E+00  0.51109989000E-03 0. -1.
     -623    1    1    2    0    0  0.23437665518E-03  0.38763304759E-02  0.18025312197E-02  0.17130000005E+03  0.17130000000E+03 0. -1.
      622    1    1    2    0    0 -0.15831015514E-02  0.14649632322E-01  0.34877110529E+01  0.34891754766E+01  0.10000000000E+00 0. -1.
</event>
<event>
 5   0  0.6262544E+06  0.9118800E+02  0.7818608E-02  0.1180000E+00
       11   -1    0    0    0    0  0.00000000000E+00  0.00000000000E+00  0.39999999673E+01  0.40000000000E+01  0.51109989000E-03 0. -1.
     -623   -1    0    0    0    0  0.00000000000E+00  0.00000000000E+00  0.12525980253E-10  0.17130000000E+03  0.17130000000E+03 0. -1.
       11    1    1    2    0    0 -0.34621216739E-02 -0.19501545283E-01  0.30104293713E+00  0.30169422893E+00  0.51109989000E-03 0. -1.
     -623    1    1    2    0    0  0.20493528169E-02  0.14221628729E-01  0.20081316784E-02  0.17130000061E+03  0.17130000000E+03 0. -1.
      622    1    1    2    0    0  0.14127688571E-02  0.52799165544E-02  0.36969488984E+01  0.36983051566E+01  0.10000000000E+00 0. -1.
</event>
<event>
 5   0  0.6262544E+06  0.9118800E+02  0.7818608E-02  0.1180000E+00
       11   -1    0    0    0    0  0.00000000000E+00  0.00000000000E+00  0.39999999673E+01  0.40000000000E+01  0.51109989000E-03 0. -1.
     -623   -1    0    0    0    0  0.00000000000E+00  0.00000000000E+00  0.12525980253E-10  0.17130000000E+03  0.17130000000E+03 0.  1.
       11    1    1    2    0    0 -0.17684794718E-01 -0.10107028658E-01  0.51379604320E+00  0.51419990201E+00  0.51109989000E-03 0. -1.
     -623    1    1    2    0    0 -0.71893789345E-02 -0.39140414298E-02  0.19557173168E-02  0.17130000021E+03  0.17130000000E+03 0.  1.
      622    1    1    2    0    0  0.24874173653E-01  0.14021070088E-01  0.34842482070E+01  0.34857998914E+01  0.10000000000E+00 0.  0.
</event>
<event>
 5   0  0.6262544E+06  0.9118800E+02  0.7818608E-02  0.1180000E+00
       11   -1    0    0    0    0  0.00000000000E+00  0.00000000000E+00  0.39999999673E+01  0.40000000000E+01  0.51109989000E-03 0.  1.
     -623   -1    0    0    0    0  0.00000000000E+00  0.00000000000E+00  0.12525980253E-10  0.17130000000E+03  0.17130000000E+03 0.  1.
       11    1    1    2    0    0 -0.16545024034E-02 -0.11413141086E-01  0.88397680652E+00  0.88405217768E+00  0.51109989000E-03 0.  1.
     -623    1    1    2    0    0 -0.10915859646E-01  0.69778046048E-02  0.17094260074E-02  0.17130000050E+03  0.17130000000E+03 0.  1.
      622    1    1    2    0    0  0.12570362050E-01  0.44353364810E-02  0.31143137348E+01  0.31159473239E+01  0.10000000000E+00 0.  1.
</event>
<event>
 5   0  0.6262544E+06  0.9118800E+02  0.7818608E-02  0.1180000E+00
       11   -1    0    0    0    0  0.00000000000E+00  0.00000000000E+00  0.39999999673E+01  0.40000000000E+01  0.51109989000E-03 0.  1.
     -623   -1    0    0    0    0  0.00000000000E+00  0.00000000000E+00  0.12525980253E-10  0.17130000000E+03  0.17130000000E+03 0.  1.
       11    1    1    2    0    0 -0.66268291271E-03  0.40571646372E-03 -0.64104702928E-03  0.11295657940E-02  0.51109989000E-03 0.  1.
     -623    1    1    2    0    0 -0.24327242168E-02  0.11810620469E-02  0.30226901679E-02  0.17130000005E+03  0.17130000000E+03 0.  1.
      622    1    1    2    0    0  0.30954071296E-02 -0.15867785107E-02  0.39976183243E+01  0.39988703863E+01  0.10000000000E+00 0.  1.
</event>
<event>
 5   0  0.6262544E+06  0.9118800E+02  0.7818608E-02  0.1180000E+00
       11   -1    0    0    0    0  0.00000000000E+00  0.00000000000E+00  0.39999999673E+01  0.40000000000E+01  0.51109989000E-03 0.  1.
     -623   -1    0    0    0    0  0.00000000000E+00  0.00000000000E+00  0.12525980253E-10  0.17130000000E+03  0.17130000000E+03 0.  1.
       11    1    1    2    0    0  0.88347994372E-03  0.10152078922E-03  0.37645964697E-01  0.37659935267E-01  0.51109989000E-03 0.  1.
     -623    1    1    2    0    0 -0.75571090378E-03  0.46146310432E-03  0.12760686269E-02  0.17130000001E+03  0.17130000000E+03 0.  1.
      622    1    1    2    0    0 -0.12776903997E-03 -0.56298389353E-03  0.39610779339E+01  0.39623400575E+01  0.10000000000E+00 0.  1.
</event>
<event>
 5   0  0.6262544E+06  0.9118800E+02  0.7818608E-02  0.1180000E+00
       11   -1    0    0    0    0  0.00000000000E+00  0.00000000000E+00  0.39999999673E+01  0.40000000000E+01  0.51109989000E-03 0. -1.
     -623   -1    0    0    0    0  0.00000000000E+00  0.00000000000E+00  0.12525980253E-10  0.17130000000E+03  0.17130000000E+03 0. -1.
       11    1    1    2    0    0 -0.10142228617E-01 -0.14162142073E-02  0.32304359609E-01  0.33892526268E-01  0.51109989000E-03 0. -1.
     -623    1    1    2    0    0  0.42253003106E-04 -0.15769680160E-02  0.28630416594E-02  0.17130000003E+03  0.17130000000E+03 0. -1.
      622    1    1    2    0    0  0.10099975614E-01  0.29931822233E-02  0.39648325662E+01  0.39661074426E+01  0.10000000000E+00 0. -1.
</event>
<event>
 5   0  0.6262544E+06  0.9118800E+02  0.7818608E-02  0.1180000E+00
       11   -1    0    0    0    0  0.00000000000E+00  0.00000000000E+00  0.39999999673E+01  0.40000000000E+01  0.51109989000E-03 0. -1.
     -623   -1    0    0    0    0  0.00000000000E+00  0.00000000000E+00  0.12525980253E-10  0.17130000000E+03  0.17130000000E+03 0. -1.
       11    1    1    2    0    0  0.64173552752E-02 -0.22065968955E-02  0.94170935513E-01  0.94416512524E-01  0.51109989000E-03 0. -1.
     -623    1    1    2    0    0 -0.42178713323E-02  0.30701778137E-02  0.15267740197E-02  0.17130000009E+03  0.17130000000E+03 0. -1.
      622    1    1    2    0    0 -0.21994839430E-02 -0.86358091808E-03  0.39043022576E+01  0.39055834010E+01  0.10000000000E+00 0. -1.
</event>
<event>
 5   0  0.6262544E+06  0.9118800E+02  0.7818608E-02  0.1180000E+00
       11   -1    0    0    0    0  0.00000000000E+00  0.00000000000E+00  0.39999999673E+01  0.40000000000E+01  0.51109989000E-03 0. -1.
     -623   -1    0    0    0    0  0.00000000000E+00  0.00000000000E+00  0.12525980253E-10  0.17130000000E+03  0.17130000000E+03 0.  1.
       11    1    1    2    0    0 -0.78708483568E-02  0.24776447182E-02  0.32503558530E+00  0.32514071094E+00  0.51109989000E-03 0. -1.
     -623    1    1    2    0    0  0.58158551749E-02  0.13873146545E-02  0.14686599596E-02  0.17130000011E+03  0.17130000000E+03 0.  1.
      622    1    1    2    0    0  0.20549931814E-02 -0.38649593728E-02  0.36734957225E+01  0.36748591788E+01  0.10000000000E+00 0. -1.
</event>
<event>
 5   0  0.6262544E+06  0.9118800E+02  0.7818608E-02  0.1180000E+00
       11   -1    0    0    0    0  0.00000000000E+00  0.00000000000E+00  0.39999999673E+01  0.40000000000E+01  0.51109989000E-03 0.  1.
     -623   -1    0    0    0    0  0.00000000000E+00  0.00000000000E+00  0.12525980253E-10  0.17130000000E+03  0.17130000000E+03 0. -1.
       11    1    1    2    0    0  0.19157221675E-02  0.13195509543E-02  0.12940711371E-01  0.13158056057E-01  0.51109989000E-03 0.  1.
     -623    1    1    2    0    0  0.80024266303E-03  0.11640679526E-02  0.14733462148E-02  0.17130000001E+03  0.17130000000E+03 0. -1.
      622    1    1    2    0    0 -0.27159648306E-02 -0.24836189069E-02  0.39855859098E+01  0.39868419318E+01  0.10000000000E+00 0.  1.
</event>
<event>
 5   0  0.6262544E+06  0.9118800E+02  0.7818608E-02  0.1180000E+00
       11   -1    0    0    0    0  0.00000000000E+00  0.00000000000E+00  0.39999999673E+01  0.40000000000E+01  0.51109989000E-03 0. -1.
     -623   -1    0    0    0    0  0.00000000000E+00  0.00000000000E+00  0.12525980253E-10  0.17130000000E+03  0.17130000000E+03 0.  1.
       11    1    1    2    0    0  0.98320242007E-02  0.16512743093E-02  0.35906287785E-01  0.37268191953E-01  0.51109989000E-03 0. -1.
     -623    1    1    2    0    0  0.27399847345E-02 -0.35712400284E-02  0.26443222866E-02  0.17130000008E+03  0.17130000000E+03 0.  1.
      622    1    1    2    0    0 -0.12572008935E-01  0.19199657191E-02  0.39614493573E+01  0.39627317285E+01  0.10000000000E+00 0. -1.
</event>
<event>
 5   0  0.6262544E+06  0.9118800E+02  0.7818608E-02  0.1180000E+00
       11   -1    0    0    0    0  0.00000000000E+00  0.00000000000E+00  0.39999999673E+01  0.40000000000E+01  0.51109989000E-03 0.  1.
     -623   -1    0    0    0    0  0.00000000000E+00  0.00000000000E+00  0.12525980253E-10  0.17130000000E+03  0.17130000000E+03 0. -1.
       11    1    1    2    0    0 -0.70121080383E-02  0.35981819559E-02  0.31999088790E+00  0.32008834113E+00  0.51109989000E-03 0.  1.
     -623    1    1    2    0    0 -0.34864519308E-02 -0.88041484517E-03  0.14724292860E-02  0.17130000004E+03  0.17130000000E+03 0. -1.
      622    1    1    2    0    0  0.10498559969E-01 -0.27177671108E-02  0.36785366502E+01  0.36799116148E+01  0.10000000000E+00 0.  1.
</event>
<event>
 5   0  0.6262544E+06  0.9118800E+02  0.7818608E-02  0.1180000E+00
       11   -1    0    0    0    0  0.00000000000E+00  0.00000000000E+00  0.39999999673E+01  0.40000000000E+01  0.51109989000E-03 0.  1.
     -623   -1    0    0    0    0  0.00000000000E+00  0.00000000000E+00  0.12525980253E-10  0.17130000000E+03  0.17130000000E+03 0.  1.
       11    1    1    2    0    0  0.25556918033E-02 -0.14966874091E-02  0.99982995383E-02  0.10440251403E-01  0.51109989000E-03 0.  1.
     -623    1    1    2    0    0  0.69561655556E-03  0.37556587616E-02  0.16974032506E-02  0.17130000005E+03  0.17130000000E+03 0.  1.
      622    1    1    2    0    0 -0.32513083589E-02 -0.22589713525E-02  0.39883042646E+01  0.39895596976E+01  0.10000000000E+00 0.  1.
</event>
<event>
 5   0  0.6262544E+06  0.9118800E+02  0.7818608E-02  0.1180000E+00
       11   -1    0    0    0    0  0.00000000000E+00  0.00000000000E+00  0.39999999673E+01  0.40000000000E+01  0.51109989000E-03 0. -1.
     -623   -1    0    0    0    0  0.00000000000E+00  0.00000000000E+00  0.12525980253E-10  0.17130000000E+03  0.17130000000E+03 0.  1.
       11    1    1    2    0    0 -0.88354365385E-03 -0.33218348840E-01  0.28190516589E+00  0.28385739929E+00  0.51109989000E-03 0. -1.
     -623    1    1    2    0    0 -0.30002547204E-02  0.94601032552E-02  0.33762513339E-02  0.17130000032E+03  0.17130000000E+03 0.  1.
      622    1    1    2    0    0  0.38837983743E-02  0.23758245585E-01  0.37147185502E+01  0.37161422800E+01  0.10000000000E+00 0. -1.
</event>
<event>
 5   0  0.6262544E+06  0.9118800E+02  0.7818608E-02  0.1180000E+00
       11   -1    0    0    0    0  0.00000000000E+00  0.00000000000E+00  0.39999999673E+01  0.40000000000E+01  0.51109989000E-03 0. -1.
     -623   -1    0    0    0    0  0.00000000000E+00  0.00000000000E+00  0.12525980253E-10  0.17130000000E+03  0.17130000000E+03 0. -1.
       11    1    1    2    0    0 -0.87748280741E-02  0.80616295568E-02  0.14729323647E+00  0.14777532342E+00  0.51109989000E-03 0. -1.
     -623    1    1    2    0    0  0.11452246888E-01 -0.98601771501E-03  0.17880505194E-02  0.17130000039E+03  0.17130000000E+03 0. -1.
      622    1    1    2    0    0 -0.26774188133E-02 -0.70756118419E-02  0.38509186803E+01  0.38522242815E+01  0.10000000000E+00 0. -1.
</event>
<event>
 5   0  0.6262544E+06  0.9118800E+02  0.7818608E-02  0.1180000E+00
       11   -1    0    0    0    0  0.00000000000E+00  0.00000000000E+00  0.39999999673E+01  0.40000000000E+01  0.51109989000E-03 0.  1.
     -623   -1    0    0    0    0  0.00000000000E+00  0.00000000000E+00  0.12525980253E-10  0.17130000000E+03  0.17130000000E+03 0.  1.
       11    1    1    2    0    0  0.29846347048E-01 -0.32472938326E-01  0.15174158008E+01  0.15180567413E+01  0.51109989000E-03 0.  1.
     -623    1    1    2    0    0  0.55333201109E-01 -0.13847699925E-01  0.45620235985E-02  0.17130000956E+03  0.17130000000E+03 0.  1.
      622    1    1    2    0    0 -0.85179548157E-01  0.46320638251E-01  0.24780221430E+01  0.24819337014E+01  0.10000000000E+00 0.  0.
</event>
<event>
 5   0  0.6262544E+06  0.9118800E+02  0.7818608E-02  0.1180000E+00
       11   -1    0    0    0    0  0.00000000000E+00  0.00000000000E+00  0.39999999673E+01  0.40000000000E+01  0.51109989000E-03 0. -1.
     -623   -1    0    0    0    0  0.00000000000E+00  0.00000000000E+00  0.12525980253E-10  0.17130000000E+03  0.17130000000E+03 0. -1.
       11    1    1    2    0    0  0.43302648038E-02 -0.11739100816E-03  0.12839261426E+00  0.12846668670E+00  0.51109989000E-03 0. -1.
     -623    1    1    2    0    0  0.47338462860E-03 -0.15541373622E-02  0.13690884819E-02  0.17130000001E+03  0.17130000000E+03 0. -1.
      622    1    1    2    0    0 -0.48036494324E-02  0.16715283703E-02  0.38702382646E+01  0.38715333001E+01  0.10000000000E+00 0. -1.
</event>
<event>
 5   0  0.6262544E+06  0.9118800E+02  0.7818608E-02  0.1180000E+00
       11   -1    0    0    0    0  0.00000000000E+00  0.00000000000E+00  0.39999999673E+01  0.40000000000E+01  0.51109989000E-03 0. -1.
     -623   -1    0    0    0    0  0.00000000000E+00  0.00000000000E+00  0.12525980253E-10  0.17130000000E+03  0.17130000000E+03 0.  1.
       11    1    1    2    0    0 -0.28878172661E-01  0.14821200903E-01  0.23259080529E+01  0.23261345938E+01  0.51109989000E-03 0. -1.
     -623    1    1    2    0    0 -0.36591043554E-01  0.35345339408E-02  0.46043181249E-02  0.17130000401E+03  0.17130000000E+03 0.  1.
      622    1    1    2    0    0  0.65469216215E-01 -0.18355734844E-01  0.16694875963E+01  0.16738613997E+01  0.10000000000E+00 0.  0.
</event>
<event>
 5   0  0.6262544E+06  0.9118800E+02  0.7818608E-02  0.1180000E+00
       11   -1    0    0    0    0  0.00000000000E+00  0.00000000000E+00  0.39999999673E+01  0.40000000000E+01  0.51109989000E-03 0.  1.
     -623   -1    0    0    0    0  0.00000000000E+00  0.00000000000E+00  0.12525980253E-10  0.17130000000E+03  0.17130000000E+03 0. -1.
       11    1    1    2    0    0  0.24937366157E-02 -0.17012748065E-02  0.15821375688E-01  0.16114906426E-01  0.51109989000E-03 0.  1.
     -623    1    1    2    0    0  0.38611219073E-02 -0.56662760807E-02  0.15607812739E-02  0.17130000014E+03  0.17130000000E+03 0. -1.
      622    1    1    2    0    0 -0.63548585230E-02  0.73675508871E-02  0.39826178104E+01  0.39838849492E+01  0.10000000000E+00 0.  1.
</event>
<event>
 5   0  0.6262544E+06  0.9118800E+02  0.7818608E-02  0.1180000E+00
       11   -1    0    0    0    0  0.00000000000E+00  0.00000000000E+00  0.39999999673E+01  0.40000000000E+01  0.51109989000E-03 0.  1.
     -623   -1    0    0    0    0  0.00000000000E+00  0.00000000000E+00  0.12525980253E-10  0.17130000000E+03  0.17130000000E+03 0.  1.
       11    1    1    2    0    0 -0.11811544675E-01 -0.25507530435E-02  0.18725876960E+00  0.18764894602E+00  0.51109989000E-03 0.  1.
     -623    1    1    2    0    0 -0.10792990985E-01  0.60920024445E-02  0.17710371562E-02  0.17130000046E+03  0.17130000000E+03 0.  1.
      622    1    1    2    0    0  0.22604535659E-01 -0.35412494011E-02  0.38109701607E+01  0.38123505965E+01  0.10000000000E+00 0.  0.
</event>
<event>
 5   0  0.6262544E+06  0.9118800E+02  0.7818608E-02  0.1180000E+00
       11   -1    0    0    0    0  0.00000000000E+00  0.00000000000E+00  0.39999999673E+01  0.40000000000E+01  0.51109989000E-03 0.  1.
     -623   -1    0    0    0    0  0.00000000000E+00  0.00000000000E+00  0.12525980253E-10  0.17130000000E+03  0.17130000000E+03 0. -1.
       11    1    1    2    0    0 -0.13164324126E-03  0.28530000037E-02  0.44592362406E-02  0.53200516831E-02  0.51109989000E-03 0.  1.
     -623    1    1    2    0    0  0.72006552888E-02 -0.32779056040E-03  0.21198635608E-02  0.17130000016E+03  0.17130000000E+03 0. -1.
      622    1    1    2    0    0 -0.70690120473E-02 -0.25252094433E-02  0.39934208674E+01  0.39946797834E+01  0.10000000000E+00 0.  1.
</event>
<event>
 5   0  0.6262544E+06  0.9118800E+02  0.7818608E-02  0.1180000E+00
       11   -1    0    0    0    0  0.00000000000E+00  0.00000000000E+00  0.39999999673E+01  0.40000000000E+01  0.51109989000E-03 0.  1.
     -623   -1    0    0    0    0  0.00000000000E+00  0.00000000000E+00  0.12525980253E-10  0.17130000000E+03  0.17130000000E+03 0. -1.
       11    1    1    2    0    0 -0.63733163117E-02 -0.57974532026E-02  0.17394955563E-01  0.19418427500E-01  0.51109989000E-03 0.  1.
     -623    1    1    2    0    0  0.26237855934E-02 -0.85545205144E-02  0.33076488853E-02  0.17130000027E+03  0.17130000000E+03 0. -1.
      622    1    1    2    0    0  0.37495307184E-02  0.14351973717E-01  0.39792973628E+01  0.39805813067E+01  0.10000000000E+00 0.  1.
</event>
<event>
 5   0  0.6262544E+06  0.9118800E+02  0.7818608E-02  0.1180000E+00
       11   -1    0    0    0    0  0.00000000000E+00  0.00000000000E+00  0.39999999673E+01  0.40000000000E+01  0.51109989000E-03 0.  1.
     -623   -1    0    0    0    0  0.00000000000E+00  0.00000000000E+00  0.12525980253E-10  0.17130000000E+03  0.17130000000E+03 0. -1.
       11    1    1    2    0    0  0.72913546754E-02  0.39892959008E-02  0.57377729865E-01  0.57978818911E-01  0.51109989000E-03 0.  1.
     -623    1    1    2    0    0 -0.63814792750E-02  0.70609638976E-02  0.18855183329E-02  0.17130000027E+03  0.17130000000E+03 0. -1.
      622    1    1    2    0    0 -0.90987540025E-03 -0.11050259799E-01  0.39407367193E+01  0.39420209064E+01  0.10000000000E+00 0.  1.
</event>
<event>
 5   0  0.6262544E+06  0.9118800E+02  0.7818608E-02  0.1180000E+00
       11   -1    0    0    0    0  0.00000000000E+00  0.00000000000E+00  0.39999999673E+01  0.40000000000E+01  0.51109989000E-03 0. -1.
     -623   -1    0    0    0    0  0.00000000000E+00  0.00000000000E+00  0.12525980253E-10  0.17130000000E+03  0.17130000000E+03 0. -1.
       11    1    1    2    0    0 -0.19319720464E-02 -0.69446082206E-03  0.13449492319E-01  0.13614876370E-01  0.51109989000E-03 0. -1.
     -623    1    1    2    0    0  0.28108749652E-02  0.32348726009E-02  0.14207841303E-02  0.17130000006E+03  0.17130000000E+03 0. -1.
      622    1    1    2    0    0 -0.87890291911E-03 -0.25404117792E-02  0.39851296913E+01  0.39863850645E+01  0.10000000000E+00 0. -1.
</event>
<event>
 5   0  0.6262544E+06  0.9118800E+02  0.7818608E-02  0.1180000E+00
       11   -1    0    0    0    0  0.00000000000E+00  0.00000000000E+00  0.39999999673E+01  0.40000000000E+01  0.51109989000E-03 0. -1.
     -623   -1    0    0    0    0  0.00000000000E+00  0.00000000000E+00  0.12525980253E-10  0.17130000000E+03  0.17130000000E+03 0.  1.
       11    1    1    2    0    0 -0.68437119534E-02  0.45449072875E-02  0.39497628137E+00  0.39506204150E+00  0.51109989000E-03 0. -1.
     -623    1    1    2    0    0  0.73347012385E-03  0.43998151035E-03  0.14816175783E-02  0.17130000001E+03  0.17130000000E+03 0.  1.
      622    1    1    2    0    0  0.61102418295E-02 -0.49848887978E-02  0.36035420684E+01  0.36049379500E+01  0.10000000000E+00 0. -1.
</event>
<event>
 5   0  0.6262544E+06  0.9118800E+02  0.7818608E-02  0.1180000E+00
       11   -1    0    0    0    0  0.00000000000E+00  0.00000000000E+00  0.39999999673E+01  0.40000000000E+01  0.51109989000E-03 0. -1.
     -623   -1    0    0    0    0  0.00000000000E+00  0.00000000000E+00  0.12525980253E-10  0.17130000000E+03  0.17130000000E+03 0. -1.
       11    1    1    2    0    0  0.11191489452E+00 -0.39986028219E-01  0.60712131361E+00  0.61864398222E+00  0.51109989000E-03 0. -1.
     -623    1    1    2    0    0 -0.11704296173E-01  0.22453866146E-01  0.14535546326E-01  0.17130000249E+03  0.17130000000E+03 0. -1.
      622    1    1    2    0    0 -0.10021059835E+00  0.17532162073E-01  0.33783431074E+01  0.33813535296E+01  0.10000000000E+00 0. -1.
</event>
<event>
 5   0  0.6262544E+06  0.9118800E+02  0.7818608E-02  0.1180000E+00
       11   -1    0    0    0    0  0.00000000000E+00  0.00000000000E+00  0.39999999673E+01  0.40000000000E+01  0.51109989000E-03 0.  1.
     -623   -1    0    0    0    0  0.00000000000E+00  0.00000000000E+00  0.12525980253E-10  0.17130000000E+03  0.17130000000E+03 0. -1.
       11    1    1    2    0    0 -0.11876334454E-03 -0.23504298216E-02  0.17101943844E-01  0.17270678331E-01  0.51109989000E-03 0.  1.
     -623    1    1    2    0    0 -0.25828169371E-02 -0.14923000293E-02  0.14271231645E-02  0.17130000003E+03  0.17130000000E+03 0. -1.
      622    1    1    2    0    0  0.27015802817E-02  0.38427298509E-02  0.39814709004E+01  0.39827292898E+01  0.10000000000E+00 0.  1.
</event>
<event>
 5   0  0.6262544E+06  0.9118800E+02  0.7818608E-02  0.1180000E+00
       11   -1    0    0    0    0  0.00000000000E+00  0.00000000000E+00  0.39999999673E+01  0.40000000000E+01  0.51109989000E-03 0.  1.
     -623   -1    0    0    0    0  0.00000000000E+00  0.00000000000E+00  0.12525980253E-10  0.17130000000E+03  0.17130000000E+03 0. -1.
       11    1    1    2    0    0  0.15844406984E-01 -0.26868778076E-01  0.18048731628E+01  0.18051427565E+01  0.51109989000E-03 0.  1.
     -623    1    1    2    0    0  0.58581404046E-02  0.91802725981E-02  0.27279310690E-02  0.17130000037E+03  0.17130000000E+03 0. -1.
      622    1    1    2    0    0 -0.21702547389E-01  0.17688505478E-01  0.21923988735E+01  0.21948568756E+01  0.10000000000E+00 0.  1.
</event>
<event>
 5   0  0.6262544E+06  0.9118800E+02  0.7818608E-02  0.1180000E+00
       11   -1    0    0    0    0  0.00000000000E+00  0.00000000000E+00  0.39999999673E+01  0.40000000000E+01  0.51109989000E-03 0. -1.
     -623   -1    0    0    0    0  0.00000000000E+00  0.00000000000E+00  0.12525980253E-10  0.17130000000E+03  0.17130000000E+03 0. -1.
       11    1    1    2    0    0 -0.18268173060E-01  0.10087379478E-01  0.23388151496E-01  0.31348815365E-01  0.51109989000E-03 0. -1.
     -623    1    1    2    0    0 -0.16639973722E-01 -0.12057473958E-02  0.93852942371E-02  0.17130000107E+03  0.17130000000E+03 0. -1.
      622    1    1    2    0    0  0.34908146782E-01 -0.88816320826E-02  0.39672265216E+01  0.39686501151E+01  0.10000000000E+00 0. -1.
</event>
<event>
 5   0  0.6262544E+06  0.9118800E+02  0.7818608E-02  0.1180000E+00
       11   -1    0    0    0    0  0.00000000000E+00  0.00000000000E+00  0.39999999673E+01  0.40000000000E+01  0.51109989000E-03 0. -1.
     -623   -1    0    0    0    0  0.00000000000E+00  0.00000000000E+00  0.12525980253E-10  0.17130000000E+03  0.17130000000E+03 0. -1.
       11    1    1    2    0    0  0.39477127484E-02 -0.29550881533E-01  0.11620359337E+01  0.11624184322E+01  0.51109989000E-03 0. -1.
     -623    1    1    2    0    0 -0.28071128488E-02 -0.27213245919E-02  0.23290051826E-02  0.17130000006E+03  0.17130000000E+03 0. -1.
      622    1    1    2    0    0 -0.11405998995E-02  0.32272206125E-01  0.28356350285E+01  0.28375815074E+01  0.10000000000E+00 0. -1.
</event>
<event>
 5   0  0.6262544E+06  0.9118800E+02  0.7818608E-02  0.1180000E+00
       11   -1    0    0    0    0  0.00000000000E+00  0.00000000000E+00  0.39999999673E+01  0.40000000000E+01  0.51109989000E-03 0.  1.
     -623   -1    0    0    0    0  0.00000000000E+00  0.00000000000E+00  0.12525980253E-10  0.17130000000E+03  0.17130000000E+03 0. -1.
       11    1    1    2    0    0 -0.12182838128E+00 -0.63492205418E-02  0.21408948654E+01  0.21443678680E+01  0.51109989000E-03 0.  1.
     -623    1    1    2    0    0 -0.16621418941E-01  0.24201471858E-02  0.11354477013E-01  0.17130000120E+03  0.17130000000E+03 0. -1.
      622    1    1    2    0    0  0.13844980022E+00  0.39290733560E-02  0.18477506249E+01  0.18556309322E+01  0.10000000000E+00 0.  0.
</event>
<event>
 5   0  0.6262544E+06  0.9118800E+02  0.7818608E-02  0.1180000E+00
       11   -1    0    0    0    0  0.00000000000E+00  0.00000000000E+00  0.39999999673E+01  0.40000000000E+01  0.51109989000E-03 0. -1.
     -623   -1    0    0    0    0  0.00000000000E+00  0.00000000000E+00  0.12525980253E-10  0.17130000000E+03  0.17130000000E+03 0.  1.
       11    1    1    2    0    0 -0.16055242048E-02 -0.47524096423E-02  0.13344347838E-01  0.14265200486E-01  0.51109989000E-03 0. -1.
     -623    1    1    2    0    0  0.65033387870E-02  0.13753720118E-02  0.21800755603E-02  0.17130000014E+03  0.17130000000E+03 0.  1.
      622    1    1    2    0    0 -0.48978145821E-02  0.33770376305E-02  0.39844755440E+01  0.39857346567E+01  0.10000000000E+00 0. -1.
</event>
<event>
 5   0  0.6262544E+06  0.9118800E+02  0.7818608E-02  0.1180000E+00
       11   -1    0    0    0    0  0.00000000000E+00  0.00000000000E+00  0.39999999673E+01  0.40000000000E+01  0.51109989000E-03 0.  1.
     -623   -1    0    0    0    0  0.00000000000E+00  0.00000000000E+00  0.12525980253E-10  0.17130000000E+03  0.17130000000E+03 0.  1.
       11    1    1    2    0    0  0.21586009621E-01 -0.74556624963E-03  0.15156796661E+01  0.15158336397E+01  0.51109989000E-03 0.  1.
     -623    1    1    2    0    0 -0.56013310865E-02  0.11204819094E-02  0.22191126077E-02  0.17130000011E+03  0.17130000000E+03 0.  1.
      622    1    1    2    0    0 -0.15984678535E-01 -0.37491565980E-03  0.24821011886E+01  0.24841662507E+01  0.10000000000E+00 0.  1.
</event>
<event>
 5   0  0.6262544E+06  0.9118800E+02  0.7818608E-02  0.1180000E+00
       11   -1    0    0    0    0  0.00000000000E+00  0.00000000000E+00  0.39999999673E+01  0.40000000000E+01  0.51109989000E-03 0.  1.
     -623   -1    0    0    0    0  0.00000000000E+00  0.00000000000E+00  0.12525980253E-10  0.17130000000E+03  0.17130000000E+03 0. -1.
       11    1    1    2    0    0 -0.12031632088E-02  0.95234630590E-03  0.28983456933E-02  0.33190655385E-02  0.51109989000E-03 0.  1.
     -623    1    1    2    0    0 -0.12584540376E-02 -0.33205384053E-02  0.16734262841E-02  0.17130000004E+03  0.17130000000E+03 0. -1.
      622    1    1    2    0    0  0.24616172464E-02  0.23681920996E-02  0.39954281956E+01  0.39966808897E+01  0.10000000000E+00 0.  1.
</event>
<event>
 5   0  0.6262544E+06  0.9118800E+02  0.7818608E-02  0.1180000E+00
       11   -1    0    0    0    0  0.00000000000E+00  0.00000000000E+00  0.39999999673E+01  0.40000000000E+01  0.51109989000E-03 0. -1.
     -623   -1    0    0    0    0  0.00000000000E+00  0.00000000000E+00  0.12525980253E-10  0.17130000000E+03  0.17130000000E+03 0. -1.
       11    1    1    2    0    0  0.91524552894E-02  0.10248294034E-02  0.16056627068E+00  0.16083098649E+00  0.51109989000E-03 0. -1.
     -623    1    1    2    0    0 -0.58044846533E-03 -0.16556434254E-02  0.15769103524E-02  0.17130000002E+03  0.17130000000E+03 0. -1.
      622    1    1    2    0    0 -0.85720068241E-02  0.63081402210E-03  0.38378567863E+01  0.38391689973E+01  0.10000000000E+00 0. -1.
</event>
<event>
 5   0  0.6262544E+06  0.9118800E+02  0.7818608E-02  0.1180000E+00
       11   -1    0    0    0    0  0.00000000000E+00  0.00000000000E+00  0.39999999673E+01  0.40000000000E+01  0.51109989000E-03 0. -1.
     -623   -1    0    0    0    0  0.00000000000E+00  0.00000000000E+00  0.12525980253E-10  0.17130000000E+03  0.17130000000E+03 0. -1.
       11    1    1    2    0    0 -0.17159593732E-02 -0.38960614472E-02  0.82281191560E-01  0.82392836576E-01  0.51109989000E-03 0. -1.
     -623    1    1    2    0    0  0.22755400069E-02 -0.68053562986E-02  0.14029265818E-02  0.17130000016E+03  0.17130000000E+03 0. -1.
      622    1    1    2    0    0 -0.55958063376E-03  0.10701417746E-01  0.39163158492E+01  0.39176070074E+01  0.10000000000E+00 0. -1.
</event>
<event>
 5   0  0.6262544E+06  0.9118800E+02  0.7818608E-02  0.1180000E+00
       11   -1    0    0    0    0  0.00000000000E+00  0.00000000000E+00  0.39999999673E+01  0.40000000000E+01  0.51109989000E-03 0.  1.
     -623   -1    0    0    0    0  0.00000000000E+00  0.00000000000E+00  0.12525980253E-10  0.17130000000E+03  0.17130000000E+03 0. -1.
       11    1    1    2    0    0 -0.11336895447E-02  0.21579996959E-02  0.11348631296E+00  0.11351364088E+00  0.51109989000E-03 0.  1.
     -623    1    1    2    0    0  0.10236255896E-02 -0.14323622648E-02  0.13141007834E-02  0.17130000001E+03  0.17130000000E+03 0. -1.
      622    1    1    2    0    0  0.11006395511E-03 -0.72563743106E-03  0.38851995538E+01  0.38864863452E+01  0.10000000000E+00 0.  1.
</event>
<event>
 5   0  0.6262544E+06  0.9118800E+02  0.7818608E-02  0.1180000E+00
       11   -1    0    0    0    0  0.00000000000E+00  0.00000000000E+00  0.39999999673E+01  0.40000000000E+01  0.51109989000E-03 0. -1.
     -623   -1    0    0    0    0  0.00000000000E+00  0.00000000000E+00  0.12525980253E-10  0.17130000000E+03  0.17130000000E+03 0.  1.
       11    1    1    2    0    0  0.41603185317E-01  0.87171550854E-02  0.60828490870E+00  0.60976848491E+00  0.51109989000E-03 0. -1.
     -623    1    1    2    0    0  0.57843379783E-02 -0.71313956076E-02  0.32906828091E-02  0.17130000028E+03  0.17130000000E+03 0.  1.
      622    1    1    2    0    0 -0.47387523296E-01 -0.15857594777E-02  0.33884243759E+01  0.33902312374E+01  0.10000000000E+00 0. -1.
</event>
<event>
 5   0  0.6262544E+06  0.9118800E+02  0.7818608E-02  0.1180000E+00
       11   -1    0    0    0    0  0.00000000000E+00  0.00000000000E+00  0.39999999673E+01  0.40000000000E+01  0.51109989000E-03 0.  1.
     -623   -1    0    0    0    0  0.00000000000E+00  0.00000000000E+00  0.12525980253E-10  0.17130000000E+03  0.17130000000E+03 0. -1.
       11    1    1    2    0    0 -0.82652262140E-02  0.69053961339E-01  0.31566764401E+01  0.31574425050E+01  0.51109989000E-03 0.  1.
     -623    1    1    2    0    0 -0.27461238935E-01  0.84925443515E-02  0.11092416083E-01  0.17130000277E+03  0.17130000000E+03 0. -1.
      622    1    1    2    0    0  0.35726465149E-01 -0.77546505690E-01  0.83223111120E+00  0.84255472422E+00  0.10000000000E+00 0.  1.
</event>
<event>
 5   0  0.6262544E+06  0.9118800E+02  0.7818608E-02  0.1180000E+00
       11   -1    0    0    0    0  0.00000000000E+00  0.00000000000E+00  0.39999999673E+01  0.40000000000E+01  0.51109989000E-03 0.  1.
     -623   -1    0    0    0    0  0.00000000000E+00  0.00000000000E+00  0.12525980253E-10  0.17130000000E+03  0.17130000000E+03 0.  1.
       11    1    1    2    0    0 -0.42357145662E-02  0.20741195731E-01  0.28579296107E-01  0.35569310751E-01  0.51109989000E-03 0.  1.
     -623    1    1    2    0    0  0.74808360173E-02  0.60970341108E-02  0.83440757689E-02  0.17130000048E+03  0.17130000000E+03 0.  1.
      622    1    1    2    0    0 -0.32451214512E-02 -0.26838229841E-01  0.39630765955E+01  0.39644302142E+01  0.10000000000E+00 0.  1.
</event>
<event>
 5   0  0.6262544E+06  0.9118800E+02  0.7818608E-02  0.1180000E+00
       11   -1    0    0    0    0  0.00000000000E+00  0.00000000000E+00  0.39999999673E+01  0.40000000000E+01  0.51109989000E-03 0. -1.
     -623   -1    0    0    0    0  0.00000000000E+00  0.00000000000E+00  0.12525980253E-10  0.17130000000E+03  0.17130000000E+03 0.  1.
       11    1    1    2    0    0 -0.52410998348E-02  0.96818825014E-02  0.23416528804E+00  0.23442451092E+00  0.51109989000E-03 0. -1.
     -623    1    1    2    0    0  0.28716109831E-02  0.11505592481E-01  0.16480355167E-02  0.17130000042E+03  0.17130000000E+03 0.  1.
      622    1    1    2    0    0  0.23694888516E-02 -0.21187474983E-01  0.37641866440E+01  0.37655750709E+01  0.10000000000E+00 0.  0.
</event>
<event>
 5   0  0.6262544E+06  0.9118800E+02  0.7818608E-02  0.1180000E+00
       11   -1    0    0    0    0  0.00000000000E+00  0.00000000000E+00  0.39999999673E+01  0.40000000000E+01  0.51109989000E-03 0. -1.
     -623   -1    0    0    0    0  0.00000000000E+00  0.00000000000E+00  0.12525980253E-10  0.17130000000E+03  0.17130000000E+03 0.  1.
       11    1    1    2    0    0  0.23801102225E-01  0.40826174896E-01  0.10594011606E+01  0.10604547842E+01  0.51109989000E-03 0. -1.
     -623    1    1    2    0    0 -0.58789179368E-02 -0.50441529278E-02  0.30278151169E-02  0.17130000020E+03  0.17130000000E+03 0.  1.
      622    1    1    2    0    0 -0.17922184289E-01 -0.35782021969E-01  0.29375709916E+01  0.29395450139E+01  0.10000000000E+00 0.  0.
</event>
<event>
 5   0  0.6262544E+06  0.9118800E+02  0.7818608E-02  0.1180000E+00
       11   -1    0    0    0    0  0.00000000000E+00  0.00000000000E+00  0.39999999673E+01  0.40000000000E+01  0.51109989000E-03 0. -1.
     -623   -1    0    0    0    0  0.00000000000E+00  0.00000000000E+00  0.12525980253E-10  0.17130000000E+03  0.17130000000E+03 0. -1.
       11    1    1    2    0    0 -0.11653831243E-02  0.50149755684E-03  0.34509963550E-01  0.34537058695E-01  0.51109989000E-03 0. -1.
     -623    1    1    2    0    0  0.38919614417E-02 -0.43541945449E-02  0.12910641455E-02  0.17130000010E+03  0.17130000000E+03 0. -1.
      622    1    1    2    0    0 -0.27265783174E-02  0.38526969881E-02  0.39641989397E+01  0.39654628369E+01  0.10000000000E+00 0. -1.
</event>
<event>
 5   0  0.6262544E+06  0.9118800E+02  0.7818608E-02  0.1180000E+00
       11   -1    0    0    0    0  0.00000000000E+00  0.00000000000E+00  0.39999999673E+01  0.40000000000E+01  0.51109989000E-03 0. -1.
     -623   -1    0    0    0    0  0.00000000000E+00  0.00000000000E+00  0.12525980253E-10  0.17130000000E+03  0.17130000000E+03 0. -1.
       11    1    1    2    0    0  0.34973335000E-03 -0.15973993540E-01  0.21701202138E+00  0.21760002166E+00  0.51109989000E-03 0. -1.
     -623    1    1    2    0    0 -0.39565681597E-02 -0.23456195721E-02  0.19562842484E-02  0.17130000007E+03  0.17130000000E+03 0. -1.
      622    1    1    2    0    0  0.36068348097E-02  0.18319613112E-01  0.37810316617E+01  0.37823999054E+01  0.10000000000E+00 0. -1.
</event>
<event>
 5   0  0.6262544E+06  0.9118800E+02  0.7818608E-02  0.1180000E+00
       11   -1    0    0    0    0  0.00000000000E+00  0.00000000000E+00  0.39999999673E+01  0.40000000000E+01  0.51109989000E-03 0. -1.
     -623   -1    0    0    0    0  0.00000000000E+00  0.00000000000E+00  0.12525980253E-10  0.17130000000E+03  0.17130000000E+03 0.  1.
       11    1    1    2    0    0 -0.71997167407E-02 -0.19664492646E-02  0.97034199664E-01  0.97322145329E-01  0.51109989000E-03 0. -1.
     -623    1    1    2    0    0  0.47587392053E-02  0.65738929807E-03  0.15703527992E-02  0.17130000007E+03  0.17130000000E+03 0.  1.
      622    1    1    2    0    0  0.24409775353E-02  0.13090599665E-02  0.39013954150E+01  0.39026777802E+01  0.10000000000E+00 0. -1.
</event>
<event>
 5   0  0.6262544E+06  0.9118800E+02  0.7818608E-02  0.1180000E+00
       11   -1    0    0    0    0  0.00000000000E+00  0.00000000000E+00  0.39999999673E+01  0.40000000000E+01  0.51109989000E-03 0. -1.
     -623   -1    0    0    0    0  0.00000000000E+00  0.00000000000E+00  0.12525980253E-10  0.17130000000E+03  0.17130000000E+03 0.  1.
       11    1    1    2    0    0  0.36795403009E-01  0.72100561802E-01  0.16782224365E+01  0.16801735625E+01  0.51109989000E-03 0. -1.
     -623    1    1    2    0    0  0.64021465332E-02 -0.24420046450E-01  0.50025590113E-02  0.17130000193E+03  0.17130000000E+03 0.  1.
      622    1    1    2    0    0 -0.43197549542E-01 -0.47680515352E-01  0.23167749719E+01  0.23198245042E+01  0.10000000000E+00 0. -1.
</event>
<event>
 5   0  0.6262544E+06  0.9118800E+02  0.7818608E-02  0.1180000E+00
       11   -1    0    0    0    0  0.00000000000E+00  0.00000000000E+00  0.39999999673E+01  0.40000000000E+01  0.51109989000E-03 0. -1.
     -623   -1    0    0    0    0  0.00000000000E+00  0.00000000000E+00  0.12525980253E-10  0.17130000000E+03  0.17130000000E+03 0. -1.
       11    1    1    2    0    0 -0.10349144815E+00 -0.12277585101E-01  0.13883913575E+01  0.13922973970E+01  0.51109989000E-03 0. -1.
     -623    1    1    2    0    0  0.33307160875E-01 -0.29800044260E-01  0.71153141750E-02  0.17130000598E+03  0.17130000000E+03 0. -1.
      622    1    1    2    0    0  0.70184287278E-01  0.42077629361E-01  0.26044932957E+01  0.26076966251E+01  0.10000000000E+00 0. -1.
</event>
<event>
 5   0  0.6262544E+06  0.9118800E+02  0.7818608E-02  0.1180000E+00
       11   -1    0    0    0    0  0.00000000000E+00  0.00000000000E+00  0.39999999673E+01  0.40000000000E+01  0.51109989000E-03 0.  1.
     -623   -1    0    0    0    0  0.00000000000E+00  0.00000000000E+00  0.12525980253E-10  0.17130000000E+03  0.17130000000E+03 0. -1.
       11    1    1    2    0    0 -0.57598275883E-02 -0.17006496917E-02  0.56442042764E-01  0.56762956536E-01  0.51109989000E-03 0.  1.
     -623    1    1    2    0    0  0.22038164764E-02  0.14179822223E-04  0.15910650869E-02  0.17130000002E+03  0.17130000000E+03 0. -1.
      622    1    1    2    0    0  0.35560111119E-02  0.16864698695E-02  0.39419668595E+01  0.39432370219E+01  0.10000000000E+00 0.  1.
</event>
<event>
 5   0  0.6262544E+06  0.9118800E+02  0.7818608E-02  0.1180000E+00
       11   -1    0    0    0    0  0.00000000000E+00  0.00000000000E+00  0.39999999673E+01  0.40000000000E+01  0.51109989000E-03 0.  1.
     -623   -1    0    0    0    0  0.00000000000E+00  0.00000000000E+00  0.12525980253E-10  0.17130000000E+03  0.17130000000E+03 0.  1.
       11    1    1    2    0    0 -0.73194121346E-01  0.96580565862E-01  0.16956055722E+01  0.16999304994E+01  0.51109989000E-03 0.  1.
     -623    1    1    2    0    0 -0.49714422944E-01 -0.91538749284E-01  0.98267265735E-02  0.17130003195E+03  0.17130000000E+03 0.  1.
      622    1    1    2    0    0  0.12290854429E+00 -0.50418165773E-02  0.22945676686E+01  0.23000375466E+01  0.10000000000E+00 0.  1.
</event>
<event>
 5   0  0.6262544E+06  0.9118800E+02  0.7818608E-02  0.1180000E+00
       11   -1    0    0    0    0  0.00000000000E+00  0.00000000000E+00  0.39999999673E+01  0.40000000000E+01  0.51109989000E-03 0.  1.
     -623   -1    0    0    0    0  0.00000000000E+00  0.00000000000E+00  0.12525980253E-10  0.17130000000E+03  0.17130000000E+03 0. -1.
       11    1    1    2    0    0 -0.16300981172E-02 -0.23976254692E-02  0.23935261381E-01  0.24115633689E-01  0.51109989000E-03 0.  1.
     -623    1    1    2    0    0  0.20774177690E-02  0.13449385197E-02  0.14383089621E-02  0.17130000002E+03  0.17130000000E+03 0. -1.
      622    1    1    2    0    0 -0.44731965171E-03  0.10526869496E-02  0.39746263969E+01  0.39758843422E+01  0.10000000000E+00 0.  1.
</event>
<event>
 5   0  0.6262544E+06  0.9118800E+02  0.7818608E-02  0.1180000E+00
       11   -1    0    0    0    0  0.00000000000E+00  0.00000000000E+00  0.39999999673E+01  0.40000000000E+01  0.51109989000E-03 0. -1.
     -623   -1    0    0    0    0  0.00000000000E+00  0.00000000000E+00  0.12525980253E-10  0.17130000000E+03  0.17130000000E+03 0. -1.
       11    1    1    2    0    0 -0.11030961023E+00 -0.74412476211E-03  0.17944505622E+01  0.17978381032E+01  0.51109989000E-03 0. -1.
     -623    1    1    2    0    0  0.42205614664E-01 -0.15592969325E-01  0.67803521578E-02  0.17130000604E+03  0.17130000000E+03 0. -1.
      622    1    1    2    0    0  0.68103995567E-01  0.16337094087E-01  0.21987690530E+01  0.22021558535E+01  0.10000000000E+00 0.  0.
</event>
<event>
 5   0  0.6262544E+06  0.9118800E+02  0.7818608E-02  0.1180000E+00
       11   -1    0    0    0    0  0.00000000000E+00  0.00000000000E+00  0.39999999673E+01  0.40000000000E+01  0.51109989000E-03 0.  1.
     -623   -1    0    0    0    0  0.00000000000E+00  0.00000000000E+00  0.12525980253E-10  0.17130000000E+03  0.17130000000E+03 0.  1.
       11    1    1    2    0    0 -0.19647398770E-01 -0.44694093846E-02  0.23536182240E-01  0.30987239247E-01  0.51109989000E-03 0.  1.
     -623    1    1    2    0    0  0.80420039613E-02  0.55355317777E-01  0.90636496758E-02  0.17130000937E+03  0.17130000000E+03 0.  1.
      622    1    1    2    0    0  0.11605394808E-01 -0.50885908393E-01  0.39674001355E+01  0.39690033883E+01  0.10000000000E+00 0.  1.
</event>
<event>
 5   0  0.6262544E+06  0.9118800E+02  0.7818608E-02  0.1180000E+00
       11   -1    0    0    0    0  0.00000000000E+00  0.00000000000E+00  0.39999999673E+01  0.40000000000E+01  0.51109989000E-03 0. -1.
     -623   -1    0    0    0    0  0.00000000000E+00  0.00000000000E+00  0.12525980253E-10  0.17130000000E+03  0.17130000000E+03 0.  1.
       11    1    1    2    0    0  0.31253868254E-02  0.33603125437E-02  0.56614975202E-01  0.56802961022E-01  0.51109989000E-03 0. -1.
     -623    1    1    2    0    0  0.59989879571E-03 -0.10941256239E-02  0.14585861944E-02  0.17130000001E+03  0.17130000000E+03 0.  1.
      622    1    1    2    0    0 -0.37252856211E-02 -0.22661869198E-02  0.39419264060E+01  0.39431970282E+01  0.10000000000E+00 0. -1.
</event>
<event>
 5   0  0.6262544E+06  0.9118800E+02  0.7818608E-02  0.1180000E+00
       11   -1    0    0    0    0  0.00000000000E+00  0.00000000000E+00  0.39999999673E+01  0.40000000000E+01  0.51109989000E-03 0.  1.
     -623   -1    0    0    0    0  0.00000000000E+00  0.00000000000E+00  0.12525980253E-10  0.17130000000E+03  0.17130000000E+03 0. -1.
       11    1    1    2    0    0 -0.88803509536E-02  0.54926062833E-01  0.85412083556E-01  0.10193732511E+00  0.51109989000E-03 0.  1.
     -623    1    1    2    0    0 -0.85276329837E-02 -0.57600321487E-01  0.17858740469E-01  0.17130001083E+03  0.17130000000E+03 0. -1.
      622    1    1    2    0    0  0.17407983937E-01  0.26742586548E-02  0.38967291433E+01  0.38980518475E+01  0.10000000000E+00 0.  1.
</event>
<event>
 5   0  0.6262544E+06  0.9118800E+02  0.7818608E-02  0.1180000E+00
       11   -1    0    0    0    0  0.00000000000E+00  0.00000000000E+00  0.39999999673E+01  0.40000000000E+01  0.51109989000E-03 0. -1.
     -623   -1    0    0    0    0  0.00000000000E+00  0.00000000000E+00  0.12525980253E-10  0.17130000000E+03  0.17130000000E+03 0. -1.
       11    1    1    2    0    0 -0.26320281091E-02  0.53719627734E-02  0.40296218477E-01  0.40741035856E-01  0.51109989000E-03 0. -1.
     -623    1    1    2    0    0  0.17900672180E-02 -0.30956998972E-02  0.17086387492E-02  0.17130000005E+03  0.17130000000E+03 0. -1.
      622    1    1    2    0    0  0.84196089101E-03 -0.22762628761E-02  0.39579951103E+01  0.39592589185E+01  0.10000000000E+00 0. -1.
</event>
<event>
 5   0  0.6262544E+06  0.9118800E+02  0.7818608E-02  0.1180000E+00
       11   -1    0    0    0    0  0.00000000000E+00  0.00000000000E+00  0.39999999673E+01  0.40000000000E+01  0.51109989000E-03 0.  1.
     -623   -1    0    0    0    0  0.00000000000E+00  0.00000000000E+00  0.12525980253E-10  0.17130000000E+03  0.17130000000E+03 0.  1.
       11    1    1    2    0    0 -0.77604464378E-02  0.93742322697E-02  0.12780022636E+00  0.12837935908E+00  0.51109989000E-03 0.  1.
     -623    1    1    2    0    0 -0.12017748238E-01 -0.71294224618E-02  0.19225320050E-02  0.17130000058E+03  0.17130000000E+03 0.  1.
      622    1    1    2    0    0  0.19778194676E-01 -0.22448098079E-02  0.38702772090E+01  0.38716200602E+01  0.10000000000E+00 0.  1.
</event>
<event>
 5   0  0.6262544E+06  0.9118800E+02  0.7818608E-02  0.1180000E+00
       11   -1    0    0    0    0  0.00000000000E+00  0.00000000000E+00  0.39999999673E+01  0.40000000000E+01  0.51109989000E-03 0.  1.
     -623   -1    0    0    0    0  0.00000000000E+00  0.00000000000E+00  0.12525980253E-10  0.17130000000E+03  0.17130000000E+03 0. -1.
       11    1    1    2    0    0  0.63912396354E-01 -0.42798803299E-01  0.11830872341E+01  0.11855851705E+01  0.51109989000E-03 0.  1.
     -623    1    1    2    0    0 -0.58307575013E-01 -0.21723300366E-01  0.50321721991E-02  0.17130001137E+03  0.17130000000E+03 0. -1.
      622    1    1    2    0    0 -0.56048213402E-02  0.64522103666E-01  0.28118805612E+01  0.28144034548E+01  0.10000000000E+00 0. -1.
</event>
<event>
 5   0  0.6262544E+06  0.9118800E+02  0.7818608E-02  0.1180000E+00
       11   -1    0    0    0    0  0.00000000000E+00  0.00000000000E+00  0.39999999673E+01  0.40000000000E+01  0.51109989000E-03 0. -1.
     -623   -1    0    0    0    0  0.00000000000E+00  0.00000000000E+00  0.12525980253E-10  0.17130000000E+03  0.17130000000E+03 0. -1.
       11    1    1    2    0    0 -0.18934919238E-01  0.46564854654E-02  0.53411778843E+00  0.53447384143E+00  0.51109989000E-03 0. -1.
     -623    1    1    2    0    0  0.31629879432E-02 -0.41887961337E-03  0.18376396077E-02  0.17130000004E+03  0.17130000000E+03 0. -1.
      622    1    1    2    0    0  0.15771931294E-01 -0.42376058520E-02  0.34640445396E+01  0.34655261192E+01  0.10000000000E+00 0. -1.
</event>
<event>
 5   0  0.6262544E+06  0.9118800E+02  0.7818608E-02  0.1180000E+00
       11   -1    0    0    0    0  0.00000000000E+00  0.00000000000E+00  0.39999999673E+01  0.40000000000E+01  0.51109989000E-03 0. -1.
     -623   -1    0    0    0    0  0.00000000000E+00  0.00000000000E+00  0.12525980253E-10  0.17130000000E+03  0.17130000000E+03 0. -1.
       11    1    1    2    0    0 -0.10479682987E-01 -0.48145115895E-02  0.35200540061E+00  0.35219464300E+00  0.51109989000E-03 0. -1.
     -623    1    1    2    0    0 -0.31072455443E-01 -0.19130357826E-02  0.18059573994E-02  0.17130000284E+03  0.17130000000E+03 0. -1.
      622    1    1    2    0    0  0.41552138431E-01  0.67275473722E-02  0.36461886095E+01  0.36478025188E+01  0.10000000000E+00 0.  0.
</event>
<event>
 5   0  0.6262544E+06  0.9118800E+02  0.7818608E-02  0.1180000E+00
       11   -1    0    0    0    0  0.00000000000E+00  0.00000000000E+00  0.39999999673E+01  0.40000000000E+01  0.51109989000E-03 0. -1.
     -623   -1    0    0    0    0  0.00000000000E+00  0.00000000000E+00  0.12525980253E-10  0.17130000000E+03  0.17130000000E+03 0.  1.
       11    1    1    2    0    0 -0.20658538935E-02 -0.31608770489E-02  0.19103900881E-01  0.19480224536E-01  0.51109989000E-03 0. -1.
     -623    1    1    2    0    0 -0.43680433229E-03  0.19536563804E-02  0.16335962414E-02  0.17130000002E+03  0.17130000000E+03 0.  1.
      622    1    1    2    0    0  0.25026582258E-02  0.12072206684E-02  0.39792624705E+01  0.39805197562E+01  0.10000000000E+00 0. -1.
</event>
<event>
 5   0  0.6262544E+06  0.9118800E+02  0.7818608E-02  0.1180000E+00
       11   -1    0    0    0    0  0.00000000000E+00  0.00000000000E+00  0.39999999673E+01  0.40000000000E+01  0.51109989000E-03 0. -1.
     -623   -1    0    0    0    0  0.00000000000E+00  0.00000000000E+00  0.12525980253E-10  0.17130000000E+03  0.17130000000E+03 0. -1.
       11    1    1    2    0    0 -0.11188572885E-04 -0.15057256850E-01  0.44314334052E+00  0.44339937142E+00  0.51109989000E-03 0. -1.
     -623    1    1    2    0    0  0.29527958354E-02 -0.57164002339E-03  0.16977178637E-02  0.17130000003E+03  0.17130000000E+03 0. -1.
      622    1    1    2    0    0 -0.29416072625E-02  0.15628896874E-01  0.35551589090E+01  0.35566005938E+01  0.10000000000E+00 0. -1.
</event>
<event>
 5   0  0.6262544E+06  0.9118800E+02  0.7818608E-02  0.1180000E+00
       11   -1    0    0    0    0  0.00000000000E+00  0.00000000000E+00  0.39999999673E+01  0.40000000000E+01  0.51109989000E-03 0.  1.
     -623   -1    0    0    0    0  0.00000000000E+00  0.00000000000E+00  0.12525980253E-10  0.17130000000E+03  0.17130000000E+03 0.  1.
       11    1    1    2    0    0 -0.13007093543E-01 -0.91702411863E-02  0.48862133138E-01  0.51391118725E-01  0.51109989000E-03 0.  1.
     -623    1    1    2    0    0  0.50705200450E-02 -0.47238793778E-02  0.38280393490E-02  0.17130000018E+03  0.17130000000E+03 0.  1.
      622    1    1    2    0    0  0.79365734975E-02  0.13894120564E-01  0.39473097950E+01  0.39486086984E+01  0.10000000000E+00 0.  1.
</event>
<event>
 5   0  0.6262544E+06  0.9118800E+02  0.7818608E-02  0.1180000E+00
       11   -1    0    0    0    0  0.00000000000E+00  0.00000000000E+00  0.39999999673E+01  0.40000000000E+01  0.51109989000E-03 0. -1.
     -623   -1    0    0    0    0  0.00000000000E+00  0.00000000000E+00  0.12525980253E-10  0.17130000000E+03  0.17130000000E+03 0.  1.
       11    1    1    2    0    0  0.33459257030E-01 -0.30304519223E-01  0.15684635128E+01  0.15691131056E+01  0.51109989000E-03 0. -1.
     -623    1    1    2    0    0 -0.64720778869E-02  0.16140527515E-02  0.30268536828E-02  0.17130000016E+03  0.17130000000E+03 0.  1.
      622    1    1    2    0    0 -0.26987179143E-01  0.28690466472E-01  0.24285096008E+01  0.24308867378E+01  0.10000000000E+00 0.  0.
</event>
<event>
 5   0  0.6262544E+06  0.9118800E+02  0.7818608E-02  0.1180000E+00
       11   -1    0    0    0    0  0.00000000000E+00  0.00000000000E+00  0.39999999673E+01  0.40000000000E+01  0.51109989000E-03 0.  1.
     -623   -1    0    0    0    0  0.00000000000E+00  0.00000000000E+00  0.12525980253E-10  0.17130000000E+03  0.17130000000E+03 0. -1.
       11    1    1    2    0    0  0.11678216997E-01  0.62611212679E-04  0.39690372894E-01  0.41375978489E-01  0.51109989000E-03 0.  1.
     -623    1    1    2    0    0  0.38541724618E-01 -0.32216342888E-01  0.34055448721E-02  0.17130000740E+03  0.17130000000E+03 0. -1.
      622    1    1    2    0    0 -0.50219941616E-01  0.32153731677E-01  0.39569040497E+01  0.39586166224E+01  0.10000000000E+00 0.  1.
</event>
<event>
 5   0  0.6262544E+06  0.9118800E+02  0.7818608E-02  0.1180000E+00
       11   -1    0    0    0    0  0.00000000000E+00  0.00000000000E+00  0.39999999673E+01  0.40000000000E+01  0.51109989000E-03 0.  1.
     -623   -1    0    0    0    0  0.00000000000E+00  0.00000000000E+00  0.12525980253E-10  0.17130000000E+03  0.17130000000E+03 0. -1.
       11    1    1    2    0    0 -0.62596336932E-03 -0.29323908530E-02  0.88756876119E-03  0.31685560840E-02  0.51109989000E-03 0.  1.
     -623    1    1    2    0    0  0.18767212066E-03  0.37107340677E-02  0.35323180675E-02  0.17130000008E+03  0.17130000000E+03 0. -1.
      622    1    1    2    0    0  0.43829124866E-03 -0.77834321494E-03  0.39955800807E+01  0.39968313674E+01  0.10000000000E+00 0.  1.
</event>
<event>
 5   0  0.6262544E+06  0.9118800E+02  0.7818608E-02  0.1180000E+00
       11   -1    0    0    0    0  0.00000000000E+00  0.00000000000E+00  0.39999999673E+01  0.40000000000E+01  0.51109989000E-03 0. -1.
     -623   -1    0    0    0    0  0.00000000000E+00  0.00000000000E+00  0.12525980253E-10  0.17130000000E+03  0.17130000000E+03 0.  1.
       11    1    1    2    0    0 -0.15010765610E-01 -0.11984489550E-01  0.91748261800E-01  0.93738763808E-01  0.51109989000E-03 0. -1.
     -623    1    1    2    0    0 -0.94231469424E-03  0.71545799669E-02  0.33064332480E-02  0.17130000018E+03  0.17130000000E+03 0.  1.
      622    1    1    2    0    0  0.15953080304E-01  0.48299095833E-02  0.39049452722E+01  0.39062610522E+01  0.10000000000E+00 0. -1.
</event>
<event>
 5   0  0.6262544E+06  0.9118800E+02  0.7818608E-02  0.1180000E+00
       11   -1    0    0    0    0  0.00000000000E+00  0.00000000000E+00  0.39999999673E+01  0.40000000000E+01  0.51109989000E-03 0. -1.
     -623   -1    0    0    0    0  0.00000000000E+00  0.00000000000E+00  0.12525980253E-10  0.17130000000E+03  0.17130000000E+03 0. -1.
       11    1    1    2    0    0 -0.66056532545E-02 -0.12964943282E-01  0.32394622148E-01  0.35516153740E-01  0.51109989000E-03 0. -1.
     -623    1    1    2    0    0  0.10749430557E-01  0.99501953648E-02  0.43868934130E-02  0.17130000068E+03  0.17130000000E+03 0. -1.
      622    1    1    2    0    0 -0.41437773020E-02  0.30147479175E-02  0.39632184518E+01  0.39644831638E+01  0.10000000000E+00 0. -1.
</event>
<event>
 5   0  0.6262544E+06  0.9118800E+02  0.7818608E-02  0.1180000E+00
       11   -1    0    0    0    0  0.00000000000E+00  0.00000000000E+00  0.39999999673E+01  0.40000000000E+01  0.51109989000E-03 0. -1.
     -623   -1    0    0    0    0  0.00000000000E+00  0.00000000000E+00  0.12525980253E-10  0.17130000000E+03  0.17130000000E+03 0.  1.
       11    1    1    2    0    0  0.12238513014E-01 -0.15805690189E-01  0.72184655636E-01  0.74903182670E-01  0.51109989000E-03 0. -1.
     -623    1    1    2    0    0 -0.26448936417E-01  0.55853840137E-02  0.40337788326E-02  0.17130000218E+03  0.17130000000E+03 0.  1.
      622    1    1    2    0    0  0.14210423403E-01  0.10220306176E-01  0.39237815329E+01  0.39250946369E+01  0.10000000000E+00 0. -1.
</event>
<event>
 5   0  0.6262544E+06  0.9118800E+02  0.7818608E-02  0.1180000E+00
       11   -1    0    0    0    0  0.00000000000E+00  0.00000000000E+00  0.39999999673E+01  0.40000000000E+01  0.51109989000E-03 0.  1.
     -623   -1    0    0    0    0  0.00000000000E+00  0.00000000000E+00  0.12525980253E-10  0.17130000000E+03  0.17130000000E+03 0. -1.
       11    1    1    2    0    0  0.18234933259E-01  0.41887062578E-01  0.94307784605E+00  0.94418384001E+00  0.51109989000E-03 0.  1.
     -623    1    1    2    0    0  0.18235205147E-01 -0.20896848914E-01  0.30347858724E-02  0.17130000227E+03  0.17130000000E+03 0. -1.
      622    1    1    2    0    0 -0.36470138406E-01 -0.20990213664E-01  0.30538873355E+01  0.30558138880E+01  0.10000000000E+00 0.  1.
</event>
<event>
 5   0  0.6262544E+06  0.9118800E+02  0.7818608E-02  0.1180000E+00
       11   -1    0    0    0    0  0.00000000000E+00  0.00000000000E+00  0.39999999673E+01  0.40000000000E+01  0.51109989000E-03 0. -1.
     -623   -1    0    0    0    0  0.00000000000E+00  0.00000000000E+00  0.12525980253E-10  0.17130000000E+03  0.17130000000E+03 0.  1.
       11    1    1    2    0    0  0.20457133900E-02  0.30809851832E-01  0.20096635145E+00  0.20332527524E+00  0.51109989000E-03 0. -1.
     -623    1    1    2    0    0 -0.35512441292E-01 -0.98570504597E-02  0.38854654185E-02  0.17130000401E+03  0.17130000000E+03 0.  1.
      622    1    1    2    0    0  0.33466727901E-01 -0.20952801373E-01  0.37951481504E+01  0.37966707160E+01  0.10000000000E+00 0. -1.
</event>
<event>
 5   0  0.6262544E+06  0.9118800E+02  0.7818608E-02  0.1180000E+00
       11   -1    0    0    0    0  0.00000000000E+00  0.00000000000E+00  0.39999999673E+01  0.40000000000E+01  0.51109989000E-03 0. -1.
     -623   -1    0    0    0    0  0.00000000000E+00  0.00000000000E+00  0.12525980253E-10  0.17130000000E+03  0.17130000000E+03 0. -1.
       11    1    1    2    0    0 -0.39376469432E-02  0.43683572044E-02  0.10226714874E+00  0.10243738839E+00  0.51109989000E-03 0. -1.
     -623    1    1    2    0    0  0.81806305431E-02  0.64487382361E-02  0.14709202301E-02  0.17130000032E+03  0.17130000000E+03 0. -1.
      622    1    1    2    0    0 -0.42429835999E-02 -0.10817095441E-01  0.38962618984E+01  0.38975622886E+01  0.10000000000E+00 0. -1.
</event>
<event>
 5   0  0.6262544E+06  0.9118800E+02  0.7818608E-02  0.1180000E+00
       11   -1    0    0    0    0  0.00000000000E+00  0.00000000000E+00  0.39999999673E+01  0.40000000000E+01  0.51109989000E-03 0. -1.
     -623   -1    0    0    0    0  0.00000000000E+00  0.00000000000E+00  0.12525980253E-10  0.17130000000E+03  0.17130000000E+03 0. -1.
       11    1    1    2    0    0  0.42105905806E-01 -0.84213851427E-02  0.79068150928E+00  0.79184678908E+00  0.51109989000E-03 0. -1.
     -623    1    1    2    0    0  0.32362646567E-04 -0.58871894177E-02  0.30330942416E-02  0.17130000013E+03  0.17130000000E+03 0. -1.
      622    1    1    2    0    0 -0.42138268452E-01  0.14308574560E-01  0.32062853638E+01  0.32081530829E+01  0.10000000000E+00 0. -1.
</event>
<event>
 5   0  0.6262544E+06  0.9118800E+02  0.7818608E-02  0.1180000E+00
       11   -1    0    0    0    0  0.00000000000E+00  0.00000000000E+00  0.39999999673E+01  0.40000000000E+01  0.51109989000E-03 0.  1.
     -623   -1    0    0    0    0  0.00000000000E+00  0.00000000000E+00  0.12525980253E-10  0.17130000000E+03  0.17130000000E+03 0. -1.
       11    1    1    2    0    0 -0.34586863336E-01  0.87025080736E-02  0.21571286283E+00  0.21864191083E+00  0.51109989000E-03 0.  1.
     -623    1    1    2    0    0 -0.36781965337E-02 -0.60348806764E-02  0.44463501546E-02  0.17130000020E+03  0.17130000000E+03 0. -1.
      622    1    1    2    0    0  0.38265059870E-01 -0.26676273973E-02  0.37798407544E+01  0.37813578857E+01  0.10000000000E+00 0.  1.
</event>
<event>
 5   0  0.6262544E+06  0.9118800E+02  0.7818608E-02  0.1180000E+00
       11   -1    0    0    0    0  0.00000000000E+00  0.00000000000E+00  0.39999999673E+01  0.40000000000E+01  0.51109989000E-03 0. -1.
     -623   -1    0    0    0    0  0.00000000000E+00  0.00000000000E+00  0.12525980253E-10  0.17130000000E+03  0.17130000000E+03 0. -1.
       11    1    1    2    0    0  0.99343366522E-02 -0.79906743584E-02  0.30870615730E+00  0.30896973104E+00  0.51109989000E-03 0. -1.
     -623    1    1    2    0    0 -0.26435431730E-01  0.34061532944E-01  0.17528700783E-02  0.17130000544E+03  0.17130000000E+03 0. -1.
      622    1    1    2    0    0  0.16501095078E-01 -0.26070858586E-01  0.36895409400E+01  0.36910248338E+01  0.10000000000E+00 0. -1.
</event>
<event>
 5   0  0.6262544E+06  0.9118800E+02  0.7818608E-02  0.1180000E+00
       11   -1    0    0    0    0  0.00000000000E+00  0.00000000000E+00  0.39999999673E+01  0.40000000000E+01  0.51109989000E-03 0.  1.
     -623   -1    0    0    0    0  0.00000000000E+00  0.00000000000E+00  0.12525980253E-10  0.17130000000E+03  0.17130000000E+03 0. -1.
       11    1    1    2    0    0 -0.12743003868E-01  0.26368824737E-01  0.21509424611E+01  0.21511418901E+01  0.51109989000E-03 0.  1.
     -623    1    1    2    0    0  0.15490510713E-01  0.46479205311E-02  0.31691586316E-02  0.17130000079E+03  0.17130000000E+03 0. -1.
      622    1    1    2    0    0 -0.27475068454E-02 -0.31016745268E-01  0.18458883476E+01  0.18488573171E+01  0.10000000000E+00 0.  1.
</event>
<event>
 5   0  0.6262544E+06  0.9118800E+02  0.7818608E-02  0.1180000E+00
       11   -1    0    0    0    0  0.00000000000E+00  0.00000000000E+00  0.39999999673E+01  0.40000000000E+01  0.51109989000E-03 0.  1.
     -623   -1    0    0    0    0  0.00000000000E+00  0.00000000000E+00  0.12525980253E-10  0.17130000000E+03  0.17130000000E+03 0.  1.
       11    1    1    2    0    0 -0.29587136355E-01  0.48433131229E-03  0.30356564635E+00  0.30500491157E+00  0.51109989000E-03 0.  1.
     -623    1    1    2    0    0 -0.26199194093E-02  0.69430999760E-02  0.29407352675E-02  0.17130000019E+03  0.17130000000E+03 0.  1.
      622    1    1    2    0    0  0.32207055764E-01 -0.74274312883E-02  0.36934935858E+01  0.36949949025E+01  0.10000000000E+00 0.  1.
</event>
<event>
 5   0  0.6262544E+06  0.9118800E+02  0.7818608E-02  0.1180000E+00
       11   -1    0    0    0    0  0.00000000000E+00  0.00000000000E+00  0.39999999673E+01  0.40000000000E+01  0.51109989000E-03 0.  1.
     -623   -1    0    0    0    0  0.00000000000E+00  0.00000000000E+00  0.12525980253E-10  0.17130000000E+03  0.17130000000E+03 0. -1.
       11    1    1    2    0    0 -0.84839096260E-01 -0.19850384390E-01  0.16661169894E+01  0.16683937765E+01  0.51109989000E-03 0.  1.
     -623    1    1    2    0    0  0.12880453626E-01  0.26080689309E-01  0.55447758800E-02  0.17130000256E+03  0.17130000000E+03 0. -1.
      622    1    1    2    0    0  0.71958642634E-01 -0.62303049201E-02  0.23283382022E+01  0.23316036642E+01  0.10000000000E+00 0.  0.
</event>
<event>
 5   0  0.6262544E+06  0.9118800E+02  0.7818608E-02  0.1180000E+00
       11   -1    0    0    0    0  0.00000000000E+00  0.00000000000E+00  0.39999999673E+01  0.40000000000E+01  0.51109989000E-03 0. -1.
     -623   -1    0    0    0    0  0.00000000000E+00  0.00000000000E+00  0.12525980253E-10  0.17130000000E+03  0.17130000000E+03 0.  1.
       11    1    1    2    0    0 -0.12755431276E-01 -0.90827217981E-02  0.75587349795E+00  0.75603584769E+00  0.51109989000E-03 0. -1.
     -623    1    1    2    0    0  0.17967303742E-02 -0.41155931945E-02  0.17494566308E-02  0.17130000007E+03  0.17130000000E+03 0.  1.
      622    1    1    2    0    0  0.10958700902E-01  0.13198314993E-01  0.32423770128E+01  0.32439640845E+01  0.10000000000E+00 0. -1.
</event>
<event>
 5   0  0.6262544E+06  0.9118800E+02  0.7818608E-02  0.1180000E+00
       11   -1    0    0    0    0  0.00000000000E+00  0.00000000000E+00  0.39999999673E+01  0.40000000000E+01  0.51109989000E-03 0.  1.
     -623   -1    0    0    0    0  0.00000000000E+00  0.00000000000E+00  0.12525980253E-10  0.17130000000E+03  0.17130000000E+03 0.  1.
       11    1    1    2    0    0 -0.65853662016E-02 -0.96391813552E-02  0.76051090910E-01  0.76943554094E-01  0.51109989000E-03 0.  1.
     -623    1    1    2    0    0  0.91815924391E-02 -0.87449952684E-03  0.21823685286E-02  0.17130000026E+03  0.17130000000E+03 0.  1.
      622    1    1    2    0    0 -0.25962262375E-02  0.10513680882E-01  0.39217665079E+01  0.39230561837E+01  0.10000000000E+00 0.  1.
</event>
<event>
 5   0  0.6262544E+06  0.9118800E+02  0.7818608E-02  0.1180000E+00
       11   -1    0    0    0    0  0.00000000000E+00  0.00000000000E+00  0.39999999673E+01  0.40000000000E+01  0.51109989000E-03 0.  1.
     -623   -1    0    0    0    0  0.00000000000E+00  0.00000000000E+00  0.12525980253E-10  0.17130000000E+03  0.17130000000E+03 0.  1.
       11    1    1    2    0    0 -0.27001224554E-02  0.54715692559E-02  0.23034506634E+00  0.23042642978E+00  0.51109989000E-03 0.  1.
     -623    1    1    2    0    0  0.13608940501E-01  0.12907141119E-01  0.14696172360E-02  0.17130000103E+03  0.17130000000E+03 0.  1.
      622    1    1    2    0    0 -0.10908818046E-01 -0.18378710375E-01  0.37681852838E+01  0.37695725371E+01  0.10000000000E+00 0.  1.
</event>
<event>
 5   0  0.6262544E+06  0.9118800E+02  0.7818608E-02  0.1180000E+00
       11   -1    0    0    0    0  0.00000000000E+00  0.00000000000E+00  0.39999999673E+01  0.40000000000E+01  0.51109989000E-03 0. -1.
     -623   -1    0    0    0    0  0.00000000000E+00  0.00000000000E+00  0.12525980253E-10  0.17130000000E+03  0.17130000000E+03 0.  1.
       11    1    1    2    0    0  0.17992693881E-02 -0.61161568284E-03  0.38371631331E-01  0.38422060827E-01  0.51109989000E-03 0. -1.
     -623    1    1    2    0    0 -0.15742720774E-02  0.18762677671E-02  0.13129521761E-02  0.17130000002E+03  0.17130000000E+03 0.  1.
      622    1    1    2    0    0 -0.22499731061E-03 -0.12646520844E-02  0.39603153842E+01  0.39615779169E+01  0.10000000000E+00 0. -1.
</event>
<event>
 5   0  0.6262544E+06  0.9118800E+02  0.7818608E-02  0.1180000E+00
       11   -1    0    0    0    0  0.00000000000E+00  0.00000000000E+00  0.39999999673E+01  0.40000000000E+01  0.51109989000E-03 0.  1.
     -623   -1    0    0    0    0  0.00000000000E+00  0.00000000000E+00  0.12525980253E-10  0.17130000000E+03  0.17130000000E+03 0.  1.
       11    1    1    2    0    0  0.25066157095E-01 -0.94706245768E-02  0.68916247004E+00  0.68968338845E+00  0.51109989000E-03 0.  1.
     -623    1    1    2    0    0 -0.76083939542E-02 -0.93296026654E-02  0.21315632438E-02  0.17130000044E+03  0.17130000000E+03 0.  1.
      622    1    1    2    0    0 -0.17457763141E-01  0.18800227242E-01  0.33087059339E+01  0.33103161751E+01  0.10000000000E+00 0.  1.
</event>
<event>
 5   0  0.6262544E+06  0.9118800E+02  0.7818608E-02  0.1180000E+00
       11   -1    0    0    0    0  0.00000000000E+00  0.00000000000E+00  0.39999999673E+01  0.40000000000E+01  0.51109989000E-03 0. -1.
     -623   -1    0    0    0    0  0.00000000000E+00  0.00000000000E+00  0.12525980253E-10  0.17130000000E+03  0.17130000000E+03 0. -1.
       11    1    1    2    0    0 -0.19135176786E-02  0.74899520553E-03  0.31897985456E+00  0.31898688277E+00  0.51109989000E-03 0. -1.
     -623    1    1    2    0    0  0.57646131899E-02  0.30382235564E-02  0.13696616697E-02  0.17130000013E+03  0.17130000000E+03 0. -1.
      622    1    1    2    0    0 -0.38510955113E-02 -0.37872187620E-02  0.36796504511E+01  0.36810129878E+01  0.10000000000E+00 0. -1.
</event>
<event>
 5   0  0.6262544E+06  0.9118800E+02  0.7818608E-02  0.1180000E+00
       11   -1    0    0    0    0  0.00000000000E+00  0.00000000000E+00  0.39999999673E+01  0.40000000000E+01  0.51109989000E-03 0. -1.
     -623   -1    0    0    0    0  0.00000000000E+00  0.00000000000E+00  0.12525980253E-10  0.17130000000E+03  0.17130000000E+03 0. -1.
       11    1    1    2    0    0 -0.23267004982E-01 -0.36483281066E-01  0.91085510460E+00  0.91188248481E+00  0.51109989000E-03 0. -1.
     -623    1    1    2    0    0 -0.13157953092E-02  0.19714690937E-02  0.29377810046E-02  0.17130000004E+03  0.17130000000E+03 0. -1.
      622    1    1    2    0    0  0.24582800291E-01  0.34511811972E-01  0.30862070818E+01  0.30881174736E+01  0.10000000000E+00 0.  1.
</event>
<event>
 5   0  0.6262544E+06  0.9118800E+02  0.7818608E-02  0.1180000E+00
       11   -1    0    0    0    0  0.00000000000E+00  0.00000000000E+00  0.39999999673E+01  0.40000000000E+01  0.51109989000E-03 0. -1.
     -623   -1    0    0    0    0  0.00000000000E+00  0.00000000000E+00  0.12525980253E-10  0.17130000000E+03  0.17130000000E+03 0. -1.
       11    1    1    2    0    0 -0.36948651668E-02 -0.16780753242E-02  0.24107156726E-02  0.47477087680E-02  0.51109989000E-03 0. -1.
     -623    1    1    2    0    0  0.40173160968E-02 -0.19922795244E-02  0.35904377831E-02  0.17130000010E+03  0.17130000000E+03 0. -1.
      622    1    1    2    0    0 -0.32245092990E-03  0.36703548486E-02  0.39939988138E+01  0.39952521948E+01  0.10000000000E+00 0. -1.
</event>
<event>
 5   0  0.6262544E+06  0.9118800E+02  0.7818608E-02  0.1180000E+00
       11   -1    0    0    0    0  0.00000000000E+00  0.00000000000E+00  0.39999999673E+01  0.40000000000E+01  0.51109989000E-03 0.  1.
     -623   -1    0    0    0    0  0.00000000000E+00  0.00000000000E+00  0.12525980253E-10  0.17130000000E+03  0.17130000000E+03 0.  1.
       11    1    1    2    0    0 -0.11560254136E-01  0.14388527567E-01  0.37276242987E+00  0.37321945226E+00  0.51109989000E-03 0.  1.
     -623    1    1    2    0    0  0.44119327641E-03  0.42289973911E-02  0.19008032758E-02  0.17130000006E+03  0.17130000000E+03 0.  1.
      622    1    1    2    0    0  0.11119060860E-01 -0.18617524958E-01  0.36253367342E+01  0.36267804844E+01  0.10000000000E+00 0.  1.
</event>
<event>
 5   0  0.6262544E+06  0.9118800E+02  0.7818608E-02  0.1180000E+00
       11   -1    0    0    0    0  0.00000000000E+00  0.00000000000E+00  0.39999999673E+01  0.40000000000E+01  0.51109989000E-03 0. -1.
     -623   -1    0    0    0    0  0.00000000000E+00  0.00000000000E+00  0.12525980253E-10  0.17130000000E+03  0.17130000000E+03 0.  1.
       11    1    1    2    0    0  0.15589909159E-01  0.11581229180E-01  0.22128580306E-02  0.19553212008E-01  0.51109989000E-03 0. -1.
     -623    1    1    2    0    0 -0.19238207132E-01  0.66810688095E-03  0.18619280547E-01  0.17130000209E+03  0.17130000000E+03 0.  1.
      622    1    1    2    0    0  0.36482979728E-02 -0.12249336061E-01  0.39791678288E+01  0.39804446945E+01  0.10000000000E+00 0. -1.
</event>
<event>
 5   0  0.6262544E+06  0.9118800E+02  0.7818608E-02  0.1180000E+00
       11   -1    0    0    0    0  0.00000000000E+00  0.00000000000E+00  0.39999999673E+01  0.40000000000E+01  0.51109989000E-03 0.  1.
     -623   -1    0    0    0    0  0.00000000000E+00  0.00000000000E+00  0.12525980253E-10  0.17130000000E+03  0.17130000000E+03 0.  1.
       11    1    1    2    0    0  0.48475751280E-02  0.14010118202E-01  0.28623026491E+00  0.28661438932E+00  0.51109989000E-03 0.  1.
     -623    1    1    2    0    0 -0.91609106136E-02 -0.69417377589E-02  0.17404464761E-02  0.17130000039E+03  0.17130000000E+03 0.  1.
      622    1    1    2    0    0  0.43133354856E-02 -0.70683804433E-02  0.37120292560E+01  0.37133852162E+01  0.10000000000E+00 0.  0.
</event>
<event>
 5   0  0.6262544E+06  0.9118800E+02  0.7818608E-02  0.1180000E+00
       11   -1    0    0    0    0  0.00000000000E+00  0.00000000000E+00  0.39999999673E+01  0.40000000000E+01  0.51109989000E-03 0.  1.
     -623   -1    0    0    0    0  0.00000000000E+00  0.00000000000E+00  0.12525980253E-10  0.17130000000E+03  0.17130000000E+03 0. -1.
       11    1    1    2    0    0  0.37038015678E-01  0.18860394133E-01  0.30680798360E+00  0.30961093180E+00  0.51109989000E-03 0.  1.
     -623    1    1    2    0    0 -0.51640551102E-01 -0.14517531142E-01  0.41979461869E-02  0.17130000845E+03  0.17130000000E+03 0. -1.
      622    1    1    2    0    0  0.14602535424E-01 -0.43428629902E-02  0.36889940376E+01  0.36903806177E+01  0.10000000000E+00 0.  1.
</event>
<event>
 5   0  0.6262544E+06  0.9118800E+02  0.7818608E-02  0.1180000E+00
       11   -1    0    0    0    0  0.00000000000E+00  0.00000000000E+00  0.39999999673E+01  0.40000000000E+01  0.51109989000E-03 0. -1.
     -623   -1    0    0    0    0  0.00000000000E+00  0.00000000000E+00  0.12525980253E-10  0.17130000000E+03  0.17130000000E+03 0. -1.
       11    1    1    2    0    0  0.17493470668E-01  0.76870024480E-02  0.65312495832E-01  0.68052148075E-01  0.51109989000E-03 0. -1.
     -623    1    1    2    0    0 -0.10744176231E-01  0.65568237973E-02  0.40435727652E-02  0.17130000051E+03  0.17130000000E+03 0. -1.
      622    1    1    2    0    0 -0.67492944365E-02 -0.14243826245E-01  0.39306438988E+01  0.39319473418E+01  0.10000000000E+00 0. -1.
</event>
<event>
 5   0  0.6262544E+06  0.9118800E+02  0.7818608E-02  0.1180000E+00
       11   -1    0    0    0    0  0.00000000000E+00  0.00000000000E+00  0.39999999673E+01  0.40000000000E+01  0.51109989000E-03 0.  1.
     -623   -1    0    0    0    0  0.00000000000E+00  0.00000000000E+00  0.12525980253E-10  0.17130000000E+03  0.17130000000E+03 0. -1.
       11    1    1    2    0    0 -0.25123277183E-02  0.24681772115E-01  0.10020940370E+01  0.10024012280E+01  0.51109989000E-03 0.  1.
     -623    1    1    2    0    0  0.31884714034E-02  0.27574323648E-02  0.21014236202E-02  0.17130000006E+03  0.17130000000E+03 0. -1.
      622    1    1    2    0    0 -0.67614368512E-03 -0.27439204480E-01  0.29958045068E+01  0.29975987074E+01  0.10000000000E+00 0.  1.
</event>
<event>
 5   0  0.6262544E+06  0.9118800E+02  0.7818608E-02  0.1180000E+00
       11   -1    0    0    0    0  0.00000000000E+00  0.00000000000E+00  0.39999999673E+01  0.40000000000E+01  0.51109989000E-03 0. -1.
     -623   -1    0    0    0    0  0.00000000000E+00  0.00000000000E+00  0.12525980253E-10  0.17130000000E+03  0.17130000000E+03 0.  1.
       11    1    1    2    0    0  0.71758082813E-01 -0.11890907729E-01  0.52836763758E+00  0.53335095182E+00  0.51109989000E-03 0. -1.
     -623    1    1    2    0    0 -0.15196414897E-01  0.35483471778E-01  0.69723674732E-02  0.17130000449E+03  0.17130000000E+03 0.  1.
      622    1    1    2    0    0 -0.56561667916E-01 -0.23592564050E-01  0.34646599623E+01  0.34666445572E+01  0.10000000000E+00 0. -1.
</event>
<event>
 5   0  0.6262544E+06  0.9118800E+02  0.7818608E-02  0.1180000E+00
       11   -1    0    0    0    0  0.00000000000E+00  0.00000000000E+00  0.39999999673E+01  0.40000000000E+01  0.51109989000E-03 0. -1.
     -623   -1    0    0    0    0  0.00000000000E+00  0.00000000000E+00  0.12525980253E-10  0.17130000000E+03  0.17130000000E+03 0.  1.
       11    1    1    2    0    0 -0.19172597550E-01 -0.27226462167E-01  0.16214881127E+01  0.16218300865E+01  0.51109989000E-03 0. -1.
     -623    1    1    2    0    0  0.13642245557E-01 -0.27069296682E-01  0.30749190065E-02  0.17130000271E+03  0.17130000000E+03 0.  1.
      622    1    1    2    0    0  0.55303519920E-02  0.54295758851E-01  0.23754369359E+01  0.23781672041E+01  0.10000000000E+00 0.  0.
</event>
<event>
 5   0  0.6262544E+06  0.9118800E+02  0.7818608E-02  0.1180000E+00
       11   -1    0    0    0    0  0.00000000000E+00  0.00000000000E+00  0.39999999673E+01  0.40000000000E+01  0.51109989000E-03 0.  1.
     -623   -1    0    0    0    0  0.00000000000E+00  0.00000000000E+00  0.12525980253E-10  0.17130000000E+03  0.17130000000E+03 0. -1.
       11    1    1    2    0    0 -0.21856035029E-01 -0.14022587869E-01  0.12728207656E+01  0.12730857323E+01  0.51109989000E-03 0.  1.
     -623    1    1    2    0    0 -0.10243184726E-02 -0.23981499366E-02  0.22446917793E-02  0.17130000003E+03  0.17130000000E+03 0. -1.
      622    1    1    2    0    0  0.22880353502E-01  0.16420737805E-01  0.27249345100E+01  0.27269142332E+01  0.10000000000E+00 0.  0.
</event>
<event>
 5   0  0.6262544E+06  0.9118800E+02  0.7818608E-02  0.1180000E+00
       11   -1    0    0    0    0  0.00000000000E+00  0.00000000000E+00  0.39999999673E+01  0.40000000000E+01  0.51109989000E-03 0. -1.
     -623   -1    0    0    0    0  0.00000000000E+00  0.00000000000E+00  0.12525980253E-10  0.17130000000E+03  0.17130000000E+03 0. -1.
       11    1    1    2    0    0  0.36496035004E-01  0.63719464344E-02  0.40756369104E+00  0.40924440833E+00  0.51109989000E-03 0. -1.
     -623    1    1    2    0    0 -0.51840611677E-03 -0.71289498659E-02  0.32539929318E-02  0.17130000018E+03  0.17130000000E+03 0. -1.
      622    1    1    2    0    0 -0.35977628887E-01  0.75700343153E-03  0.35891822834E+01  0.35907554116E+01  0.10000000000E+00 0. -1.
</event>
<event>
 5   0  0.6262544E+06  0.9118800E+02  0.7818608E-02  0.1180000E+00
       11   -1    0    0    0    0  0.00000000000E+00  0.00000000000E+00  0.39999999673E+01  0.40000000000E+01  0.51109989000E-03 0. -1.
     -623   -1    0    0    0    0  0.00000000000E+00  0.00000000000E+00  0.12525980253E-10  0.17130000000E+03  0.17130000000E+03 0.  1.
       11    1    1    2    0    0  0.33226583320E-02 -0.55566582978E-02  0.15706288875E+00  0.15719710160E+00  0.51109989000E-03 0. -1.
     -623    1    1    2    0    0 -0.69279465040E-02  0.13061252764E-01  0.14452006691E-02  0.17130000064E+03  0.17130000000E+03 0.  1.
      622    1    1    2    0    0  0.36052881720E-02 -0.75045944667E-02  0.38414918779E+01  0.38428022543E+01  0.10000000000E+00 0. -1.
</event>
<event>
 5   0  0.6262544E+06  0.9118800E+02  0.7818608E-02  0.1180000E+00
       11   -1    0    0    0    0  0.00000000000E+00  0.00000000000E+00  0.39999999673E+01  0.40000000000E+01  0.51109989000E-03 0.  1.
     -623   -1    0    0    0    0  0.00000000000E+00  0.00000000000E+00  0.12525980253E-10  0.17130000000E+03  0.17130000000E+03 0.  1.
       11    1    1    2    0    0  0.92746377427E-02 -0.18426777791E-02  0.43944043633E+00  0.43954245833E+00  0.51109989000E-03 0.  1.
     -623    1    1    2    0    0  0.77128296648E-03 -0.90543794332E-03  0.15218302101E-02  0.17130000001E+03  0.17130000000E+03 0.  1.
      622    1    1    2    0    0 -0.10045920709E-01  0.27481157225E-02  0.35590377010E+01  0.35604575309E+01  0.10000000000E+00 0.  1.
</event>
<event>
 5   0  0.6262544E+06  0.9118800E+02  0.7818608E-02  0.1180000E+00
       11   -1    0    0    0    0  0.00000000000E+00  0.00000000000E+00  0.39999999673E+01  0.40000000000E+01  0.51109989000E-03 0. -1.
     -623   -1    0    0    0    0  0.00000000000E+00  0.00000000000E+00  0.12525980253E-10  0.17130000000E+03  0.17130000000E+03 0. -1.
       11    1    1    2    0    0 -0.30459203447E-01  0.81766870618E-02  0.11995242345E+01  0.11999388617E+01  0.51109989000E-03 0. -1.
     -623    1    1    2    0    0  0.21865573844E-01 -0.16116504505E-01  0.22274691163E-02  0.17130000217E+03  0.17130000000E+03 0. -1.
      622    1    1    2    0    0  0.85936296026E-02  0.79398174434E-02  0.27982482637E+01  0.28000589702E+01  0.10000000000E+00 0.  1.
</event>
<event>
 5   0  0.6262544E+06  0.9118800E+02  0.7818608E-02  0.1180000E+00
       11   -1    0    0    0    0  0.00000000000E+00  0.00000000000E+00  0.39999999673E+01  0.40000000000E+01  0.51109989000E-03 0.  1.
     -623   -1    0    0    0    0  0.00000000000E+00  0.00000000000E+00  0.12525980253E-10  0.17130000000E+03  0.17130000000E+03 0. -1.
       11    1    1    2    0    0 -0.25634086857E-02  0.18818789646E-02  0.11556788106E+00  0.11561275400E+00  0.51109989000E-03 0.  1.
     -623    1    1    2    0    0  0.26847183178E-02  0.71557515865E-02  0.13429528911E-02  0.17130000018E+03  0.17130000000E+03 0. -1.
      622    1    1    2    0    0 -0.12130963205E-03 -0.90376305510E-02  0.38830891334E+01  0.38843870702E+01  0.10000000000E+00 0.  1.
</event>
<event>
 5   0  0.6262544E+06  0.9118800E+02  0.7818608E-02  0.1180000E+00
       11   -1    0    0    0    0  0.00000000000E+00  0.00000000000E+00  0.39999999673E+01  0.40000000000E+01  0.51109989000E-03 0. -1.
     -623   -1    0    0    0    0  0.00000000000E+00  0.00000000000E+00  0.12525980253E-10  0.17130000000E+03  0.17130000000E+03 0. -1.
       11    1    1    2    0    0 -0.11867495864E-03  0.90045378100E-02  0.25612495296E+00  0.25628372664E+00  0.51109989000E-03 0. -1.
     -623    1    1    2    0    0  0.36803707441E-02  0.20614971096E-02  0.15126650598E-02  0.17130000006E+03  0.17130000000E+03 0. -1.
      622    1    1    2    0    0 -0.35616957854E-02 -0.11066034920E-01  0.37423623492E+01  0.37437162146E+01  0.10000000000E+00 0. -1.
</event>
<event>
 5   0  0.6262544E+06  0.9118800E+02  0.7818608E-02  0.1180000E+00
       11   -1    0    0    0    0  0.00000000000E+00  0.00000000000E+00  0.39999999673E+01  0.40000000000E+01  0.51109989000E-03 0. -1.
     -623   -1    0    0    0    0  0.00000000000E+00  0.00000000000E+00  0.12525980253E-10  0.17130000000E+03  0.17130000000E+03 0.  1.
       11    1    1    2    0    0  0.71249042110E-02 -0.53454919725E-02  0.66586692971E-01  0.67181749350E-01  0.51109989000E-03 0. -1.
     -623    1    1    2    0    0 -0.31347733351E-02 -0.42680853185E-02  0.18804530059E-02  0.17130000009E+03  0.17130000000E+03 0.  1.
      622    1    1    2    0    0 -0.39901308759E-02  0.96135772910E-02  0.39315328214E+01  0.39328181585E+01  0.10000000000E+00 0. -1.
</event>
<event>
 5   0  0.6262544E+06  0.9118800E+02  0.7818608E-02  0.1180000E+00
       11   -1    0    0    0    0  0.00000000000E+00  0.00000000000E+00  0.39999999673E+01  0.40000000000E+01  0.51109989000E-03 0. -1.
     -623   -1    0    0    0    0  0.00000000000E+00  0.00000000000E+00  0.12525980253E-10  0.17130000000E+03  0.17130000000E+03 0. -1.
       11    1    1    2    0    0  0.60552550108E-02  0.13871814147E-01  0.51413100595E-01  0.53597215197E-01  0.51109989000E-03 0. -1.
     -623    1    1    2    0    0 -0.81120223816E-02  0.22847935922E-02  0.34851244091E-02  0.17130000024E+03  0.17130000000E+03 0. -1.
      622    1    1    2    0    0  0.20567673707E-02 -0.16156607739E-01  0.39451017423E+01  0.39464025419E+01  0.10000000000E+00 0. -1.
</event>
<event>
 5   0  0.6262544E+06  0.9118800E+02  0.7818608E-02  0.1180000E+00
       11   -1    0    0    0    0  0.00000000000E+00  0.00000000000E+00  0.39999999673E+01  0.40000000000E+01  0.51109989000E-03 0. -1.
     -623   -1    0    0    0    0  0.00000000000E+00  0.00000000000E+00  0.12525980253E-10  0.17130000000E+03  0.17130000000E+03 0.  1.
       11    1    1    2    0    0 -0.33144785072E-01 -0.64786050989E-01  0.18970439546E+01  0.18984393158E+01  0.51109989000E-03 0. -1.
     -623    1    1    2    0    0  0.14383275007E-01 -0.15504154574E-01  0.53972047171E-02  0.17130000139E+03  0.17130000000E+03 0.  1.
      622    1    1    2    0    0  0.18761510065E-01  0.80290205562E-01  0.20975588081E+01  0.21015592936E+01  0.10000000000E+00 0. -1.
</event>
<event>
 5   0  0.6262544E+06  0.9118800E+02  0.7818608E-02  0.1180000E+00
       11   -1    0    0    0    0  0.00000000000E+00  0.00000000000E+00  0.39999999673E+01  0.40000000000E+01  0.51109989000E-03 0.  1.
     -623   -1    0    0    0    0  0.00000000000E+00  0.00000000000E+00  0.12525980253E-10  0.17130000000E+03  0.17130000000E+03 0.  1.
       11    1    1    2    0    0 -0.14791711306E-01 -0.19898856067E-01  0.16363344178E+01  0.16365223333E+01  0.51109989000E-03 0.  1.
     -623    1    1    2    0    0  0.91292612179E-03  0.50641800980E-02  0.23918363790E-02  0.17130000009E+03  0.17130000000E+03 0.  1.
      622    1    1    2    0    0  0.13878785184E-01  0.14834675969E-01  0.23612737131E+01  0.23634775727E+01  0.10000000000E+00 0.  1.
</event>
<event>
 5   0  0.6262544E+06  0.9118800E+02  0.7818608E-02  0.1180000E+00
       11   -1    0    0    0    0  0.00000000000E+00  0.00000000000E+00  0.39999999673E+01  0.40000000000E+01  0.51109989000E-03 0.  1.
     -623   -1    0    0    0    0  0.00000000000E+00  0.00000000000E+00  0.12525980253E-10  0.17130000000E+03  0.17130000000E+03 0. -1.
       11    1    1    2    0    0  0.39653415939E-01 -0.62138311351E-01  0.22706914677E+01  0.22718876658E+01  0.51109989000E-03 0.  1.
     -623    1    1    2    0    0 -0.46871027865E-01  0.77481956069E-02  0.49712810526E-02  0.17130000666E+03  0.17130000000E+03 0. -1.
      622    1    1    2    0    0  0.72176119266E-02  0.54390115744E-01  0.17243372187E+01  0.17281056745E+01  0.10000000000E+00 0.  1.
</event>
<event>
 5   0  0.6262544E+06  0.9118800E+02  0.7818608E-02  0.1180000E+00
       11   -1    0    0    0    0  0.00000000000E+00  0.00000000000E+00  0.39999999673E+01  0.40000000000E+01  0.51109989000E-03 0. -1.
     -623   -1    0    0    0    0  0.00000000000E+00  0.00000000000E+00  0.12525980253E-10  0.17130000000E+03  0.17130000000E+03 0.  1.
       11    1    1    2    0    0 -0.56120111892E-02  0.74448939700E-02  0.41330646501E-01  0.42372215877E-01  0.51109989000E-03 0. -1.
     -623    1    1    2    0    0  0.13476755139E-01 -0.13798705541E-01  0.23191425812E-02  0.17130000110E+03  0.17130000000E+03 0.  1.
      622    1    1    2    0    0 -0.78647439503E-02  0.63538115707E-02  0.39563501783E+01  0.39576266825E+01  0.10000000000E+00 0. -1.
</event>
<event>
 5   0  0.6262544E+06  0.9118800E+02  0.7818608E-02  0.1180000E+00
       11   -1    0    0    0    0  0.00000000000E+00  0.00000000000E+00  0.39999999673E+01  0.40000000000E+01  0.51109989000E-03 0. -1.
     -623   -1    0    0    0    0  0.00000000000E+00  0.00000000000E+00  0.12525980253E-10  0.17130000000E+03  0.17130000000E+03 0.  1.
       11    1    1    2    0    0  0.22944492988E-03  0.19800615647E-02  0.21865088049E-01  0.21961707245E-01  0.51109989000E-03 0. -1.
     -623    1    1    2    0    0  0.38032991972E-03 -0.40980548467E-02  0.13543516793E-02  0.17130000005E+03  0.17130000000E+03 0.  1.
      622    1    1    2    0    0 -0.60977484959E-03  0.21179932820E-02  0.39767805276E+01  0.39780382380E+01  0.10000000000E+00 0. -1.
</event>
<event>
 5   0  0.6262544E+06  0.9118800E+02  0.7818608E-02  0.1180000E+00
       11   -1    0    0    0    0  0.00000000000E+00  0.00000000000E+00  0.39999999673E+01  0.40000000000E+01  0.51109989000E-03 0.  1.
     -623   -1    0    0    0    0  0.00000000000E+00  0.00000000000E+00  0.12525980253E-10  0.17130000000E+03  0.17130000000E+03 0.  1.
       11    1    1    2    0    0 -0.11458556717E-02 -0.80040693820E-02  0.45443586124E+00  0.45450807619E+00  0.51109989000E-03 0.  1.
     -623    1    1    2    0    0 -0.28469520584E-01  0.70657821796E-02  0.16090882907E-02  0.17130000252E+03  0.17130000000E+03 0.  1.
      622    1    1    2    0    0  0.29615376256E-01  0.93828720243E-03  0.35439550178E+01  0.35454894048E+01  0.10000000000E+00 0.  1.
</event>
<event>
 5   0  0.6262544E+06  0.9118800E+02  0.7818608E-02  0.1180000E+00
       11   -1    0    0    0    0  0.00000000000E+00  0.00000000000E+00  0.39999999673E+01  0.40000000000E+01  0.51109989000E-03 0. -1.
     -623   -1    0    0    0    0  0.00000000000E+00  0.00000000000E+00  0.12525980253E-10  0.17130000000E+03  0.17130000000E+03 0.  1.
       11    1    1    2    0    0 -0.43417513378E-03 -0.14707208554E-02 -0.41108261226E-04  0.16169232722E-02  0.51109989000E-03 0. -1.
     -623    1    1    2    0    0  0.24937420550E-02  0.31822376020E-02  0.29096694723E-02  0.17130000007E+03  0.17130000000E+03 0.  1.
      622    1    1    2    0    0 -0.20595669212E-02 -0.17115167466E-02  0.39971314062E+01  0.39983830043E+01  0.10000000000E+00 0. -1.
</event>
<event>
 5   0  0.6262544E+06  0.9118800E+02  0.7818608E-02  0.1180000E+00
       11   -1    0    0    0    0  0.00000000000E+00  0.00000000000E+00  0.39999999673E+01  0.40000000000E+01  0.51109989000E-03 0. -1.
     -623   -1    0    0    0    0  0.00000000000E+00  0.00000000000E+00  0.12525980253E-10  0.17130000000E+03  0.17130000000E+03 0.  1.
       11    1    1    2    0    0  0.26598513729E-01  0.15737546394E-01  0.32108955210E+00  0.32257388764E+00  0.51109989000E-03 0. -1.
     -623    1    1    2    0    0  0.56370848253E-02  0.80204372420E-02  0.30626257357E-02  0.17130000031E+03  0.17130000000E+03 0.  1.
      622    1    1    2    0    0 -0.32235598554E-01 -0.23757983636E-01  0.36758477895E+01  0.36774258045E+01  0.10000000000E+00 0.  0.
</event>
<event>
 5   0  0.6262544E+06  0.9118800E+02  0.7818608E-02  0.1180000E+00
       11   -1    0    0    0    0  0.00000000000E+00  0.00000000000E+00  0.39999999673E+01  0.40000000000E+01  0.51109989000E-03 0. -1.
     -623   -1    0    0    0    0  0.00000000000E+00  0.00000000000E+00  0.12525980253E-10  0.17130000000E+03  0.17130000000E+03 0.  1.
       11    1    1    2    0    0  0.25620155861E-02 -0.24866476330E-02  0.29950441429E-01  0.30166827872E-01  0.51109989000E-03 0. -1.
     -623    1    1    2    0    0 -0.50288014705E-04  0.24915114082E-02  0.14768717817E-02  0.17130000002E+03  0.17130000000E+03 0.  1.
      622    1    1    2    0    0 -0.25117275714E-02 -0.48637752205E-05  0.39685726541E+01  0.39698331476E+01  0.10000000000E+00 0. -1.
</event>
<event>
 5   0  0.6262544E+06  0.9118800E+02  0.7818608E-02  0.1180000E+00
       11   -1    0    0    0    0  0.00000000000E+00  0.00000000000E+00  0.39999999673E+01  0.40000000000E+01  0.51109989000E-03 0. -1.
     -623   -1    0    0    0    0  0.00000000000E+00  0.00000000000E+00  0.12525980253E-10  0.17130000000E+03  0.17130000000E+03 0. -1.
       11    1    1    2    0    0 -0.30619160618E-02  0.77109468201E-04  0.92418651731E-02  0.97495933666E-02  0.51109989000E-03 0. -1.
     -623    1    1    2    0    0  0.82160604087E-02  0.15322607341E-02  0.17648140629E-02  0.17130000021E+03  0.17130000000E+03 0. -1.
      622    1    1    2    0    0 -0.51541443475E-02 -0.16093702024E-02  0.39889932884E+01  0.39902501940E+01  0.10000000000E+00 0. -1.
</event>
<event>
 5   0  0.6262544E+06  0.9118800E+02  0.7818608E-02  0.1180000E+00
       11   -1    0    0    0    0  0.00000000000E+00  0.00000000000E+00  0.39999999673E+01  0.40000000000E+01  0.51109989000E-03 0. -1.
     -623   -1    0    0    0    0  0.00000000000E+00  0.00000000000E+00  0.12525980253E-10  0.17130000000E+03  0.17130000000E+03 0. -1.
       11    1    1    2    0    0  0.28798970599E-01 -0.12565450909E-01  0.21123619155E+01  0.21125956534E+01  0.51109989000E-03 0. -1.
     -623    1    1    2    0    0 -0.60639759976E-02  0.19980792950E-02  0.30516073859E-02  0.17130000015E+03  0.17130000000E+03 0. -1.
      622    1    1    2    0    0 -0.22734994601E-01  0.10567371614E-01  0.18845864444E+01  0.18874042004E+01  0.10000000000E+00 0. -1.
</event>
<event>
 5   0  0.6262544E+06  0.9118800E+02  0.7818608E-02  0.1180000E+00
       11   -1    0    0    0    0  0.00000000000E+00  0.00000000000E+00  0.39999999673E+01  0.40000000000E+01  0.51109989000E-03 0.  1.
     -623   -1    0    0    0    0  0.00000000000E+00  0.00000000000E+00  0.12525980253E-10  0.17130000000E+03  0.17130000000E+03 0. -1.
       11    1    1    2    0    0 -0.18214454774E-01 -0.29739312653E-02  0.12155246187E+00  0.12294662597E+00  0.51109989000E-03 0.  1.
     -623    1    1    2    0    0  0.18273888840E-01 -0.11897182250E-01  0.27139254764E-02  0.17130000141E+03  0.17130000000E+03 0. -1.
      622    1    1    2    0    0 -0.59434066172E-04  0.14871113515E-01  0.38757335800E+01  0.38770519647E+01  0.10000000000E+00 0.  1.
</event>
<event>
 5   0  0.6262544E+06  0.9118800E+02  0.7818608E-02  0.1180000E+00
       11   -1    0    0    0    0  0.00000000000E+00  0.00000000000E+00  0.39999999673E+01  0.40000000000E+01  0.51109989000E-03 0.  1.
     -623   -1    0    0    0    0  0.00000000000E+00  0.00000000000E+00  0.12525980253E-10  0.17130000000E+03  0.17130000000E+03 0. -1.
       11    1    1    2    0    0 -0.45044661792E-02 -0.27399200844E-02  0.11431792289E-01  0.12599383940E-01  0.51109989000E-03 0.  1.
     -623    1    1    2    0    0  0.50687950622E-02  0.46305960342E-03  0.24224889793E-02  0.17130000009E+03  0.17130000000E+03 0. -1.
      622    1    1    2    0    0 -0.56432888309E-03  0.22768604810E-02  0.39861456862E+01  0.39874005234E+01  0.10000000000E+00 0.  1.
</event>
<event>
 5   0  0.6262544E+06  0.9118800E+02  0.7818608E-02  0.1180000E+00
       11   -1    0    0    0    0  0.00000000000E+00  0.00000000000E+00  0.39999999673E+01  0.40000000000E+01  0.51109989000E-03 0. -1.
     -623   -1    0    0    0    0  0.00000000000E+00  0.00000000000E+00  0.12525980253E-10  0.17130000000E+03  0.17130000000E+03 0.  1.
       11    1    1    2    0    0  0.18908595668E-01 -0.64887033023E-02  0.70576229624E+00  0.70604554972E+00  0.51109989000E-03 0. -1.
     -623    1    1    2    0    0 -0.22555050501E-01  0.21874323262E-01  0.18423640531E-02  0.17130000289E+03  0.17130000000E+03 0.  1.
      622    1    1    2    0    0  0.36464548333E-02 -0.15385619961E-01  0.32923953072E+01  0.32939515589E+01  0.10000000000E+00 0. -1.
</event>
<event>
 5   0  0.6262544E+06  0.9118800E+02  0.7818608E-02  0.1180000E+00
       11   -1    0    0    0    0  0.00000000000E+00  0.00000000000E+00  0.39999999673E+01  0.40000000000E+01  0.51109989000E-03 0.  1.
     -623   -1    0    0    0    0  0.00000000000E+00  0.00000000000E+00  0.12525980253E-10  0.17130000000E+03  0.17130000000E+03 0. -1.
       11    1    1    2    0    0  0.10741445453E-01 -0.79493532049E-01  0.32534006937E+00  0.33508360486E+00  0.51109989000E-03 0.  1.
     -623    1    1    2    0    0  0.10371404573E-01  0.86852222170E-01  0.11198978383E-01  0.17130002270E+03  0.17130000000E+03 0. -1.
      622    1    1    2    0    0 -0.21112850026E-01 -0.73586901212E-02  0.36634609196E+01  0.36648936973E+01  0.10000000000E+00 0.  1.
</event>
<event>
 5   0  0.6262544E+06  0.9118800E+02  0.7818608E-02  0.1180000E+00
       11   -1    0    0    0    0  0.00000000000E+00  0.00000000000E+00  0.39999999673E+01  0.40000000000E+01  0.51109989000E-03 0. -1.
     -623   -1    0    0    0    0  0.00000000000E+00  0.00000000000E+00  0.12525980253E-10  0.17130000000E+03  0.17130000000E+03 0. -1.
       11    1    1    2    0    0  0.16468623696E-01 -0.92205089449E-02  0.26975702030E-01  0.32926935362E-01  0.51109989000E-03 0. -1.
     -623    1    1    2    0    0 -0.14202269040E-01  0.36399867111E-01  0.73101740815E-02  0.17130000461E+03  0.17130000000E+03 0. -1.
      622    1    1    2    0    0 -0.22663546559E-02 -0.27179358166E-01  0.39657140912E+01  0.39670684526E+01  0.10000000000E+00 0. -1.
</event>
<event>
 5   0  0.6262544E+06  0.9118800E+02  0.7818608E-02  0.1180000E+00
       11   -1    0    0    0    0  0.00000000000E+00  0.00000000000E+00  0.39999999673E+01  0.40000000000E+01  0.51109989000E-03 0.  1.
     -623   -1    0    0    0    0  0.00000000000E+00  0.00000000000E+00  0.12525980253E-10  0.17130000000E+03  0.17130000000E+03 0.  1.
       11    1    1    2    0    0  0.99194973276E-02  0.11884857832E-01  0.69110647758E-01  0.70825060031E-01  0.51109989000E-03 0.  1.
     -623    1    1    2    0    0 -0.24761779530E-02  0.17282333600E-02  0.30178131011E-02  0.17130000005E+03  0.17130000000E+03 0.  1.
      622    1    1    2    0    0 -0.74433193747E-02 -0.13613091192E-01  0.39278715065E+01  0.39291748868E+01  0.10000000000E+00 0.  1.
</event>
<event>
 5   0  0.6262544E+06  0.9118800E+02  0.7818608E-02  0.1180000E+00
       11   -1    0    0    0    0  0.00000000000E+00  0.00000000000E+00  0.39999999673E+01  0.40000000000E+01  0.51109989000E-03 0. -1.
     -623   -1    0    0    0    0  0.00000000000E+00  0.00000000000E+00  0.12525980253E-10  0.17130000000E+03  0.17130000000E+03 0. -1.
       11    1    1    2    0    0 -0.32804860830E-01 -0.15459203476E-01  0.19698223203E+00  0.20029330199E+00  0.51109989000E-03 0. -1.
     -623    1    1    2    0    0  0.23363964906E-02 -0.12074349742E-01  0.48496650125E-02  0.17130000051E+03  0.17130000000E+03 0. -1.
      622    1    1    2    0    0  0.30468464339E-01  0.27533553218E-01  0.37981680703E+01  0.37997061879E+01  0.10000000000E+00 0. -1.
</event>
<event>
 5   0  0.6262544E+06  0.9118800E+02  0.7818608E-02  0.1180000E+00
       11   -1    0    0    0    0  0.00000000000E+00  0.00000000000E+00  0.39999999673E+01  0.40000000000E+01  0.51109989000E-03 0. -1.
     -623   -1    0    0    0    0  0.00000000000E+00  0.00000000000E+00  0.12525980253E-10  0.17130000000E+03  0.17130000000E+03 0. -1.
       11    1    1    2    0    0  0.30052377641E-01 -0.10690468767E-01  0.15308533234E+00  0.15637394835E+00  0.51109989000E-03 0. -1.
     -623    1    1    2    0    0 -0.53677983698E-02  0.89278863507E-02  0.46697358100E-02  0.17130000038E+03  0.17130000000E+03 0. -1.
      622    1    1    2    0    0 -0.24684579271E-01  0.17625824166E-02  0.38422448992E+01  0.38436256712E+01  0.10000000000E+00 0. -1.
</event>
<event>
 5   0  0.6262544E+06  0.9118800E+02  0.7818608E-02  0.1180000E+00
       11   -1    0    0    0    0  0.00000000000E+00  0.00000000000E+00  0.39999999673E+01  0.40000000000E+01  0.51109989000E-03 0. -1.
     -623   -1    0    0    0    0  0.00000000000E+00  0.00000000000E+00  0.12525980253E-10  0.17130000000E+03  0.17130000000E+03 0.  1.
       11    1    1    2    0    0  0.68628913559E-02 -0.15208951727E-03  0.10371724685E+00  0.10394542281E+00  0.51109989000E-03 0. -1.
     -623    1    1    2    0    0 -0.48376991583E-02  0.50859490441E-02  0.15155065188E-02  0.17130000015E+03  0.17130000000E+03 0.  1.
      622    1    1    2    0    0 -0.20251921976E-02 -0.49338595268E-02  0.38947672140E+01  0.38960544267E+01  0.10000000000E+00 0. -1.
</event>
<event>
 5   0  0.6262544E+06  0.9118800E+02  0.7818608E-02  0.1180000E+00
       11   -1    0    0    0    0  0.00000000000E+00  0.00000000000E+00  0.39999999673E+01  0.40000000000E+01  0.51109989000E-03 0. -1.
     -623   -1    0    0    0    0  0.00000000000E+00  0.00000000000E+00  0.12525980253E-10  0.17130000000E+03  0.17130000000E+03 0.  1.
       11    1    1    2    0    0  0.14498834807E-01  0.58922203753E-02  0.47905278818E+00  0.47930863706E+00  0.51109989000E-03 0. -1.
     -623    1    1    2    0    0 -0.22899404225E-01  0.19554964576E-01  0.17809651029E-02  0.17130000266E+03  0.17130000000E+03 0.  1.
      622    1    1    2    0    0  0.84005694184E-02 -0.25447184952E-01  0.35191662141E+01  0.35206887069E+01  0.10000000000E+00 0. -1.
</event>
<event>
 5   0  0.6262544E+06  0.9118800E+02  0.7818608E-02  0.1180000E+00
       11   -1    0    0    0    0  0.00000000000E+00  0.00000000000E+00  0.39999999673E+01  0.40000000000E+01  0.51109989000E-03 0.  1.
     -623   -1    0    0    0    0  0.00000000000E+00  0.00000000000E+00  0.12525980253E-10  0.17130000000E+03  0.17130000000E+03 0.  1.
       11    1    1    2    0    0 -0.56100794417E-01 -0.23515265707E-02  0.37055727438E+00  0.37478765138E+00  0.51109989000E-03 0.  1.
     -623    1    1    2    0    0  0.15665051778E-01 -0.18222703763E-01  0.58956368515E-02  0.17130000179E+03  0.17130000000E+03 0.  1.
      622    1    1    2    0    0  0.40435742639E-01  0.20574230333E-01  0.36235470561E+01  0.36252105616E+01  0.10000000000E+00 0.  1.
</event>
<event>
 5   0  0.6262544E+06  0.9118800E+02  0.7818608E-02  0.1180000E+00
       11   -1    0    0    0    0  0.00000000000E+00  0.00000000000E+00  0.39999999673E+01  0.40000000000E+01  0.51109989000E-03 0. -1.
     -623   -1    0    0    0    0  0.00000000000E+00  0.00000000000E+00  0.12525980253E-10  0.17130000000E+03  0.17130000000E+03 0.  1.
       11    1    1    2    0    0 -0.32776666039E-02  0.24715741551E-01  0.98986760124E+00  0.99018167029E+00  0.51109989000E-03 0. -1.
     -623    1    1    2    0    0  0.13692175973E-02 -0.33745389715E-01  0.19932253888E-02  0.17130000334E+03  0.17130000000E+03 0.  1.
      622    1    1    2    0    0  0.19084490067E-02  0.90296481627E-02  0.30081391406E+01  0.30098149886E+01  0.10000000000E+00 0. -1.
</event>
<event>
 5   0  0.6262544E+06  0.9118800E+02  0.7818608E-02  0.1180000E+00
       11   -1    0    0    0    0  0.00000000000E+00  0.00000000000E+00  0.39999999673E+01  0.40000000000E+01  0.51109989000E-03 0. -1.
     -623   -1    0    0    0    0  0.00000000000E+00  0.00000000000E+00  0.12525980253E-10  0.17130000000E+03  0.17130000000E+03 0.  1.
       11    1    1    2    0    0 -0.44370935157E-02 -0.35695709406E-02  0.12061569736E+00  0.12075113792E+00  0.51109989000E-03 0. -1.
     -623    1    1    2    0    0  0.29740014132E-02  0.22881307436E-02  0.14250661927E-02  0.17130000005E+03  0.17130000000E+03 0.  1.
      622    1    1    2    0    0  0.14630921027E-02  0.12814401971E-02  0.38779592036E+01  0.38792488149E+01  0.10000000000E+00 0. -1.
</event>
<event>
 5   0  0.6262544E+06  0.9118800E+02  0.7818608E-02  0.1180000E+00
       11   -1    0    0    0    0  0.00000000000E+00  0.00000000000E+00  0.39999999673E+01  0.40000000000E+01  0.51109989000E-03 0.  1.
     -623   -1    0    0    0    0  0.00000000000E+00  0.00000000000E+00  0.12525980253E-10  0.17130000000E+03  0.17130000000E+03 0. -1.
       11    1    1    2    0    0 -0.98769660238E-04  0.54105869616E-03  0.10618129608E+01  0.10618132262E+01  0.51109989000E-03 0.  1.
     -623    1    1    2    0    0 -0.70408524402E-02 -0.92388511877E-02  0.17244193187E-02  0.17130000040E+03  0.17130000000E+03 0. -1.
      622    1    1    2    0    0  0.71396221005E-02  0.86977924916E-02  0.29364625873E+01  0.29381863712E+01  0.10000000000E+00 0.  1.
</event>
<event>
 5   0  0.6262544E+06  0.9118800E+02  0.7818608E-02  0.1180000E+00
       11   -1    0    0    0    0  0.00000000000E+00  0.00000000000E+00  0.39999999673E+01  0.40000000000E+01  0.51109989000E-03 0. -1.
     -623   -1    0    0    0    0  0.00000000000E+00  0.00000000000E+00  0.12525980253E-10  0.17130000000E+03  0.17130000000E+03 0.  1.
       11    1    1    2    0    0 -0.47979742955E-01  0.55848436456E-02  0.61741726642E+00  0.61930411617E+00  0.51109989000E-03 0. -1.
     -623    1    1    2    0    0  0.96641885484E-02  0.10035912654E-01  0.36200672932E-02  0.17130000060E+03  0.17130000000E+03 0.  1.
      622    1    1    2    0    0  0.38315554406E-01 -0.15620756300E-01  0.33789626336E+01  0.33806952790E+01  0.10000000000E+00 0. -1.
</event>
<event>
 5   0  0.6262544E+06  0.9118800E+02  0.7818608E-02  0.1180000E+00
       11   -1    0    0    0    0  0.00000000000E+00  0.00000000000E+00  0.39999999673E+01  0.40000000000E+01  0.51109989000E-03 0.  1.
     -623   -1    0    0    0    0  0.00000000000E+00  0.00000000000E+00  0.12525980253E-10  0.17130000000E+03  0.17130000000E+03 0. -1.
       11    1    1    2    0    0  0.12736290793E-02 -0.87834872491E-03  0.23476322151E-01  0.23532797333E-01  0.51109989000E-03 0.  1.
     -623    1    1    2    0    0  0.30868653829E-02  0.49294013251E-02  0.13185985066E-02  0.17130000010E+03  0.17130000000E+03 0. -1.
      622    1    1    2    0    0 -0.43604944622E-02 -0.40510526002E-02  0.39752050467E+01  0.39764670989E+01  0.10000000000E+00 0.  1.
</event>
<event>
 5   0  0.6262544E+06  0.9118800E+02  0.7818608E-02  0.1180000E+00
       11   -1    0    0    0    0  0.00000000000E+00  0.00000000000E+00  0.39999999673E+01  0.40000000000E+01  0.51109989000E-03 0.  1.
     -623   -1    0    0    0    0  0.00000000000E+00  0.00000000000E+00  0.12525980253E-10  0.17130000000E+03  0.17130000000E+03 0.  1.
       11    1    1    2    0    0  0.15134760569E-02 -0.94906642778E-02  0.16508572733E+00  0.16536602405E+00  0.51109989000E-03 0.  1.
     -623    1    1    2    0    0 -0.33018327349E-02  0.40571164599E-02  0.15887465653E-02  0.17130000009E+03  0.17130000000E+03 0.  1.
      622    1    1    2    0    0  0.17883566783E-02  0.54335478176E-02  0.38333254937E+01  0.38346338890E+01  0.10000000000E+00 0.  1.
</event>
<event>
 5   0  0.6262544E+06  0.9118800E+02  0.7818608E-02  0.1180000E+00
       11   -1    0    0    0    0  0.00000000000E+00  0.00000000000E+00  0.39999999673E+01  0.40000000000E+01  0.51109989000E-03 0.  1.
     -623   -1    0    0    0    0  0.00000000000E+00  0.00000000000E+00  0.12525980253E-10  0.17130000000E+03  0.17130000000E+03 0.  1.
       11    1    1    2    0    0  0.61733610482E-01 -0.14592466695E-01  0.11536240598E+01  0.11553669164E+01  0.51109989000E-03 0.  1.
     -623    1    1    2    0    0  0.16438772525E-01  0.17383967115E-01  0.45791497512E-02  0.17130000173E+03  0.17130000000E+03 0.  1.
      622    1    1    2    0    0 -0.78172383007E-01 -0.27915004195E-02  0.28417967578E+01  0.28446313516E+01  0.10000000000E+00 0.  1.
</event>
<event>
 5   0  0.6262544E+06  0.9118800E+02  0.7818608E-02  0.1180000E+00
       11   -1    0    0    0    0  0.00000000000E+00  0.00000000000E+00  0.39999999673E+01  0.40000000000E+01  0.51109989000E-03 0. -1.
     -623   -1    0    0    0    0  0.00000000000E+00  0.00000000000E+00  0.12525980253E-10  0.17130000000E+03  0.17130000000E+03 0.  1.
       11    1    1    2    0    0  0.27035695516E-01  0.26222864788E-01  0.17522017586E+01  0.17526065820E+01  0.51109989000E-03 0. -1.
     -623    1    1    2    0    0 -0.75235654448E-03 -0.36691365503E-01  0.28129086056E-02  0.17130000395E+03  0.17130000000E+03 0.  1.
      622    1    1    2    0    0 -0.26283338972E-01  0.10468500715E-01  0.22449853002E+01  0.22473894637E+01  0.10000000000E+00 0.  1.
</event>
<event>
 5   0  0.6262544E+06  0.9118800E+02  0.7818608E-02  0.1180000E+00
       11   -1    0    0    0    0  0.00000000000E+00  0.00000000000E+00  0.39999999673E+01  0.40000000000E+01  0.51109989000E-03 0. -1.
     -623   -1    0    0    0    0  0.00000000000E+00  0.00000000000E+00  0.12525980253E-10  0.17130000000E+03  0.17130000000E+03 0.  1.
       11    1    1    2    0    0 -0.76468243210E-03  0.11703668421E-02  0.26143695688E-02  0.30084296746E-02  0.51109989000E-03 0. -1.
     -623    1    1    2    0    0  0.24503269789E-02 -0.19133869238E-02  0.16456248864E-02  0.17130000004E+03  0.17130000000E+03 0.  1.
      622    1    1    2    0    0 -0.16856445468E-02  0.74302008173E-03  0.39957399729E+01  0.39969915342E+01  0.10000000000E+00 0. -1.
</event>
<event>
 5   0  0.6262544E+06  0.9118800E+02  0.7818608E-02  0.1180000E+00
       11   -1    0    0    0    0  0.00000000000E+00  0.00000000000E+00  0.39999999673E+01  0.40000000000E+01  0.51109989000E-03 0. -1.
     -623   -1    0    0    0    0  0.00000000000E+00  0.00000000000E+00  0.12525980253E-10  0.17130000000E+03  0.17130000000E+03 0. -1.
       11    1    1    2    0    0 -0.29646797288E-01  0.68983900761E-02  0.40664002176E-01  0.50797073451E-01  0.51109989000E-03 0. -1.
     -623    1    1    2    0    0  0.82670602016E-02  0.26839783818E-01  0.11604070814E-01  0.17130000270E+03  0.17130000000E+03 0. -1.
      622    1    1    2    0    0  0.21379737086E-01 -0.33738173894E-01  0.39477318944E+01  0.39492002314E+01  0.10000000000E+00 0. -1.
</event>
<event>
 5   0  0.6262544E+06  0.9118800E+02  0.7818608E-02  0.1180000E+00
       11   -1    0    0    0    0  0.00000000000E+00  0.00000000000E+00  0.39999999673E+01  0.40000000000E+01  0.51109989000E-03 0.  1.
     -623   -1    0    0    0    0  0.00000000000E+00  0.00000000000E+00  0.12525980253E-10  0.17130000000E+03  0.17130000000E+03 0.  1.
       11    1    1    2    0    0 -0.44500412749E-02 -0.59633670412E-03  0.31362016239E-01  0.31685892272E-01  0.51109989000E-03 0.  1.
     -623    1    1    2    0    0  0.16295495252E-02 -0.10833705215E-02  0.15854011705E-02  0.17130000002E+03  0.17130000000E+03 0.  1.
      622    1    1    2    0    0  0.28204917496E-02  0.16797072256E-02  0.39670525500E+01  0.39683140892E+01  0.10000000000E+00 0.  1.
</event>
<event>
 5   0  0.6262544E+06  0.9118800E+02  0.7818608E-02  0.1180000E+00
       11   -1    0    0    0    0  0.00000000000E+00  0.00000000000E+00  0.39999999673E+01  0.40000000000E+01  0.51109989000E-03 0.  1.
     -623   -1    0    0    0    0  0.00000000000E+00  0.00000000000E+00  0.12525980253E-10  0.17130000000E+03  0.17130000000E+03 0. -1.
       11    1    1    2    0    0 -0.92157027111E-03  0.31051551985E-02  0.18264967817E+00  0.18267911057E+00  0.51109989000E-03 0.  1.
     -623    1    1    2    0    0 -0.13549977516E-01  0.29833579705E-02  0.13723089810E-02  0.17130000057E+03  0.17130000000E+03 0. -1.
      622    1    1    2    0    0  0.14471547787E-01 -0.60885131690E-02  0.38159779802E+01  0.38173203220E+01  0.10000000000E+00 0.  1.
</event>
<event>
 5   0  0.6262544E+06  0.9118800E+02  0.7818608E-02  0.1180000E+00
       11   -1    0    0    0    0  0.00000000000E+00  0.00000000000E+00  0.39999999673E+01  0.40000000000E+01  0.51109989000E-03 0.  1.
     -623   -1    0    0    0    0  0.00000000000E+00  0.00000000000E+00  0.12525980253E-10  0.17130000000E+03  0.17130000000E+03 0.  1.
       11    1    1    2    0    0 -0.39645087604E-01 -0.33599211746E-01  0.28559676168E+00  0.29028677460E+00  0.51109989000E-03 0.  1.
     -623    1    1    2    0    0 -0.64852129800E-02  0.18071566980E-01  0.63586747475E-02  0.17130000119E+03  0.17130000000E+03 0.  1.
      622    1    1    2    0    0  0.46130300584E-01  0.15527644765E-01  0.37080445310E+01  0.37097120314E+01  0.10000000000E+00 0.  1.
</event>
<event>
 5   0  0.6262544E+06  0.9118800E+02  0.7818608E-02  0.1180000E+00
       11   -1    0    0    0    0  0.00000000000E+00  0.00000000000E+00  0.39999999673E+01  0.40000000000E+01  0.51109989000E-03 0. -1.
     -623   -1    0    0    0    0  0.00000000000E+00  0.00000000000E+00  0.12525980253E-10  0.17130000000E+03  0.17130000000E+03 0.  1.
       11    1    1    2    0    0  0.11286099432E-02  0.18896286169E-01  0.62791645426E+00  0.62820194058E+00  0.51109989000E-03 0. -1.
     -623    1    1    2    0    0  0.17793112596E-01 -0.38407369207E-01  0.18835038576E-02  0.17130000524E+03  0.17130000000E+03 0.  1.
      622    1    1    2    0    0 -0.18921722540E-01  0.19511083038E-01  0.33702000092E+01  0.33717928193E+01  0.10000000000E+00 0. -1.
</event>
<event>
 5   0  0.6262544E+06  0.9118800E+02  0.7818608E-02  0.1180000E+00
       11   -1    0    0    0    0  0.00000000000E+00  0.00000000000E+00  0.39999999673E+01  0.40000000000E+01  0.51109989000E-03 0.  1.
     -623   -1    0    0    0    0  0.00000000000E+00  0.00000000000E+00  0.12525980253E-10  0.17130000000E+03  0.17130000000E+03 0.  1.
       11    1    1    2    0    0 -0.15066366511E-02 -0.16567051901E-02  0.12877366297E-01  0.13080612062E-01  0.51109989000E-03 0.  1.
     -623    1    1    2    0    0 -0.23190959589E-02 -0.18897308966E-03  0.14597970177E-02  0.17130000002E+03  0.17130000000E+03 0.  1.
      622    1    1    2    0    0  0.38257326100E-02  0.18456782798E-02  0.39856628040E+01  0.39869193659E+01  0.10000000000E+00 0.  1.
</event>
<event>
 5   0  0.6262544E+06  0.9118800E+02  0.7818608E-02  0.1180000E+00
       11   -1    0    0    0    0  0.00000000000E+00  0.00000000000E+00  0.39999999673E+01  0.40000000000E+01  0.51109989000E-03 0.  1.
     -623   -1    0    0    0    0  0.00000000000E+00  0.00000000000E+00  0.12525980253E-10  0.17130000000E+03  0.17130000000E+03 0. -1.
       11    1    1    2    0    0 -0.12592971669E-02 -0.17302762206E-03  0.36855504098E-02  0.39319553448E-02  0.51109989000E-03 0.  1.
     -623    1    1    2    0    0 -0.47994416533E-04  0.15581990705E-02  0.14982658933E-02  0.17130000001E+03  0.17130000000E+03 0. -1.
      622    1    1    2    0    0  0.13072915834E-02 -0.13851714485E-02  0.39948161512E+01  0.39960680312E+01  0.10000000000E+00 0.  1.
</event>
<event>
 5   0  0.6262544E+06  0.9118800E+02  0.7818608E-02  0.1180000E+00
       11   -1    0    0    0    0  0.00000000000E+00  0.00000000000E+00  0.39999999673E+01  0.40000000000E+01  0.51109989000E-03 0.  1.
     -623   -1    0    0    0    0  0.00000000000E+00  0.00000000000E+00  0.12525980253E-10  0.17130000000E+03  0.17130000000E+03 0.  1.
       11    1    1    2    0    0  0.72973700991E-02  0.16177456826E-01  0.88702551724E-01  0.90461956784E-01  0.51109989000E-03 0.  1.
     -623    1    1    2    0    0 -0.15811986585E-01 -0.11244623301E-01  0.30520196352E-02  0.17130000113E+03  0.17130000000E+03 0.  1.
      622    1    1    2    0    0  0.85146164862E-02 -0.49328335244E-02  0.39082453961E+01  0.39095369173E+01  0.10000000000E+00 0.  1.
</event>
<event>
 5   0  0.6262544E+06  0.9118800E+02  0.7818608E-02  0.1180000E+00
       11   -1    0    0    0    0  0.00000000000E+00  0.00000000000E+00  0.39999999673E+01  0.40000000000E+01  0.51109989000E-03 0. -1.
     -623   -1    0    0    0    0  0.00000000000E+00  0.00000000000E+00  0.12525980253E-10  0.17130000000E+03  0.17130000000E+03 0. -1.
       11    1    1    2    0    0 -0.23380561361E-02  0.14015471828E-01  0.12488599428E+00  0.12569277126E+00  0.51109989000E-03 0. -1.
     -623    1    1    2    0    0 -0.55340203065E-03 -0.97860090507E-02  0.21011947588E-02  0.17130000029E+03  0.17130000000E+03 0. -1.
      622    1    1    2    0    0  0.28914581668E-02 -0.42294627777E-02  0.38730127783E+01  0.38743069354E+01  0.10000000000E+00 0. -1.
</event>
<event>
 5   0  0.6262544E+06  0.9118800E+02  0.7818608E-02  0.1180000E+00
       11   -1    0    0    0    0  0.00000000000E+00  0.00000000000E+00  0.39999999673E+01  0.40000000000E+01  0.51109989000E-03 0.  1.
     -623   -1    0    0    0    0  0.00000000000E+00  0.00000000000E+00  0.12525980253E-10  0.17130000000E+03  0.17130000000E+03 0.  1.
       11    1    1    2    0    0  0.21212232722E-02 -0.15210400440E-01  0.45049852869E+00  0.45076051451E+00  0.51109989000E-03 0.  1.
     -623    1    1    2    0    0  0.95342410355E-02  0.23358380348E-01  0.17013544344E-02  0.17130000187E+03  0.17130000000E+03 0.  1.
      622    1    1    2    0    0 -0.11655464308E-01 -0.81479799084E-02  0.35478000842E+01  0.35492376191E+01  0.10000000000E+00 0.  1.
</event>
<event>
 5   0  0.6262544E+06  0.9118800E+02  0.7818608E-02  0.1180000E+00
       11   -1    0    0    0    0  0.00000000000E+00  0.00000000000E+00  0.39999999673E+01  0.40000000000E+01  0.51109989000E-03 0. -1.
     -623   -1    0    0    0    0  0.00000000000E+00  0.00000000000E+00  0.12525980253E-10  0.17130000000E+03  0.17130000000E+03 0. -1.
       11    1    1    2    0    0 -0.47096949389E-02  0.27141042888E-02  0.25628385079E-02  0.60313309330E-02  0.51109989000E-03 0. -1.
     -623    1    1    2    0    0  0.55030914500E-02 -0.65774737463E-02  0.47227714827E-02  0.17130000028E+03  0.17130000000E+03 0. -1.
      622    1    1    2    0    0 -0.79339651100E-03  0.38633694575E-02  0.39927143574E+01  0.39939683893E+01  0.10000000000E+00 0. -1.
</event>
<event>
 5   0  0.6262544E+06  0.9118800E+02  0.7818608E-02  0.1180000E+00
       11   -1    0    0    0    0  0.00000000000E+00  0.00000000000E+00  0.39999999673E+01  0.40000000000E+01  0.51109989000E-03 0.  1.
     -623   -1    0    0    0    0  0.00000000000E+00  0.00000000000E+00  0.12525980253E-10  0.17130000000E+03  0.17130000000E+03 0.  1.
       11    1    1    2    0    0 -0.33839949275E-02  0.17771200053E-02  0.39122219517E-01  0.39311815784E-01  0.51109989000E-03 0.  1.
     -623    1    1    2    0    0  0.38347107191E-03 -0.45616667723E-02  0.14543551865E-02  0.17130000007E+03  0.17130000000E+03 0.  1.
      622    1    1    2    0    0  0.30005238556E-02  0.27845467672E-02  0.39594233929E+01  0.39606881171E+01  0.10000000000E+00 0.  1.
</event>
<event>
 5   0  0.6262544E+06  0.9118800E+02  0.7818608E-02  0.1180000E+00
       11   -1    0    0    0    0  0.00000000000E+00  0.00000000000E+00  0.39999999673E+01  0.40000000000E+01  0.51109989000E-03 0.  1.
     -623   -1    0    0    0    0  0.00000000000E+00  0.00000000000E+00  0.12525980253E-10  0.17130000000E+03  0.17130000000E+03 0. -1.
       11    1    1    2    0    0 -0.41780663302E-01 -0.10943764952E+00  0.13675995486E+01  0.13726073763E+01  0.51109989000E-03 0.  1.
     -623    1    1    2    0    0 -0.33979821724E-01  0.28873780606E-01  0.92477349779E-02  0.17130000605E+03  0.17130000000E+03 0. -1.
      622    1    1    2    0    0  0.75760485026E-01  0.80563868912E-01  0.26231526838E+01  0.26273865705E+01  0.10000000000E+00 0.  1.
</event>
<event>
 5   0  0.6262544E+06  0.9118800E+02  0.7818608E-02  0.1180000E+00
       11   -1    0    0    0    0  0.00000000000E+00  0.00000000000E+00  0.39999999673E+01  0.40000000000E+01  0.51109989000E-03 0. -1.
     -623   -1    0    0    0    0  0.00000000000E+00  0.00000000000E+00  0.12525980253E-10  0.17130000000E+03  0.17130000000E+03 0.  1.
       11    1    1    2    0    0 -0.24717772276E-01 -0.36923885294E-01  0.32946977343E+00  0.33245290553E+00  0.51109989000E-03 0. -1.
     -623    1    1    2    0    0  0.99198810894E-02  0.56469826557E-02  0.45103845464E-02  0.17130000044E+03  0.17130000000E+03 0.  1.
      622    1    1    2    0    0  0.14797891187E-01  0.31276902638E-01  0.36660198094E+01  0.36675466548E+01  0.10000000000E+00 0. -1.
</event>
<event>
 5   0  0.6262544E+06  0.9118800E+02  0.7818608E-02  0.1180000E+00
       11   -1    0    0    0    0  0.00000000000E+00  0.00000000000E+00  0.39999999673E+01  0.40000000000E+01  0.51109989000E-03 0. -1.
     -623   -1    0    0    0    0  0.00000000000E+00  0.00000000000E+00  0.12525980253E-10  0.17130000000E+03  0.17130000000E+03 0. -1.
       11    1    1    2    0    0  0.30888670395E-02  0.73046442645E-03  0.10637127676E-01  0.11112352864E-01  0.51109989000E-03 0. -1.
     -623    1    1    2    0    0 -0.21346462628E-03 -0.14406991311E-02  0.17299867218E-02  0.17130000001E+03  0.17130000000E+03 0. -1.
      622    1    1    2    0    0 -0.28754024132E-02  0.71023470469E-03  0.39876328531E+01  0.39888876324E+01  0.10000000000E+00 0. -1.
</event>
<event>
 5   0  0.6262544E+06  0.9118800E+02  0.7818608E-02  0.1180000E+00
       11   -1    0    0    0    0  0.00000000000E+00  0.00000000000E+00  0.39999999673E+01  0.40000000000E+01  0.51109989000E-03 0. -1.
     -623   -1    0    0    0    0  0.00000000000E+00  0.00000000000E+00  0.12525980253E-10  0.17130000000E+03  0.17130000000E+03 0.  1.
       11    1    1    2    0    0 -0.10440541532E-01  0.20650745642E-01  0.33567556759E-01  0.40773769653E-01  0.51109989000E-03 0. -1.
     -623    1    1    2    0    0 -0.18242061998E-01  0.98011598486E-02  0.86918083043E-02  0.17130000147E+03  0.17130000000E+03 0.  1.
      622    1    1    2    0    0  0.28682603530E-01 -0.30451905490E-01  0.39577406023E+01  0.39592247581E+01  0.10000000000E+00 0. -1.
</event>
<event>
 5   0  0.6262544E+06  0.9118800E+02  0.7818608E-02  0.1180000E+00
       11   -1    0    0    0    0  0.00000000000E+00  0.00000000000E+00  0.39999999673E+01  0.40000000000E+01  0.51109989000E-03 0.  1.
     -623   -1    0    0    0    0  0.00000000000E+00  0.00000000000E+00  0.12525980253E-10  0.17130000000E+03  0.17130000000E+03 0.  1.
       11    1    1    2    0    0  0.16048747291E-01  0.60256086389E-02  0.21446881477E+00  0.21515344287E+00  0.51109989000E-03 0.  1.
     -623    1    1    2    0    0  0.36649099662E-01 -0.27986607210E-01  0.24428641655E-02  0.17130000622E+03  0.17130000000E+03 0.  1.
      622    1    1    2    0    0 -0.52697846953E-01  0.21960998571E-01  0.37830882884E+01  0.37848403330E+01  0.10000000000E+00 0.  1.
</event>
<event>
 5   0  0.6262544E+06  0.9118800E+02  0.7818608E-02  0.1180000E+00
       11   -1    0    0    0    0  0.00000000000E+00  0.00000000000E+00  0.39999999673E+01  0.40000000000E+01  0.51109989000E-03 0. -1.
     -623   -1    0    0    0    0  0.00000000000E+00  0.00000000000E+00  0.12525980253E-10  0.17130000000E+03  0.17130000000E+03 0.  1.
       11    1    1    2    0    0 -0.70317145076E-02  0.66952642746E-02  0.35006562154E-01  0.36331696731E-01  0.51109989000E-03 0. -1.
     -623    1    1    2    0    0  0.47300740589E-02 -0.11984395129E-01  0.25914632676E-02  0.17130000050E+03  0.17130000000E+03 0.  1.
      622    1    1    2    0    0  0.23016404487E-02  0.52891308543E-02  0.39624019419E+01  0.39636677991E+01  0.10000000000E+00 0. -1.
</event>
<event>
 5   0  0.6262544E+06  0.9118800E+02  0.7818608E-02  0.1180000E+00
       11   -1    0    0    0    0  0.00000000000E+00  0.00000000000E+00  0.39999999673E+01  0.40000000000E+01  0.51109989000E-03 0. -1.
     -623   -1    0    0    0    0  0.00000000000E+00  0.00000000000E+00  0.12525980253E-10  0.17130000000E+03  0.17130000000E+03 0.  1.
       11    1    1    2    0    0 -0.67990689637E-02 -0.85547698572E-02  0.11791469274E-01  0.16084507976E-01  0.51109989000E-03 0. -1.
     -623    1    1    2    0    0  0.89529884447E-02  0.32600560114E-02  0.55527075615E-02  0.17130000035E+03  0.17130000000E+03 0.  1.
      622    1    1    2    0    0 -0.21539194809E-02  0.52947138458E-02  0.39826557905E+01  0.39839151370E+01  0.10000000000E+00 0. -1.
</event>
<event>
 5   0  0.6262544E+06  0.9118800E+02  0.7818608E-02  0.1180000E+00
       11   -1    0    0    0    0  0.00000000000E+00  0.00000000000E+00  0.39999999673E+01  0.40000000000E+01  0.51109989000E-03 0. -1.
     -623   -1    0    0    0    0  0.00000000000E+00  0.00000000000E+00  0.12525980253E-10  0.17130000000E+03  0.17130000000E+03 0. -1.
       11    1    1    2    0    0 -0.55960923931E-01 -0.45270237580E-01  0.13626926482E+01  0.13645924425E+01  0.51109989000E-03 0. -1.
     -623    1    1    2    0    0  0.50198426676E-02 -0.12343393089E-02  0.47012769272E-02  0.17130000014E+03  0.17130000000E+03 0. -1.
      622    1    1    2    0    0  0.50941081264E-01  0.46504576889E-01  0.26326060422E+01  0.26354074149E+01  0.10000000000E+00 0. -1.
</event>
<event>
 5   0  0.6262544E+06  0.9118800E+02  0.7818608E-02  0.1180000E+00
       11   -1    0    0    0    0  0.00000000000E+00  0.00000000000E+00  0.39999999673E+01  0.40000000000E+01  0.51109989000E-03 0. -1.
     -623   -1    0    0    0    0  0.00000000000E+00  0.00000000000E+00  0.12525980253E-10  0.17130000000E+03  0.17130000000E+03 0. -1.
       11    1    1    2    0    0  0.26014452510E-02 -0.94946807673E-02  0.17312667236E-01  0.19922503612E-01  0.51109989000E-03 0. -1.
     -623    1    1    2    0    0 -0.84473391599E-02  0.13275976361E-01  0.38731171099E-02  0.17130000077E+03  0.17130000000E+03 0. -1.
      622    1    1    2    0    0  0.58458939092E-02 -0.37812955944E-02  0.39788141831E+01  0.39800767300E+01  0.10000000000E+00 0. -1.
</event>
<event>
 5   0  0.6262544E+06  0.9118800E+02  0.7818608E-02  0.1180000E+00
       11   -1    0    0    0    0  0.00000000000E+00  0.00000000000E+00  0.39999999673E+01  0.40000000000E+01  0.51109989000E-03 0.  1.
     -623   -1    0    0    0    0  0.00000000000E+00  0.00000000000E+00  0.12525980253E-10  0.17130000000E+03  0.17130000000E+03 0.  1.
       11    1    1    2    0    0 -0.27714717256E-02 -0.13242735189E-01  0.16866545072E+00  0.16920799797E+00  0.51109989000E-03 0.  1.
     -623    1    1    2    0    0 -0.16415338317E-01  0.10602641594E-01  0.18980517729E-02  0.17130000113E+03  0.17130000000E+03 0.  1.
      622    1    1    2    0    0  0.19186810043E-01  0.26400935949E-02  0.38294364649E+01  0.38307908769E+01  0.10000000000E+00 0.  1.
</event>
<event>
 5   0  0.6262544E+06  0.9118800E+02  0.7818608E-02  0.1180000E+00
       11   -1    0    0    0    0  0.00000000000E+00  0.00000000000E+00  0.39999999673E+01  0.40000000000E+01  0.51109989000E-03 0.  1.
     -623   -1    0    0    0    0  0.00000000000E+00  0.00000000000E+00  0.12525980253E-10  0.17130000000E+03  0.17130000000E+03 0.  1.
       11    1    1    2    0    0 -0.83393854966E-02  0.87102170065E-02  0.10679290718E-01  0.16115883582E-01  0.51109989000E-03 0.  1.
     -623    1    1    2    0    0  0.37166238889E-02  0.89170113121E-03  0.67062463204E-02  0.17130000017E+03  0.17130000000E+03 0.  1.
      622    1    1    2    0    0  0.46227616077E-02 -0.96019181377E-02  0.39826144303E+01  0.39838839425E+01  0.10000000000E+00 0.  1.
</event>
<event>
 5   0  0.6262544E+06  0.9118800E+02  0.7818608E-02  0.1180000E+00
       11   -1    0    0    0    0  0.00000000000E+00  0.00000000000E+00  0.39999999673E+01  0.40000000000E+01  0.51109989000E-03 0.  1.
     -623   -1    0    0    0    0  0.00000000000E+00  0.00000000000E+00  0.12525980253E-10  0.17130000000E+03  0.17130000000E+03 0. -1.
       11    1    1    2    0    0 -0.32263880128E-01  0.14417098855E-01  0.15821151053E+01  0.15825098036E+01  0.51109989000E-03 0.  1.
     -623    1    1    2    0    0  0.96697938241E-02  0.11586410114E-01  0.27101568054E-02  0.17130000069E+03  0.17130000000E+03 0. -1.
      622    1    1    2    0    0  0.22594086304E-01 -0.26003508969E-01  0.24151747051E+01  0.24174895101E+01  0.10000000000E+00 0.  1.
</event>
<event>
 5   0  0.6262544E+06  0.9118800E+02  0.7818608E-02  0.1180000E+00
       11   -1    0    0    0    0  0.00000000000E+00  0.00000000000E+00  0.39999999673E+01  0.40000000000E+01  0.51109989000E-03 0.  1.
     -623   -1    0    0    0    0  0.00000000000E+00  0.00000000000E+00  0.12525980253E-10  0.17130000000E+03  0.17130000000E+03 0.  1.
       11    1    1    2    0    0 -0.86502449826E-02 -0.40655380974E-01  0.70691019378E-01  0.82007122765E-01  0.51109989000E-03 0.  1.
     -623    1    1    2    0    0  0.32806096357E-01  0.23125010141E-01  0.12711339816E-01  0.17130000517E+03  0.17130000000E+03 0.  1.
      622    1    1    2    0    0 -0.24155851374E-01  0.17530370833E-01  0.39165976082E+01  0.39179877033E+01  0.10000000000E+00 0.  1.
</event>
<event>
 5   0  0.6262544E+06  0.9118800E+02  0.7818608E-02  0.1180000E+00
       11   -1    0    0    0    0  0.00000000000E+00  0.00000000000E+00  0.39999999673E+01  0.40000000000E+01  0.51109989000E-03 0. -1.
     -623   -1    0    0    0    0  0.00000000000E+00  0.00000000000E+00  0.12525980253E-10  0.17130000000E+03  0.17130000000E+03 0.  1.
       11    1    1    2    0    0 -0.11881003463E-01 -0.78763808600E-02  0.15261757947E+01  0.15262424490E+01  0.51109989000E-03 0. -1.
     -623    1    1    2    0    0 -0.32050506293E-02  0.22005869888E-02  0.21412777654E-02  0.17130000006E+03  0.17130000000E+03 0.  1.
      622    1    1    2    0    0  0.15086054092E-01  0.56757938711E-02  0.24716828949E+01  0.24737574935E+01  0.10000000000E+00 0. -1.
</event>
<event>
 5   0  0.6262544E+06  0.9118800E+02  0.7818608E-02  0.1180000E+00
       11   -1    0    0    0    0  0.00000000000E+00  0.00000000000E+00  0.39999999673E+01  0.40000000000E+01  0.51109989000E-03 0. -1.
     -623   -1    0    0    0    0  0.00000000000E+00  0.00000000000E+00  0.12525980253E-10  0.17130000000E+03  0.17130000000E+03 0. -1.
       11    1    1    2    0    0  0.12737169022E-02 -0.71197941077E-02  0.73333902952E-01  0.73691494544E-01  0.51109989000E-03 0. -1.
     -623    1    1    2    0    0 -0.36323386878E-02 -0.57588682101E-04  0.16385437313E-02  0.17130000005E+03  0.17130000000E+03 0. -1.
      622    1    1    2    0    0  0.23586217856E-02  0.71773827898E-02  0.39250275208E+01  0.39263084592E+01  0.10000000000E+00 0. -1.
</event>
<event>
 5   0  0.6262544E+06  0.9118800E+02  0.7818608E-02  0.1180000E+00
       11   -1    0    0    0    0  0.00000000000E+00  0.00000000000E+00  0.39999999673E+01  0.40000000000E+01  0.51109989000E-03 0. -1.
     -623   -1    0    0    0    0  0.00000000000E+00  0.00000000000E+00  0.12525980253E-10  0.17130000000E+03  0.17130000000E+03 0.  1.
       11    1    1    2    0    0 -0.32931003853E-02  0.74746120059E-02  0.16724658095E+00  0.16744669121E+00  0.51109989000E-03 0. -1.
     -623    1    1    2    0    0  0.14348953387E-01 -0.10951199379E-01  0.15234005440E-02  0.17130000096E+03  0.17130000000E+03 0.  1.
      622    1    1    2    0    0 -0.11055853002E-01  0.34765873730E-02  0.38312299859E+01  0.38325523510E+01  0.10000000000E+00 0. -1.
</event>
<event>
 5   0  0.6262544E+06  0.9118800E+02  0.7818608E-02  0.1180000E+00
       11   -1    0    0    0    0  0.00000000000E+00  0.00000000000E+00  0.39999999673E+01  0.40000000000E+01  0.51109989000E-03 0.  1.
     -623   -1    0    0    0    0  0.00000000000E+00  0.00000000000E+00  0.12525980253E-10  0.17130000000E+03  0.17130000000E+03 0. -1.
       11    1    1    2    0    0  0.25410697009E-02 -0.12091037230E-02  0.52087871572E-03  0.29071468212E-02  0.51109989000E-03 0.  1.
     -623    1    1    2    0    0 -0.72417075318E-02  0.30081390115E-02  0.36407285134E-02  0.17130000022E+03  0.17130000000E+03 0. -1.
      622    1    1    2    0    0  0.47006378309E-02 -0.17990352884E-02  0.39958383601E+01  0.39970926350E+01  0.10000000000E+00 0.  1.
</event>
<event>
 5   0  0.6262544E+06  0.9118800E+02  0.7818608E-02  0.1180000E+00
       11   -1    0    0    0    0  0.00000000000E+00  0.00000000000E+00  0.39999999673E+01  0.40000000000E+01  0.51109989000E-03 0. -1.
     -623   -1    0    0    0    0  0.00000000000E+00  0.00000000000E+00  0.12525980253E-10  0.17130000000E+03  0.17130000000E+03 0. -1.
       11    1    1    2    0    0 -0.61142533846E-02 -0.66766335377E-02  0.33497876177E-01  0.34703464688E-01  0.51109989000E-03 0. -1.
     -623    1    1    2    0    0  0.16886281927E-02 -0.38755046480E-02  0.24832815967E-02  0.17130000007E+03  0.17130000000E+03 0. -1.
      622    1    1    2    0    0  0.44256251918E-02  0.10552138186E-01  0.39640188097E+01  0.39652964652E+01  0.10000000000E+00 0. -1.
</event>
<event>
 5   0  0.6262544E+06  0.9118800E+02  0.7818608E-02  0.1180000E+00
       11   -1    0    0    0    0  0.00000000000E+00  0.00000000000E+00  0.39999999673E+01  0.40000000000E+01  0.51109989000E-03 0. -1.
     -623   -1    0    0    0    0  0.00000000000E+00  0.00000000000E+00  0.12525980253E-10  0.17130000000E+03  0.17130000000E+03 0.  1.
       11    1    1    2    0    0 -0.35491661046E-02  0.11128770804E-01  0.22892170187E-01  0.25705229013E-01  0.51109989000E-03 0. -1.
     -623    1    1    2    0    0  0.18648246449E-01 -0.32087469603E-02  0.41089903699E-02  0.17130000109E+03  0.17130000000E+03 0.  1.
      622    1    1    2    0    0 -0.15099080344E-01 -0.79200238437E-02  0.39729988069E+01  0.39742936767E+01  0.10000000000E+00 0. -1.
</event>
<event>
 5   0  0.6262544E+06  0.9118800E+02  0.7818608E-02  0.1180000E+00
       11   -1    0    0    0    0  0.00000000000E+00  0.00000000000E+00  0.39999999673E+01  0.40000000000E+01  0.51109989000E-03 0. -1.
     -623   -1    0    0    0    0  0.00000000000E+00  0.00000000000E+00  0.12525980253E-10  0.17130000000E+03  0.17130000000E+03 0.  1.
       11    1    1    2    0    0 -0.36721030120E-01 -0.12522045316E-01  0.35736759178E+00  0.35946779070E+00  0.51109989000E-03 0. -1.
     -623    1    1    2    0    0  0.89470927730E-02 -0.23053351981E-01  0.37555611270E-02  0.17130000183E+03  0.17130000000E+03 0.  1.
      622    1    1    2    0    0  0.27773937347E-01  0.35575397297E-01  0.36388768145E+01  0.36405303832E+01  0.10000000000E+00 0. -1.
</event>
<event>
 5   0  0.6262544E+06  0.9118800E+02  0.7818608E-02  0.1180000E+00
       11   -1    0    0    0    0  0.00000000000E+00  0.00000000000E+00  0.39999999673E+01  0.40000000000E+01  0.51109989000E-03 0.  1.
     -623   -1    0    0    0    0  0.00000000000E+00  0.00000000000E+00  0.12525980253E-10  0.17130000000E+03  0.17130000000E+03 0. -1.
       11    1    1    2    0    0 -0.21619042289E-01 -0.54262063711E-02  0.12702503558E+00  0.12896684688E+00  0.51109989000E-03 0.  1.
     -623    1    1    2    0    0  0.10113658800E-01  0.18372952407E-01  0.32737161055E-02  0.17130000132E+03  0.17130000000E+03 0. -1.
      622    1    1    2    0    0  0.11505383488E-01 -0.12946746036E-01  0.38697012157E+01  0.38710318381E+01  0.10000000000E+00 0.  1.
</event>
<event>
 5   0  0.6262544E+06  0.9118800E+02  0.7818608E-02  0.1180000E+00
       11   -1    0    0    0    0  0.00000000000E+00  0.00000000000E+00  0.39999999673E+01  0.40000000000E+01  0.51109989000E-03 0. -1.
     -623   -1    0    0    0    0  0.00000000000E+00  0.00000000000E+00  0.12525980253E-10  0.17130000000E+03  0.17130000000E+03 0. -1.
       11    1    1    2    0    0 -0.78277343264E-02  0.14832056927E-01  0.33390008192E+00  0.33432138619E+00  0.51109989000E-03 0. -1.
     -623    1    1    2    0    0 -0.63981225249E-02 -0.45005383913E-02  0.18278972394E-02  0.17130000019E+03  0.17130000000E+03 0. -1.
      622    1    1    2    0    0  0.14225856851E-01 -0.10331518535E-01  0.36642719882E+01  0.36656784254E+01  0.10000000000E+00 0. -1.
</event>
<event>
 5   0  0.6262544E+06  0.9118800E+02  0.7818608E-02  0.1180000E+00
       11   -1    0    0    0    0  0.00000000000E+00  0.00000000000E+00  0.39999999673E+01  0.40000000000E+01  0.51109989000E-03 0.  1.
     -623   -1    0    0    0    0  0.00000000000E+00  0.00000000000E+00  0.12525980253E-10  0.17130000000E+03  0.17130000000E+03 0.  1.
       11    1    1    2    0    0  0.26304792078E-01 -0.36810314935E-03  0.96471472691E+00  0.96507349105E+00  0.51109989000E-03 0.  1.
     -623    1    1    2    0    0 -0.18562800906E-02 -0.31314799508E-02  0.21072660387E-02  0.17130000005E+03  0.17130000000E+03 0.  1.
      622    1    1    2    0    0 -0.24448511987E-01  0.34995831003E-02  0.30331779746E+01  0.30349264575E+01  0.10000000000E+00 0.  1.
</event>
<event>
 5   0  0.6262544E+06  0.9118800E+02  0.7818608E-02  0.1180000E+00
       11   -1    0    0    0    0  0.00000000000E+00  0.00000000000E+00  0.39999999673E+01  0.40000000000E+01  0.51109989000E-03 0.  1.
     -623   -1    0    0    0    0  0.00000000000E+00  0.00000000000E+00  0.12525980253E-10  0.17130000000E+03  0.17130000000E+03 0.  1.
       11    1    1    2    0    0 -0.32561738514E-02  0.14227315774E-02  0.63217834702E-01  0.63319686344E-01  0.51109989000E-03 0.  1.
     -623    1    1    2    0    0 -0.95535639581E-03  0.82886414209E-03  0.13750374463E-02  0.17130000001E+03  0.17130000000E+03 0.  1.
      622    1    1    2    0    0  0.42115302472E-02 -0.22515957195E-02  0.39354070952E+01  0.39366803035E+01  0.10000000000E+00 0.  1.
</event>
<event>
 5   0  0.6262544E+06  0.9118800E+02  0.7818608E-02  0.1180000E+00
       11   -1    0    0    0    0  0.00000000000E+00  0.00000000000E+00  0.39999999673E+01  0.40000000000E+01  0.51109989000E-03 0.  1.
     -623   -1    0    0    0    0  0.00000000000E+00  0.00000000000E+00  0.12525980253E-10  0.17130000000E+03  0.17130000000E+03 0. -1.
       11    1    1    2    0    0  0.25113367525E-02 -0.24039639318E-02  0.70756316466E-01  0.70843513449E-01  0.51109989000E-03 0.  1.
     -623    1    1    2    0    0 -0.17230101096E-02 -0.37778343240E-02  0.13649076623E-02  0.17130000006E+03  0.17130000000E+03 0. -1.
      622    1    1    2    0    0 -0.78832664267E-03  0.61817982562E-02  0.39278787437E+01  0.39291564312E+01  0.10000000000E+00 0.  1.
</event>
<event>
 5   0  0.6262544E+06  0.9118800E+02  0.7818608E-02  0.1180000E+00
       11   -1    0    0    0    0  0.00000000000E+00  0.00000000000E+00  0.39999999673E+01  0.40000000000E+01  0.51109989000E-03 0. -1.
     -623   -1    0    0    0    0  0.00000000000E+00  0.00000000000E+00  0.12525980253E-10  0.17130000000E+03  0.17130000000E+03 0. -1.
       11    1    1    2    0    0 -0.39847418953E-01  0.33247796326E-01  0.30161141735E+00  0.30604401817E+00  0.51109989000E-03 0. -1.
     -623    1    1    2    0    0  0.26735059003E-01  0.15102992374E-01  0.61290899005E-02  0.17130000286E+03  0.17130000000E+03 0. -1.
      622    1    1    2    0    0  0.13112359950E-01 -0.48350788700E-01  0.36922594601E+01  0.36939531201E+01  0.10000000000E+00 0. -1.
</event>
<event>
 5   0  0.6262544E+06  0.9118800E+02  0.7818608E-02  0.1180000E+00
       11   -1    0    0    0    0  0.00000000000E+00  0.00000000000E+00  0.39999999673E+01  0.40000000000E+01  0.51109989000E-03 0.  1.
     -623   -1    0    0    0    0  0.00000000000E+00  0.00000000000E+00  0.12525980253E-10  0.17130000000E+03  0.17130000000E+03 0.  1.
       11    1    1    2    0    0 -0.58976057390E-03  0.29640687146E-02  0.29851879423E-01  0.30008822845E-01  0.51109989000E-03 0.  1.
     -623    1    1    2    0    0 -0.65023430573E-02 -0.68768084120E-03  0.14236796413E-02  0.17130000013E+03  0.17130000000E+03 0.  1.
      622    1    1    2    0    0  0.70921036312E-02 -0.22763878734E-02  0.39687244083E+01  0.39699910464E+01  0.10000000000E+00 0.  1.
</event>
<event>
 5   0  0.6262544E+06  0.9118800E+02  0.7818608E-02  0.1180000E+00
       11   -1    0    0    0    0  0.00000000000E+00  0.00000000000E+00  0.39999999673E+01  0.40000000000E+01  0.51109989000E-03 0. -1.
     -623   -1    0    0    0    0  0.00000000000E+00  0.00000000000E+00  0.12525980253E-10  0.17130000000E+03  0.17130000000E+03 0. -1.
       11    1    1    2    0    0  0.78806005382E-02  0.41781130526E-02  0.42514430560E-02  0.98942652420E-02  0.51109989000E-03 0. -1.
     -623    1    1    2    0    0 -0.20068565559E-01 -0.10533394750E-01  0.69214088567E-02  0.17130000164E+03  0.17130000000E+03 0. -1.
      622    1    1    2    0    0  0.12187965021E-01  0.63552816973E-02  0.39888271155E+01  0.39901040956E+01  0.10000000000E+00 0. -1.
</event>
<event>
 5   0  0.6262544E+06  0.9118800E+02  0.7818608E-02  0.1180000E+00
       11   -1    0    0    0    0  0.00000000000E+00  0.00000000000E+00  0.39999999673E+01  0.40000000000E+01  0.51109989000E-03 0.  1.
     -623   -1    0    0    0    0  0.00000000000E+00  0.00000000000E+00  0.12525980253E-10  0.17130000000E+03  0.17130000000E+03 0.  1.
       11    1    1    2    0    0 -0.13648543138E-01 -0.16144957602E-01  0.14658088653E+00  0.14809848043E+00  0.51109989000E-03 0.  1.
     -623    1    1    2    0    0  0.36029849045E-01  0.29771476446E-01  0.29114000211E-02  0.17130000640E+03  0.17130000000E+03 0.  1.
      622    1    1    2    0    0 -0.22381305907E-01 -0.13626518845E-01  0.38505076809E+01  0.38518951187E+01  0.10000000000E+00 0.  1.
</event>
<event>
 5   0  0.6262544E+06  0.9118800E+02  0.7818608E-02  0.1180000E+00
       11   -1    0    0    0    0  0.00000000000E+00  0.00000000000E+00  0.39999999673E+01  0.40000000000E+01  0.51109989000E-03 0. -1.
     -623   -1    0    0    0    0  0.00000000000E+00  0.00000000000E+00  0.12525980253E-10  0.17130000000E+03  0.17130000000E+03 0.  1.
       11    1    1    2    0    0 -0.45511139503E-01  0.38505717891E-01  0.10485592699E+01  0.10502527115E+01  0.51109989000E-03 0. -1.
     -623    1    1    2    0    0 -0.31784065307E-02 -0.10733638764E-01  0.39223033802E-02  0.17130000041E+03  0.17130000000E+03 0.  1.
      622    1    1    2    0    0  0.48689546034E-01 -0.27772079127E-01  0.29475183940E+01  0.29497468779E+01  0.10000000000E+00 0. -1.
</event>
<event>
 5   0  0.6262544E+06  0.9118800E+02  0.7818608E-02  0.1180000E+00
       11   -1    0    0    0    0  0.00000000000E+00  0.00000000000E+00  0.39999999673E+01  0.40000000000E+01  0.51109989000E-03 0. -1.
     -623   -1    0    0    0    0  0.00000000000E+00  0.00000000000E+00  0.12525980253E-10  0.17130000000E+03  0.17130000000E+03 0. -1.
       11    1    1    2    0    0 -0.62737163288E-02  0.49270587162E-01  0.20590283910E+00  0.21180932616E+00  0.51109989000E-03 0. -1.
     -623    1    1    2    0    0  0.39105655187E-02  0.88456007533E-02  0.76737321191E-02  0.17130000044E+03  0.17130000000E+03 0. -1.
      622    1    1    2    0    0  0.23631508102E-02 -0.58116187915E-01  0.37864233961E+01  0.37881902289E+01  0.10000000000E+00 0.  0.
</event>
<event>
 5   0  0.6262544E+06  0.9118800E+02  0.7818608E-02  0.1180000E+00
       11   -1    0    0    0    0  0.00000000000E+00  0.00000000000E+00  0.39999999673E+01  0.40000000000E+01  0.51109989000E-03 0.  1.
     -623   -1    0    0    0    0  0.00000000000E+00  0.00000000000E+00  0.12525980253E-10  0.17130000000E+03  0.17130000000E+03 0. -1.
       11    1    1    2    0    0 -0.47042136104E-01 -0.60228748902E-01  0.22338090997E+01  0.22351160641E+01  0.51109989000E-03 0.  1.
     -623    1    1    2    0    0  0.11000750582E-01  0.13349212131E-01  0.51357065994E-02  0.17130000095E+03  0.17130000000E+03 0. -1.
      622    1    1    2    0    0  0.36041385522E-01  0.46879536771E-01  0.17610551610E+01  0.17648829855E+01  0.10000000000E+00 0.  0.
</event>
<event>
 5   0  0.6262544E+06  0.9118800E+02  0.7818608E-02  0.1180000E+00
       11   -1    0    0    0    0  0.00000000000E+00  0.00000000000E+00  0.39999999673E+01  0.40000000000E+01  0.51109989000E-03 0.  1.
     -623   -1    0    0    0    0  0.00000000000E+00  0.00000000000E+00  0.12525980253E-10  0.17130000000E+03  0.17130000000E+03 0. -1.
       11    1    1    2    0    0 -0.97340755767E-02  0.82663001917E-02  0.12830130029E+00  0.12893629754E+00  0.51109989000E-03 0.  1.
     -623    1    1    2    0    0 -0.88408396138E-03 -0.13017446645E-01  0.19448070296E-02  0.17130000051E+03  0.17130000000E+03 0. -1.
      622    1    1    2    0    0  0.10618159538E-01  0.47511464536E-02  0.38697538600E+01  0.38710631945E+01  0.10000000000E+00 0.  1.
</event>
<event>
 5   0  0.6262544E+06  0.9118800E+02  0.7818608E-02  0.1180000E+00
       11   -1    0    0    0    0  0.00000000000E+00  0.00000000000E+00  0.39999999673E+01  0.40000000000E+01  0.51109989000E-03 0. -1.
     -623   -1    0    0    0    0  0.00000000000E+00  0.00000000000E+00  0.12525980253E-10  0.17130000000E+03  0.17130000000E+03 0. -1.
       11    1    1    2    0    0  0.34491260399E-01  0.16742754079E-01  0.13729171424E+01  0.13734524776E+01  0.51109989000E-03 0. -1.
     -623    1    1    2    0    0  0.34758216335E-02  0.25133785079E-01  0.30502927361E-02  0.17130000191E+03  0.17130000000E+03 0. -1.
      622    1    1    2    0    0 -0.37967082033E-01 -0.41876539157E-01  0.26240325322E+01  0.26265456162E+01  0.10000000000E+00 0. -1.
</event>
<event>
 5   0  0.6262544E+06  0.9118800E+02  0.7818608E-02  0.1180000E+00
       11   -1    0    0    0    0  0.00000000000E+00  0.00000000000E+00  0.39999999673E+01  0.40000000000E+01  0.51109989000E-03 0.  1.
     -623   -1    0    0    0    0  0.00000000000E+00  0.00000000000E+00  0.12525980253E-10  0.17130000000E+03  0.17130000000E+03 0.  1.
       11    1    1    2    0    0 -0.12556788686E-01 -0.83603181046E-02  0.60038413429E-01  0.61906705381E-01  0.51109989000E-03 0.  1.
     -623    1    1    2    0    0  0.29225564480E-01  0.14669372640E-01  0.31816097393E-02  0.17130000315E+03  0.17130000000E+03 0.  1.
      622    1    1    2    0    0 -0.16668775793E-01 -0.63090545352E-02  0.39367799442E+01  0.39380901438E+01  0.10000000000E+00 0.  1.
</event>
<event>
 5   0  0.6262544E+06  0.9118800E+02  0.7818608E-02  0.1180000E+00
       11   -1    0    0    0    0  0.00000000000E+00  0.00000000000E+00  0.39999999673E+01  0.40000000000E+01  0.51109989000E-03 0.  1.
     -623   -1    0    0    0    0  0.00000000000E+00  0.00000000000E+00  0.12525980253E-10  0.17130000000E+03  0.17130000000E+03 0.  1.
       11    1    1    2    0    0  0.10063083013E-01 -0.55935339736E-01  0.68976805985E+00  0.69210567509E+00  0.51109989000E-03 0.  1.
     -623    1    1    2    0    0 -0.55400956566E-01  0.55619589764E-01  0.41783842755E-02  0.17130001804E+03  0.17130000000E+03 0.  1.
      622    1    1    2    0    0  0.45337873552E-01  0.31574997189E-03  0.33060535232E+01  0.33078762856E+01  0.10000000000E+00 0.  1.
</event>
<event>
 5   0  0.6262544E+06  0.9118800E+02  0.7818608E-02  0.1180000E+00
       11   -1    0    0    0    0  0.00000000000E+00  0.00000000000E+00  0.39999999673E+01  0.40000000000E+01  0.51109989000E-03 0. -1.
     -623   -1    0    0    0    0  0.00000000000E+00  0.00000000000E+00  0.12525980253E-10  0.17130000000E+03  0.17130000000E+03 0. -1.
       11    1    1    2    0    0  0.79041877094E-02  0.34118602358E-01  0.67994251952E+00  0.68084406899E+00  0.51109989000E-03 0. -1.
     -623    1    1    2    0    0 -0.52157059643E-02 -0.41246666050E-02  0.25450894662E-02  0.17130000015E+03  0.17130000000E+03 0. -1.
      622    1    1    2    0    0 -0.26884817451E-02 -0.29993935753E-01  0.33175123584E+01  0.33191557830E+01  0.10000000000E+00 0. -1.
</event>
<event>
 5   0  0.6262544E+06  0.9118800E+02  0.7818608E-02  0.1180000E+00
       11   -1    0    0    0    0  0.00000000000E+00  0.00000000000E+00  0.39999999673E+01  0.40000000000E+01  0.51109989000E-03 0. -1.
     -623   -1    0    0    0    0  0.00000000000E+00  0.00000000000E+00  0.12525980253E-10  0.17130000000E+03  0.17130000000E+03 0.  1.
       11    1    1    2    0    0  0.12035441192E-01  0.15476574246E-01  0.13783580067E+01  0.13784975270E+01  0.51109989000E-03 0. -1.
     -623    1    1    2    0    0  0.71420280873E-02 -0.13804717149E-01  0.21189354549E-02  0.17130000072E+03  0.17130000000E+03 0.  1.
      622    1    1    2    0    0 -0.19177469279E-01 -0.16718570973E-02  0.26195230252E+01  0.26215017547E+01  0.10000000000E+00 0. -1.
</event>
<event>
 5   0  0.6262544E+06  0.9118800E+02  0.7818608E-02  0.1180000E+00
       11   -1    0    0    0    0  0.00000000000E+00  0.00000000000E+00  0.39999999673E+01  0.40000000000E+01  0.51109989000E-03 0. -1.
     -623   -1    0    0    0    0  0.00000000000E+00  0.00000000000E+00  0.12525980253E-10  0.17130000000E+03  0.17130000000E+03 0. -1.
       11    1    1    2    0    0  0.16477510347E+00  0.49063901280E-01  0.13887077525E+01  0.13993096813E+01  0.51109989000E-03 0. -1.
     -623    1    1    2    0    0 -0.41629373991E-01  0.34063457312E-01  0.16785151604E-01  0.17130000927E+03  0.17130000000E+03 0. -1.
      622    1    1    2    0    0 -0.12314572948E+00 -0.83127358593E-01  0.25945070632E+01  0.26006810511E+01  0.10000000000E+00 0. -1.
</event>
<event>
 5   0  0.6262544E+06  0.9118800E+02  0.7818608E-02  0.1180000E+00
       11   -1    0    0    0    0  0.00000000000E+00  0.00000000000E+00  0.39999999673E+01  0.40000000000E+01  0.51109989000E-03 0. -1.
     -623   -1    0    0    0    0  0.00000000000E+00  0.00000000000E+00  0.12525980253E-10  0.17130000000E+03  0.17130000000E+03 0.  1.
       11    1    1    2    0    0 -0.22688244681E-01 -0.19323686753E-01  0.13992939682E+01  0.13996113860E+01  0.51109989000E-03 0. -1.
     -623    1    1    2    0    0  0.70130343506E-02  0.37394788828E-01  0.23552514596E-02  0.17130000424E+03  0.17130000000E+03 0.  1.
      622    1    1    2    0    0  0.15675210331E-01 -0.18071102075E-01  0.25983507477E+01  0.26003843726E+01  0.10000000000E+00 0. -1.
</event>
<event>
 5   0  0.6262544E+06  0.9118800E+02  0.7818608E-02  0.1180000E+00
       11   -1    0    0    0    0  0.00000000000E+00  0.00000000000E+00  0.39999999673E+01  0.40000000000E+01  0.51109989000E-03 0. -1.
     -623   -1    0    0    0    0  0.00000000000E+00  0.00000000000E+00  0.12525980253E-10  0.17130000000E+03  0.17130000000E+03 0. -1.
       11    1    1    2    0    0 -0.39222020584E-02  0.30421725838E-02  0.18018926119E-01  0.18697096154E-01  0.51109989000E-03 0. -1.
     -623    1    1    2    0    0  0.12872248872E-01  0.15437579730E-02  0.19474128004E-02  0.17130000050E+03  0.17130000000E+03 0. -1.
      622    1    1    2    0    0 -0.89500468142E-02 -0.45859305570E-02  0.39800336288E+01  0.39813024025E+01  0.10000000000E+00 0. -1.
</event>
<event>
 5   0  0.6262544E+06  0.9118800E+02  0.7818608E-02  0.1180000E+00
       11   -1    0    0    0    0  0.00000000000E+00  0.00000000000E+00  0.39999999673E+01  0.40000000000E+01  0.51109989000E-03 0.  1.
     -623   -1    0    0    0    0  0.00000000000E+00  0.00000000000E+00  0.12525980253E-10  0.17130000000E+03  0.17130000000E+03 0. -1.
       11    1    1    2    0    0 -0.19803358650E-01  0.10636838002E-01  0.10183844373E+01  0.10186326319E+01  0.51109989000E-03 0.  1.
     -623    1    1    2    0    0  0.95119455502E-02  0.26205881404E-01  0.21735562477E-02  0.17130000228E+03  0.17130000000E+03 0. -1.
      622    1    1    2    0    0  0.10291413100E-01 -0.36842719406E-01  0.29794419738E+01  0.29813650857E+01  0.10000000000E+00 0.  1.
</event>
<event>
 5   0  0.6262544E+06  0.9118800E+02  0.7818608E-02  0.1180000E+00
       11   -1    0    0    0    0  0.00000000000E+00  0.00000000000E+00  0.39999999673E+01  0.40000000000E+01  0.51109989000E-03 0.  1.
     -623   -1    0    0    0    0  0.00000000000E+00  0.00000000000E+00  0.12525980253E-10  0.17130000000E+03  0.17130000000E+03 0.  1.
       11    1    1    2    0    0 -0.36151758689E-02 -0.24422584098E-01  0.54506033866E+00  0.54561943340E+00  0.51109989000E-03 0.  1.
     -623    1    1    2    0    0 -0.18258915679E-01  0.44541857779E-01  0.21414860167E-02  0.17130000678E+03  0.17130000000E+03 0.  1.
      622    1    1    2    0    0  0.21874091549E-01 -0.20119273683E-01  0.34527981429E+01  0.34543737893E+01  0.10000000000E+00 0.  1.
</event>
<event>
 5   0  0.6262544E+06  0.9118800E+02  0.7818608E-02  0.1180000E+00
       11   -1    0    0    0    0  0.00000000000E+00  0.00000000000E+00  0.39999999673E+01  0.40000000000E+01  0.51109989000E-03 0. -1.
     -623   -1    0    0    0    0  0.00000000000E+00  0.00000000000E+00  0.12525980253E-10  0.17130000000E+03  0.17130000000E+03 0. -1.
       11    1    1    2    0    0  0.67112347442E-02 -0.41471922465E-02  0.34319196108E-01  0.35218011274E-01  0.51109989000E-03 0. -1.
     -623    1    1    2    0    0 -0.67484509739E-03  0.37876913632E-02  0.21647564197E-02  0.17130000006E+03  0.17130000000E+03 0. -1.
      622    1    1    2    0    0 -0.60363896468E-02  0.35950088336E-03  0.39635160148E+01  0.39647819318E+01  0.10000000000E+00 0. -1.
</event>
<event>
 5   0  0.6262544E+06  0.9118800E+02  0.7818608E-02  0.1180000E+00
       11   -1    0    0    0    0  0.00000000000E+00  0.00000000000E+00  0.39999999673E+01  0.40000000000E+01  0.51109989000E-03 0.  1.
     -623   -1    0    0    0    0  0.00000000000E+00  0.00000000000E+00  0.12525980253E-10  0.17130000000E+03  0.17130000000E+03 0.  1.
       11    1    1    2    0    0 -0.13442202413E-02  0.19667092953E-03  0.73406336732E-02  0.74827622260E-02  0.51109989000E-03 0.  1.
     -623    1    1    2    0    0  0.55117052321E-02 -0.14945400032E-02  0.13971228158E-02  0.17130000010E+03  0.17130000000E+03 0.  1.
      622    1    1    2    0    0 -0.41674849908E-02  0.12978690737E-02  0.39912622109E+01  0.39925171369E+01  0.10000000000E+00 0.  1.
</event>
<event>
 5   0  0.6262544E+06  0.9118800E+02  0.7818608E-02  0.1180000E+00
       11   -1    0    0    0    0  0.00000000000E+00  0.00000000000E+00  0.39999999673E+01  0.40000000000E+01  0.51109989000E-03 0. -1.
     -623   -1    0    0    0    0  0.00000000000E+00  0.00000000000E+00  0.12525980253E-10  0.17130000000E+03  0.17130000000E+03 0.  1.
       11    1    1    2    0    0 -0.13443933807E+00 -0.51121202900E-01  0.60668752483E+00  0.62350407137E+00  0.51109989000E-03 0. -1.
     -623    1    1    2    0    0  0.32074675249E-01 -0.82254985894E-02  0.20376865833E-01  0.17130000441E+03  0.17130000000E+03 0.  1.
      622    1    1    2    0    0  0.10236466283E+00  0.59346701489E-01  0.33729355767E+01  0.33764915163E+01  0.10000000000E+00 0. -1.
</event>
<event>
 5   0  0.6262544E+06  0.9118800E+02  0.7818608E-02  0.1180000E+00
       11   -1    0    0    0    0  0.00000000000E+00  0.00000000000E+00  0.39999999673E+01  0.40000000000E+01  0.51109989000E-03 0. -1.
     -623   -1    0    0    0    0  0.00000000000E+00  0.00000000000E+00  0.12525980253E-10  0.17130000000E+03  0.17130000000E+03 0. -1.
       11    1    1    2    0    0 -0.10171830378E-01 -0.47501712429E-01  0.25355444195E+01  0.25360097877E+01  0.51109989000E-03 0. -1.
     -623    1    1    2    0    0 -0.11650443969E-01 -0.47387396439E-02  0.49828687399E-02  0.17130000053E+03  0.17130000000E+03 0. -1.
      622    1    1    2    0    0  0.21822274346E-01  0.52240452073E-01  0.14594726791E+01  0.14639896781E+01  0.10000000000E+00 0.  0.
</event>
<event>
 5   0  0.6262544E+06  0.9118800E+02  0.7818608E-02  0.1180000E+00
       11   -1    0    0    0    0  0.00000000000E+00  0.00000000000E+00  0.39999999673E+01  0.40000000000E+01  0.51109989000E-03 0. -1.
     -623   -1    0    0    0    0  0.00000000000E+00  0.00000000000E+00  0.12525980253E-10  0.17130000000E+03  0.17130000000E+03 0.  1.
       11    1    1    2    0    0 -0.51542480304E-01  0.12723328914E+00  0.29939629441E+01  0.29971084914E+01  0.51109989000E-03 0. -1.
     -623    1    1    2    0    0  0.16773450750E-01 -0.50990827582E-01  0.11676971753E-01  0.17130000881E+03  0.17130000000E+03 0.  1.
      622    1    1    2    0    0  0.34769029554E-01 -0.76242461556E-01  0.99436005153E+00  0.10028827002E+01  0.10000000000E+00 0.  0.
</event>
<event>
 5   0  0.6262544E+06  0.9118800E+02  0.7818608E-02  0.1180000E+00
       11   -1    0    0    0    0  0.00000000000E+00  0.00000000000E+00  0.39999999673E+01  0.40000000000E+01  0.51109989000E-03 0. -1.
     -623   -1    0    0    0    0  0.00000000000E+00  0.00000000000E+00  0.12525980253E-10  0.17130000000E+03  0.17130000000E+03 0.  1.
       11    1    1    2    0    0  0.10475731453E+00 -0.30304410701E-01  0.70031620704E+00  0.70875630743E+00  0.51109989000E-03 0. -1.
     -623    1    1    2    0    0 -0.10275512632E+00  0.25125681638E-01  0.99972553227E-02  0.17130003295E+03  0.17130000000E+03 0.  1.
      622    1    1    2    0    0 -0.20021882082E-02  0.51787290627E-02  0.32896865050E+01  0.32912107391E+01  0.10000000000E+00 0.  0.
</event>
<event>
 5   0  0.6262544E+06  0.9118800E+02  0.7818608E-02  0.1180000E+00
       11   -1    0    0    0    0  0.00000000000E+00  0.00000000000E+00  0.39999999673E+01  0.40000000000E+01  0.51109989000E-03 0.  1.
     -623   -1    0    0    0    0  0.00000000000E+00  0.00000000000E+00  0.12525980253E-10  0.17130000000E+03  0.17130000000E+03 0.  1.
       11    1    1    2    0    0  0.63517793069E-01  0.19008420092E-02  0.63712823471E+00  0.64028960005E+00  0.51109989000E-03 0.  1.
     -623    1    1    2    0    0 -0.84073935013E-02 -0.23978032018E-01  0.51766564447E-02  0.17130000196E+03  0.17130000000E+03 0.  1.
      622    1    1    2    0    0 -0.55110399568E-01  0.22077190009E-01  0.33576950762E+01  0.33597084372E+01  0.10000000000E+00 0.  1.
</event>
<event>
 5   0  0.6262544E+06  0.9118800E+02  0.7818608E-02  0.1180000E+00
       11   -1    0    0    0    0  0.00000000000E+00  0.00000000000E+00  0.39999999673E+01  0.40000000000E+01  0.51109989000E-03 0.  1.
     -623   -1    0    0    0    0  0.00000000000E+00  0.00000000000E+00  0.12525980253E-10  0.17130000000E+03  0.17130000000E+03 0. -1.
       11    1    1    2    0    0  0.30283247345E-01 -0.28860011063E-01  0.75615611598E+00  0.75731255652E+00  0.51109989000E-03 0.  1.
     -623    1    1    2    0    0 -0.33458697800E-01  0.33615965633E-01  0.27103411086E-02  0.17130000659E+03  0.17130000000E+03 0. -1.
      622    1    1    2    0    0  0.31754504544E-02 -0.47559545690E-02  0.32411335103E+01  0.32426808560E+01  0.10000000000E+00 0.  1.
</event>
<event>
 5   0  0.6262544E+06  0.9118800E+02  0.7818608E-02  0.1180000E+00
       11   -1    0    0    0    0  0.00000000000E+00  0.00000000000E+00  0.39999999673E+01  0.40000000000E+01  0.51109989000E-03 0. -1.
     -623   -1    0    0    0    0  0.00000000000E+00  0.00000000000E+00  0.12525980253E-10  0.17130000000E+03  0.17130000000E+03 0. -1.
       11    1    1    2    0    0  0.98828337147E-02  0.12100476892E-01  0.41709534769E+00  0.41738816733E+00  0.51109989000E-03 0. -1.
     -623    1    1    2    0    0  0.37499562281E-02 -0.41491154909E-01  0.18403212370E-02  0.17130000508E+03  0.17130000000E+03 0. -1.
      622    1    1    2    0    0 -0.13632789943E-01  0.29390678018E-01  0.35810642986E+01  0.35826067570E+01  0.10000000000E+00 0. -1.
</event>
<event>
 5   0  0.6262544E+06  0.9118800E+02  0.7818608E-02  0.1180000E+00
       11   -1    0    0    0    0  0.00000000000E+00  0.00000000000E+00  0.39999999673E+01  0.40000000000E+01  0.51109989000E-03 0. -1.
     -623   -1    0    0    0    0  0.00000000000E+00  0.00000000000E+00  0.12525980253E-10  0.17130000000E+03  0.17130000000E+03 0.  1.
       11    1    1    2    0    0 -0.21215021722E-02  0.10013870218E-02  0.18267740733E-01  0.18424850665E-01  0.51109989000E-03 0. -1.
     -623    1    1    2    0    0 -0.29346520624E-03 -0.21301261200E-02  0.14139717950E-02  0.17130000002E+03  0.17130000000E+03 0.  1.
      622    1    1    2    0    0  0.24149673785E-02  0.11287390982E-02  0.39803182550E+01  0.39815751302E+01  0.10000000000E+00 0. -1.
</event>
<event>
 5   0  0.6262544E+06  0.9118800E+02  0.7818608E-02  0.1180000E+00
       11   -1    0    0    0    0  0.00000000000E+00  0.00000000000E+00  0.39999999673E+01  0.40000000000E+01  0.51109989000E-03 0.  1.
     -623   -1    0    0    0    0  0.00000000000E+00  0.00000000000E+00  0.12525980253E-10  0.17130000000E+03  0.17130000000E+03 0. -1.
       11    1    1    2    0    0 -0.46058536227E-02  0.47036365822E-03  0.68923167788E-02  0.83186766855E-02  0.51109989000E-03 0.  1.
     -623    1    1    2    0    0  0.81185422625E-02  0.10076679303E-02  0.26811650665E-02  0.17130000022E+03  0.17130000000E+03 0. -1.
      622    1    1    2    0    0 -0.35126886398E-02 -0.14780315885E-02  0.39904264855E+01  0.39916811070E+01  0.10000000000E+00 0.  1.
</event>
<event>
 5   0  0.6262544E+06  0.9118800E+02  0.7818608E-02  0.1180000E+00
       11   -1    0    0    0    0  0.00000000000E+00  0.00000000000E+00  0.39999999673E+01  0.40000000000E+01  0.51109989000E-03 0. -1.
     -623   -1    0    0    0    0  0.00000000000E+00  0.00000000000E+00  0.12525980253E-10  0.17130000000E+03  0.17130000000E+03 0. -1.
       11    1    1    2    0    0 -0.77124384318E-02  0.48030125000E-02  0.22357074215E-01  0.24138157059E-01  0.51109989000E-03 0. -1.
     -623    1    1    2    0    0  0.15852027025E-01 -0.15223243211E-01  0.30622698323E-02  0.17130000144E+03  0.17130000000E+03 0. -1.
      622    1    1    2    0    0 -0.81395885934E-02  0.10420230711E-01  0.39745806233E+01  0.39758604057E+01  0.10000000000E+00 0. -1.
</event>
<event>
 5   0  0.6262544E+06  0.9118800E+02  0.7818608E-02  0.1180000E+00
       11   -1    0    0    0    0  0.00000000000E+00  0.00000000000E+00  0.39999999673E+01  0.40000000000E+01  0.51109989000E-03 0.  1.
     -623   -1    0    0    0    0  0.00000000000E+00  0.00000000000E+00  0.12525980253E-10  0.17130000000E+03  0.17130000000E+03 0. -1.
       11    1    1    2    0    0 -0.67908814346E-02 -0.31972086875E-01  0.16137147055E+00  0.16464915166E+00  0.51109989000E-03 0.  1.
     -623    1    1    2    0    0  0.58936865357E-02  0.39540712902E-01  0.45938353697E-02  0.17130000473E+03  0.17130000000E+03 0. -1.
      622    1    1    2    0    0  0.89719489878E-03 -0.75686260276E-02  0.38340346615E+01  0.38353461219E+01  0.10000000000E+00 0.  1.
</event>
<event>
 5   0  0.6262544E+06  0.9118800E+02  0.7818608E-02  0.1180000E+00
       11   -1    0    0    0    0  0.00000000000E+00  0.00000000000E+00  0.39999999673E+01  0.40000000000E+01  0.51109989000E-03 0.  1.
     -623   -1    0    0    0    0  0.00000000000E+00  0.00000000000E+00  0.12525980253E-10  0.17130000000E+03  0.17130000000E+03 0. -1.
       11    1    1    2    0    0 -0.11746866073E-01 -0.63016526842E-02  0.17739428400E-01  0.22195680484E-01  0.51109989000E-03 0.  1.
     -623    1    1    2    0    0  0.27434566814E-03 -0.58618890991E-02  0.57487425738E-02  0.17130000020E+03  0.17130000000E+03 0. -1.
      622    1    1    2    0    0  0.11472520405E-01  0.12163541783E-01  0.39765117964E+01  0.39778041226E+01  0.10000000000E+00 0.  1.
</event>
<event>
 5   0  0.6262544E+06  0.9118800E+02  0.7818608E-02  0.1180000E+00
       11   -1    0    0    0    0  0.00000000000E+00  0.00000000000E+00  0.39999999673E+01  0.40000000000E+01  0.51109989000E-03 0.  1.
     -623   -1    0    0    0    0  0.00000000000E+00  0.00000000000E+00  0.12525980253E-10  0.17130000000E+03  0.17130000000E+03 0.  1.
       11    1    1    2    0    0 -0.79170187400E-03  0.14024186725E-02  0.46487018753E-02  0.49462331337E-02  0.51109989000E-03 0.  1.
     -623    1    1    2    0    0  0.30978775049E-03 -0.14066994202E-02  0.15492844736E-02  0.17130000001E+03  0.17130000000E+03 0.  1.
      622    1    1    2    0    0  0.48191412349E-03  0.42807478093E-05  0.39938019812E+01  0.39950537540E+01  0.10000000000E+00 0.  1.
</event>
<event>
 5   0  0.6262544E+06  0.9118800E+02  0.7818608E-02  0.1180000E+00
       11   -1    0    0    0    0  0.00000000000E+00  0.00000000000E+00  0.39999999673E+01  0.40000000000E+01  0.51109989000E-03 0. -1.
     -623   -1    0    0    0    0  0.00000000000E+00  0.00000000000E+00  0.12525980253E-10  0.17130000000E+03  0.17130000000E+03 0.  1.
       11    1    1    2    0    0 -0.34575541809E-02 -0.77912221763E-02  0.22077819750E-01  0.23671695534E-01  0.51109989000E-03 0. -1.
     -623    1    1    2    0    0  0.19636266843E-03 -0.60317594580E-02  0.28769859593E-02  0.17130000013E+03  0.17130000000E+03 0.  1.
      622    1    1    2    0    0  0.32611915125E-02  0.13822981634E-01  0.39750451617E+01  0.39763281740E+01  0.10000000000E+00 0. -1.
</event>
<event>
 5   0  0.6262544E+06  0.9118800E+02  0.7818608E-02  0.1180000E+00
       11   -1    0    0    0    0  0.00000000000E+00  0.00000000000E+00  0.39999999673E+01  0.40000000000E+01  0.51109989000E-03 0. -1.
     -623   -1    0    0    0    0  0.00000000000E+00  0.00000000000E+00  0.12525980253E-10  0.17130000000E+03  0.17130000000E+03 0.  1.
       11    1    1    2    0    0 -0.54709697610E-02 -0.76870247343E-02  0.56957803721E-01  0.57736249329E-01  0.51109989000E-03 0. -1.
     -623    1    1    2    0    0  0.12524832310E-01 -0.15326403711E-01  0.21215877733E-02  0.17130000116E+03  0.17130000000E+03 0.  1.
      622    1    1    2    0    0 -0.70538625494E-02  0.23013428446E-01  0.39409205759E+01  0.39422625940E+01  0.10000000000E+00 0. -1.
</event>
<event>
 5   0  0.6262544E+06  0.9118800E+02  0.7818608E-02  0.1180000E+00
       11   -1    0    0    0    0  0.00000000000E+00  0.00000000000E+00  0.39999999673E+01  0.40000000000E+01  0.51109989000E-03 0.  1.
     -623   -1    0    0    0    0  0.00000000000E+00  0.00000000000E+00  0.12525980253E-10  0.17130000000E+03  0.17130000000E+03 0.  1.
       11    1    1    2    0    0 -0.21797043984E-01 -0.26917332226E-01  0.51174793637E+00  0.51291896582E+00  0.51109989000E-03 0.  1.
     -623    1    1    2    0    0  0.10744272682E+00  0.19609828847E-01  0.37000575243E-02  0.17130003486E+03  0.17130000000E+03 0.  1.
      622    1    1    2    0    0 -0.85645682845E-01  0.73075033770E-02  0.34845519738E+01  0.34870461770E+01  0.10000000000E+00 0.  0.
</event>
<event>
 5   0  0.6262544E+06  0.9118800E+02  0.7818608E-02  0.1180000E+00
       11   -1    0    0    0    0  0.00000000000E+00  0.00000000000E+00  0.39999999673E+01  0.40000000000E+01  0.51109989000E-03 0.  1.
     -623   -1    0    0    0    0  0.00000000000E+00  0.00000000000E+00  0.12525980253E-10  0.17130000000E+03  0.17130000000E+03 0.  1.
       11    1    1    2    0    0  0.14575857574E-02 -0.12928306794E-01  0.49789652372E+00  0.49806673772E+00  0.51109989000E-03 0.  1.
     -623    1    1    2    0    0 -0.17587745955E-01  0.27747686218E-01  0.16699481009E-02  0.17130000316E+03  0.17130000000E+03 0.  1.
      622    1    1    2    0    0  0.16130160197E-01 -0.14819379423E-01  0.35004334955E+01  0.35019301039E+01  0.10000000000E+00 0.  1.
</event>
<event>
 5   0  0.6262544E+06  0.9118800E+02  0.7818608E-02  0.1180000E+00
       11   -1    0    0    0    0  0.00000000000E+00  0.00000000000E+00  0.39999999673E+01  0.40000000000E+01  0.51109989000E-03 0. -1.
     -623   -1    0    0    0    0  0.00000000000E+00  0.00000000000E+00  0.12525980253E-10  0.17130000000E+03  0.17130000000E+03 0. -1.
       11    1    1    2    0    0  0.71991141310E-01  0.14084703821E+00  0.15663523416E+01  0.15743190692E+01  0.51109989000E-03 0. -1.
     -623    1    1    2    0    0 -0.12611546269E-01  0.16930520089E-01  0.15901073302E-01  0.17130000204E+03  0.17130000000E+03 0. -1.
      622    1    1    2    0    0 -0.59379595042E-01 -0.15777755830E+00  0.24177465525E+01  0.24256788919E+01  0.10000000000E+00 0.  0.
</event>
<event>
 5   0  0.6262544E+06  0.9118800E+02  0.7818608E-02  0.1180000E+00
       11   -1    0    0    0    0  0.00000000000E+00  0.00000000000E+00  0.39999999673E+01  0.40000000000E+01  0.51109989000E-03 0.  1.
     -623   -1    0    0    0    0  0.00000000000E+00  0.00000000000E+00  0.12525980253E-10  0.17130000000E+03  0.17130000000E+03 0.  1.
       11    1    1    2    0    0  0.28486898850E-02 -0.13255697814E-01  0.19239956136E+00  0.19287737294E+00  0.51109989000E-03 0.  1.
     -623    1    1    2    0    0 -0.33008504936E-02 -0.22302682491E-02  0.18229228389E-02  0.17130000006E+03  0.17130000000E+03 0.  1.
      622    1    1    2    0    0  0.45216060857E-03  0.15485966063E-01  0.38057774832E+01  0.38071225710E+01  0.10000000000E+00 0.  1.
</event>
<event>
 5   0  0.6262544E+06  0.9118800E+02  0.7818608E-02  0.1180000E+00
       11   -1    0    0    0    0  0.00000000000E+00  0.00000000000E+00  0.39999999673E+01  0.40000000000E+01  0.51109989000E-03 0. -1.
     -623   -1    0    0    0    0  0.00000000000E+00  0.00000000000E+00  0.12525980253E-10  0.17130000000E+03  0.17130000000E+03 0. -1.
       11    1    1    2    0    0 -0.27164577916E-02  0.28049386535E-01  0.37045483803E-01  0.46548644677E-01  0.51109989000E-03 0. -1.
     -623    1    1    2    0    0  0.16885589657E-01 -0.49005373554E-01  0.10857195373E-01  0.17130000819E+03  0.17130000000E+03 0. -1.
      622    1    1    2    0    0 -0.14169131866E-01  0.20955987019E-01  0.39520972882E+01  0.39534431693E+01  0.10000000000E+00 0. -1.
</event>
<event>
 5   0  0.6262544E+06  0.9118800E+02  0.7818608E-02  0.1180000E+00
       11   -1    0    0    0    0  0.00000000000E+00  0.00000000000E+00  0.39999999673E+01  0.40000000000E+01  0.51109989000E-03 0. -1.
     -623   -1    0    0    0    0  0.00000000000E+00  0.00000000000E+00  0.12525980253E-10  0.17130000000E+03  0.17130000000E+03 0. -1.
       11    1    1    2    0    0  0.23441571350E-01 -0.44131318720E-02  0.29735255136E+00  0.29830820308E+00  0.51109989000E-03 0. -1.
     -623    1    1    2    0    0  0.50439213590E-03  0.19183352575E-02  0.23849498651E-02  0.17130000003E+03  0.17130000000E+03 0. -1.
      622    1    1    2    0    0 -0.23945963486E-01  0.24947966146E-02  0.37002624660E+01  0.37016917687E+01  0.10000000000E+00 0. -1.
</event>
<event>
 5   0  0.6262544E+06  0.9118800E+02  0.7818608E-02  0.1180000E+00
       11   -1    0    0    0    0  0.00000000000E+00  0.00000000000E+00  0.39999999673E+01  0.40000000000E+01  0.51109989000E-03 0. -1.
     -623   -1    0    0    0    0  0.00000000000E+00  0.00000000000E+00  0.12525980253E-10  0.17130000000E+03  0.17130000000E+03 0.  1.
       11    1    1    2    0    0 -0.71757072539E-02  0.17102158787E-02  0.31417738303E-02  0.80341507855E-02  0.51109989000E-03 0. -1.
     -623    1    1    2    0    0  0.23973494208E-02 -0.77211376645E-02  0.61527456184E-02  0.17130000030E+03  0.17130000000E+03 0.  1.
      622    1    1    2    0    0  0.47783578331E-02  0.60109217859E-02  0.39907054479E+01  0.39919655479E+01  0.10000000000E+00 0. -1.
</event>
<event>
 5   0  0.6262544E+06  0.9118800E+02  0.7818608E-02  0.1180000E+00
       11   -1    0    0    0    0  0.00000000000E+00  0.00000000000E+00  0.39999999673E+01  0.40000000000E+01  0.51109989000E-03 0. -1.
     -623   -1    0    0    0    0  0.00000000000E+00  0.00000000000E+00  0.12525980253E-10  0.17130000000E+03  0.17130000000E+03 0.  1.
       11    1    1    2    0    0 -0.49511782615E-02 -0.51683433774E-01  0.25460774425E-01  0.57829090843E-01  0.51109989000E-03 0. -1.
     -623    1    1    2    0    0  0.88394346819E-02  0.21029308882E-01  0.33762813296E-01  0.17130000485E+03  0.17130000000E+03 0.  1.
      622    1    1    2    0    0 -0.38882564204E-02  0.30654124892E-01  0.39407763796E+01  0.39421660630E+01  0.10000000000E+00 0. -1.
</event>
<event>
 5   0  0.6262544E+06  0.9118800E+02  0.7818608E-02  0.1180000E+00
       11   -1    0    0    0    0  0.00000000000E+00  0.00000000000E+00  0.39999999673E+01  0.40000000000E+01  0.51109989000E-03 0.  1.
     -623   -1    0    0    0    0  0.00000000000E+00  0.00000000000E+00  0.12525980253E-10  0.17130000000E+03  0.17130000000E+03 0. -1.
       11    1    1    2    0    0 -0.41311399433E-01  0.96791486626E-02  0.11777655908E+01  0.11785297475E+01  0.51109989000E-03 0.  1.
     -623    1    1    2    0    0 -0.90862873888E-03 -0.23594884817E-02  0.28624540745E-02  0.17130000004E+03  0.17130000000E+03 0. -1.
      622    1    1    2    0    0  0.42220028172E-01 -0.73196601808E-02  0.28193719226E+01  0.28214702100E+01  0.10000000000E+00 0.  1.
</event>
<event>
 5   0  0.6262544E+06  0.9118800E+02  0.7818608E-02  0.1180000E+00
       11   -1    0    0    0    0  0.00000000000E+00  0.00000000000E+00  0.39999999673E+01  0.40000000000E+01  0.51109989000E-03 0.  1.
     -623   -1    0    0    0    0  0.00000000000E+00  0.00000000000E+00  0.12525980253E-10  0.17130000000E+03  0.17130000000E+03 0.  1.
       11    1    1    2    0    0  0.16880086712E-01  0.39025357873E-01  0.15900190447E+01  0.15905875454E+01  0.51109989000E-03 0.  1.
     -623    1    1    2    0    0  0.14693701616E-01 -0.18943129231E-01  0.29370986091E-02  0.17130000170E+03  0.17130000000E+03 0.  1.
      622    1    1    2    0    0 -0.31573788329E-01 -0.20082228642E-01  0.24070438241E+01  0.24094107519E+01  0.10000000000E+00 0. -1.
</event>
<event>
 5   0  0.6262544E+06  0.9118800E+02  0.7818608E-02  0.1180000E+00
       11   -1    0    0    0    0  0.00000000000E+00  0.00000000000E+00  0.39999999673E+01  0.40000000000E+01  0.51109989000E-03 0.  1.
     -623   -1    0    0    0    0  0.00000000000E+00  0.00000000000E+00  0.12525980253E-10  0.17130000000E+03  0.17130000000E+03 0.  1.
       11    1    1    2    0    0  0.35107563228E-01  0.30748090463E-01  0.14538180253E+00  0.15268960603E+00  0.51109989000E-03 0.  1.
     -623    1    1    2    0    0  0.96865232940E-02 -0.13929339915E-01  0.89063139089E-02  0.17130000107E+03  0.17130000000E+03 0.  1.
      622    1    1    2    0    0 -0.44794086522E-01 -0.16818750547E-01  0.38457118509E+01  0.38473093222E+01  0.10000000000E+00 0.  1.
</event>
<event>
 5   0  0.6262544E+06  0.9118800E+02  0.7818608E-02  0.1180000E+00
       11   -1    0    0    0    0  0.00000000000E+00  0.00000000000E+00  0.39999999673E+01  0.40000000000E+01  0.51109989000E-03 0. -1.
     -623   -1    0    0    0    0  0.00000000000E+00  0.00000000000E+00  0.12525980253E-10  0.17130000000E+03  0.17130000000E+03 0.  1.
       11    1    1    2    0    0  0.55359743286E-02 -0.67423410235E-04  0.50487364066E+00  0.50490425411E+00  0.51109989000E-03 0. -1.
     -623    1    1    2    0    0  0.30456889973E-02 -0.10311537056E-02  0.14721987175E-02  0.17130000004E+03  0.17130000000E+03 0.  1.
      622    1    1    2    0    0 -0.85816633258E-02  0.10985771158E-02  0.34936541279E+01  0.34950957093E+01  0.10000000000E+00 0. -1.
</event>
<event>
 5   0  0.6262544E+06  0.9118800E+02  0.7818608E-02  0.1180000E+00
       11   -1    0    0    0    0  0.00000000000E+00  0.00000000000E+00  0.39999999673E+01  0.40000000000E+01  0.51109989000E-03 0. -1.
     -623   -1    0    0    0    0  0.00000000000E+00  0.00000000000E+00  0.12525980253E-10  0.17130000000E+03  0.17130000000E+03 0. -1.
       11    1    1    2    0    0 -0.66250943055E-01  0.14806207499E-01  0.16199615273E+01  0.16213833669E+01  0.51109989000E-03 0. -1.
     -623    1    1    2    0    0  0.35360510410E-02  0.58864125563E-02  0.44427639571E-02  0.17130000020E+03  0.17130000000E+03 0. -1.
      622    1    1    2    0    0  0.62714892015E-01 -0.20692620055E-01  0.23755956760E+01  0.23786164378E+01  0.10000000000E+00 0. -1.
</event>
<event>
 5   0  0.6262544E+06  0.9118800E+02  0.7818608E-02  0.1180000E+00
       11   -1    0    0    0    0  0.00000000000E+00  0.00000000000E+00  0.39999999673E+01  0.40000000000E+01  0.51109989000E-03 0.  1.
     -623   -1    0    0    0    0  0.00000000000E+00  0.00000000000E+00  0.12525980253E-10  0.17130000000E+03  0.17130000000E+03 0. -1.
       11    1    1    2    0    0  0.12843399053E-01  0.31085985015E-02  0.88502111604E+00  0.88511990902E+00  0.51109989000E-03 0.  1.
     -623    1    1    2    0    0 -0.15300209872E-01  0.22529432605E-01  0.18130846982E-02  0.17130000217E+03  0.17130000000E+03 0. -1.
      622    1    1    2    0    0  0.24568108188E-02 -0.25638031108E-01  0.31131657668E+01  0.31148779167E+01  0.10000000000E+00 0.  1.
</event>
<event>
 5   0  0.6262544E+06  0.9118800E+02  0.7818608E-02  0.1180000E+00
       11   -1    0    0    0    0  0.00000000000E+00  0.00000000000E+00  0.39999999673E+01  0.40000000000E+01  0.51109989000E-03 0. -1.
     -623   -1    0    0    0    0  0.00000000000E+00  0.00000000000E+00  0.12525980253E-10  0.17130000000E+03  0.17130000000E+03 0. -1.
       11    1    1    2    0    0  0.42274544371E-02 -0.37852694942E-02  0.62564428911E-01  0.62823312744E-01  0.51109989000E-03 0. -1.
     -623    1    1    2    0    0  0.13323183985E-02  0.13941051549E-02  0.15336724980E-02  0.17130000002E+03  0.17130000000E+03 0. -1.
      622    1    1    2    0    0 -0.55597728356E-02  0.23911643393E-02  0.39359018661E+01  0.39371766696E+01  0.10000000000E+00 0. -1.
</event>
<event>
 5   0  0.6262544E+06  0.9118800E+02  0.7818608E-02  0.1180000E+00
       11   -1    0    0    0    0  0.00000000000E+00  0.00000000000E+00  0.39999999673E+01  0.40000000000E+01  0.51109989000E-03 0.  1.
     -623   -1    0    0    0    0  0.00000000000E+00  0.00000000000E+00  0.12525980253E-10  0.17130000000E+03  0.17130000000E+03 0. -1.
       11    1    1    2    0    0 -0.19329891389E-01  0.92107069606E-02  0.59488084268E-01  0.63226380702E-01  0.51109989000E-03 0.  1.
     -623    1    1    2    0    0  0.56350049666E-02 -0.25728919963E-01  0.50691386667E-02  0.17130000210E+03  0.17130000000E+03 0. -1.
      622    1    1    2    0    0  0.13694886422E-01  0.16518213002E-01  0.39354427444E+01  0.39367715194E+01  0.10000000000E+00 0.  1.
</event>
<event>
 5   0  0.6262544E+06  0.9118800E+02  0.7818608E-02  0.1180000E+00
       11   -1    0    0    0    0  0.00000000000E+00  0.00000000000E+00  0.39999999673E+01  0.40000000000E+01  0.51109989000E-03 0.  1.
     -623   -1    0    0    0    0  0.00000000000E+00  0.00000000000E+00  0.12525980253E-10  0.17130000000E+03  0.17130000000E+03 0.  1.
       11    1    1    2    0    0  0.16156540036E-02  0.94115566828E-02  0.50778411307E-01  0.51671036520E-01  0.51109989000E-03 0.  1.
     -623    1    1    2    0    0 -0.15359440440E-02 -0.34343132221E-02  0.21637358628E-02  0.17130000005E+03  0.17130000000E+03 0.  1.
      622    1    1    2    0    0 -0.79709959562E-04 -0.59772434609E-02  0.39470578201E+01  0.39483289084E+01  0.10000000000E+00 0.  1.
</event>
<event>
 5   0  0.6262544E+06  0.9118800E+02  0.7818608E-02  0.1180000E+00
       11   -1    0    0    0    0  0.00000000000E+00  0.00000000000E+00  0.39999999673E+01  0.40000000000E+01  0.51109989000E-03 0. -1.
     -623   -1    0    0    0    0  0.00000000000E+00  0.00000000000E+00  0.12525980253E-10  0.17130000000E+03  0.17130000000E+03 0.  1.
       11    1    1    2    0    0 -0.14506575620E-01  0.11079905358E-01  0.89369354935E+00  0.89388009621E+00  0.51109989000E-03 0. -1.
     -623    1    1    2    0    0 -0.13528044151E-01 -0.53899767814E-01  0.22276030957E-02  0.17130000903E+03  0.17130000000E+03 0.  1.
      622    1    1    2    0    0  0.28034619771E-01  0.42819862456E-01  0.31040788149E+01  0.31061108753E+01  0.10000000000E+00 0.  1.
</event>
<event>
 5   0  0.6262544E+06  0.9118800E+02  0.7818608E-02  0.1180000E+00
       11   -1    0    0    0    0  0.00000000000E+00  0.00000000000E+00  0.39999999673E+01  0.40000000000E+01  0.51109989000E-03 0.  1.
     -623   -1    0    0    0    0  0.00000000000E+00  0.00000000000E+00  0.12525980253E-10  0.17130000000E+03  0.17130000000E+03 0. -1.
       11    1    1    2    0    0 -0.41175251286E-03  0.52815317667E-02  0.10855931036E-01  0.12090350593E-01  0.51109989000E-03 0.  1.
     -623    1    1    2    0    0  0.39372115333E-02 -0.29231399549E-02  0.24907184726E-02  0.17130000009E+03  0.17130000000E+03 0. -1.
      622    1    1    2    0    0 -0.35254590204E-02 -0.23583918118E-02  0.39866533179E+01  0.39879095611E+01  0.10000000000E+00 0.  1.
</event>
<event>
 5   0  0.6262544E+06  0.9118800E+02  0.7818608E-02  0.1180000E+00
       11   -1    0    0    0    0  0.00000000000E+00  0.00000000000E+00  0.39999999673E+01  0.40000000000E+01  0.51109989000E-03 0. -1.
     -623   -1    0    0    0    0  0.00000000000E+00  0.00000000000E+00  0.12525980253E-10  0.17130000000E+03  0.17130000000E+03 0.  1.
       11    1    1    2    0    0 -0.78323785453E-01 -0.23686963711E-01  0.37546393281E+00  0.38427739158E+00  0.51109989000E-03 0. -1.
     -623    1    1    2    0    0  0.21225690593E-01  0.19497136053E-01  0.10652762324E-01  0.17130000276E+03  0.17130000000E+03 0.  1.
      622    1    1    2    0    0  0.57098094860E-01  0.41898276580E-02  0.36138832722E+01  0.36157198526E+01  0.10000000000E+00 0. -1.
</event>
<event>
 5   0  0.6262544E+06  0.9118800E+02  0.7818608E-02  0.1180000E+00
       11   -1    0    0    0    0  0.00000000000E+00  0.00000000000E+00  0.39999999673E+01  0.40000000000E+01  0.51109989000E-03 0. -1.
     -623   -1    0    0    0    0  0.00000000000E+00  0.00000000000E+00  0.12525980253E-10  0.17130000000E+03  0.17130000000E+03 0.  1.
       11    1    1    2    0    0  0.49060919905E-01 -0.30456381263E-01  0.29192163642E+01  0.29197874935E+01  0.51109989000E-03 0. -1.
     -623    1    1    2    0    0 -0.23757324800E-01  0.32522990790E-01  0.55142902012E-02  0.17130000482E+03  0.17130000000E+03 0.  1.
      622    1    1    2    0    0 -0.25303595105E-01 -0.20666095274E-02  0.10752693130E+01  0.10802076829E+01  0.10000000000E+00 0. -1.
</event>
<event>
 5   0  0.6262544E+06  0.9118800E+02  0.7818608E-02  0.1180000E+00
       11   -1    0    0    0    0  0.00000000000E+00  0.00000000000E+00  0.39999999673E+01  0.40000000000E+01  0.51109989000E-03 0. -1.
     -623   -1    0    0    0    0  0.00000000000E+00  0.00000000000E+00  0.12525980253E-10  0.17130000000E+03  0.17130000000E+03 0.  1.
       11    1    1    2    0    0  0.84055383406E-01 -0.12198010596E+00  0.14267520248E+01  0.14344218540E+01  0.51109989000E-03 0. -1.
     -623    1    1    2    0    0 -0.65534176659E-01  0.31851758011E-01  0.11287044366E-01  0.17130001587E+03  0.17130000000E+03 0.  1.
      622    1    1    2    0    0 -0.18521206747E-01  0.90128347945E-01  0.25619608982E+01  0.25655622772E+01  0.10000000000E+00 0.  0.
</event>
<event>
 5   0  0.6262544E+06  0.9118800E+02  0.7818608E-02  0.1180000E+00
       11   -1    0    0    0    0  0.00000000000E+00  0.00000000000E+00  0.39999999673E+01  0.40000000000E+01  0.51109989000E-03 0.  1.
     -623   -1    0    0    0    0  0.00000000000E+00  0.00000000000E+00  0.12525980253E-10  0.17130000000E+03  0.17130000000E+03 0. -1.
       11    1    1    2    0    0 -0.53127299898E-01  0.30973915856E-01  0.49805905474E+00  0.50184158525E+00  0.51109989000E-03 0.  1.
     -623    1    1    2    0    0 -0.45139243146E-02 -0.65270198740E-02  0.57729866548E-02  0.17130000028E+03  0.17130000000E+03 0. -1.
      622    1    1    2    0    0  0.57641224213E-01 -0.24446895982E-01  0.34961679260E+01  0.34981581337E+01  0.10000000000E+00 0.  1.
</event>
<event>
 5   0  0.6262544E+06  0.9118800E+02  0.7818608E-02  0.1180000E+00
       11   -1    0    0    0    0  0.00000000000E+00  0.00000000000E+00  0.39999999673E+01  0.40000000000E+01  0.51109989000E-03 0.  1.
     -623   -1    0    0    0    0  0.00000000000E+00  0.00000000000E+00  0.12525980253E-10  0.17130000000E+03  0.17130000000E+03 0.  1.
       11    1    1    2    0    0 -0.23273381290E-02  0.11898617489E-01  0.34970966342E-01  0.37016527537E-01  0.51109989000E-03 0.  1.
     -623    1    1    2    0    0 -0.53835545450E-02 -0.33467902750E-02  0.33242888896E-02  0.17130000015E+03  0.17130000000E+03 0.  1.
      622    1    1    2    0    0  0.77108926741E-02 -0.85518272145E-02  0.39617047122E+01  0.39629833229E+01  0.10000000000E+00 0.  1.
</event>
<event>
 5   0  0.6262544E+06  0.9118800E+02  0.7818608E-02  0.1180000E+00
       11   -1    0    0    0    0  0.00000000000E+00  0.00000000000E+00  0.39999999673E+01  0.40000000000E+01  0.51109989000E-03 0. -1.
     -623   -1    0    0    0    0  0.00000000000E+00  0.00000000000E+00  0.12525980253E-10  0.17130000000E+03  0.17130000000E+03 0. -1.
       11    1    1    2    0    0  0.95718369780E-02 -0.29951020424E-01  0.14353059963E+01  0.14356504616E+01  0.51109989000E-03 0. -1.
     -623    1    1    2    0    0  0.67095288666E-02  0.22451774316E-01  0.23593070949E-02  0.17130000162E+03  0.17130000000E+03 0. -1.
      622    1    1    2    0    0 -0.16281365845E-01  0.74992461082E-02  0.25623346640E+01  0.25643479194E+01  0.10000000000E+00 0. -1.
</event>
<event>
 5   0  0.6262544E+06  0.9118800E+02  0.7818608E-02  0.1180000E+00
       11   -1    0    0    0    0  0.00000000000E+00  0.00000000000E+00  0.39999999673E+01  0.40000000000E+01  0.51109989000E-03 0. -1.
     -623   -1    0    0    0    0  0.00000000000E+00  0.00000000000E+00  0.12525980253E-10  0.17130000000E+03  0.17130000000E+03 0. -1.
       11    1    1    2    0    0 -0.29582722570E-02  0.27263871138E-03  0.41586372037E-02  0.51362625617E-02  0.51109989000E-03 0. -1.
     -623    1    1    2    0    0  0.18917712266E-01  0.10360289543E-01  0.22768136252E-02  0.17130000137E+03  0.17130000000E+03 0. -1.
      622    1    1    2    0    0 -0.15959440009E-01 -0.10632928254E-01  0.39935645166E+01  0.39948623645E+01  0.10000000000E+00 0. -1.
</event>
<event>
 5   0  0.6262544E+06  0.9118800E+02  0.7818608E-02  0.1180000E+00
       11   -1    0    0    0    0  0.00000000000E+00  0.00000000000E+00  0.39999999673E+01  0.40000000000E+01  0.51109989000E-03 0.  1.
     -623   -1    0    0    0    0  0.00000000000E+00  0.00000000000E+00  0.12525980253E-10  0.17130000000E+03  0.17130000000E+03 0.  1.
       11    1    1    2    0    0  0.32084691563E-03 -0.22731798390E-02  0.28875021882E-02  0.37241349745E-02  0.51109989000E-03 0.  1.
     -623    1    1    2    0    0 -0.38731464528E-02  0.21177726105E-02  0.20896129291E-02  0.17130000007E+03  0.17130000000E+03 0.  1.
      622    1    1    2    0    0  0.35522995374E-02  0.15540722839E-03  0.39950228524E+01  0.39962757956E+01  0.10000000000E+00 0.  1.
</event>
<event>
 5   0  0.6262544E+06  0.9118800E+02  0.7818608E-02  0.1180000E+00
       11   -1    0    0    0    0  0.00000000000E+00  0.00000000000E+00  0.39999999673E+01  0.40000000000E+01  0.51109989000E-03 0. -1.
     -623   -1    0    0    0    0  0.00000000000E+00  0.00000000000E+00  0.12525980253E-10  0.17130000000E+03  0.17130000000E+03 0.  1.
       11    1    1    2    0    0  0.58275365466E-02  0.22298817579E-01  0.10447180294E-01  0.25310121430E-01  0.51109989000E-03 0. -1.
     -623    1    1    2    0    0  0.11857544971E-01  0.12054894954E-01  0.16310548786E-01  0.17130000161E+03  0.17130000000E+03 0.  1.
      622    1    1    2    0    0 -0.17685081517E-01 -0.34353712533E-01  0.39732422383E+01  0.39746882675E+01  0.10000000000E+00 0. -1.
</event>
<event>
 5   0  0.6262544E+06  0.9118800E+02  0.7818608E-02  0.1180000E+00
       11   -1    0    0    0    0  0.00000000000E+00  0.00000000000E+00  0.39999999673E+01  0.40000000000E+01  0.51109989000E-03 0.  1.
     -623   -1    0    0    0    0  0.00000000000E+00  0.00000000000E+00  0.12525980253E-10  0.17130000000E+03  0.17130000000E+03 0. -1.
       11    1    1    2    0    0 -0.19867021849E-01  0.14777424573E-01  0.25294787222E+00  0.25415734913E+00  0.51109989000E-03 0.  1.
     -623    1    1    2    0    0 -0.59870238676E-01 -0.67041783489E-01  0.37820550268E-02  0.17130002362E+03  0.17130000000E+03 0. -1.
      622    1    1    2    0    0  0.79737260527E-01  0.52264358919E-01  0.37432700403E+01  0.37458190277E+01  0.10000000000E+00 0.  1.
</event>
<event>
 5   0  0.6262544E+06  0.9118800E+02  0.7818608E-02  0.1180000E+00
       11   -1    0    0    0    0  0.00000000000E+00  0.00000000000E+00  0.39999999673E+01  0.40000000000E+01  0.51109989000E-03 0. -1.
     -623   -1    0    0    0    0  0.00000000000E+00  0.00000000000E+00  0.12525980253E-10  0.17130000000E+03  0.17130000000E+03 0.  1.
       11    1    1    2    0    0 -0.35534110192E-01  0.58414418165E-01  0.20437152498E+00  0.21550614534E+00  0.51109989000E-03 0. -1.
     -623    1    1    2    0    0  0.65538050909E-01 -0.40100301598E-01  0.12637014267E-01  0.17130001770E+03  0.17130000000E+03 0.  1.
      622    1    1    2    0    0 -0.30003940717E-01 -0.18314116568E-01  0.37829914281E+01  0.37844761577E+01  0.10000000000E+00 0. -1.
</event>
<event>
 5   0  0.6262544E+06  0.9118800E+02  0.7818608E-02  0.1180000E+00
       11   -1    0    0    0    0  0.00000000000E+00  0.00000000000E+00  0.39999999673E+01  0.40000000000E+01  0.51109989000E-03 0. -1.
     -623   -1    0    0    0    0  0.00000000000E+00  0.00000000000E+00  0.12525980253E-10  0.17130000000E+03  0.17130000000E+03 0. -1.
       11    1    1    2    0    0 -0.31540804937E-02 -0.50140180449E-03  0.19465994887E-02  0.37749302773E-02  0.51109989000E-03 0. -1.
     -623    1    1    2    0    0  0.76361149903E-02  0.76574668895E-02  0.30889676360E-02  0.17130000037E+03  0.17130000000E+03 0. -1.
      622    1    1    2    0    0 -0.44820344966E-02 -0.71560650850E-02  0.39949644002E+01  0.39962247005E+01  0.10000000000E+00 0. -1.
</event>
<event>
 5   0  0.6262544E+06  0.9118800E+02  0.7818608E-02  0.1180000E+00
       11   -1    0    0    0    0  0.00000000000E+00  0.00000000000E+00  0.39999999673E+01  0.40000000000E+01  0.51109989000E-03 0.  1.
     -623   -1    0    0    0    0  0.00000000000E+00  0.00000000000E+00  0.12525980253E-10  0.17130000000E+03  0.17130000000E+03 0.  1.
       11    1    1    2    0    0  0.88334300748E-02  0.10412663769E-01  0.17604656070E+00  0.17657606239E+00  0.51109989000E-03 0.  1.
     -623    1    1    2    0    0  0.30316141072E-02 -0.19054426819E-02  0.18653528956E-02  0.17130000005E+03  0.17130000000E+03 0.  1.
      622    1    1    2    0    0 -0.11865044182E-01 -0.85072210869E-02  0.38220880539E+01  0.38234238902E+01  0.10000000000E+00 0.  1.
</event>
<event>
 5   0  0.6262544E+06  0.9118800E+02  0.7818608E-02  0.1180000E+00
       11   -1    0    0    0    0  0.00000000000E+00  0.00000000000E+00  0.39999999673E+01  0.40000000000E+01  0.51109989000E-03 0.  1.
     -623   -1    0    0    0    0  0.00000000000E+00  0.00000000000E+00  0.12525980253E-10  0.17130000000E+03  0.17130000000E+03 0. -1.
       11    1    1    2    0    0 -0.38947444490E-02  0.28140985013E-02  0.13030878997E-01  0.13897957233E-01  0.51109989000E-03 0.  1.
     -623    1    1    2    0    0  0.51887915228E-02 -0.24547711301E-02  0.21219369422E-02  0.17130000011E+03  0.17130000000E+03 0. -1.
      622    1    1    2    0    0 -0.12940470741E-02 -0.35932737106E-03  0.39848471516E+01  0.39861019336E+01  0.10000000000E+00 0.  1.
</event>
<event>
 5   0  0.6262544E+06  0.9118800E+02  0.7818608E-02  0.1180000E+00
       11   -1    0    0    0    0  0.00000000000E+00  0.00000000000E+00  0.39999999673E+01  0.40000000000E+01  0.51109989000E-03 0. -1.
     -623   -1    0    0    0    0  0.00000000000E+00  0.00000000000E+00  0.12525980253E-10  0.17130000000E+03  0.17130000000E+03 0. -1.
       11    1    1    2    0    0 -0.22699494673E-01  0.30630302244E-02  0.36983990898E+00  0.37054887492E+00  0.51109989000E-03 0. -1.
     -623    1    1    2    0    0 -0.17031823777E-01 -0.17793420094E-01  0.23360635723E-02  0.17130000179E+03  0.17130000000E+03 0. -1.
      622    1    1    2    0    0  0.39731318450E-01  0.14730389870E-01  0.36278239948E+01  0.36294493383E+01  0.10000000000E+00 0. -1.
</event>
<event>
 5   0  0.6262544E+06  0.9118800E+02  0.7818608E-02  0.1180000E+00
       11   -1    0    0    0    0  0.00000000000E+00  0.00000000000E+00  0.39999999673E+01  0.40000000000E+01  0.51109989000E-03 0.  1.
     -623   -1    0    0    0    0  0.00000000000E+00  0.00000000000E+00  0.12525980253E-10  0.17130000000E+03  0.17130000000E+03 0.  1.
       11    1    1    2    0    0 -0.70829979075E-02 -0.26795728345E-02  0.11542867422E-01  0.13814773973E-01  0.51109989000E-03 0.  1.
     -623    1    1    2    0    0  0.12114960385E-01  0.34634513706E-03  0.35307288115E-02  0.17130000047E+03  0.17130000000E+03 0.  1.
      622    1    1    2    0    0 -0.50319624771E-02  0.23332276974E-02  0.39849263711E+01  0.39861847609E+01  0.10000000000E+00 0.  1.
</event>
<event>
 5   0  0.6262544E+06  0.9118800E+02  0.7818608E-02  0.1180000E+00
       11   -1    0    0    0    0  0.00000000000E+00  0.00000000000E+00  0.39999999673E+01  0.40000000000E+01  0.51109989000E-03 0.  1.
     -623   -1    0    0    0    0  0.00000000000E+00  0.00000000000E+00  0.12525980253E-10  0.17130000000E+03  0.17130000000E+03 0. -1.
       11    1    1    2    0    0  0.69385867949E-01  0.39017904377E-01  0.98389056739E+00  0.98710572147E+00  0.51109989000E-03 0.  1.
     -623    1    1    2    0    0 -0.58913630635E-01 -0.36059616188E-01  0.49087798660E-02  0.17130001400E+03  0.17130000000E+03 0. -1.
      622    1    1    2    0    0 -0.10472237313E-01 -0.29582881893E-02  0.30112006202E+01  0.30128802821E+01  0.10000000000E+00 0.  0.
</event>
<event>
 5   0  0.6262544E+06  0.9118800E+02  0.7818608E-02  0.1180000E+00
       11   -1    0    0    0    0  0.00000000000E+00  0.00000000000E+00  0.39999999673E+01  0.40000000000E+01  0.51109989000E-03 0.  1.
     -623   -1    0    0    0    0  0.00000000000E+00  0.00000000000E+00  0.12525980253E-10  0.17130000000E+03  0.17130000000E+03 0.  1.
       11    1    1    2    0    0  0.64711852103E-02 -0.84742887364E-02  0.31850896122E+00  0.31868779300E+00  0.51109989000E-03 0.  1.
     -623    1    1    2    0    0  0.21182160982E-02 -0.10371525291E-02  0.15596007640E-02  0.17130000002E+03  0.17130000000E+03 0.  1.
      622    1    1    2    0    0 -0.85894013085E-02  0.95114412655E-02  0.36799314054E+01  0.36813121837E+01  0.10000000000E+00 0.  1.
</event>
<event>
 5   0  0.6262544E+06  0.9118800E+02  0.7818608E-02  0.1180000E+00
       11   -1    0    0    0    0  0.00000000000E+00  0.00000000000E+00  0.39999999673E+01  0.40000000000E+01  0.51109989000E-03 0. -1.
     -623   -1    0    0    0    0  0.00000000000E+00  0.00000000000E+00  0.12525980253E-10  0.17130000000E+03  0.17130000000E+03 0. -1.
       11    1    1    2    0    0  0.46233764016E-01 -0.77185949517E-02  0.23406964460E+00  0.23871740069E+00  0.51109989000E-03 0. -1.
     -623    1    1    2    0    0 -0.83293488937E-02  0.30741731056E-02  0.61715659508E-02  0.17130000034E+03  0.17130000000E+03 0. -1.
      622    1    1    2    0    0 -0.37904415122E-01  0.46444218460E-02  0.37597587569E+01  0.37612822581E+01  0.10000000000E+00 0. -1.
</event>
<event>
 5   0  0.6262544E+06  0.9118800E+02  0.7818608E-02  0.1180000E+00
       11   -1    0    0    0    0  0.00000000000E+00  0.00000000000E+00  0.39999999673E+01  0.40000000000E+01  0.51109989000E-03 0.  1.
     -623   -1    0    0    0    0  0.00000000000E+00  0.00000000000E+00  0.12525980253E-10  0.17130000000E+03  0.17130000000E+03 0.  1.
       11    1    1    2    0    0  0.68812959236E-01  0.57384064491E-01  0.24238134174E+01  0.24254690058E+01  0.51109989000E-03 0.  1.
     -623    1    1    2    0    0 -0.53971280888E-01 -0.26431445003E-01  0.52199476365E-02  0.17130001062E+03  0.17130000000E+03 0.  1.
      622    1    1    2    0    0 -0.14841678347E-01 -0.30952619488E-01  0.15709666023E+01  0.15745203732E+01  0.10000000000E+00 0.  0.
</event>
<event>
 5   0  0.6262544E+06  0.9118800E+02  0.7818608E-02  0.1180000E+00
       11   -1    0    0    0    0  0.00000000000E+00  0.00000000000E+00  0.39999999673E+01  0.40000000000E+01  0.51109989000E-03 0.  1.
     -623   -1    0    0    0    0  0.00000000000E+00  0.00000000000E+00  0.12525980253E-10  0.17130000000E+03  0.17130000000E+03 0. -1.
       11    1    1    2    0    0  0.95527418597E-02  0.21777984492E-02  0.41117386646E-01  0.42271720935E-01  0.51109989000E-03 0.  1.
     -623    1    1    2    0    0  0.14760341132E-02 -0.66864738363E-02  0.24359491434E-02  0.17130000015E+03  0.17130000000E+03 0. -1.
      622    1    1    2    0    0 -0.11028775973E-01  0.45086753870E-02  0.39564466316E+01  0.39577281249E+01  0.10000000000E+00 0.  1.
</event>
<event>
 5   0  0.6262544E+06  0.9118800E+02  0.7818608E-02  0.1180000E+00
       11   -1    0    0    0    0  0.00000000000E+00  0.00000000000E+00  0.39999999673E+01  0.40000000000E+01  0.51109989000E-03 0.  1.
     -623   -1    0    0    0    0  0.00000000000E+00  0.00000000000E+00  0.12525980253E-10  0.17130000000E+03  0.17130000000E+03 0.  1.
       11    1    1    2    0    0 -0.13656459385E-02 -0.85187783966E-02  0.84517278116E-01  0.84958025499E-01  0.51109989000E-03 0.  1.
     -623    1    1    2    0    0  0.94120455696E-02  0.87218397307E-02  0.17268147727E-02  0.17130000049E+03  0.17130000000E+03 0.  1.
      622    1    1    2    0    0 -0.80463996311E-02 -0.20306133405E-03  0.39137558745E+01  0.39150414852E+01  0.10000000000E+00 0.  1.
</event>
<event>
 5   0  0.6262544E+06  0.9118800E+02  0.7818608E-02  0.1180000E+00
       11   -1    0    0    0    0  0.00000000000E+00  0.00000000000E+00  0.39999999673E+01  0.40000000000E+01  0.51109989000E-03 0. -1.
     -623   -1    0    0    0    0  0.00000000000E+00  0.00000000000E+00  0.12525980253E-10  0.17130000000E+03  0.17130000000E+03 0.  1.
       11    1    1    2    0    0  0.32907724886E-01  0.10756689529E-01  0.22248106726E+01  0.22250800918E+01  0.51109989000E-03 0. -1.
     -623    1    1    2    0    0 -0.10745459787E-01  0.20598001166E-01  0.35062875485E-02  0.17130000161E+03  0.17130000000E+03 0.  1.
      622    1    1    2    0    0 -0.22162265099E-01 -0.31354690695E-01  0.17716830073E+01  0.17749182970E+01  0.10000000000E+00 0. -1.
</event>
<event>
 5   0  0.6262544E+06  0.9118800E+02  0.7818608E-02  0.1180000E+00
       11   -1    0    0    0    0  0.00000000000E+00  0.00000000000E+00  0.39999999673E+01  0.40000000000E+01  0.51109989000E-03 0. -1.
     -623   -1    0    0    0    0  0.00000000000E+00  0.00000000000E+00  0.12525980253E-10  0.17130000000E+03  0.17130000000E+03 0. -1.
       11    1    1    2    0    0  0.35022901085E-01  0.15366319376E-01  0.10645091535E+01  0.10651960977E+01  0.51109989000E-03 0. -1.
     -623    1    1    2    0    0 -0.10546786726E-01  0.72785515021E-02  0.25811413150E-02  0.17130000050E+03  0.17130000000E+03 0. -1.
      622    1    1    2    0    0 -0.24476114359E-01 -0.22644870878E-01  0.29329096726E+01  0.29348034036E+01  0.10000000000E+00 0. -1.
</event>
<event>
 5   0  0.6262544E+06  0.9118800E+02  0.7818608E-02  0.1180000E+00
       11   -1    0    0    0    0  0.00000000000E+00  0.00000000000E+00  0.39999999673E+01  0.40000000000E+01  0.51109989000E-03 0.  1.
     -623   -1    0    0    0    0  0.00000000000E+00  0.00000000000E+00  0.12525980253E-10  0.17130000000E+03  0.17130000000E+03 0. -1.
       11    1    1    2    0    0 -0.43425665678E-02  0.18308787608E-01  0.11008462329E+00  0.11168238490E+00  0.51109989000E-03 0.  1.
     -623    1    1    2    0    0 -0.34317968727E-02 -0.66886417633E-02  0.29091783335E-02  0.17130000019E+03  0.17130000000E+03 0. -1.
      622    1    1    2    0    0  0.77743634404E-02 -0.11620145845E-01  0.38870061657E+01  0.38883174254E+01  0.10000000000E+00 0.  1.
</event>
<event>
 5   0  0.6262544E+06  0.9118800E+02  0.7818608E-02  0.1180000E+00
       11   -1    0    0    0    0  0.00000000000E+00  0.00000000000E+00  0.39999999673E+01  0.40000000000E+01  0.51109989000E-03 0. -1.
     -623   -1    0    0    0    0  0.00000000000E+00  0.00000000000E+00  0.12525980253E-10  0.17130000000E+03  0.17130000000E+03 0.  1.
       11    1    1    2    0    0  0.12112265498E-02 -0.47825572787E-03  0.45963469138E-02  0.48045214481E-02  0.51109989000E-03 0. -1.
     -623    1    1    2    0    0  0.59930080674E-03  0.22883607981E-02  0.14606843136E-02  0.17130000002E+03  0.17130000000E+03 0.  1.
      622    1    1    2    0    0 -0.18105273566E-02 -0.18101050704E-02  0.39939429364E+01  0.39951954563E+01  0.10000000000E+00 0. -1.
</event>
<event>
 5   0  0.6262544E+06  0.9118800E+02  0.7818608E-02  0.1180000E+00
       11   -1    0    0    0    0  0.00000000000E+00  0.00000000000E+00  0.39999999673E+01  0.40000000000E+01  0.51109989000E-03 0. -1.
     -623   -1    0    0    0    0  0.00000000000E+00  0.00000000000E+00  0.12525980253E-10  0.17130000000E+03  0.17130000000E+03 0. -1.
       11    1    1    2    0    0 -0.41728875153E-03 -0.10755877720E-01  0.21833423719E-01  0.24347949603E-01  0.51109989000E-03 0. -1.
     -623    1    1    2    0    0  0.16678207162E-01  0.52783597374E-02  0.38103233466E-02  0.17130000094E+03  0.17130000000E+03 0. -1.
      622    1    1    2    0    0 -0.16260918411E-01  0.54775179829E-02  0.39743562204E+01  0.39756511149E+01  0.10000000000E+00 0. -1.
</event>
<event>
 5   0  0.6262544E+06  0.9118800E+02  0.7818608E-02  0.1180000E+00
       11   -1    0    0    0    0  0.00000000000E+00  0.00000000000E+00  0.39999999673E+01  0.40000000000E+01  0.51109989000E-03 0. -1.
     -623   -1    0    0    0    0  0.00000000000E+00  0.00000000000E+00  0.12525980253E-10  0.17130000000E+03  0.17130000000E+03 0. -1.
       11    1    1    2    0    0 -0.37881685913E-02  0.68714903687E-02  0.67822718784E-01  0.68277009362E-01  0.51109989000E-03 0. -1.
     -623    1    1    2    0    0  0.87254575133E-02 -0.26776294105E-02  0.17317612321E-02  0.17130000025E+03  0.17130000000E+03 0. -1.
      622    1    1    2    0    0 -0.49372889221E-02 -0.41938609581E-02  0.39304454874E+01  0.39317227388E+01  0.10000000000E+00 0. -1.
</event>
<event>
 5   0  0.6262544E+06  0.9118800E+02  0.7818608E-02  0.1180000E+00
       11   -1    0    0    0    0  0.00000000000E+00  0.00000000000E+00  0.39999999673E+01  0.40000000000E+01  0.51109989000E-03 0. -1.
     -623   -1    0    0    0    0  0.00000000000E+00  0.00000000000E+00  0.12525980253E-10  0.17130000000E+03  0.17130000000E+03 0.  1.
       11    1    1    2    0    0 -0.19727540752E-01 -0.16491406099E-01  0.22618716863E+00  0.22764454487E+00  0.51109989000E-03 0. -1.
     -623    1    1    2    0    0 -0.13948550550E-01  0.26008158136E-02  0.29595762241E-02  0.17130000061E+03  0.17130000000E+03 0.  1.
      622    1    1    2    0    0  0.33676091302E-01  0.13890590285E-01  0.37708532225E+01  0.37723548419E+01  0.10000000000E+00 0.  0.
</event>
<event>
 5   0  0.6262544E+06  0.9118800E+02  0.7818608E-02  0.1180000E+00
       11   -1    0    0    0    0  0.00000000000E+00  0.00000000000E+00  0.39999999673E+01  0.40000000000E+01  0.51109989000E-03 0. -1.
     -623   -1    0    0    0    0  0.00000000000E+00  0.00000000000E+00  0.12525980253E-10  0.17130000000E+03  0.17130000000E+03 0.  1.
       11    1    1    2    0    0 -0.14986972790E-01 -0.11165055143E-01  0.18734614072E-01  0.26467240032E-01  0.51109989000E-03 0. -1.
     -623    1    1    2    0    0  0.38053278021E-01  0.83769474311E-02  0.90637416245E-02  0.17130000467E+03  0.17130000000E+03 0.  1.
      622    1    1    2    0    0 -0.23066305232E-01  0.27881077119E-02  0.39722016117E+01  0.39735280887E+01  0.10000000000E+00 0. -1.
</event>
<event>
 5   0  0.6262544E+06  0.9118800E+02  0.7818608E-02  0.1180000E+00
       11   -1    0    0    0    0  0.00000000000E+00  0.00000000000E+00  0.39999999673E+01  0.40000000000E+01  0.51109989000E-03 0.  1.
     -623   -1    0    0    0    0  0.00000000000E+00  0.00000000000E+00  0.12525980253E-10  0.17130000000E+03  0.17130000000E+03 0. -1.
       11    1    1    2    0    0 -0.15525892337E-01 -0.14908363203E-01  0.19554854356E-01  0.29085497730E-01  0.51109989000E-03 0.  1.
     -623    1    1    2    0    0 -0.20530144048E-02  0.15146153076E-01  0.10829920644E-01  0.17130000102E+03  0.17130000000E+03 0. -1.
      622    1    1    2    0    0  0.17578906742E-01 -0.23778987333E-03  0.39696151924E+01  0.39709134780E+01  0.10000000000E+00 0.  1.
</event>
<event>
 5   0  0.6262544E+06  0.9118800E+02  0.7818608E-02  0.1180000E+00
       11   -1    0    0    0    0  0.00000000000E+00  0.00000000000E+00  0.39999999673E+01  0.40000000000E+01  0.51109989000E-03 0. -1.
     -623   -1    0    0    0    0  0.00000000000E+00  0.00000000000E+00  0.12525980253E-10  0.17130000000E+03  0.17130000000E+03 0. -1.
       11    1    1    2    0    0  0.29664347118E-02 -0.19002722269E-01  0.28982927010E+00  0.29046715859E+00  0.51109989000E-03 0. -1.
     -623    1    1    2    0    0 -0.21968986327E-01 -0.34542299413E-02  0.21041277377E-02  0.17130000146E+03  0.17130000000E+03 0. -1.
      622    1    1    2    0    0  0.19002551615E-01  0.22456952210E-01  0.37080665696E+01  0.37095313850E+01  0.10000000000E+00 0. -1.
</event>
<event>
 5   0  0.6262544E+06  0.9118800E+02  0.7818608E-02  0.1180000E+00
       11   -1    0    0    0    0  0.00000000000E+00  0.00000000000E+00  0.39999999673E+01  0.40000000000E+01  0.51109989000E-03 0. -1.
     -623   -1    0    0    0    0  0.00000000000E+00  0.00000000000E+00  0.12525980253E-10  0.17130000000E+03  0.17130000000E+03 0. -1.
       11    1    1    2    0    0 -0.73300858694E-02  0.11917704026E-01  0.56008979737E+00  0.56026476256E+00  0.51109989000E-03 0. -1.
     -623    1    1    2    0    0 -0.20285993411E-02  0.57018600727E-02  0.16868385225E-02  0.17130000012E+03  0.17130000000E+03 0. -1.
      622    1    1    2    0    0  0.93586852105E-02 -0.17619564098E-01  0.34382233315E+01  0.34397351222E+01  0.10000000000E+00 0. -1.
</event>
<event>
 5   0  0.6262544E+06  0.9118800E+02  0.7818608E-02  0.1180000E+00
       11   -1    0    0    0    0  0.00000000000E+00  0.00000000000E+00  0.39999999673E+01  0.40000000000E+01  0.51109989000E-03 0. -1.
     -623   -1    0    0    0    0  0.00000000000E+00  0.00000000000E+00  0.12525980253E-10  0.17130000000E+03  0.17130000000E+03 0.  1.
       11    1    1    2    0    0  0.10586525107E-02  0.66353559193E-02  0.15179851198E-01  0.16608365291E-01  0.51109989000E-03 0. -1.
     -623    1    1    2    0    0 -0.42091947998E-02 -0.35090073746E-02  0.26864733337E-02  0.17130000011E+03  0.17130000000E+03 0.  1.
      622    1    1    2    0    0  0.31505422891E-02 -0.31263485447E-02  0.39821336428E+01  0.39833915260E+01  0.10000000000E+00 0. -1.
</event>
<event>
 5   0  0.6262544E+06  0.9118800E+02  0.7818608E-02  0.1180000E+00
       11   -1    0    0    0    0  0.00000000000E+00  0.00000000000E+00  0.39999999673E+01  0.40000000000E+01  0.51109989000E-03 0.  1.
     -623   -1    0    0    0    0  0.00000000000E+00  0.00000000000E+00  0.12525980253E-10  0.17130000000E+03  0.17130000000E+03 0. -1.
       11    1    1    2    0    0  0.13984290796E-01  0.78548081605E-01  0.14994926323E+00  0.16985406759E+00  0.51109989000E-03 0.  1.
     -623    1    1    2    0    0  0.67398317963E-02 -0.33005539339E-01  0.21542051664E-01  0.17130000467E+03  0.17130000000E+03 0. -1.
      622    1    1    2    0    0 -0.20724122592E-01 -0.45542542267E-01  0.38285086525E+01  0.38301412656E+01  0.10000000000E+00 0.  1.
</event>
<event>
 5   0  0.6262544E+06  0.9118800E+02  0.7818608E-02  0.1180000E+00
       11   -1    0    0    0    0  0.00000000000E+00  0.00000000000E+00  0.39999999673E+01  0.40000000000E+01  0.51109989000E-03 0.  1.
     -623   -1    0    0    0    0  0.00000000000E+00  0.00000000000E+00  0.12525980253E-10  0.17130000000E+03  0.17130000000E+03 0.  1.
       11    1    1    2    0    0 -0.60799257822E-02  0.10798369713E-01  0.27138492552E-01  0.29838386134E-01  0.51109989000E-03 0.  1.
     -623    1    1    2    0    0 -0.29938825231E-02 -0.21121503051E-01  0.39846281554E-02  0.17130000137E+03  0.17130000000E+03 0.  1.
      622    1    1    2    0    0  0.90738083054E-02  0.10323133337E-01  0.39688768467E+01  0.39701602392E+01  0.10000000000E+00 0.  1.
</event>
<event>
 5   0  0.6262544E+06  0.9118800E+02  0.7818608E-02  0.1180000E+00
       11   -1    0    0    0    0  0.00000000000E+00  0.00000000000E+00  0.39999999673E+01  0.40000000000E+01  0.51109989000E-03 0.  1.
     -623   -1    0    0    0    0  0.00000000000E+00  0.00000000000E+00  0.12525980253E-10  0.17130000000E+03  0.17130000000E+03 0.  1.
       11    1    1    2    0    0 -0.84333301084E-02 -0.28630346883E-01  0.11929572563E+00  0.12297377442E+00  0.51109989000E-03 0.  1.
     -623    1    1    2    0    0  0.97450584908E-02  0.27337523838E-02  0.50549925438E-02  0.17130000037E+03  0.17130000000E+03 0.  1.
      622    1    1    2    0    0 -0.13117283823E-02  0.25896594499E-01  0.38756492492E+01  0.38770258520E+01  0.10000000000E+00 0.  1.
</event>
<event>
 5   0  0.6262544E+06  0.9118800E+02  0.7818608E-02  0.1180000E+00
       11   -1    0    0    0    0  0.00000000000E+00  0.00000000000E+00  0.39999999673E+01  0.40000000000E+01  0.51109989000E-03 0.  1.
     -623   -1    0    0    0    0  0.00000000000E+00  0.00000000000E+00  0.12525980253E-10  0.17130000000E+03  0.17130000000E+03 0. -1.
       11    1    1    2    0    0 -0.93791645611E-02  0.85038811033E-03  0.16154940499E+00  0.16182448320E+00  0.51109989000E-03 0.  1.
     -623    1    1    2    0    0  0.10859688134E-01 -0.99669097661E-02  0.15897269983E-02  0.17130000064E+03  0.17130000000E+03 0. -1.
      622    1    1    2    0    0 -0.14805235731E-02  0.91165216558E-02  0.38368608354E+01  0.38381748752E+01  0.10000000000E+00 0.  1.
</event>
<event>
 5   0  0.6262544E+06  0.9118800E+02  0.7818608E-02  0.1180000E+00
       11   -1    0    0    0    0  0.00000000000E+00  0.00000000000E+00  0.39999999673E+01  0.40000000000E+01  0.51109989000E-03 0. -1.
     -623   -1    0    0    0    0  0.00000000000E+00  0.00000000000E+00  0.12525980253E-10  0.17130000000E+03  0.17130000000E+03 0.  1.
       11    1    1    2    0    0  0.14616008299E-02  0.23004934955E-03  0.10076372973E+00  0.10077588824E+00  0.51109989000E-03 0. -1.
     -623    1    1    2    0    0  0.24231294174E-02  0.34689019398E-02  0.12983912325E-02  0.17130000006E+03  0.17130000000E+03 0.  1.
      622    1    1    2    0    0 -0.38847302474E-02 -0.36989512895E-02  0.38979378466E+01  0.38992240548E+01  0.10000000000E+00 0. -1.
</event>
<event>
 5   0  0.6262544E+06  0.9118800E+02  0.7818608E-02  0.1180000E+00
       11   -1    0    0    0    0  0.00000000000E+00  0.00000000000E+00  0.39999999673E+01  0.40000000000E+01  0.51109989000E-03 0.  1.
     -623   -1    0    0    0    0  0.00000000000E+00  0.00000000000E+00  0.12525980253E-10  0.17130000000E+03  0.17130000000E+03 0. -1.
       11    1    1    2    0    0  0.10667857603E-01  0.10146779226E-01  0.66681558350E+00  0.66697829345E+00  0.51109989000E-03 0.  1.
     -623    1    1    2    0    0  0.13844800175E-01 -0.54543181485E-02  0.17572965177E-02  0.17130000066E+03  0.17130000000E+03 0. -1.
      622    1    1    2    0    0 -0.24512657778E-01 -0.46924610778E-02  0.33314270872E+01  0.33330210511E+01  0.10000000000E+00 0.  1.
</event>
<event>
 5   0  0.6262544E+06  0.9118800E+02  0.7818608E-02  0.1180000E+00
       11   -1    0    0    0    0  0.00000000000E+00  0.00000000000E+00  0.39999999673E+01  0.40000000000E+01  0.51109989000E-03 0.  1.
     -623   -1    0    0    0    0  0.00000000000E+00  0.00000000000E+00  0.12525980253E-10  0.17130000000E+03  0.17130000000E+03 0. -1.
       11    1    1    2    0    0 -0.34437371063E-01  0.65331241013E-02  0.32757442039E+01  0.32759317705E+01  0.51109989000E-03 0.  1.
     -623    1    1    2    0    0  0.21087688313E-01 -0.40303187766E-01  0.80524752033E-02  0.17130000623E+03  0.17130000000E+03 0. -1.
      622    1    1    2    0    0  0.13349682750E-01  0.33770063664E-01  0.71620328824E+00  0.72406200102E+00  0.10000000000E+00 0.  1.
</event>
<event>
 5   0  0.6262544E+06  0.9118800E+02  0.7818608E-02  0.1180000E+00
       11   -1    0    0    0    0  0.00000000000E+00  0.00000000000E+00  0.39999999673E+01  0.40000000000E+01  0.51109989000E-03 0.  1.
     -623   -1    0    0    0    0  0.00000000000E+00  0.00000000000E+00  0.12525980253E-10  0.17130000000E+03  0.17130000000E+03 0. -1.
       11    1    1    2    0    0 -0.35575832413E-02  0.16608928517E-03  0.68925291659E-02  0.77750990714E-02  0.51109989000E-03 0.  1.
     -623    1    1    2    0    0  0.73585886116E-03  0.92661082992E-04  0.21361890685E-02  0.17130000001E+03  0.17130000000E+03 0. -1.
      622    1    1    2    0    0  0.28217243801E-02 -0.25875036817E-03  0.39909712493E+01  0.39922248862E+01  0.10000000000E+00 0.  1.
</event>
<event>
 5   0  0.6262544E+06  0.9118800E+02  0.7818608E-02  0.1180000E+00
       11   -1    0    0    0    0  0.00000000000E+00  0.00000000000E+00  0.39999999673E+01  0.40000000000E+01  0.51109989000E-03 0.  1.
     -623   -1    0    0    0    0  0.00000000000E+00  0.00000000000E+00  0.12525980253E-10  0.17130000000E+03  0.17130000000E+03 0.  1.
       11    1    1    2    0    0  0.29253074898E-01  0.22147288254E-01  0.21999406265E+01  0.22002466376E+01  0.51109989000E-03 0.  1.
     -623    1    1    2    0    0 -0.10012570638E-01  0.13858318189E-02  0.33437345609E-02  0.17130000033E+03  0.17130000000E+03 0.  1.
      622    1    1    2    0    0 -0.19240504260E-01 -0.23533120073E-01  0.17967156063E+01  0.17997530316E+01  0.10000000000E+00 0. -1.
</event>
<event>
 5   0  0.6262544E+06  0.9118800E+02  0.7818608E-02  0.1180000E+00
       11   -1    0    0    0    0  0.00000000000E+00  0.00000000000E+00  0.39999999673E+01  0.40000000000E+01  0.51109989000E-03 0.  1.
     -623   -1    0    0    0    0  0.00000000000E+00  0.00000000000E+00  0.12525980253E-10  0.17130000000E+03  0.17130000000E+03 0.  1.
       11    1    1    2    0    0 -0.22425266979E-01 -0.16329336625E-01  0.46281904604E+00  0.46364994385E+00  0.51109989000E-03 0.  1.
     -623    1    1    2    0    0  0.71944317467E-01  0.11760586607E-01  0.26103872941E-02  0.17130001553E+03  0.17130000000E+03 0.  1.
      622    1    1    2    0    0 -0.49519050489E-01  0.45687500171E-02  0.35345705341E+01  0.35363345247E+01  0.10000000000E+00 0.  1.
</event>
<event>
 5   0  0.6262544E+06  0.9118800E+02  0.7818608E-02  0.1180000E+00
       11   -1    0    0    0    0  0.00000000000E+00  0.00000000000E+00  0.39999999673E+01  0.40000000000E+01  0.51109989000E-03 0.  1.
     -623   -1    0    0    0    0  0.00000000000E+00  0.00000000000E+00  0.12525980253E-10  0.17130000000E+03  0.17130000000E+03 0.  1.
       11    1    1    2    0    0 -0.22922172387E-01  0.38173174832E-01  0.28479240717E+00  0.28825265596E+00  0.51109989000E-03 0.  1.
     -623    1    1    2    0    0  0.22958229712E-01  0.63413325138E-02  0.50763020273E-02  0.17130000173E+03  0.17130000000E+03 0.  1.
      622    1    1    2    0    0 -0.36057324616E-04 -0.44514507346E-01  0.37101312582E+01  0.37117456130E+01  0.10000000000E+00 0.  1.
</event>
<event>
 5   0  0.6262544E+06  0.9118800E+02  0.7818608E-02  0.1180000E+00
       11   -1    0    0    0    0  0.00000000000E+00  0.00000000000E+00  0.39999999673E+01  0.40000000000E+01  0.51109989000E-03 0.  1.
     -623   -1    0    0    0    0  0.00000000000E+00  0.00000000000E+00  0.12525980253E-10  0.17130000000E+03  0.17130000000E+03 0. -1.
       11    1    1    2    0    0 -0.92773550440E-02 -0.21722969006E-01  0.38064182350E-01  0.44800668523E-01  0.51109989000E-03 0.  1.
     -623    1    1    2    0    0  0.10096725433E-01 -0.13175285184E-01  0.81559107018E-02  0.17130000100E+03  0.17130000000E+03 0. -1.
      622    1    1    2    0    0 -0.81937038890E-03  0.34898254189E-01  0.39537798743E+01  0.39551983331E+01  0.10000000000E+00 0.  1.
</event>
<event>
 5   0  0.6262544E+06  0.9118800E+02  0.7818608E-02  0.1180000E+00
       11   -1    0    0    0    0  0.00000000000E+00  0.00000000000E+00  0.39999999673E+01  0.40000000000E+01  0.51109989000E-03 0. -1.
     -623   -1    0    0    0    0  0.00000000000E+00  0.00000000000E+00  0.12525980253E-10  0.17130000000E+03  0.17130000000E+03 0.  1.
       11    1    1    2    0    0  0.23921484249E-01 -0.22954112168E-01  0.20713122786E+00  0.20976828991E+00  0.51109989000E-03 0. -1.
     -623    1    1    2    0    0 -0.82422014073E-03 -0.84837378474E-02  0.41575332787E-02  0.17130000026E+03  0.17130000000E+03 0.  1.
      622    1    1    2    0    0 -0.23097264109E-01  0.31437850015E-01  0.37887112062E+01  0.37902314475E+01  0.10000000000E+00 0. -1.
</event>
<event>
 5   0  0.6262544E+06  0.9118800E+02  0.7818608E-02  0.1180000E+00
       11   -1    0    0    0    0  0.00000000000E+00  0.00000000000E+00  0.39999999673E+01  0.40000000000E+01  0.51109989000E-03 0.  1.
     -623   -1    0    0    0    0  0.00000000000E+00  0.00000000000E+00  0.12525980253E-10  0.17130000000E+03  0.17130000000E+03 0.  1.
       11    1    1    2    0    0  0.10050792324E-02 -0.38381581045E-02  0.88797582292E-02  0.97392489151E-02  0.51109989000E-03 0.  1.
     -623    1    1    2    0    0  0.28376439106E-02  0.41055252188E-02  0.21146514409E-02  0.17130000009E+03  0.17130000000E+03 0.  1.
      622    1    1    2    0    0 -0.38427231430E-02 -0.26736711433E-03  0.39890055577E+01  0.39902606653E+01  0.10000000000E+00 0.  1.
</event>
<event>
 5   0  0.6262544E+06  0.9118800E+02  0.7818608E-02  0.1180000E+00
       11   -1    0    0    0    0  0.00000000000E+00  0.00000000000E+00  0.39999999673E+01  0.40000000000E+01  0.51109989000E-03 0.  1.
     -623   -1    0    0    0    0  0.00000000000E+00  0.00000000000E+00  0.12525980253E-10  0.17130000000E+03  0.17130000000E+03 0. -1.
       11    1    1    2    0    0 -0.31275427872E-02 -0.19132428951E-03  0.22995769922E-01  0.23213892097E-01  0.51109989000E-03 0.  1.
     -623    1    1    2    0    0  0.31284009810E-02  0.25692994256E-02  0.14763504481E-02  0.17130000005E+03  0.17130000000E+03 0. -1.
      622    1    1    2    0    0 -0.85819401499E-06 -0.23779751363E-02  0.39755278473E+01  0.39767860540E+01  0.10000000000E+00 0.  1.
</event>
<event>
 5   0  0.6262544E+06  0.9118800E+02  0.7818608E-02  0.1180000E+00
       11   -1    0    0    0    0  0.00000000000E+00  0.00000000000E+00  0.39999999673E+01  0.40000000000E+01  0.51109989000E-03 0.  1.
     -623   -1    0    0    0    0  0.00000000000E+00  0.00000000000E+00  0.12525980253E-10  0.17130000000E+03  0.17130000000E+03 0. -1.
       11    1    1    2    0    0  0.87887592269E-02  0.16937303086E-01  0.18967082748E+00  0.19062895516E+00  0.51109989000E-03 0.  1.
     -623    1    1    2    0    0  0.16294007171E-01 -0.12621975622E-01  0.23571836289E-02  0.17130000126E+03  0.17130000000E+03 0. -1.
      622    1    1    2    0    0 -0.25082766397E-01 -0.43153274634E-02  0.38079719562E+01  0.38093697886E+01  0.10000000000E+00 0.  1.
</event>
<event>
 5   0  0.6262544E+06  0.9118800E+02  0.7818608E-02  0.1180000E+00
       11   -1    0    0    0    0  0.00000000000E+00  0.00000000000E+00  0.39999999673E+01  0.40000000000E+01  0.51109989000E-03 0.  1.
     -623   -1    0    0    0    0  0.00000000000E+00  0.00000000000E+00  0.12525980253E-10  0.17130000000E+03  0.17130000000E+03 0. -1.
       11    1    1    2    0    0  0.50353020333E-01  0.16656158215E-01  0.19236000531E+00  0.19953818463E+00  0.51109989000E-03 0.  1.
     -623    1    1    2    0    0 -0.75629561812E-02 -0.34647198144E-02  0.87583148737E-02  0.17130000043E+03  0.17130000000E+03 0. -1.
      622    1    1    2    0    0 -0.42790064152E-01 -0.13191438401E-01  0.37988816472E+01  0.38004613895E+01  0.10000000000E+00 0.  1.
</event>
<event>
 5   0  0.6262544E+06  0.9118800E+02  0.7818608E-02  0.1180000E+00
       11   -1    0    0    0    0  0.00000000000E+00  0.00000000000E+00  0.39999999673E+01  0.40000000000E+01  0.51109989000E-03 0. -1.
     -623   -1    0    0    0    0  0.00000000000E+00  0.00000000000E+00  0.12525980253E-10  0.17130000000E+03  0.17130000000E+03 0. -1.
       11    1    1    2    0    0 -0.19101024959E-01  0.11462693330E-01  0.10948562477E+00  0.11173005749E+00  0.51109989000E-03 0. -1.
     -623    1    1    2    0    0  0.19691110603E-01 -0.48874693624E-02  0.35373762766E-02  0.17130000124E+03  0.17130000000E+03 0. -1.
      622    1    1    2    0    0 -0.59008564412E-03 -0.65752239677E-02  0.38869769664E+01  0.38882687046E+01  0.10000000000E+00 0. -1.
</event>
<event>
 5   0  0.6262544E+06  0.9118800E+02  0.7818608E-02  0.1180000E+00
       11   -1    0    0    0    0  0.00000000000E+00  0.00000000000E+00  0.39999999673E+01  0.40000000000E+01  0.51109989000E-03 0.  1.
     -623   -1    0    0    0    0  0.00000000000E+00  0.00000000000E+00  0.12525980253E-10  0.17130000000E+03  0.17130000000E+03 0. -1.
       11    1    1    2    0    0 -0.54904943859E-02 -0.80785421615E-02  0.19482776855E-01  0.21800187823E-01  0.51109989000E-03 0.  1.
     -623    1    1    2    0    0 -0.93770174712E-02  0.70210091260E-02  0.36027966486E-02  0.17130000044E+03  0.17130000000E+03 0. -1.
      622    1    1    2    0    0  0.14867511857E-01  0.10575330354E-02  0.39769143939E+01  0.39781993738E+01  0.10000000000E+00 0.  1.
</event>
<event>
 5   0  0.6262544E+06  0.9118800E+02  0.7818608E-02  0.1180000E+00
       11   -1    0    0    0    0  0.00000000000E+00  0.00000000000E+00  0.39999999673E+01  0.40000000000E+01  0.51109989000E-03 0.  1.
     -623   -1    0    0    0    0  0.00000000000E+00  0.00000000000E+00  0.12525980253E-10  0.17130000000E+03  0.17130000000E+03 0.  1.
       11    1    1    2    0    0 -0.73263253129E-01  0.22758674638E-01  0.20545497107E+01  0.20559815750E+01  0.51109989000E-03 0.  1.
     -623    1    1    2    0    0  0.55997567202E-02 -0.75883419951E-02  0.52446418526E-02  0.17130000034E+03  0.17130000000E+03 0.  1.
      622    1    1    2    0    0  0.67663496409E-01 -0.15170332643E-01  0.19402056148E+01  0.19440180852E+01  0.10000000000E+00 0.  1.
</event>
<event>
 5   0  0.6262544E+06  0.9118800E+02  0.7818608E-02  0.1180000E+00
       11   -1    0    0    0    0  0.00000000000E+00  0.00000000000E+00  0.39999999673E+01  0.40000000000E+01  0.51109989000E-03 0. -1.
     -623   -1    0    0    0    0  0.00000000000E+00  0.00000000000E+00  0.12525980253E-10  0.17130000000E+03  0.17130000000E+03 0.  1.
       11    1    1    2    0    0 -0.29862745544E-02 -0.48275069659E-04  0.18546966331E+00  0.18549441338E+00  0.51109989000E-03 0. -1.
     -623    1    1    2    0    0 -0.58922542423E-04  0.10827130258E-02  0.13370934883E-02  0.17130000001E+03  0.17130000000E+03 0.  1.
      622    1    1    2    0    0  0.30451970968E-02 -0.10344379561E-02  0.38131932106E+01  0.38145055780E+01  0.10000000000E+00 0. -1.
</event>
<event>
 5   0  0.6262544E+06  0.9118800E+02  0.7818608E-02  0.1180000E+00
       11   -1    0    0    0    0  0.00000000000E+00  0.00000000000E+00  0.39999999673E+01  0.40000000000E+01  0.51109989000E-03 0. -1.
     -623   -1    0    0    0    0  0.00000000000E+00  0.00000000000E+00  0.12525980253E-10  0.17130000000E+03  0.17130000000E+03 0.  1.
       11    1    1    2    0    0  0.59427448175E-02  0.12856000854E-02  0.27876197581E-02  0.67082806641E-02  0.51109989000E-03 0. -1.
     -623    1    1    2    0    0  0.44607000379E-02 -0.93974194992E-02  0.51951168360E-02  0.17130000039E+03  0.17130000000E+03 0.  1.
      622    1    1    2    0    0 -0.10403444855E-01  0.81118194137E-02  0.39920172308E+01  0.39932913247E+01  0.10000000000E+00 0. -1.
</event>
<event>
 5   0  0.6262544E+06  0.9118800E+02  0.7818608E-02  0.1180000E+00
       11   -1    0    0    0    0  0.00000000000E+00  0.00000000000E+00  0.39999999673E+01  0.40000000000E+01  0.51109989000E-03 0.  1.
     -623   -1    0    0    0    0  0.00000000000E+00  0.00000000000E+00  0.12525980253E-10  0.17130000000E+03  0.17130000000E+03 0.  1.
       11    1    1    2    0    0 -0.30863508549E-01  0.10102170433E+00  0.13050526304E+01  0.13093206522E+01  0.51109989000E-03 0.  1.
     -623    1    1    2    0    0 -0.51828712485E-02 -0.42691856766E-02  0.81103080378E-02  0.17130000032E+03  0.17130000000E+03 0.  1.
      622    1    1    2    0    0  0.36046379797E-01 -0.96752518651E-01  0.26868370289E+01  0.26906790242E+01  0.10000000000E+00 0.  1.
</event>
<event>
 5   0  0.6262544E+06  0.9118800E+02  0.7818608E-02  0.1180000E+00
       11   -1    0    0    0    0  0.00000000000E+00  0.00000000000E+00  0.39999999673E+01  0.40000000000E+01  0.51109989000E-03 0. -1.
     -623   -1    0    0    0    0  0.00000000000E+00  0.00000000000E+00  0.12525980253E-10  0.17130000000E+03  0.17130000000E+03 0. -1.
       11    1    1    2    0    0 -0.94068365188E-02 -0.78625157520E-02  0.17984499243E+00  0.18026311395E+00  0.51109989000E-03 0. -1.
     -623    1    1    2    0    0 -0.48295898788E-02  0.17832440688E-01  0.17678648033E-02  0.17130000101E+03  0.17130000000E+03 0. -1.
      622    1    1    2    0    0  0.14236426398E-01 -0.99699249355E-02  0.38183871101E+01  0.38197358807E+01  0.10000000000E+00 0. -1.
</event>
<event>
 5   0  0.6262544E+06  0.9118800E+02  0.7818608E-02  0.1180000E+00
       11   -1    0    0    0    0  0.00000000000E+00  0.00000000000E+00  0.39999999673E+01  0.40000000000E+01  0.51109989000E-03 0.  1.
     -623   -1    0    0    0    0  0.00000000000E+00  0.00000000000E+00  0.12525980253E-10  0.17130000000E+03  0.17130000000E+03 0. -1.
       11    1    1    2    0    0  0.14363670487E-01 -0.22096494627E-01  0.39636460683E+00  0.39724014509E+00  0.51109989000E-03 0.  1.
     -623    1    1    2    0    0  0.61452276716E-02 -0.25416226401E-02  0.24064218914E-02  0.17130000015E+03  0.17130000000E+03 0. -1.
      622    1    1    2    0    0 -0.20508898159E-01  0.24638117267E-01  0.36012289385E+01  0.36027597088E+01  0.10000000000E+00 0.  0.
</event>
<event>
 5   0  0.6262544E+06  0.9118800E+02  0.7818608E-02  0.1180000E+00
       11   -1    0    0    0    0  0.00000000000E+00  0.00000000000E+00  0.39999999673E+01  0.40000000000E+01  0.51109989000E-03 0. -1.
     -623   -1    0    0    0    0  0.00000000000E+00  0.00000000000E+00  0.12525980253E-10  0.17130000000E+03  0.17130000000E+03 0. -1.
       11    1    1    2    0    0  0.40869228395E-02 -0.29385581348E-01  0.15734665062E+01  0.15737462701E+01  0.51109989000E-03 0. -1.
     -623    1    1    2    0    0  0.19452858145E-02  0.54496503567E-02  0.24671904044E-02  0.17130000012E+03  0.17130000000E+03 0. -1.
      622    1    1    2    0    0 -0.60322086539E-02  0.23935930991E-01  0.24240662708E+01  0.24262536144E+01  0.10000000000E+00 0. -1.
</event>
<event>
 5   0  0.6262544E+06  0.9118800E+02  0.7818608E-02  0.1180000E+00
       11   -1    0    0    0    0  0.00000000000E+00  0.00000000000E+00  0.39999999673E+01  0.40000000000E+01  0.51109989000E-03 0.  1.
     -623   -1    0    0    0    0  0.00000000000E+00  0.00000000000E+00  0.12525980253E-10  0.17130000000E+03  0.17130000000E+03 0.  1.
       11    1    1    2    0    0 -0.30210156452E-01 -0.10754359905E-01  0.10287512332E+01  0.10292510242E+01  0.51109989000E-03 0.  1.
     -623    1    1    2    0    0 -0.13497219567E-01  0.24432086651E-02  0.25172383135E-02  0.17130000057E+03  0.17130000000E+03 0.  1.
      622    1    1    2    0    0  0.43707376019E-01  0.83111512400E-02  0.29687314959E+01  0.29707484082E+01  0.10000000000E+00 0.  0.
</event>
<event>
 5   0  0.6262544E+06  0.9118800E+02  0.7818608E-02  0.1180000E+00
       11   -1    0    0    0    0  0.00000000000E+00  0.00000000000E+00  0.39999999673E+01  0.40000000000E+01  0.51109989000E-03 0. -1.
     -623   -1    0    0    0    0  0.00000000000E+00  0.00000000000E+00  0.12525980253E-10  0.17130000000E+03  0.17130000000E+03 0.  1.
       11    1    1    2    0    0 -0.10185162604E+00 -0.29498259972E-01  0.74124799511E+00  0.74879419906E+00  0.51109989000E-03 0. -1.
     -623    1    1    2    0    0  0.13713040384E+00 -0.10795285279E+00  0.12273754705E-01  0.17130008934E+03  0.17130000000E+03 0.  1.
      622    1    1    2    0    0 -0.35278777804E-01  0.13745111277E+00  0.32464782176E+01  0.32511164571E+01  0.10000000000E+00 0. -1.
</event>
<event>
 5   0  0.6262544E+06  0.9118800E+02  0.7818608E-02  0.1180000E+00
       11   -1    0    0    0    0  0.00000000000E+00  0.00000000000E+00  0.39999999673E+01  0.40000000000E+01  0.51109989000E-03 0. -1.
     -623   -1    0    0    0    0  0.00000000000E+00  0.00000000000E+00  0.12525980253E-10  0.17130000000E+03  0.17130000000E+03 0.  1.
       11    1    1    2    0    0 -0.67907336481E-02 -0.25851157343E-02  0.44228843652E-01  0.44824644123E-01  0.51109989000E-03 0. -1.
     -623    1    1    2    0    0 -0.82495411978E-03  0.49999251734E-02  0.18682933117E-02  0.17130000009E+03  0.17130000000E+03 0.  1.
      622    1    1    2    0    0  0.76156877679E-02 -0.24148094390E-02  0.39539028303E+01  0.39551752706E+01  0.10000000000E+00 0. -1.
</event>
<event>
 5   0  0.6262544E+06  0.9118800E+02  0.7818608E-02  0.1180000E+00
       11   -1    0    0    0    0  0.00000000000E+00  0.00000000000E+00  0.39999999673E+01  0.40000000000E+01  0.51109989000E-03 0.  1.
     -623   -1    0    0    0    0  0.00000000000E+00  0.00000000000E+00  0.12525980253E-10  0.17130000000E+03  0.17130000000E+03 0. -1.
       11    1    1    2    0    0 -0.54631051809E-03  0.22013790554E-02  0.13558184741E-01  0.13756093904E-01  0.51109989000E-03 0.  1.
     -623    1    1    2    0    0  0.17257102472E-02 -0.83300866491E-02  0.14574923914E-02  0.17130000022E+03  0.17130000000E+03 0. -1.
      622    1    1    2    0    0 -0.11793997291E-02  0.61287075938E-02  0.39849842902E+01  0.39862436887E+01  0.10000000000E+00 0.  1.
</event>
<event>
 5   0  0.6262544E+06  0.9118800E+02  0.7818608E-02  0.1180000E+00
       11   -1    0    0    0    0  0.00000000000E+00  0.00000000000E+00  0.39999999673E+01  0.40000000000E+01  0.51109989000E-03 0. -1.
     -623   -1    0    0    0    0  0.00000000000E+00  0.00000000000E+00  0.12525980253E-10  0.17130000000E+03  0.17130000000E+03 0. -1.
       11    1    1    2    0    0  0.30305552309E-01  0.32060529188E-01  0.45708278190E+00  0.45920718066E+00  0.51109989000E-03 0. -1.
     -623    1    1    2    0    0 -0.76792918900E-02 -0.28015917051E-02  0.37302608056E-02  0.17130000024E+03  0.17130000000E+03 0. -1.
      622    1    1    2    0    0 -0.22626260419E-01 -0.29258937483E-01  0.35391869246E+01  0.35407925837E+01  0.10000000000E+00 0. -1.
</event>
<event>
 5   0  0.6262544E+06  0.9118800E+02  0.7818608E-02  0.1180000E+00
       11   -1    0    0    0    0  0.00000000000E+00  0.00000000000E+00  0.39999999673E+01  0.40000000000E+01  0.51109989000E-03 0. -1.
     -623   -1    0    0    0    0  0.00000000000E+00  0.00000000000E+00  0.12525980253E-10  0.17130000000E+03  0.17130000000E+03 0.  1.
       11    1    1    2    0    0 -0.77486754878E-04 -0.13584200897E-01  0.93632791811E+00  0.93642659508E+00  0.51109989000E-03 0. -1.
     -623    1    1    2    0    0 -0.97930158989E-03  0.84135237482E-02  0.17359268588E-02  0.17130000022E+03  0.17130000000E+03 0.  1.
      622    1    1    2    0    0  0.10567883448E-02  0.51706771491E-02  0.30619361223E+01  0.30635731867E+01  0.10000000000E+00 0. -1.
</event>
<event>
 5   0  0.6262544E+06  0.9118800E+02  0.7818608E-02  0.1180000E+00
       11   -1    0    0    0    0  0.00000000000E+00  0.00000000000E+00  0.39999999673E+01  0.40000000000E+01  0.51109989000E-03 0. -1.
     -623   -1    0    0    0    0  0.00000000000E+00  0.00000000000E+00  0.12525980253E-10  0.17130000000E+03  0.17130000000E+03 0.  1.
       11    1    1    2    0    0  0.16202415852E-02 -0.96054126079E-02  0.96681045577E-01  0.97171883439E-01  0.51109989000E-03 0. -1.
     -623    1    1    2    0    0 -0.44443019209E-02 -0.40015497692E-03  0.17860570778E-02  0.17130000007E+03  0.17130000000E+03 0.  1.
      622    1    1    2    0    0  0.28240603359E-02  0.10005567585E-01  0.39015328649E+01  0.39028280493E+01  0.10000000000E+00 0. -1.
</event>
<event>
 5   0  0.6262544E+06  0.9118800E+02  0.7818608E-02  0.1180000E+00
       11   -1    0    0    0    0  0.00000000000E+00  0.00000000000E+00  0.39999999673E+01  0.40000000000E+01  0.51109989000E-03 0.  1.
     -623   -1    0    0    0    0  0.00000000000E+00  0.00000000000E+00  0.12525980253E-10  0.17130000000E+03  0.17130000000E+03 0. -1.
       11    1    1    2    0    0 -0.73317097033E-01 -0.29024599067E-01  0.76249151888E+00  0.76655815282E+00  0.51109989000E-03 0.  1.
     -623    1    1    2    0    0  0.80248473169E-02  0.53179696625E-02  0.63602649457E-02  0.17130000039E+03  0.17130000000E+03 0. -1.
      622    1    1    2    0    0  0.65292249716E-01  0.23706629405E-01  0.32311481835E+01  0.32334414585E+01  0.10000000000E+00 0.  0.
</event>
<event>
 5   0  0.6262544E+06  0.9118800E+02  0.7818608E-02  0.1180000E+00
       11   -1    0    0    0    0  0.00000000000E+00  0.00000000000E+00  0.39999999673E+01  0.40000000000E+01  0.51109989000E-03 0.  1.
     -623   -1    0    0    0    0  0.00000000000E+00  0.00000000000E+00  0.12525980253E-10  0.17130000000E+03  0.17130000000E+03 0. -1.
       11    1    1    2    0    0 -0.64787672924E-01  0.33112028406E-01  0.11766804965E+01  0.11789279456E+01  0.51109989000E-03 0.  1.
     -623    1    1    2    0    0 -0.45537813579E-02 -0.74203777430E-02  0.49906080196E-02  0.17130000029E+03  0.17130000000E+03 0. -1.
      622    1    1    2    0    0  0.69341454282E-01 -0.25691650663E-01  0.28183288629E+01  0.28210717604E+01  0.10000000000E+00 0.  1.
</event>
<event>
 5   0  0.6262544E+06  0.9118800E+02  0.7818608E-02  0.1180000E+00
       11   -1    0    0    0    0  0.00000000000E+00  0.00000000000E+00  0.39999999673E+01  0.40000000000E+01  0.51109989000E-03 0.  1.
     -623   -1    0    0    0    0  0.00000000000E+00  0.00000000000E+00  0.12525980253E-10  0.17130000000E+03  0.17130000000E+03 0. -1.
       11    1    1    2    0    0 -0.39874932760E-02  0.31684416634E-02  0.88580390142E-02  0.10230601269E-01  0.51109989000E-03 0.  1.
     -623    1    1    2    0    0  0.59037338297E-02 -0.10259800421E-01  0.26331254566E-02  0.17130000043E+03  0.17130000000E+03 0. -1.
      622    1    1    2    0    0 -0.19162405537E-02  0.70913587578E-02  0.39885088029E+01  0.39897689695E+01  0.10000000000E+00 0.  1.
</event>
<event>
 5   0  0.6262544E+06  0.9118800E+02  0.7818608E-02  0.1180000E+00
       11   -1    0    0    0    0  0.00000000000E+00  0.00000000000E+00  0.39999999673E+01  0.40000000000E+01  0.51109989000E-03 0.  1.
     -623   -1    0    0    0    0  0.00000000000E+00  0.00000000000E+00  0.12525980253E-10  0.17130000000E+03  0.17130000000E+03 0.  1.
       11    1    1    2    0    0  0.16592412994E-01  0.21417608575E-01  0.34537382580E+00  0.34643522179E+00  0.51109989000E-03 0.  1.
     -623    1    1    2    0    0 -0.82289029557E-02  0.82519573605E-02  0.25606546506E-02  0.17130000042E+03  0.17130000000E+03 0.  1.
      622    1    1    2    0    0 -0.83635100375E-02 -0.29669565936E-01  0.36520654871E+01  0.36535643628E+01  0.10000000000E+00 0.  1.
</event>
<event>
 5   0  0.6262544E+06  0.9118800E+02  0.7818608E-02  0.1180000E+00
       11   -1    0    0    0    0  0.00000000000E+00  0.00000000000E+00  0.39999999673E+01  0.40000000000E+01  0.51109989000E-03 0. -1.
     -623   -1    0    0    0    0  0.00000000000E+00  0.00000000000E+00  0.12525980253E-10  0.17130000000E+03  0.17130000000E+03 0.  1.
       11    1    1    2    0    0  0.48668369907E-02  0.12372743093E-01  0.47613663848E-01  0.49437769792E-01  0.51109989000E-03 0. -1.
     -623    1    1    2    0    0 -0.88879102652E-03  0.24172969143E-02  0.31196643521E-02  0.17130000005E+03  0.17130000000E+03 0.  1.
      622    1    1    2    0    0 -0.39780459642E-02 -0.14790040007E-01  0.39492666391E+01  0.39505621824E+01  0.10000000000E+00 0. -1.
</event>
<event>
 5   0  0.6262544E+06  0.9118800E+02  0.7818608E-02  0.1180000E+00
       11   -1    0    0    0    0  0.00000000000E+00  0.00000000000E+00  0.39999999673E+01  0.40000000000E+01  0.51109989000E-03 0.  1.
     -623   -1    0    0    0    0  0.00000000000E+00  0.00000000000E+00  0.12525980253E-10  0.17130000000E+03  0.17130000000E+03 0.  1.
       11    1    1    2    0    0 -0.84523766101E-03 -0.41845655188E-01  0.26873369270E+00  0.27197395481E+00  0.51109989000E-03 0.  1.
     -623    1    1    2    0    0 -0.10241566583E-01 -0.67630074816E-02  0.49156912816E-02  0.17130000051E+03  0.17130000000E+03 0.  1.
      622    1    1    2    0    0  0.11086804244E-01  0.48608662669E-01  0.37263505834E+01  0.37280255350E+01  0.10000000000E+00 0. -1.
</event>
<event>
 5   0  0.6262544E+06  0.9118800E+02  0.7818608E-02  0.1180000E+00
       11   -1    0    0    0    0  0.00000000000E+00  0.00000000000E+00  0.39999999673E+01  0.40000000000E+01  0.51109989000E-03 0.  1.
     -623   -1    0    0    0    0  0.00000000000E+00  0.00000000000E+00  0.12525980253E-10  0.17130000000E+03  0.17130000000E+03 0.  1.
       11    1    1    2    0    0  0.18543661176E-01 -0.16091008463E-01  0.68978278543E+00  0.69021977675E+00  0.51109989000E-03 0.  1.
     -623    1    1    2    0    0 -0.30497522719E-01  0.20108962634E-01  0.19759228911E-02  0.17130000391E+03  0.17130000000E+03 0.  1.
      622    1    1    2    0    0  0.11953861544E-01 -0.40179541717E-02  0.33082412592E+01  0.33097763169E+01  0.10000000000E+00 0.  1.
</event>
<event>
 5   0  0.6262544E+06  0.9118800E+02  0.7818608E-02  0.1180000E+00
       11   -1    0    0    0    0  0.00000000000E+00  0.00000000000E+00  0.39999999673E+01  0.40000000000E+01  0.51109989000E-03 0. -1.
     -623   -1    0    0    0    0  0.00000000000E+00  0.00000000000E+00  0.12525980253E-10  0.17130000000E+03  0.17130000000E+03 0. -1.
       11    1    1    2    0    0 -0.52352044290E-01 -0.10371629416E-01  0.53848383004E+00  0.54112235555E+00  0.51109989000E-03 0. -1.
     -623    1    1    2    0    0  0.19998188125E-02  0.50127858348E-02  0.44553182828E-02  0.17130000014E+03  0.17130000000E+03 0. -1.
      622    1    1    2    0    0  0.50352225477E-01  0.53588435807E-02  0.34570608190E+01  0.34588775015E+01  0.10000000000E+00 0. -1.
</event>
<event>
 5   0  0.6262544E+06  0.9118800E+02  0.7818608E-02  0.1180000E+00
       11   -1    0    0    0    0  0.00000000000E+00  0.00000000000E+00  0.39999999673E+01  0.40000000000E+01  0.51109989000E-03 0.  1.
     -623   -1    0    0    0    0  0.00000000000E+00  0.00000000000E+00  0.12525980253E-10  0.17130000000E+03  0.17130000000E+03 0.  1.
       11    1    1    2    0    0  0.71869765533E-02  0.16597664758E-01  0.40189084684E-01  0.44074469444E-01  0.51109989000E-03 0.  1.
     -623    1    1    2    0    0 -0.41514516326E-02 -0.45540830452E-04  0.51854140534E-02  0.17130000013E+03  0.17130000000E+03 0.  1.
      622    1    1    2    0    0 -0.30355249207E-02 -0.16552123927E-01  0.39546254686E+01  0.39559254018E+01  0.10000000000E+00 0.  1.
</event>
<event>
 5   0  0.6262544E+06  0.9118800E+02  0.7818608E-02  0.1180000E+00
       11   -1    0    0    0    0  0.00000000000E+00  0.00000000000E+00  0.39999999673E+01  0.40000000000E+01  0.51109989000E-03 0.  1.
     -623   -1    0    0    0    0  0.00000000000E+00  0.00000000000E+00  0.12525980253E-10  0.17130000000E+03  0.17130000000E+03 0. -1.
       11    1    1    2    0    0  0.50896064772E-02  0.10783255993E-02  0.12036539723E-02  0.53644092101E-02  0.51109989000E-03 0.  1.
     -623    1    1    2    0    0 -0.66480314946E-02 -0.27503114200E-04  0.54132543392E-02  0.17130000021E+03  0.17130000000E+03 0. -1.
      622    1    1    2    0    0  0.15584250175E-02 -0.10508224851E-02  0.39933830590E+01  0.39946353763E+01  0.10000000000E+00 0.  1.
</event>
<event>
 5   0  0.6262544E+06  0.9118800E+02  0.7818608E-02  0.1180000E+00
       11   -1    0    0    0    0  0.00000000000E+00  0.00000000000E+00  0.39999999673E+01  0.40000000000E+01  0.51109989000E-03 0.  1.
     -623   -1    0    0    0    0  0.00000000000E+00  0.00000000000E+00  0.12525980253E-10  0.17130000000E+03  0.17130000000E+03 0. -1.
       11    1    1    2    0    0 -0.33092236468E-01  0.31196491123E-02  0.61268752675E-01  0.69706166173E-01  0.51109989000E-03 0.  1.
     -623    1    1    2    0    0  0.32803294136E-01 -0.36921107064E-01  0.98625733202E-02  0.17130000740E+03  0.17130000000E+03 0. -1.
      622    1    1    2    0    0  0.28894233128E-03  0.33801457952E-01  0.39288686414E+01  0.39302864302E+01  0.10000000000E+00 0.  1.
</event>
<event>
 5   0  0.6262544E+06  0.9118800E+02  0.7818608E-02  0.1180000E+00
       11   -1    0    0    0    0  0.00000000000E+00  0.00000000000E+00  0.39999999673E+01  0.40000000000E+01  0.51109989000E-03 0. -1.
     -623   -1    0    0    0    0  0.00000000000E+00  0.00000000000E+00  0.12525980253E-10  0.17130000000E+03  0.17130000000E+03 0.  1.
       11    1    1    2    0    0 -0.18206206272E-02  0.15862170328E-01  0.14096215200E+00  0.14186441634E+00  0.51109989000E-03 0. -1.
     -623    1    1    2    0    0  0.66058072394E-03 -0.17516417954E-02  0.22244236075E-02  0.17130000002E+03  0.17130000000E+03 0.  1.
      622    1    1    2    0    0  0.11600399033E-02 -0.14110528533E-01  0.38568133918E+01  0.38581355590E+01  0.10000000000E+00 0. -1.
</event>
<event>
 5   0  0.6262544E+06  0.9118800E+02  0.7818608E-02  0.1180000E+00
       11   -1    0    0    0    0  0.00000000000E+00  0.00000000000E+00  0.39999999673E+01  0.40000000000E+01  0.51109989000E-03 0. -1.
     -623   -1    0    0    0    0  0.00000000000E+00  0.00000000000E+00  0.12525980253E-10  0.17130000000E+03  0.17130000000E+03 0. -1.
       11    1    1    2    0    0  0.95065603552E-03  0.12651632645E-01  0.51909400629E-01  0.53439822719E-01  0.51109989000E-03 0. -1.
     -623    1    1    2    0    0 -0.14163270165E-01 -0.93178717161E-02  0.28219142247E-02  0.17130000086E+03  0.17130000000E+03 0. -1.
      622    1    1    2    0    0  0.13212614130E-01 -0.33337609285E-02  0.39452686526E+01  0.39465593152E+01  0.10000000000E+00 0. -1.
</event>
<event>
 5   0  0.6262544E+06  0.9118800E+02  0.7818608E-02  0.1180000E+00
       11   -1    0    0    0    0  0.00000000000E+00  0.00000000000E+00  0.39999999673E+01  0.40000000000E+01  0.51109989000E-03 0.  1.
     -623   -1    0    0    0    0  0.00000000000E+00  0.00000000000E+00  0.12525980253E-10  0.17130000000E+03  0.17130000000E+03 0.  1.
       11    1    1    2    0    0  0.33797832493E-01  0.60534343027E-02  0.11635859731E+01  0.11640925718E+01  0.51109989000E-03 0.  1.
     -623    1    1    2    0    0 -0.36918346629E-02  0.48630236265E-01  0.29647280390E-02  0.17130000697E+03  0.17130000000E+03 0.  1.
      622    1    1    2    0    0 -0.30105997831E-01 -0.54683670568E-01  0.28334492662E+01  0.28359004600E+01  0.10000000000E+00 0.  1.
</event>
<event>
 5   0  0.6262544E+06  0.9118800E+02  0.7818608E-02  0.1180000E+00
       11   -1    0    0    0    0  0.00000000000E+00  0.00000000000E+00  0.39999999673E+01  0.40000000000E+01  0.51109989000E-03 0.  1.
     -623   -1    0    0    0    0  0.00000000000E+00  0.00000000000E+00  0.12525980253E-10  0.17130000000E+03  0.17130000000E+03 0. -1.
       11    1    1    2    0    0  0.70953035260E-02 -0.80097554680E-02  0.38158179292E-01  0.39633412452E-01  0.51109989000E-03 0.  1.
     -623    1    1    2    0    0 -0.67228811305E-02 -0.10366808542E-03  0.27463962055E-02  0.17130000015E+03  0.17130000000E+03 0. -1.
      622    1    1    2    0    0 -0.37242239549E-03  0.81134235534E-02  0.39590953919E+01  0.39603664336E+01  0.10000000000E+00 0.  1.
</event>
<event>
 5   0  0.6262544E+06  0.9118800E+02  0.7818608E-02  0.1180000E+00
       11   -1    0    0    0    0  0.00000000000E+00  0.00000000000E+00  0.39999999673E+01  0.40000000000E+01  0.51109989000E-03 0.  1.
     -623   -1    0    0    0    0  0.00000000000E+00  0.00000000000E+00  0.12525980253E-10  0.17130000000E+03  0.17130000000E+03 0.  1.
       11    1    1    2    0    0 -0.97057704920E-02 -0.53686696735E-02  0.13746527307E+00  0.13791296936E+00  0.51109989000E-03 0.  1.
     -623    1    1    2    0    0  0.47833215657E-03  0.56106219275E-02  0.17536536368E-02  0.17130000010E+03  0.17130000000E+03 0.  1.
      622    1    1    2    0    0  0.92274383354E-02 -0.24195225403E-03  0.38607810407E+01  0.38620869291E+01  0.10000000000E+00 0.  1.
</event>
<event>
 5   0  0.6262544E+06  0.9118800E+02  0.7818608E-02  0.1180000E+00
       11   -1    0    0    0    0  0.00000000000E+00  0.00000000000E+00  0.39999999673E+01  0.40000000000E+01  0.51109989000E-03 0. -1.
     -623   -1    0    0    0    0  0.00000000000E+00  0.00000000000E+00  0.12525980253E-10  0.17130000000E+03  0.17130000000E+03 0.  1.
       11    1    1    2    0    0 -0.45491270509E-01  0.36489422595E-02  0.20375490763E+01  0.20380601733E+01  0.51109989000E-03 0. -1.
     -623    1    1    2    0    0 -0.30504940669E-02  0.15956963810E-01  0.37615322821E-02  0.17130000081E+03  0.17130000000E+03 0.  1.
      622    1    1    2    0    0  0.48541764576E-01 -0.19605906070E-01  0.19586893589E+01  0.19619390151E+01  0.10000000000E+00 0. -1.
</event>
<event>
 5   0  0.6262544E+06  0.9118800E+02  0.7818608E-02  0.1180000E+00
       11   -1    0    0    0    0  0.00000000000E+00  0.00000000000E+00  0.39999999673E+01  0.40000000000E+01  0.51109989000E-03 0.  1.
     -623   -1    0    0    0    0  0.00000000000E+00  0.00000000000E+00  0.12525980253E-10  0.17130000000E+03  0.17130000000E+03 0.  1.
       11    1    1    2    0    0  0.13409684311E-01 -0.20632946258E-01  0.23921264768E+00  0.24047554997E+00  0.51109989000E-03 0.  1.
     -623    1    1    2    0    0 -0.27079467492E-02 -0.74994526707E-02  0.27138006614E-02  0.17130000021E+03  0.17130000000E+03 0.  1.
      622    1    1    2    0    0 -0.10701737562E-01  0.28132398929E-01  0.37580735190E+01  0.37595242430E+01  0.10000000000E+00 0.  0.
</event>
<event>
 5   0  0.6262544E+06  0.9118800E+02  0.7818608E-02  0.1180000E+00
       11   -1    0    0    0    0  0.00000000000E+00  0.00000000000E+00  0.39999999673E+01  0.40000000000E+01  0.51109989000E-03 0.  1.
     -623   -1    0    0    0    0  0.00000000000E+00  0.00000000000E+00  0.12525980253E-10  0.17130000000E+03  0.17130000000E+03 0.  1.
       11    1    1    2    0    0  0.33862083676E-02  0.58582788541E-02  0.20057501523E+00  0.20068977003E+00  0.51109989000E-03 0.  1.
     -623    1    1    2    0    0 -0.12260035863E-01 -0.94994373975E-02  0.14437990337E-02  0.17130000071E+03  0.17130000000E+03 0.  1.
      622    1    1    2    0    0  0.88738274954E-02  0.36411585435E-02  0.37979811532E+01  0.37993095218E+01  0.10000000000E+00 0.  1.
</event>
<event>
 5   0  0.6262544E+06  0.9118800E+02  0.7818608E-02  0.1180000E+00
       11   -1    0    0    0    0  0.00000000000E+00  0.00000000000E+00  0.39999999673E+01  0.40000000000E+01  0.51109989000E-03 0.  1.
     -623   -1    0    0    0    0  0.00000000000E+00  0.00000000000E+00  0.12525980253E-10  0.17130000000E+03  0.17130000000E+03 0. -1.
       11    1    1    2    0    0 -0.53572350073E-03 -0.28243451293E-01  0.15826244301E+01  0.15828765989E+01  0.51109989000E-03 0.  1.
     -623    1    1    2    0    0 -0.15757781694E-01 -0.45134653925E-02  0.25995320271E-02  0.17130000080E+03  0.17130000000E+03 0. -1.
      622    1    1    2    0    0  0.16293505195E-01  0.32756916685E-01  0.24147760053E+01  0.24171225972E+01  0.10000000000E+00 0.  1.
</event>
<event>
 5   0  0.6262544E+06  0.9118800E+02  0.7818608E-02  0.1180000E+00
       11   -1    0    0    0    0  0.00000000000E+00  0.00000000000E+00  0.39999999673E+01  0.40000000000E+01  0.51109989000E-03 0. -1.
     -623   -1    0    0    0    0  0.00000000000E+00  0.00000000000E+00  0.12525980253E-10  0.17130000000E+03  0.17130000000E+03 0.  1.
       11    1    1    2    0    0  0.13181291789E-01 -0.20694267743E-01  0.16479261320E+00  0.16660992095E+00  0.51109989000E-03 0. -1.
     -623    1    1    2    0    0 -0.29088224433E-01  0.23705699109E-01  0.31601643308E-02  0.17130000414E+03  0.17130000000E+03 0.  1.
      622    1    1    2    0    0  0.15906932643E-01 -0.30114313660E-02  0.38320471898E+01  0.38333859399E+01  0.10000000000E+00 0. -1.
</event>
<event>
 5   0  0.6262544E+06  0.9118800E+02  0.7818608E-02  0.1180000E+00
       11   -1    0    0    0    0  0.00000000000E+00  0.00000000000E+00  0.39999999673E+01  0.40000000000E+01  0.51109989000E-03 0. -1.
     -623   -1    0    0    0    0  0.00000000000E+00  0.00000000000E+00  0.12525980253E-10  0.17130000000E+03  0.17130000000E+03 0. -1.
       11    1    1    2    0    0  0.90612165811E-02 -0.12556337300E-01  0.64899370037E-02  0.16797254470E-01  0.51109989000E-03 0. -1.
     -623    1    1    2    0    0 -0.17441458012E-01  0.38678471161E-01  0.11662909428E-01  0.17130000565E+03  0.17130000000E+03 0. -1.
      622    1    1    2    0    0  0.83802414307E-02 -0.26122133861E-01  0.39818471210E+01  0.39831970939E+01  0.10000000000E+00 0. -1.
</event>
<event>
 5   0  0.6262544E+06  0.9118800E+02  0.7818608E-02  0.1180000E+00
       11   -1    0    0    0    0  0.00000000000E+00  0.00000000000E+00  0.39999999673E+01  0.40000000000E+01  0.51109989000E-03 0. -1.
     -623   -1    0    0    0    0  0.00000000000E+00  0.00000000000E+00  0.12525980253E-10  0.17130000000E+03  0.17130000000E+03 0. -1.
       11    1    1    2    0    0  0.37824197583E-04 -0.19584847166E-03  0.13876750424E-02  0.14921963162E-02  0.51109989000E-03 0. -1.
     -623    1    1    2    0    0  0.33063358125E-02  0.52781077924E-02  0.13598991430E-02  0.17130000012E+03  0.17130000000E+03 0. -1.
      622    1    1    2    0    0 -0.33441600101E-02 -0.50822593207E-02  0.39972523932E+01  0.39985076851E+01  0.10000000000E+00 0. -1.
</event>
<event>
 5   0  0.6262544E+06  0.9118800E+02  0.7818608E-02  0.1180000E+00
       11   -1    0    0    0    0  0.00000000000E+00  0.00000000000E+00  0.39999999673E+01  0.40000000000E+01  0.51109989000E-03 0. -1.
     -623   -1    0    0    0    0  0.00000000000E+00  0.00000000000E+00  0.12525980253E-10  0.17130000000E+03  0.17130000000E+03 0.  1.
       11    1    1    2    0    0 -0.27175918214E-02  0.48400989948E-03  0.50864184644E-02  0.58096856010E-02  0.51109989000E-03 0. -1.
     -623    1    1    2    0    0  0.12946675227E-02  0.98226052514E-03  0.19757907565E-02  0.17130000002E+03  0.17130000000E+03 0.  1.
      622    1    1    2    0    0  0.14229242987E-02 -0.14662704246E-02  0.39929377581E+01  0.39941902953E+01  0.10000000000E+00 0. -1.
</event>
<event>
 5   0  0.6262544E+06  0.9118800E+02  0.7818608E-02  0.1180000E+00
       11   -1    0    0    0    0  0.00000000000E+00  0.00000000000E+00  0.39999999673E+01  0.40000000000E+01  0.51109989000E-03 0. -1.
     -623   -1    0    0    0    0  0.00000000000E+00  0.00000000000E+00  0.12525980253E-10  0.17130000000E+03  0.17130000000E+03 0. -1.
       11    1    1    2    0    0 -0.15434086788E-01 -0.16985455084E-01  0.28900373762E+00  0.28991401881E+00  0.51109989000E-03 0. -1.
     -623    1    1    2    0    0  0.35003677708E-02 -0.12590405839E-01  0.23958172254E-02  0.17130000052E+03  0.17130000000E+03 0. -1.
      622    1    1    2    0    0  0.11933719017E-01  0.29575860923E-01  0.37086004126E+01  0.37100854661E+01  0.10000000000E+00 0. -1.
</event>
<event>
 5   0  0.6262544E+06  0.9118800E+02  0.7818608E-02  0.1180000E+00
       11   -1    0    0    0    0  0.00000000000E+00  0.00000000000E+00  0.39999999673E+01  0.40000000000E+01  0.51109989000E-03 0. -1.
     -623   -1    0    0    0    0  0.00000000000E+00  0.00000000000E+00  0.12525980253E-10  0.17130000000E+03  0.17130000000E+03 0. -1.
       11    1    1    2    0    0  0.74435693932E-01  0.10243618973E+00  0.20711645776E+01  0.20750317622E+01  0.51109989000E-03 0. -1.
     -623    1    1    2    0    0 -0.57176080126E-03  0.89116013351E-02  0.11116374755E-01  0.17130000059E+03  0.17130000000E+03 0. -1.
      622    1    1    2    0    0 -0.73863933131E-01 -0.11134779106E+00  0.19177190150E+01  0.19249676443E+01  0.10000000000E+00 0. -1.
</event>
<event>
 5   0  0.6262544E+06  0.9118800E+02  0.7818608E-02  0.1180000E+00
       11   -1    0    0    0    0  0.00000000000E+00  0.00000000000E+00  0.39999999673E+01  0.40000000000E+01  0.51109989000E-03 0. -1.
     -623   -1    0    0    0    0  0.00000000000E+00  0.00000000000E+00  0.12525980253E-10  0.17130000000E+03  0.17130000000E+03 0. -1.
       11    1    1    2    0    0 -0.16022774954E-01 -0.26376056154E-01  0.76977360435E+00  0.77039216560E+00  0.51109989000E-03 0. -1.
     -623    1    1    2    0    0  0.25385197774E-01  0.26222875848E-01  0.21845600294E-02  0.17130000390E+03  0.17130000000E+03 0. -1.
      622    1    1    2    0    0 -0.93624228205E-02  0.15318030519E-03  0.32280418030E+01  0.32296039325E+01  0.10000000000E+00 0. -1.
</event>
<event>
 5   0  0.6262544E+06  0.9118800E+02  0.7818608E-02  0.1180000E+00
       11   -1    0    0    0    0  0.00000000000E+00  0.00000000000E+00  0.39999999673E+01  0.40000000000E+01  0.51109989000E-03 0. -1.
     -623   -1    0    0    0    0  0.00000000000E+00  0.00000000000E+00  0.12525980253E-10  0.17130000000E+03  0.17130000000E+03 0.  1.
       11    1    1    2    0    0 -0.10402655658E-01 -0.24621908121E-02  0.81098435606E-01  0.81801559332E-01  0.51109989000E-03 0. -1.
     -623    1    1    2    0    0  0.78759201938E-02 -0.90076927864E-03  0.19818492321E-02  0.17130000019E+03  0.17130000000E+03 0.  1.
      622    1    1    2    0    0  0.25267354639E-02  0.33629600908E-02  0.39169196826E+01  0.39181982459E+01  0.10000000000E+00 0. -1.
</event>
<event>
 5   0  0.6262544E+06  0.9118800E+02  0.7818608E-02  0.1180000E+00
       11   -1    0    0    0    0  0.00000000000E+00  0.00000000000E+00  0.39999999673E+01  0.40000000000E+01  0.51109989000E-03 0.  1.
     -623   -1    0    0    0    0  0.00000000000E+00  0.00000000000E+00  0.12525980253E-10  0.17130000000E+03  0.17130000000E+03 0.  1.
       11    1    1    2    0    0 -0.57447191713E-01 -0.49844987880E-01  0.14470523058E+01  0.14490498058E+01  0.51109989000E-03 0.  1.
     -623    1    1    2    0    0  0.86046844038E-01  0.22689313777E-01  0.42865769558E-02  0.17130002317E+03  0.17130000000E+03 0.  1.
      622    1    1    2    0    0 -0.28599652325E-01  0.27155674103E-01  0.25486610846E+01  0.25509270265E+01  0.10000000000E+00 0.  1.
</event>
<event>
 5   0  0.6262544E+06  0.9118800E+02  0.7818608E-02  0.1180000E+00
       11   -1    0    0    0    0  0.00000000000E+00  0.00000000000E+00  0.39999999673E+01  0.40000000000E+01  0.51109989000E-03 0. -1.
     -623   -1    0    0    0    0  0.00000000000E+00  0.00000000000E+00  0.12525980253E-10  0.17130000000E+03  0.17130000000E+03 0.  1.
       11    1    1    2    0    0 -0.79124196181E-02  0.88224922023E-02  0.17231325093E+00  0.17272104799E+00  0.51109989000E-03 0. -1.
     -623    1    1    2    0    0 -0.17145451230E-02  0.88858974656E-02  0.17677403792E-02  0.17130000025E+03  0.17130000000E+03 0.  1.
      622    1    1    2    0    0  0.96269647411E-02 -0.17708389668E-01  0.38259189761E+01  0.38272787038E+01  0.10000000000E+00 0. -1.
</event>
<event>
 5   0  0.6262544E+06  0.9118800E+02  0.7818608E-02  0.1180000E+00
       11   -1    0    0    0    0  0.00000000000E+00  0.00000000000E+00  0.39999999673E+01  0.40000000000E+01  0.51109989000E-03 0. -1.
     -623   -1    0    0    0    0  0.00000000000E+00  0.00000000000E+00  0.12525980253E-10  0.17130000000E+03  0.17130000000E+03 0.  1.
       11    1    1    2    0    0 -0.79825459531E-02 -0.46685902090E-02  0.16321341859E+00  0.16347598601E+00  0.51109989000E-03 0. -1.
     -623    1    1    2    0    0  0.20384941527E-01  0.10199133663E-01  0.15915849759E-02  0.17130000152E+03  0.17130000000E+03 0.  1.
      622    1    1    2    0    0 -0.12402395574E-01 -0.55305434535E-02  0.38351949638E+01  0.38365224900E+01  0.10000000000E+00 0. -1.
</event>
<event>
 5   0  0.6262544E+06  0.9118800E+02  0.7818608E-02  0.1180000E+00
       11   -1    0    0    0    0  0.00000000000E+00  0.00000000000E+00  0.39999999673E+01  0.40000000000E+01  0.51109989000E-03 0. -1.
     -623   -1    0    0    0    0  0.00000000000E+00  0.00000000000E+00  0.12525980253E-10  0.17130000000E+03  0.17130000000E+03 0.  1.
       11    1    1    2    0    0  0.14976503731E-01 -0.35107351019E-02  0.50841835631E-01  0.53120376490E-01  0.51109989000E-03 0. -1.
     -623    1    1    2    0    0 -0.26701890411E-01  0.10924651000E-01  0.35723906896E-02  0.17130000247E+03  0.17130000000E+03 0.  1.
      622    1    1    2    0    0  0.11725386680E-01 -0.74139158980E-02  0.39455857411E+01  0.39468771568E+01  0.10000000000E+00 0. -1.
</event>
<event>
 5   0  0.6262544E+06  0.9118800E+02  0.7818608E-02  0.1180000E+00
       11   -1    0    0    0    0  0.00000000000E+00  0.00000000000E+00  0.39999999673E+01  0.40000000000E+01  0.51109989000E-03 0. -1.
     -623   -1    0    0    0    0  0.00000000000E+00  0.00000000000E+00  0.12525980253E-10  0.17130000000E+03  0.17130000000E+03 0.  1.
       11    1    1    2    0    0 -0.46494345590E-02  0.10311488742E-03  0.35196747006E-02  0.58546737592E-02  0.51109989000E-03 0. -1.
     -623    1    1    2    0    0  0.57672991280E-02 -0.41573118692E-02  0.35893948199E-02  0.17130000019E+03  0.17130000000E+03 0.  1.
      622    1    1    2    0    0 -0.11178645690E-02  0.40541969818E-02  0.39928908978E+01  0.39941451411E+01  0.10000000000E+00 0. -1.
</event>
<event>
 5   0  0.6262544E+06  0.9118800E+02  0.7818608E-02  0.1180000E+00
       11   -1    0    0    0    0  0.00000000000E+00  0.00000000000E+00  0.39999999673E+01  0.40000000000E+01  0.51109989000E-03 0.  1.
     -623   -1    0    0    0    0  0.00000000000E+00  0.00000000000E+00  0.12525980253E-10  0.17130000000E+03  0.17130000000E+03 0. -1.
       11    1    1    2    0    0  0.41182138396E-02  0.44571876919E-02  0.20932323972E-01  0.21800220499E-01  0.51109989000E-03 0.  1.
     -623    1    1    2    0    0 -0.13033584334E-01 -0.17810693241E-02  0.21363244651E-02  0.17130000052E+03  0.17130000000E+03 0. -1.
      622    1    1    2    0    0  0.89153704941E-02 -0.26761183678E-02  0.39769313189E+01  0.39781992611E+01  0.10000000000E+00 0.  1.
</event>
<event>
 5   0  0.6262544E+06  0.9118800E+02  0.7818608E-02  0.1180000E+00
       11   -1    0    0    0    0  0.00000000000E+00  0.00000000000E+00  0.39999999673E+01  0.40000000000E+01  0.51109989000E-03 0. -1.
     -623   -1    0    0    0    0  0.00000000000E+00  0.00000000000E+00  0.12525980253E-10  0.17130000000E+03  0.17130000000E+03 0.  1.
       11    1    1    2    0    0  0.39486222590E-01 -0.19069150458E-01  0.12016794133E+01  0.12024793004E+01  0.51109989000E-03 0. -1.
     -623    1    1    2    0    0  0.85167904814E-03 -0.45772262214E-02  0.29788453518E-02  0.17130000009E+03  0.17130000000E+03 0.  1.
      622    1    1    2    0    0 -0.40337901638E-01  0.23646376680E-01  0.27953417087E+01  0.27975206105E+01  0.10000000000E+00 0. -1.
</event>
<event>
 5   0  0.6262544E+06  0.9118800E+02  0.7818608E-02  0.1180000E+00
       11   -1    0    0    0    0  0.00000000000E+00  0.00000000000E+00  0.39999999673E+01  0.40000000000E+01  0.51109989000E-03 0.  1.
     -623   -1    0    0    0    0  0.00000000000E+00  0.00000000000E+00  0.12525980253E-10  0.17130000000E+03  0.17130000000E+03 0. -1.
       11    1    1    2    0    0 -0.51350955037E-03  0.44530961943E-02  0.14374337062E+00  0.14381415638E+00  0.51109989000E-03 0.  1.
     -623    1    1    2    0    0  0.91431485938E-02 -0.14806735505E-01  0.13920425554E-02  0.17130000089E+03  0.17130000000E+03 0. -1.
      622    1    1    2    0    0 -0.86296390435E-02  0.10353639311E-01  0.38548645542E+01  0.38561849540E+01  0.10000000000E+00 0.  1.
</event>
<event>
 5   0  0.6262544E+06  0.9118800E+02  0.7818608E-02  0.1180000E+00
       11   -1    0    0    0    0  0.00000000000E+00  0.00000000000E+00  0.39999999673E+01  0.40000000000E+01  0.51109989000E-03 0.  1.
     -623   -1    0    0    0    0  0.00000000000E+00  0.00000000000E+00  0.12525980253E-10  0.17130000000E+03  0.17130000000E+03 0.  1.
       11    1    1    2    0    0 -0.44640368832E-03  0.11023770265E-02  0.24575064126E-02  0.27776018841E-02  0.51109989000E-03 0.  1.
     -623    1    1    2    0    0  0.43883849256E-02 -0.75401766164E-03  0.15731518764E-02  0.17130000007E+03  0.17130000000E+03 0.  1.
      622    1    1    2    0    0 -0.39419812373E-02 -0.34835936483E-03  0.39959693090E+01  0.39972223330E+01  0.10000000000E+00 0.  1.
</event>
<event>
 5   0  0.6262544E+06  0.9118800E+02  0.7818608E-02  0.1180000E+00
       11   -1    0    0    0    0  0.00000000000E+00  0.00000000000E+00  0.39999999673E+01  0.40000000000E+01  0.51109989000E-03 0.  1.
     -623   -1    0    0    0    0  0.00000000000E+00  0.00000000000E+00  0.12525980253E-10  0.17130000000E+03  0.17130000000E+03 0.  1.
       11    1    1    2    0    0 -0.26890319804E-01 -0.87969021163E-01  0.18937492015E+01  0.18959820509E+01  0.51109989000E-03 0.  1.
     -623    1    1    2    0    0  0.14494463833E-01 -0.61537948644E-02  0.67567406244E-02  0.17130000086E+03  0.17130000000E+03 0.  1.
      622    1    1    2    0    0  0.12395855971E-01  0.94122816027E-01  0.20994940252E+01  0.21040170921E+01  0.10000000000E+00 0. -1.
</event>
<event>
 5   0  0.6262544E+06  0.9118800E+02  0.7818608E-02  0.1180000E+00
       11   -1    0    0    0    0  0.00000000000E+00  0.00000000000E+00  0.39999999673E+01  0.40000000000E+01  0.51109989000E-03 0.  1.
     -623   -1    0    0    0    0  0.00000000000E+00  0.00000000000E+00  0.12525980253E-10  0.17130000000E+03  0.17130000000E+03 0. -1.
       11    1    1    2    0    0 -0.52156871348E-02  0.19378420648E-01  0.66965634092E+00  0.66995716485E+00  0.51109989000E-03 0.  1.
     -623    1    1    2    0    0 -0.10331502046E-02 -0.34593974627E-02  0.18465930972E-02  0.17130000005E+03  0.17130000000E+03 0. -1.
      622    1    1    2    0    0  0.62488373394E-02 -0.15919023185E-01  0.33284970335E+01  0.33300427873E+01  0.10000000000E+00 0.  1.
</event>
<event>
 5   0  0.6262544E+06  0.9118800E+02  0.7818608E-02  0.1180000E+00
       11   -1    0    0    0    0  0.00000000000E+00  0.00000000000E+00  0.39999999673E+01  0.40000000000E+01  0.51109989000E-03 0.  1.
     -623   -1    0    0    0    0  0.00000000000E+00  0.00000000000E+00  0.12525980253E-10  0.17130000000E+03  0.17130000000E+03 0. -1.
       11    1    1    2    0    0  0.11374427300E-02  0.81386685986E-03  0.21284840956E-02  0.25976571892E-02  0.51109989000E-03 0.  1.
     -623    1    1    2    0    0 -0.20362544111E-02  0.12774291845E-02  0.17208223170E-02  0.17130000003E+03  0.17130000000E+03 0. -1.
      622    1    1    2    0    0  0.89881168122E-03 -0.20912960445E-02  0.39961506611E+01  0.39974023175E+01  0.10000000000E+00 0.  1.
</event>
<event>
 5   0  0.6262544E+06  0.9118800E+02  0.7818608E-02  0.1180000E+00
       11   -1    0    0    0    0  0.00000000000E+00  0.00000000000E+00  0.39999999673E+01  0.40000000000E+01  0.51109989000E-03 0. -1.
     -623   -1    0    0    0    0  0.00000000000E+00  0.00000000000E+00  0.12525980253E-10  0.17130000000E+03  0.17130000000E+03 0. -1.
       11    1    1    2    0    0  0.58329247186E-01 -0.73139221939E-02  0.26075357819E+01  0.26081984030E+01  0.51109989000E-03 0. -1.
     -623    1    1    2    0    0 -0.36662479839E-02 -0.20544035997E-01  0.56174811766E-02  0.17130000136E+03  0.17130000000E+03 0. -1.
      622    1    1    2    0    0 -0.54662999203E-01  0.27857958191E-01  0.13868467043E+01  0.13918002337E+01  0.10000000000E+00 0. -1.
</event>
<event>
 5   0  0.6262544E+06  0.9118800E+02  0.7818608E-02  0.1180000E+00
       11   -1    0    0    0    0  0.00000000000E+00  0.00000000000E+00  0.39999999673E+01  0.40000000000E+01  0.51109989000E-03 0.  1.
     -623   -1    0    0    0    0  0.00000000000E+00  0.00000000000E+00  0.12525980253E-10  0.17130000000E+03  0.17130000000E+03 0. -1.
       11    1    1    2    0    0  0.11875763486E-01 -0.67147637420E-02  0.22923009661E+00  0.22963627811E+00  0.51109989000E-03 0.  1.
     -623    1    1    2    0    0 -0.26292369759E-03  0.56121105245E-02  0.17506668691E-02  0.17130000010E+03  0.17130000000E+03 0. -1.
      622    1    1    2    0    0 -0.11612839788E-01  0.11026532173E-02  0.37690192040E+01  0.37703636209E+01  0.10000000000E+00 0.  1.
</event>
<event>
 5   0  0.6262544E+06  0.9118800E+02  0.7818608E-02  0.1180000E+00
       11   -1    0    0    0    0  0.00000000000E+00  0.00000000000E+00  0.39999999673E+01  0.40000000000E+01  0.51109989000E-03 0. -1.
     -623   -1    0    0    0    0  0.00000000000E+00  0.00000000000E+00  0.12525980253E-10  0.17130000000E+03  0.17130000000E+03 0.  1.
       11    1    1    2    0    0 -0.16472152183E-01  0.17105584961E-01  0.85380699160E-01  0.88623122523E-01  0.51109989000E-03 0. -1.
     -623    1    1    2    0    0  0.16307538181E-01  0.14979399559E-01  0.46540619513E-02  0.17130000149E+03  0.17130000000E+03 0.  1.
      622    1    1    2    0    0  0.16461400217E-03 -0.32084984521E-01  0.39099652062E+01  0.39113753831E+01  0.10000000000E+00 0. -1.
</event>
<event>
 5   0  0.6262544E+06  0.9118800E+02  0.7818608E-02  0.1180000E+00
       11   -1    0    0    0    0  0.00000000000E+00  0.00000000000E+00  0.39999999673E+01  0.40000000000E+01  0.51109989000E-03 0.  1.
     -623   -1    0    0    0    0  0.00000000000E+00  0.00000000000E+00  0.12525980253E-10  0.17130000000E+03  0.17130000000E+03 0.  1.
       11    1    1    2    0    0 -0.93083443324E-02 -0.34684424529E-01  0.31168342317E+01  0.31170411521E+01  0.51109989000E-03 0.  1.
     -623    1    1    2    0    0 -0.29001859090E-02 -0.87660702429E-02  0.70500824540E-02  0.17130000039E+03  0.17130000000E+03 0.  1.
      622    1    1    2    0    0  0.12208530241E-01  0.43450494772E-01  0.87611565325E+00  0.88295845404E+00  0.10000000000E+00 0.  0.
</event>
<event>
 5   0  0.6262544E+06  0.9118800E+02  0.7818608E-02  0.1180000E+00
       11   -1    0    0    0    0  0.00000000000E+00  0.00000000000E+00  0.39999999673E+01  0.40000000000E+01  0.51109989000E-03 0.  1.
     -623   -1    0    0    0    0  0.00000000000E+00  0.00000000000E+00  0.12525980253E-10  0.17130000000E+03  0.17130000000E+03 0.  1.
       11    1    1    2    0    0  0.38740567644E-02  0.15158072462E-02  0.28986762791E-02  0.50960312685E-02  0.51109989000E-03 0.  1.
     -623    1    1    2    0    0 -0.18540764310E-03  0.81023307093E-02  0.34626252420E-02  0.17130000023E+03  0.17130000000E+03 0.  1.
      622    1    1    2    0    0 -0.36886491213E-02 -0.96181379556E-02  0.39936386659E+01  0.39949037421E+01  0.10000000000E+00 0.  1.
</event>
<event>
 5   0  0.6262544E+06  0.9118800E+02  0.7818608E-02  0.1180000E+00
       11   -1    0    0    0    0  0.00000000000E+00  0.00000000000E+00  0.39999999673E+01  0.40000000000E+01  0.51109989000E-03 0. -1.
     -623   -1    0    0    0    0  0.00000000000E+00  0.00000000000E+00  0.12525980253E-10  0.17130000000E+03  0.17130000000E+03 0. -1.
       11    1    1    2    0    0  0.83497049473E-03  0.70536845202E-03  0.34461642743E-02  0.36512999991E-02  0.51109989000E-03 0. -1.
     -623    1    1    2    0    0  0.70976093264E-03  0.42091231735E-03  0.14569066523E-02  0.17130000001E+03  0.17130000000E+03 0. -1.
      622    1    1    2    0    0 -0.15447314274E-02 -0.11262807694E-02  0.39950968964E+01  0.39963486918E+01  0.10000000000E+00 0. -1.
</event>
<event>
 5   0  0.6262544E+06  0.9118800E+02  0.7818608E-02  0.1180000E+00
       11   -1    0    0    0    0  0.00000000000E+00  0.00000000000E+00  0.39999999673E+01  0.40000000000E+01  0.51109989000E-03 0.  1.
     -623   -1    0    0    0    0  0.00000000000E+00  0.00000000000E+00  0.12525980253E-10  0.17130000000E+03  0.17130000000E+03 0. -1.
       11    1    1    2    0    0  0.19484214134E-01 -0.20405846567E-01  0.41253917162E+00  0.41350315902E+00  0.51109989000E-03 0.  1.
     -623    1    1    2    0    0 -0.29597150337E-01  0.10379201499E-01  0.23895175535E-02  0.17130000289E+03  0.17130000000E+03 0. -1.
      622    1    1    2    0    0  0.10112936201E-01  0.10026645069E-01  0.35850712780E+01  0.35864939528E+01  0.10000000000E+00 0.  1.
</event>
<event>
 5   0  0.6262544E+06  0.9118800E+02  0.7818608E-02  0.1180000E+00
       11   -1    0    0    0    0  0.00000000000E+00  0.00000000000E+00  0.39999999673E+01  0.40000000000E+01  0.51109989000E-03 0. -1.
     -623   -1    0    0    0    0  0.00000000000E+00  0.00000000000E+00  0.12525980253E-10  0.17130000000E+03  0.17130000000E+03 0.  1.
       11    1    1    2    0    0  0.15995155805E-01 -0.48108155446E-02  0.80085401605E-01  0.81810278863E-01  0.51109989000E-03 0. -1.
     -623    1    1    2    0    0 -0.22057730933E-02 -0.95942771504E-02  0.30522236258E-02  0.17130000031E+03  0.17130000000E+03 0.  1.
      622    1    1    2    0    0 -0.13789382712E-01  0.14405092695E-01  0.39168623421E+01  0.39181894111E+01  0.10000000000E+00 0. -1.
</event>
<event>
 5   0  0.6262544E+06  0.9118800E+02  0.7818608E-02  0.1180000E+00
       11   -1    0    0    0    0  0.00000000000E+00  0.00000000000E+00  0.39999999673E+01  0.40000000000E+01  0.51109989000E-03 0.  1.
     -623   -1    0    0    0    0  0.00000000000E+00  0.00000000000E+00  0.12525980253E-10  0.17130000000E+03  0.17130000000E+03 0. -1.
       11    1    1    2    0    0  0.64261102248E-01  0.11786274278E-01  0.67258980582E+00  0.67575566120E+00  0.51109989000E-03 0.  1.
     -623    1    1    2    0    0 -0.46793580529E-02  0.81963769074E-02  0.52649409130E-02  0.17130000034E+03  0.17130000000E+03 0. -1.
      622    1    1    2    0    0 -0.59581744195E-01 -0.19982651186E-01  0.33221452206E+01  0.33242439979E+01  0.10000000000E+00 0.  1.
</event>
<event>
 5   0  0.6262544E+06  0.9118800E+02  0.7818608E-02  0.1180000E+00
       11   -1    0    0    0    0  0.00000000000E+00  0.00000000000E+00  0.39999999673E+01  0.40000000000E+01  0.51109989000E-03 0.  1.
     -623   -1    0    0    0    0  0.00000000000E+00  0.00000000000E+00  0.12525980253E-10  0.17130000000E+03  0.17130000000E+03 0. -1.
       11    1    1    2    0    0  0.71763875683E-02  0.42367894317E-02  0.12348464417E+01  0.12348746684E+01  0.51109989000E-03 0.  1.
     -623    1    1    2    0    0  0.64130272971E-03 -0.36564743394E-02  0.18481917050E-02  0.17130000005E+03  0.17130000000E+03 0. -1.
      622    1    1    2    0    0 -0.78176902980E-02 -0.58031509228E-03  0.27633053340E+01  0.27651252814E+01  0.10000000000E+00 0.  1.
</event>
<event>
 5   0  0.6262544E+06  0.9118800E+02  0.7818608E-02  0.1180000E+00
       11   -1    0    0    0    0  0.00000000000E+00  0.00000000000E+00  0.39999999673E+01  0.40000000000E+01  0.51109989000E-03 0.  1.
     -623   -1    0    0    0    0  0.00000000000E+00  0.00000000000E+00  0.12525980253E-10  0.17130000000E+03  0.17130000000E+03 0. -1.
       11    1    1    2    0    0  0.98561506456E-02 -0.27734061336E-02  0.21239726639E-01  0.23584373974E-01  0.51109989000E-03 0.  1.
     -623    1    1    2    0    0 -0.65288801613E-02 -0.23860817331E-02  0.36071472951E-02  0.17130000018E+03  0.17130000000E+03 0. -1.
      622    1    1    2    0    0 -0.33272704844E-02  0.51594878668E-02  0.39751530934E+01  0.39764154470E+01  0.10000000000E+00 0.  1.
</event>
<event>
 5   0  0.6262544E+06  0.9118800E+02  0.7818608E-02  0.1180000E+00
       11   -1    0    0    0    0  0.00000000000E+00  0.00000000000E+00  0.39999999673E+01  0.40000000000E+01  0.51109989000E-03 0. -1.
     -623   -1    0    0    0    0  0.00000000000E+00  0.00000000000E+00  0.12525980253E-10  0.17130000000E+03  0.17130000000E+03 0.  1.
       11    1    1    2    0    0  0.15041081084E-02 -0.18461462058E-02  0.49777037807E-02  0.55416022088E-02  0.51109989000E-03 0. -1.
     -623    1    1    2    0    0 -0.19621938622E-02  0.12023171089E-02  0.18158993970E-02  0.17130000003E+03  0.17130000000E+03 0.  1.
      622    1    1    2    0    0  0.45808575386E-03  0.64382909680E-03  0.39932063644E+01  0.39944583729E+01  0.10000000000E+00 0. -1.
</event>
<event>
 5   0  0.6262544E+06  0.9118800E+02  0.7818608E-02  0.1180000E+00
       11   -1    0    0    0    0  0.00000000000E+00  0.00000000000E+00  0.39999999673E+01  0.40000000000E+01  0.51109989000E-03 0.  1.
     -623   -1    0    0    0    0  0.00000000000E+00  0.00000000000E+00  0.12525980253E-10  0.17130000000E+03  0.17130000000E+03 0.  1.
       11    1    1    2    0    0  0.93384252064E-02 -0.35013308777E-01  0.11927434653E+01  0.11932939173E+01  0.51109989000E-03 0.  1.
     -623    1    1    2    0    0 -0.32182298547E-01 -0.27410056898E-02  0.26826319653E-02  0.17130000307E+03  0.17130000000E+03 0.  1.
      622    1    1    2    0    0  0.22843873341E-01  0.37754314467E-01  0.28045738701E+01  0.28067030167E+01  0.10000000000E+00 0.  1.
</event>
<event>
 5   0  0.6262544E+06  0.9118800E+02  0.7818608E-02  0.1180000E+00
       11   -1    0    0    0    0  0.00000000000E+00  0.00000000000E+00  0.39999999673E+01  0.40000000000E+01  0.51109989000E-03 0.  1.
     -623   -1    0    0    0    0  0.00000000000E+00  0.00000000000E+00  0.12525980253E-10  0.17130000000E+03  0.17130000000E+03 0.  1.
       11    1    1    2    0    0 -0.60253781408E-03 -0.16324354258E-02  0.50370628137E-03  0.18822429691E-02  0.51109989000E-03 0.  1.
     -623    1    1    2    0    0 -0.25761540622E-02  0.58946792896E-02  0.26329658700E-02  0.17130000014E+03  0.17130000000E+03 0.  1.
      622    1    1    2    0    0  0.31786918763E-02 -0.42622438639E-02  0.39968632952E+01  0.39981176160E+01  0.10000000000E+00 0.  1.
</event>
<event>
 5   0  0.6262544E+06  0.9118800E+02  0.7818608E-02  0.1180000E+00
       11   -1    0    0    0    0  0.00000000000E+00  0.00000000000E+00  0.39999999673E+01  0.40000000000E+01  0.51109989000E-03 0. -1.
     -623   -1    0    0    0    0  0.00000000000E+00  0.00000000000E+00  0.12525980253E-10  0.17130000000E+03  0.17130000000E+03 0.  1.
       11    1    1    2    0    0  0.32937093854E-01 -0.14963696513E-01  0.10912209232E+01  0.10918205571E+01  0.51109989000E-03 0. -1.
     -623    1    1    2    0    0 -0.37477468928E-02  0.60438805429E-02  0.24798289635E-02  0.17130000017E+03  0.17130000000E+03 0.  1.
      622    1    1    2    0    0 -0.29189346961E-01  0.89198159700E-02  0.29062992152E+01  0.29081792774E+01  0.10000000000E+00 0. -1.
</event>
<event>
 5   0  0.6262544E+06  0.9118800E+02  0.7818608E-02  0.1180000E+00
       11   -1    0    0    0    0  0.00000000000E+00  0.00000000000E+00  0.39999999673E+01  0.40000000000E+01  0.51109989000E-03 0.  1.
     -623   -1    0    0    0    0  0.00000000000E+00  0.00000000000E+00  0.12525980253E-10  0.17130000000E+03  0.17130000000E+03 0. -1.
       11    1    1    2    0    0 -0.21035052826E-01  0.16754095037E-01  0.12705375724E+01  0.12708222366E+01  0.51109989000E-03 0.  1.
     -623    1    1    2    0    0  0.33557042721E-01  0.17292323932E-01  0.23627431176E-02  0.17130000418E+03  0.17130000000E+03 0. -1.
      622    1    1    2    0    0 -0.12521989895E-01 -0.34046418970E-01  0.27270996519E+01  0.27291735874E+01  0.10000000000E+00 0.  1.
</event>
<event>
 5   0  0.6262544E+06  0.9118800E+02  0.7818608E-02  0.1180000E+00
       11   -1    0    0    0    0  0.00000000000E+00  0.00000000000E+00  0.39999999673E+01  0.40000000000E+01  0.51109989000E-03 0.  1.
     -623   -1    0    0    0    0  0.00000000000E+00  0.00000000000E+00  0.12525980253E-10  0.17130000000E+03  0.17130000000E+03 0.  1.
       11    1    1    2    0    0  0.43971847643E-01 -0.45621129590E-01  0.51786801014E+00  0.52173014864E+00  0.51109989000E-03 0.  1.
     -623    1    1    2    0    0  0.17452984946E-01 -0.46260862613E-02  0.62067617838E-02  0.17130000106E+03  0.17130000000E+03 0.  1.
      622    1    1    2    0    0 -0.61424832588E-01  0.50247215851E-01  0.34759251954E+01  0.34782687874E+01  0.10000000000E+00 0.  1.
</event>
<event>
 5   0  0.6262544E+06  0.9118800E+02  0.7818608E-02  0.1180000E+00
       11   -1    0    0    0    0  0.00000000000E+00  0.00000000000E+00  0.39999999673E+01  0.40000000000E+01  0.51109989000E-03 0.  1.
     -623   -1    0    0    0    0  0.00000000000E+00  0.00000000000E+00  0.12525980253E-10  0.17130000000E+03  0.17130000000E+03 0.  1.
       11    1    1    2    0    0 -0.15007718317E-01  0.37264206470E-01  0.52634608952E+00  0.52787718256E+00  0.51109989000E-03 0.  1.
     -623    1    1    2    0    0  0.20644173608E-01 -0.21231292150E-01  0.30155970654E-02  0.17130000259E+03  0.17130000000E+03 0.  1.
      622    1    1    2    0    0 -0.56364552926E-02 -0.16032914319E-01  0.34706382809E+01  0.34721202314E+01  0.10000000000E+00 0.  1.
</event>
<event>
 5   0  0.6262544E+06  0.9118800E+02  0.7818608E-02  0.1180000E+00
       11   -1    0    0    0    0  0.00000000000E+00  0.00000000000E+00  0.39999999673E+01  0.40000000000E+01  0.51109989000E-03 0.  1.
     -623   -1    0    0    0    0  0.00000000000E+00  0.00000000000E+00  0.12525980253E-10  0.17130000000E+03  0.17130000000E+03 0. -1.
       11    1    1    2    0    0 -0.13925619724E-01  0.12358661375E-01  0.46471696884E-01  0.50065349576E-01  0.51109989000E-03 0.  1.
     -623    1    1    2    0    0 -0.42853872995E-02 -0.56958557101E-02  0.49075008924E-02  0.17130000022E+03  0.17130000000E+03 0. -1.
      622    1    1    2    0    0  0.18211007023E-01 -0.66628056647E-02  0.39486207696E+01  0.39499344318E+01  0.10000000000E+00 0.  1.
</event>
<event>
 5   0  0.6262544E+06  0.9118800E+02  0.7818608E-02  0.1180000E+00
       11   -1    0    0    0    0  0.00000000000E+00  0.00000000000E+00  0.39999999673E+01  0.40000000000E+01  0.51109989000E-03 0. -1.
     -623   -1    0    0    0    0  0.00000000000E+00  0.00000000000E+00  0.12525980253E-10  0.17130000000E+03  0.17130000000E+03 0.  1.
       11    1    1    2    0    0 -0.50050334031E-01 -0.39158828748E-01  0.99453509454E+00  0.99656347781E+00  0.51109989000E-03 0. -1.
     -623    1    1    2    0    0  0.10101355843E+00  0.52202695681E-01  0.41923828294E-02  0.17130003779E+03  0.17130000000E+03 0.  1.
      622    1    1    2    0    0 -0.50963224397E-01 -0.13043866933E-01  0.30012724900E+01  0.30033987334E+01  0.10000000000E+00 0.  1.
</event>
<event>
 5   0  0.6262544E+06  0.9118800E+02  0.7818608E-02  0.1180000E+00
       11   -1    0    0    0    0  0.00000000000E+00  0.00000000000E+00  0.39999999673E+01  0.40000000000E+01  0.51109989000E-03 0. -1.
     -623   -1    0    0    0    0  0.00000000000E+00  0.00000000000E+00  0.12525980253E-10  0.17130000000E+03  0.17130000000E+03 0. -1.
       11    1    1    2    0    0  0.19397389048E-01  0.70167916154E-02  0.25165771605E+00  0.25250220065E+00  0.51109989000E-03 0. -1.
     -623    1    1    2    0    0  0.20374166216E-02 -0.32965555959E-02  0.22421423256E-02  0.17130000006E+03  0.17130000000E+03 0. -1.
      622    1    1    2    0    0 -0.21434805670E-01 -0.37202360195E-02  0.37461001090E+01  0.37474977408E+01  0.10000000000E+00 0. -1.
</event>
<event>
 5   0  0.6262544E+06  0.9118800E+02  0.7818608E-02  0.1180000E+00
       11   -1    0    0    0    0  0.00000000000E+00  0.00000000000E+00  0.39999999673E+01  0.40000000000E+01  0.51109989000E-03 0.  1.
     -623   -1    0    0    0    0  0.00000000000E+00  0.00000000000E+00  0.12525980253E-10  0.17130000000E+03  0.17130000000E+03 0. -1.
       11    1    1    2    0    0  0.16547419623E-01  0.42089150709E-02  0.56964520937E+00  0.56990127025E+00  0.51109989000E-03 0.  1.
     -623    1    1    2    0    0 -0.11659533376E-01  0.98669603649E-02  0.17470899514E-02  0.17130000069E+03  0.17130000000E+03 0. -1.
      622    1    1    2    0    0 -0.48878862472E-02 -0.14075875436E-01  0.34286076682E+01  0.34300980400E+01  0.10000000000E+00 0.  1.
</event>
<event>
 5   0  0.6262544E+06  0.9118800E+02  0.7818608E-02  0.1180000E+00
       11   -1    0    0    0    0  0.00000000000E+00  0.00000000000E+00  0.39999999673E+01  0.40000000000E+01  0.51109989000E-03 0. -1.
     -623   -1    0    0    0    0  0.00000000000E+00  0.00000000000E+00  0.12525980253E-10  0.17130000000E+03  0.17130000000E+03 0.  1.
       11    1    1    2    0    0 -0.59843832621E-01 -0.36152226536E-01  0.15528381868E+01  0.15544114525E+01  0.51109989000E-03 0. -1.
     -623    1    1    2    0    0 -0.45982579946E-02 -0.16073867639E-01  0.50277455943E-02  0.17130000089E+03  0.17130000000E+03 0.  1.
      622    1    1    2    0    0  0.64442090616E-01  0.52226094175E-01  0.24421340349E+01  0.24455876579E+01  0.10000000000E+00 0. -1.
</event>
<event>
 5   0  0.6262544E+06  0.9118800E+02  0.7818608E-02  0.1180000E+00
       11   -1    0    0    0    0  0.00000000000E+00  0.00000000000E+00  0.39999999673E+01  0.40000000000E+01  0.51109989000E-03 0.  1.
     -623   -1    0    0    0    0  0.00000000000E+00  0.00000000000E+00  0.12525980253E-10  0.17130000000E+03  0.17130000000E+03 0. -1.
       11    1    1    2    0    0 -0.27695443072E-02  0.86941894421E-02  0.11012135696E+00  0.11049992664E+00  0.51109989000E-03 0.  1.
     -623    1    1    2    0    0  0.73117270190E-02 -0.36170838722E-02  0.16704320743E-02  0.17130000020E+03  0.17130000000E+03 0. -1.
      622    1    1    2    0    0 -0.45421827117E-02 -0.50771055699E-02  0.38882081783E+01  0.38894998710E+01  0.10000000000E+00 0.  1.
</event>
<event>
 5   0  0.6262544E+06  0.9118800E+02  0.7818608E-02  0.1180000E+00
       11   -1    0    0    0    0  0.00000000000E+00  0.00000000000E+00  0.39999999673E+01  0.40000000000E+01  0.51109989000E-03 0. -1.
     -623   -1    0    0    0    0  0.00000000000E+00  0.00000000000E+00  0.12525980253E-10  0.17130000000E+03  0.17130000000E+03 0.  1.
       11    1    1    2    0    0 -0.11860778389E-01 -0.29221405411E-01  0.49109304414E-01  0.58365688562E-01  0.51109989000E-03 0. -1.
     -623    1    1    2    0    0 -0.33863593347E-02  0.32803247557E-02  0.10640351909E-01  0.17130000040E+03  0.17130000000E+03 0.  1.
      622    1    1    2    0    0  0.15247137723E-01  0.25941080655E-01  0.39402503110E+01  0.39416339161E+01  0.10000000000E+00 0. -1.
</event>
<event>
 5   0  0.6262544E+06  0.9118800E+02  0.7818608E-02  0.1180000E+00
       11   -1    0    0    0    0  0.00000000000E+00  0.00000000000E+00  0.39999999673E+01  0.40000000000E+01  0.51109989000E-03 0. -1.
     -623   -1    0    0    0    0  0.00000000000E+00  0.00000000000E+00  0.12525980253E-10  0.17130000000E+03  0.17130000000E+03 0. -1.
       11    1    1    2    0    0  0.33961199594E-01  0.15600718156E-01  0.58896664759E-01  0.69755457321E-01  0.51109989000E-03 0. -1.
     -623    1    1    2    0    0 -0.15708317743E-01 -0.19847105550E-01  0.12178148821E-01  0.17130000230E+03  0.17130000000E+03 0. -1.
      622    1    1    2    0    0 -0.18252881851E-01  0.42463873941E-02  0.39289251538E+01  0.39302422398E+01  0.10000000000E+00 0. -1.
</event>
<event>
 5   0  0.6262544E+06  0.9118800E+02  0.7818608E-02  0.1180000E+00
       11   -1    0    0    0    0  0.00000000000E+00  0.00000000000E+00  0.39999999673E+01  0.40000000000E+01  0.51109989000E-03 0. -1.
     -623   -1    0    0    0    0  0.00000000000E+00  0.00000000000E+00  0.12525980253E-10  0.17130000000E+03  0.17130000000E+03 0.  1.
       11    1    1    2    0    0  0.86170099358E-02  0.44007595899E-02  0.21081598461E+00  0.21103852761E+00  0.51109989000E-03 0. -1.
     -623    1    1    2    0    0 -0.13735828408E-01 -0.66203987874E-02  0.15471582218E-02  0.17130000069E+03  0.17130000000E+03 0.  1.
      622    1    1    2    0    0  0.51188184710E-02  0.22196391971E-02  0.37876368243E+01  0.37889607865E+01  0.10000000000E+00 0. -1.
</event>
<event>
 5   0  0.6262544E+06  0.9118800E+02  0.7818608E-02  0.1180000E+00
       11   -1    0    0    0    0  0.00000000000E+00  0.00000000000E+00  0.39999999673E+01  0.40000000000E+01  0.51109989000E-03 0. -1.
     -623   -1    0    0    0    0  0.00000000000E+00  0.00000000000E+00  0.12525980253E-10  0.17130000000E+03  0.17130000000E+03 0.  1.
       11    1    1    2    0    0 -0.21198716911E-01 -0.13826857970E-01  0.25107475265E+00  0.25234769712E+00  0.51109989000E-03 0. -1.
     -623    1    1    2    0    0 -0.29138203883E-02  0.22818331362E-02  0.27027677966E-02  0.17130000006E+03  0.17130000000E+03 0.  1.
      622    1    1    2    0    0  0.24112537300E-01  0.11545024834E-01  0.37462224469E+01  0.37476522416E+01  0.10000000000E+00 0. -1.
</event>
<event>
 5   0  0.6262544E+06  0.9118800E+02  0.7818608E-02  0.1180000E+00
       11   -1    0    0    0    0  0.00000000000E+00  0.00000000000E+00  0.39999999673E+01  0.40000000000E+01  0.51109989000E-03 0.  1.
     -623   -1    0    0    0    0  0.00000000000E+00  0.00000000000E+00  0.12525980253E-10  0.17130000000E+03  0.17130000000E+03 0. -1.
       11    1    1    2    0    0 -0.68667466354E-02 -0.16595378112E-01  0.28526489578E+00  0.28583016071E+00  0.51109989000E-03 0.  1.
     -623    1    1    2    0    0  0.11260356837E-01  0.86553288155E-02  0.19233616820E-02  0.17130000060E+03  0.17130000000E+03 0. -1.
      622    1    1    2    0    0 -0.43936102026E-02  0.79400492962E-02  0.37128117101E+01  0.37141692399E+01  0.10000000000E+00 0.  1.
</event>
<event>
 5   0  0.6262544E+06  0.9118800E+02  0.7818608E-02  0.1180000E+00
       11   -1    0    0    0    0  0.00000000000E+00  0.00000000000E+00  0.39999999673E+01  0.40000000000E+01  0.51109989000E-03 0.  1.
     -623   -1    0    0    0    0  0.00000000000E+00  0.00000000000E+00  0.12525980253E-10  0.17130000000E+03  0.17130000000E+03 0. -1.
       11    1    1    2    0    0  0.75206311279E-02 -0.27692725787E-01  0.14393518704E+00  0.14676868278E+00  0.51109989000E-03 0.  1.
     -623    1    1    2    0    0 -0.18143583021E-01 -0.42095174705E-02  0.42791205937E-02  0.17130000107E+03  0.17130000000E+03 0. -1.
      622    1    1    2    0    0  0.10622951893E-01  0.31902243258E-01  0.38517856597E+01  0.38532302512E+01  0.10000000000E+00 0.  1.
</event>
<event>
 5   0  0.6262544E+06  0.9118800E+02  0.7818608E-02  0.1180000E+00
       11   -1    0    0    0    0  0.00000000000E+00  0.00000000000E+00  0.39999999673E+01  0.40000000000E+01  0.51109989000E-03 0.  1.
     -623   -1    0    0    0    0  0.00000000000E+00  0.00000000000E+00  0.12525980253E-10  0.17130000000E+03  0.17130000000E+03 0.  1.
       11    1    1    2    0    0 -0.90707484576E-02 -0.10420329255E-01  0.43979056672E-01  0.46100763423E-01  0.51109989000E-03 0.  1.
     -623    1    1    2    0    0 -0.16320061828E-01  0.21161316735E-01  0.34847189567E-02  0.17130000212E+03  0.17130000000E+03 0.  1.
      622    1    1    2    0    0  0.25390810286E-01 -0.10740987480E-01  0.39525361918E+01  0.39538971167E+01  0.10000000000E+00 0.  1.
</event>
<event>
 5   0  0.6262544E+06  0.9118800E+02  0.7818608E-02  0.1180000E+00
       11   -1    0    0    0    0  0.00000000000E+00  0.00000000000E+00  0.39999999673E+01  0.40000000000E+01  0.51109989000E-03 0.  1.
     -623   -1    0    0    0    0  0.00000000000E+00  0.00000000000E+00  0.12525980253E-10  0.17130000000E+03  0.17130000000E+03 0.  1.
       11    1    1    2    0    0  0.35536637878E-02 -0.46620646688E-02  0.32951568201E-01  0.33472831420E-01  0.51109989000E-03 0.  1.
     -623    1    1    2    0    0 -0.35576403080E-03  0.65763338252E-03  0.17853019230E-02  0.17130000001E+03  0.17130000000E+03 0.  1.
      622    1    1    2    0    0 -0.31978997570E-02  0.40044312862E-02  0.39652630974E+01  0.39665271578E+01  0.10000000000E+00 0.  1.
</event>
<event>
 5   0  0.6262544E+06  0.9118800E+02  0.7818608E-02  0.1180000E+00
       11   -1    0    0    0    0  0.00000000000E+00  0.00000000000E+00  0.39999999673E+01  0.40000000000E+01  0.51109989000E-03 0. -1.
     -623   -1    0    0    0    0  0.00000000000E+00  0.00000000000E+00  0.12525980253E-10  0.17130000000E+03  0.17130000000E+03 0.  1.
       11    1    1    2    0    0 -0.38828548019E-02 -0.19386623327E-02  0.43864585603E-02  0.61917053266E-02  0.51109989000E-03 0. -1.
     -623    1    1    2    0    0 -0.64059571097E-02  0.18976245787E-01  0.31081577521E-02  0.17130000120E+03  0.17130000000E+03 0.  1.
      622    1    1    2    0    0  0.10288811911E-01 -0.17037583454E-01  0.39925053509E+01  0.39938070955E+01  0.10000000000E+00 0. -1.
</event>
<event>
 5   0  0.6262544E+06  0.9118800E+02  0.7818608E-02  0.1180000E+00
       11   -1    0    0    0    0  0.00000000000E+00  0.00000000000E+00  0.39999999673E+01  0.40000000000E+01  0.51109989000E-03 0.  1.
     -623   -1    0    0    0    0  0.00000000000E+00  0.00000000000E+00  0.12525980253E-10  0.17130000000E+03  0.17130000000E+03 0. -1.
       11    1    1    2    0    0  0.14952939998E-01 -0.93894294992E-02  0.17001323537E+01  0.17002241126E+01  0.51109989000E-03 0.  1.
     -623    1    1    2    0    0  0.41992336941E-03  0.25660687410E-02  0.23284767885E-02  0.17130000004E+03  0.17130000000E+03 0. -1.
      622    1    1    2    0    0 -0.15372863367E-01  0.68233607583E-02  0.22975391369E+01  0.22997758518E+01  0.10000000000E+00 0.  1.
</event>
<event>
 5   0  0.6262544E+06  0.9118800E+02  0.7818608E-02  0.1180000E+00
       11   -1    0    0    0    0  0.00000000000E+00  0.00000000000E+00  0.39999999673E+01  0.40000000000E+01  0.51109989000E-03 0. -1.
     -623   -1    0    0    0    0  0.00000000000E+00  0.00000000000E+00  0.12525980253E-10  0.17130000000E+03  0.17130000000E+03 0.  1.
       11    1    1    2    0    0 -0.71558011185E-02  0.34698500619E-01  0.16322901449E+00  0.16703042786E+00  0.51109989000E-03 0. -1.
     -623    1    1    2    0    0  0.18801806761E-01  0.45567974728E-03  0.52861551401E-02  0.17130000111E+03  0.17130000000E+03 0.  1.
      622    1    1    2    0    0 -0.11646005643E-01 -0.35154180367E-01  0.38314847978E+01  0.38329684582E+01  0.10000000000E+00 0. -1.
</event>
<event>
 5   0  0.6262544E+06  0.9118800E+02  0.7818608E-02  0.1180000E+00
       11   -1    0    0    0    0  0.00000000000E+00  0.00000000000E+00  0.39999999673E+01  0.40000000000E+01  0.51109989000E-03 0. -1.
     -623   -1    0    0    0    0  0.00000000000E+00  0.00000000000E+00  0.12525980253E-10  0.17130000000E+03  0.17130000000E+03 0.  1.
       11    1    1    2    0    0  0.37798792878E-01 -0.34616546997E-02  0.25978475420E+00  0.26254354217E+00  0.51109989000E-03 0. -1.
     -623    1    1    2    0    0 -0.27037425174E-01 -0.15848991780E-01  0.41651255033E-02  0.17130000292E+03  0.17130000000E+03 0.  1.
      622    1    1    2    0    0 -0.10761367704E-01  0.19310646481E-01  0.37360500877E+01  0.37374535403E+01  0.10000000000E+00 0. -1.
</event>
<event>
 5   0  0.6262544E+06  0.9118800E+02  0.7818608E-02  0.1180000E+00
       11   -1    0    0    0    0  0.00000000000E+00  0.00000000000E+00  0.39999999673E+01  0.40000000000E+01  0.51109989000E-03 0. -1.
     -623   -1    0    0    0    0  0.00000000000E+00  0.00000000000E+00  0.12525980253E-10  0.17130000000E+03  0.17130000000E+03 0. -1.
       11    1    1    2    0    0  0.57342655247E-02 -0.39254209727E-02  0.14552893257E-01  0.16135013361E-01  0.51109989000E-03 0. -1.
     -623    1    1    2    0    0 -0.48955324428E-02  0.26048335258E-02  0.28377683985E-02  0.17130000011E+03  0.17130000000E+03 0. -1.
      622    1    1    2    0    0 -0.83873308186E-03  0.13205874469E-02  0.39826093058E+01  0.39838648734E+01  0.10000000000E+00 0. -1.
</event>
<event>
 5   0  0.6262544E+06  0.9118800E+02  0.7818608E-02  0.1180000E+00
       11   -1    0    0    0    0  0.00000000000E+00  0.00000000000E+00  0.39999999673E+01  0.40000000000E+01  0.51109989000E-03 0. -1.
     -623   -1    0    0    0    0  0.00000000000E+00  0.00000000000E+00  0.12525980253E-10  0.17130000000E+03  0.17130000000E+03 0. -1.
       11    1    1    2    0    0  0.26617910032E-01  0.42176724648E-02  0.84395009457E+00  0.84438043869E+00  0.51109989000E-03 0. -1.
     -623    1    1    2    0    0  0.30683457599E-02 -0.29101406454E-02  0.21552300845E-02  0.17130000007E+03  0.17130000000E+03 0. -1.
      622    1    1    2    0    0 -0.29686255792E-01 -0.13075318194E-02  0.31538946427E+01  0.31556194956E+01  0.10000000000E+00 0.  1.
</event>
<event>
 5   0  0.6262544E+06  0.9118800E+02  0.7818608E-02  0.1180000E+00
       11   -1    0    0    0    0  0.00000000000E+00  0.00000000000E+00  0.39999999673E+01  0.40000000000E+01  0.51109989000E-03 0. -1.
     -623   -1    0    0    0    0  0.00000000000E+00  0.00000000000E+00  0.12525980253E-10  0.17130000000E+03  0.17130000000E+03 0.  1.
       11    1    1    2    0    0 -0.34258322779E-02 -0.25051196905E-02 -0.14833991185E-03  0.42772864397E-02  0.51109989000E-03 0. -1.
     -623    1    1    2    0    0 -0.31044804460E-02  0.18618601225E-01  0.57161021308E-02  0.17130000114E+03  0.17130000000E+03 0.  1.
      622    1    1    2    0    0  0.65303127239E-02 -0.16113481534E-01  0.39944322051E+01  0.39957215782E+01  0.10000000000E+00 0. -1.
</event>
<event>
 5   0  0.6262544E+06  0.9118800E+02  0.7818608E-02  0.1180000E+00
       11   -1    0    0    0    0  0.00000000000E+00  0.00000000000E+00  0.39999999673E+01  0.40000000000E+01  0.51109989000E-03 0. -1.
     -623   -1    0    0    0    0  0.00000000000E+00  0.00000000000E+00  0.12525980253E-10  0.17130000000E+03  0.17130000000E+03 0.  1.
       11    1    1    2    0    0 -0.30421433203E-01 -0.26986406553E-01  0.23482016480E+01  0.23485538041E+01  0.51109989000E-03 0. -1.
     -623    1    1    2    0    0  0.16017270759E-01  0.36429124371E-01  0.34772009510E-02  0.17130000466E+03  0.17130000000E+03 0.  1.
      622    1    1    2    0    0  0.14404162444E-01 -0.94427178177E-02  0.16483211184E+01  0.16514415382E+01  0.10000000000E+00 0.  1.
</event>
<event>
 5   0  0.6262544E+06  0.9118800E+02  0.7818608E-02  0.1180000E+00
       11   -1    0    0    0    0  0.00000000000E+00  0.00000000000E+00  0.39999999673E+01  0.40000000000E+01  0.51109989000E-03 0. -1.
     -623   -1    0    0    0    0  0.00000000000E+00  0.00000000000E+00  0.12525980253E-10  0.17130000000E+03  0.17130000000E+03 0.  1.
       11    1    1    2    0    0 -0.25876733825E-02 -0.55887645458E-02  0.33622500190E-01  0.34185729239E-01  0.51109989000E-03 0. -1.
     -623    1    1    2    0    0  0.30371741568E-02 -0.12651942740E-02  0.18301634787E-02  0.17130000004E+03  0.17130000000E+03 0.  1.
      622    1    1    2    0    0 -0.44950077423E-03  0.68539588197E-02  0.39645473037E+01  0.39658142294E+01  0.10000000000E+00 0. -1.
</event>
<event>
 5   0  0.6262544E+06  0.9118800E+02  0.7818608E-02  0.1180000E+00
       11   -1    0    0    0    0  0.00000000000E+00  0.00000000000E+00  0.39999999673E+01  0.40000000000E+01  0.51109989000E-03 0.  1.
     -623   -1    0    0    0    0  0.00000000000E+00  0.00000000000E+00  0.12525980253E-10  0.17130000000E+03  0.17130000000E+03 0.  1.
       11    1    1    2    0    0  0.81118829774E-02 -0.12151656323E-01  0.12311366730E+00  0.12397863402E+00  0.51109989000E-03 0.  1.
     -623    1    1    2    0    0  0.46202871092E-02  0.82191344882E-02  0.21783190979E-02  0.17130000027E+03  0.17130000000E+03 0.  1.
      622    1    1    2    0    0 -0.12732170087E-01  0.39325218353E-02  0.38747079810E+01  0.38760210926E+01  0.10000000000E+00 0.  1.
</event>
<event>
 5   0  0.6262544E+06  0.9118800E+02  0.7818608E-02  0.1180000E+00
       11   -1    0    0    0    0  0.00000000000E+00  0.00000000000E+00  0.39999999673E+01  0.40000000000E+01  0.51109989000E-03 0. -1.
     -623   -1    0    0    0    0  0.00000000000E+00  0.00000000000E+00  0.12525980253E-10  0.17130000000E+03  0.17130000000E+03 0.  1.
       11    1    1    2    0    0 -0.12466659171E-01 -0.68282265716E-04  0.32693003205E-01  0.34993084102E-01  0.51109989000E-03 0. -1.
     -623    1    1    2    0    0  0.35472264400E-02  0.32614274401E-02  0.35727074530E-02  0.17130000011E+03  0.17130000000E+03 0.  1.
      622    1    1    2    0    0  0.89194327311E-02 -0.31931451744E-02  0.39637342567E+01  0.39650068108E+01  0.10000000000E+00 0. -1.
</event>
<event>
 5   0  0.6262544E+06  0.9118800E+02  0.7818608E-02  0.1180000E+00
       11   -1    0    0    0    0  0.00000000000E+00  0.00000000000E+00  0.39999999673E+01  0.40000000000E+01  0.51109989000E-03 0.  1.
     -623   -1    0    0    0    0  0.00000000000E+00  0.00000000000E+00  0.12525980253E-10  0.17130000000E+03  0.17130000000E+03 0. -1.
       11    1    1    2    0    0 -0.66466942945E-03 -0.40082596638E-02  0.15593916801E-01  0.16122636114E-01  0.51109989000E-03 0.  1.
     -623    1    1    2    0    0 -0.13283389246E-02  0.27297402197E-02  0.17846832458E-02  0.17130000004E+03  0.17130000000E+03 0. -1.
      622    1    1    2    0    0  0.19930083541E-02  0.12785194440E-02  0.39826213675E+01  0.39838773279E+01  0.10000000000E+00 0.  1.
</event>
<event>
 5   0  0.6262544E+06  0.9118800E+02  0.7818608E-02  0.1180000E+00
       11   -1    0    0    0    0  0.00000000000E+00  0.00000000000E+00  0.39999999673E+01  0.40000000000E+01  0.51109989000E-03 0.  1.
     -623   -1    0    0    0    0  0.00000000000E+00  0.00000000000E+00  0.12525980253E-10  0.17130000000E+03  0.17130000000E+03 0. -1.
       11    1    1    2    0    0  0.18445729307E-01 -0.48113145248E-01  0.41949567488E+00  0.42264879290E+00  0.51109989000E-03 0.  1.
     -623    1    1    2    0    0  0.10773059315E-02  0.75298799074E-02  0.48348709411E-02  0.17130000024E+03  0.17130000000E+03 0. -1.
      622    1    1    2    0    0 -0.19523035239E-01  0.40583265340E-01  0.35756694215E+01  0.35773509700E+01  0.10000000000E+00 0.  0.
</event>
<event>
 5   0  0.6262544E+06  0.9118800E+02  0.7818608E-02  0.1180000E+00
       11   -1    0    0    0    0  0.00000000000E+00  0.00000000000E+00  0.39999999673E+01  0.40000000000E+01  0.51109989000E-03 0. -1.
     -623   -1    0    0    0    0  0.00000000000E+00  0.00000000000E+00  0.12525980253E-10  0.17130000000E+03  0.17130000000E+03 0. -1.
       11    1    1    2    0    0 -0.41142235638E-02 -0.59446881726E-02  0.10403609079E+00  0.10428823310E+00  0.51109989000E-03 0. -1.
     -623    1    1    2    0    0  0.49774898635E-02  0.15739122903E-02  0.15384185269E-02  0.17130000009E+03  0.17130000000E+03 0. -1.
      622    1    1    2    0    0 -0.86326629957E-03  0.43707758824E-02  0.38944254579E+01  0.38957116803E+01  0.10000000000E+00 0. -1.
</event>
<event>
 5   0  0.6262544E+06  0.9118800E+02  0.7818608E-02  0.1180000E+00
       11   -1    0    0    0    0  0.00000000000E+00  0.00000000000E+00  0.39999999673E+01  0.40000000000E+01  0.51109989000E-03 0.  1.
     -623   -1    0    0    0    0  0.00000000000E+00  0.00000000000E+00  0.12525980253E-10  0.17130000000E+03  0.17130000000E+03 0.  1.
       11    1    1    2    0    0 -0.72105706859E-02 -0.24062775526E-01  0.65288355997E+00  0.65336682928E+00  0.51109989000E-03 0.  1.
     -623    1    1    2    0    0  0.46337254111E-01  0.27521210062E-01  0.22167257964E-02  0.17130000849E+03  0.17130000000E+03 0.  1.
      622    1    1    2    0    0 -0.39126683425E-01 -0.34584345366E-02  0.33448996816E+01  0.33466246784E+01  0.10000000000E+00 0.  1.
</event>
<event>
 5   0  0.6262544E+06  0.9118800E+02  0.7818608E-02  0.1180000E+00
       11   -1    0    0    0    0  0.00000000000E+00  0.00000000000E+00  0.39999999673E+01  0.40000000000E+01  0.51109989000E-03 0. -1.
     -623   -1    0    0    0    0  0.00000000000E+00  0.00000000000E+00  0.12525980253E-10  0.17130000000E+03  0.17130000000E+03 0. -1.
       11    1    1    2    0    0 -0.16491269965E-01  0.11879513658E-02  0.49753925882E+00  0.49781417065E+00  0.51109989000E-03 0. -1.
     -623    1    1    2    0    0  0.11773232954E-01  0.12334812366E-01  0.17330052739E-02  0.17130000086E+03  0.17130000000E+03 0. -1.
      622    1    1    2    0    0  0.47180370116E-02 -0.13522763732E-01  0.35007277034E+01  0.35021849720E+01  0.10000000000E+00 0. -1.
</event>
<event>
 5   0  0.6262544E+06  0.9118800E+02  0.7818608E-02  0.1180000E+00
       11   -1    0    0    0    0  0.00000000000E+00  0.00000000000E+00  0.39999999673E+01  0.40000000000E+01  0.51109989000E-03 0.  1.
     -623   -1    0    0    0    0  0.00000000000E+00  0.00000000000E+00  0.12525980253E-10  0.17130000000E+03  0.17130000000E+03 0.  1.
       11    1    1    2    0    0  0.13862850174E-02  0.73697752572E-03  0.88548581700E-01  0.88563973856E-01  0.51109989000E-03 0.  1.
     -623    1    1    2    0    0 -0.21293984095E-03 -0.29281395100E-02  0.12946914076E-02  0.17130000003E+03  0.17130000000E+03 0.  1.
      622    1    1    2    0    0 -0.11733451765E-02  0.21911619843E-02  0.39101566943E+01  0.39114359961E+01  0.10000000000E+00 0.  1.
</event>
<event>
 5   0  0.6262544E+06  0.9118800E+02  0.7818608E-02  0.1180000E+00
       11   -1    0    0    0    0  0.00000000000E+00  0.00000000000E+00  0.39999999673E+01  0.40000000000E+01  0.51109989000E-03 0. -1.
     -623   -1    0    0    0    0  0.00000000000E+00  0.00000000000E+00  0.12525980253E-10  0.17130000000E+03  0.17130000000E+03 0.  1.
       11    1    1    2    0    0 -0.12283756081E-01 -0.20624000795E-02  0.45551098153E+00  0.45568153317E+00  0.51109989000E-03 0. -1.
     -623    1    1    2    0    0 -0.27542752807E-02 -0.90318299762E-03  0.16146965789E-02  0.17130000003E+03  0.17130000000E+03 0.  1.
      622    1    1    2    0    0  0.15038031362E-01  0.29655830771E-02  0.35428742893E+01  0.35443184348E+01  0.10000000000E+00 0. -1.
</event>
<event>
 5   0  0.6262544E+06  0.9118800E+02  0.7818608E-02  0.1180000E+00
       11   -1    0    0    0    0  0.00000000000E+00  0.00000000000E+00  0.39999999673E+01  0.40000000000E+01  0.51109989000E-03 0.  1.
     -623   -1    0    0    0    0  0.00000000000E+00  0.00000000000E+00  0.12525980253E-10  0.17130000000E+03  0.17130000000E+03 0.  1.
       11    1    1    2    0    0  0.69512806616E-02  0.25650270280E-01  0.51535714963E+00  0.51604215871E+00  0.51109989000E-03 0.  1.
     -623    1    1    2    0    0 -0.42003926409E-02 -0.60488037491E-01  0.23065155328E-02  0.17130001075E+03  0.17130000000E+03 0.  1.
      622    1    1    2    0    0 -0.27508880207E-02  0.34837767212E-01  0.34823363022E+01  0.34839470947E+01  0.10000000000E+00 0.  1.
</event>
<event>
 5   0  0.6262544E+06  0.9118800E+02  0.7818608E-02  0.1180000E+00
       11   -1    0    0    0    0  0.00000000000E+00  0.00000000000E+00  0.39999999673E+01  0.40000000000E+01  0.51109989000E-03 0. -1.
     -623   -1    0    0    0    0  0.00000000000E+00  0.00000000000E+00  0.12525980253E-10  0.17130000000E+03  0.17130000000E+03 0. -1.
       11    1    1    2    0    0 -0.23944812013E-01 -0.24562536884E-01  0.12443909129E+00  0.12908145066E+00  0.51109989000E-03 0. -1.
     -623    1    1    2    0    0  0.20636278165E-01 -0.12417240533E-02  0.60230313701E-02  0.17130000135E+03  0.17130000000E+03 0. -1.
      622    1    1    2    0    0  0.33085338481E-02  0.25804260938E-01  0.38695378447E+01  0.38709171959E+01  0.10000000000E+00 0. -1.
</event>
<event>
 5   0  0.6262544E+06  0.9118800E+02  0.7818608E-02  0.1180000E+00
       11   -1    0    0    0    0  0.00000000000E+00  0.00000000000E+00  0.39999999673E+01  0.40000000000E+01  0.51109989000E-03 0.  1.
     -623   -1    0    0    0    0  0.00000000000E+00  0.00000000000E+00  0.12525980253E-10  0.17130000000E+03  0.17130000000E+03 0. -1.
       11    1    1    2    0    0 -0.44281668145E-02 -0.63518948149E-02  0.18101151986E+00  0.18117777671E+00  0.51109989000E-03 0.  1.
     -623    1    1    2    0    0 -0.29032554259E-02 -0.10508994798E-01  0.15203818500E-02  0.17130000035E+03  0.17130000000E+03 0. -1.
      622    1    1    2    0    0  0.73314222405E-02  0.16860889614E-01  0.38174680659E+01  0.38188218699E+01  0.10000000000E+00 0.  1.
</event>
<event>
 5   0  0.6262544E+06  0.9118800E+02  0.7818608E-02  0.1180000E+00
       11   -1    0    0    0    0  0.00000000000E+00  0.00000000000E+00  0.39999999673E+01  0.40000000000E+01  0.51109989000E-03 0.  1.
     -623   -1    0    0    0    0  0.00000000000E+00  0.00000000000E+00  0.12525980253E-10  0.17130000000E+03  0.17130000000E+03 0. -1.
       11    1    1    2    0    0  0.27478420435E-01  0.18976964572E-01  0.30009882196E-01  0.44900367758E-01  0.51109989000E-03 0.  1.
     -623    1    1    2    0    0 -0.11603878712E-01 -0.73091422252E-03  0.16229978829E-01  0.17130000116E+03  0.17130000000E+03 0. -1.
      622    1    1    2    0    0 -0.15874541722E-01 -0.18246050350E-01  0.39537601063E+01  0.39550984688E+01  0.10000000000E+00 0.  1.
</event>
<event>
 5   0  0.6262544E+06  0.9118800E+02  0.7818608E-02  0.1180000E+00
       11   -1    0    0    0    0  0.00000000000E+00  0.00000000000E+00  0.39999999673E+01  0.40000000000E+01  0.51109989000E-03 0. -1.
     -623   -1    0    0    0    0  0.00000000000E+00  0.00000000000E+00  0.12525980253E-10  0.17130000000E+03  0.17130000000E+03 0. -1.
       11    1    1    2    0    0 -0.42226024527E-03  0.17791996336E-03  0.21653435814E-02  0.22715402596E-02  0.51109989000E-03 0. -1.
     -623    1    1    2    0    0 -0.62840542996E-03 -0.22310842557E-02  0.13577565830E-02  0.17130000002E+03  0.17130000000E+03 0. -1.
      622    1    1    2    0    0  0.10506656752E-02  0.20531642923E-02  0.39964768671E+01  0.39977284386E+01  0.10000000000E+00 0. -1.
</event>
<event>
 5   0  0.6262544E+06  0.9118800E+02  0.7818608E-02  0.1180000E+00
       11   -1    0    0    0    0  0.00000000000E+00  0.00000000000E+00  0.39999999673E+01  0.40000000000E+01  0.51109989000E-03 0.  1.
     -623   -1    0    0    0    0  0.00000000000E+00  0.00000000000E+00  0.12525980253E-10  0.17130000000E+03  0.17130000000E+03 0. -1.
       11    1    1    2    0    0  0.10462771264E+00 -0.67641262634E-02  0.10188409547E+01  0.10242215892E+01  0.51109989000E-03 0.  1.
     -623    1    1    2    0    0 -0.42778375835E-01 -0.32198077127E-02  0.77268000025E-02  0.17130000555E+03  0.17130000000E+03 0. -1.
      622    1    1    2    0    0 -0.61849336804E-01  0.99839339761E-02  0.29734322127E+01  0.29757728648E+01  0.10000000000E+00 0.  0.
</event>
<event>
 5   0  0.6262544E+06  0.9118800E+02  0.7818608E-02  0.1180000E+00
       11   -1    0    0    0    0  0.00000000000E+00  0.00000000000E+00  0.39999999673E+01  0.40000000000E+01  0.51109989000E-03 0.  1.
     -623   -1    0    0    0    0  0.00000000000E+00  0.00000000000E+00  0.12525980253E-10  0.17130000000E+03  0.17130000000E+03 0. -1.
       11    1    1    2    0    0  0.23091123106E-02 -0.35717801299E-02  0.22834683011E-02  0.48543860105E-02  0.51109989000E-03 0.  1.
     -623    1    1    2    0    0 -0.40058220425E-02  0.60088868182E-02  0.38238989388E-02  0.17130000019E+03  0.17130000000E+03 0. -1.
      622    1    1    2    0    0  0.16967097319E-02 -0.24371066882E-02  0.39938926001E+01  0.39951454191E+01  0.10000000000E+00 0.  1.
</event>
<event>
 5   0  0.6262544E+06  0.9118800E+02  0.7818608E-02  0.1180000E+00
       11   -1    0    0    0    0  0.00000000000E+00  0.00000000000E+00  0.39999999673E+01  0.40000000000E+01  0.51109989000E-03 0. -1.
     -623   -1    0    0    0    0  0.00000000000E+00  0.00000000000E+00  0.12525980253E-10  0.17130000000E+03  0.17130000000E+03 0. -1.
       11    1    1    2    0    0  0.49331481758E-01 -0.16762513806E-01  0.22391200769E+01  0.22397262237E+01  0.51109989000E-03 0. -1.
     -623    1    1    2    0    0 -0.61287322441E-01 -0.86000584070E-02  0.36838091467E-02  0.17130001122E+03  0.17130000000E+03 0. -1.
      622    1    1    2    0    0  0.11955840683E-01  0.25362572213E-01  0.17571960813E+01  0.17602625572E+01  0.10000000000E+00 0. -1.
</event>
<event>
 5   0  0.6262544E+06  0.9118800E+02  0.7818608E-02  0.1180000E+00
       11   -1    0    0    0    0  0.00000000000E+00  0.00000000000E+00  0.39999999673E+01  0.40000000000E+01  0.51109989000E-03 0. -1.
     -623   -1    0    0    0    0  0.00000000000E+00  0.00000000000E+00  0.12525980253E-10  0.17130000000E+03  0.17130000000E+03 0. -1.
       11    1    1    2    0    0 -0.41317252819E-01 -0.52955127728E-01  0.65384810292E+00  0.65728910218E+00  0.51109989000E-03 0. -1.
     -623    1    1    2    0    0 -0.88474990211E-02  0.96636476716E-01  0.56268746120E-02  0.17130002758E+03  0.17130000000E+03 0. -1.
      622    1    1    2    0    0  0.50164751840E-01 -0.43681348989E-01  0.33405249899E+01  0.33426833189E+01  0.10000000000E+00 0. -1.
</event>
<event>
 5   0  0.6262544E+06  0.9118800E+02  0.7818608E-02  0.1180000E+00
       11   -1    0    0    0    0  0.00000000000E+00  0.00000000000E+00  0.39999999673E+01  0.40000000000E+01  0.51109989000E-03 0. -1.
     -623   -1    0    0    0    0  0.00000000000E+00  0.00000000000E+00  0.12525980253E-10  0.17130000000E+03  0.17130000000E+03 0. -1.
       11    1    1    2    0    0 -0.34177496365E-01 -0.18378821747E-01  0.28394810631E+00  0.28658798064E+00  0.51109989000E-03 0. -1.
     -623    1    1    2    0    0 -0.40691296415E-01  0.71307316730E-01  0.51388504784E-02  0.17130001975E+03  0.17130000000E+03 0. -1.
      622    1    1    2    0    0  0.74868792781E-01 -0.52928494985E-01  0.37109130106E+01  0.37133922678E+01  0.10000000000E+00 0. -1.
</event>
<event>
 5   0  0.6262544E+06  0.9118800E+02  0.7818608E-02  0.1180000E+00
       11   -1    0    0    0    0  0.00000000000E+00  0.00000000000E+00  0.39999999673E+01  0.40000000000E+01  0.51109989000E-03 0.  1.
     -623   -1    0    0    0    0  0.00000000000E+00  0.00000000000E+00  0.12525980253E-10  0.17130000000E+03  0.17130000000E+03 0.  1.
       11    1    1    2    0    0  0.15566100380E-01  0.27905743426E-01  0.22742016938E+01  0.22744262220E+01  0.51109989000E-03 0.  1.
     -623    1    1    2    0    0  0.75725251479E-02  0.11321161811E-01  0.37272214333E-02  0.17130000058E+03  0.17130000000E+03 0.  1.
      622    1    1    2    0    0 -0.23138625528E-01 -0.39226905237E-01  0.17220710522E+01  0.17255731960E+01  0.10000000000E+00 0.  1.
</event>
<event>
 5   0  0.6262544E+06  0.9118800E+02  0.7818608E-02  0.1180000E+00
       11   -1    0    0    0    0  0.00000000000E+00  0.00000000000E+00  0.39999999673E+01  0.40000000000E+01  0.51109989000E-03 0. -1.
     -623   -1    0    0    0    0  0.00000000000E+00  0.00000000000E+00  0.12525980253E-10  0.17130000000E+03  0.17130000000E+03 0. -1.
       11    1    1    2    0    0 -0.93515897491E-03 -0.22948621516E-02  0.18455927749E-01  0.18628564270E-01  0.51109989000E-03 0. -1.
     -623    1    1    2    0    0 -0.61176988776E-04  0.42649573428E-02  0.14293220502E-02  0.17130000006E+03  0.17130000000E+03 0. -1.
      622    1    1    2    0    0  0.99633596368E-03 -0.19700951913E-02  0.39801147177E+01  0.39813713768E+01  0.10000000000E+00 0. -1.
</event>
<event>
 5   0  0.6262544E+06  0.9118800E+02  0.7818608E-02  0.1180000E+00
       11   -1    0    0    0    0  0.00000000000E+00  0.00000000000E+00  0.39999999673E+01  0.40000000000E+01  0.51109989000E-03 0. -1.
     -623   -1    0    0    0    0  0.00000000000E+00  0.00000000000E+00  0.12525980253E-10  0.17130000000E+03  0.17130000000E+03 0.  1.
       11    1    1    2    0    0 -0.13563154362E-03 -0.17139302403E-02 -0.25197972534E-03  0.18112618982E-02  0.51109989000E-03 0. -1.
     -623    1    1    2    0    0 -0.14418820993E-02  0.31231606726E-02  0.33145972651E-02  0.17130000007E+03  0.17130000000E+03 0.  1.
      622    1    1    2    0    0  0.15775136430E-02 -0.14092304324E-02  0.39969373499E+01  0.39981886716E+01  0.10000000000E+00 0. -1.
</event>
<event>
 5   0  0.6262544E+06  0.9118800E+02  0.7818608E-02  0.1180000E+00
       11   -1    0    0    0    0  0.00000000000E+00  0.00000000000E+00  0.39999999673E+01  0.40000000000E+01  0.51109989000E-03 0. -1.
     -623   -1    0    0    0    0  0.00000000000E+00  0.00000000000E+00  0.12525980253E-10  0.17130000000E+03  0.17130000000E+03 0. -1.
       11    1    1    2    0    0  0.36232375035E-02 -0.51344121510E-03  0.51196939658E-01  0.51330101522E-01  0.51109989000E-03 0. -1.
     -623    1    1    2    0    0  0.23869510687E-02  0.35496696021E-02  0.14053838377E-02  0.17130000006E+03  0.17130000000E+03 0. -1.
      622    1    1    2    0    0 -0.60101885722E-02 -0.30362283870E-02  0.39473976439E+01  0.39486698393E+01  0.10000000000E+00 0. -1.
</event>
<event>
 5   0  0.6262544E+06  0.9118800E+02  0.7818608E-02  0.1180000E+00
       11   -1    0    0    0    0  0.00000000000E+00  0.00000000000E+00  0.39999999673E+01  0.40000000000E+01  0.51109989000E-03 0. -1.
     -623   -1    0    0    0    0  0.00000000000E+00  0.00000000000E+00  0.12525980253E-10  0.17130000000E+03  0.17130000000E+03 0. -1.
       11    1    1    2    0    0  0.58741735051E-02 -0.81732286751E-03  0.13475350653E+00  0.13488492383E+00  0.51109989000E-03 0. -1.
     -623    1    1    2    0    0  0.35082074976E-05 -0.59935034128E-02  0.14358080536E-02  0.17130000011E+03  0.17130000000E+03 0. -1.
      622    1    1    2    0    0 -0.58776817126E-02  0.68108262800E-02  0.38638106526E+01  0.38651149651E+01  0.10000000000E+00 0. -1.
</event>
<event>
 5   0  0.6262544E+06  0.9118800E+02  0.7818608E-02  0.1180000E+00
       11   -1    0    0    0    0  0.00000000000E+00  0.00000000000E+00  0.39999999673E+01  0.40000000000E+01  0.51109989000E-03 0. -1.
     -623   -1    0    0    0    0  0.00000000000E+00  0.00000000000E+00  0.12525980253E-10  0.17130000000E+03  0.17130000000E+03 0.  1.
       11    1    1    2    0    0  0.65726737680E-02  0.31156792534E-02  0.13611072299E-01  0.15441178979E-01  0.51109989000E-03 0. -1.
     -623    1    1    2    0    0 -0.11815332609E-01 -0.13395729935E-01  0.31027908427E-02  0.17130000096E+03  0.17130000000E+03 0.  1.
      622    1    1    2    0    0  0.52426588411E-02  0.10280050682E-01  0.39832861042E+01  0.39845578617E+01  0.10000000000E+00 0. -1.
</event>
<event>
 5   0  0.6262544E+06  0.9118800E+02  0.7818608E-02  0.1180000E+00
       11   -1    0    0    0    0  0.00000000000E+00  0.00000000000E+00  0.39999999673E+01  0.40000000000E+01  0.51109989000E-03 0. -1.
     -623   -1    0    0    0    0  0.00000000000E+00  0.00000000000E+00  0.12525980253E-10  0.17130000000E+03  0.17130000000E+03 0. -1.
       11    1    1    2    0    0 -0.18397178079E-02  0.43640688638E-02  0.16496775335E+00  0.16503651270E+00  0.51109989000E-03 0. -1.
     -623    1    1    2    0    0 -0.28611899409E-02 -0.84267778975E-02  0.13780134790E-02  0.17130000024E+03  0.17130000000E+03 0. -1.
      622    1    1    2    0    0  0.47009077488E-02  0.40627090337E-02  0.38336542005E+01  0.38349632506E+01  0.10000000000E+00 0. -1.
</event>
<event>
 5   0  0.6262544E+06  0.9118800E+02  0.7818608E-02  0.1180000E+00
       11   -1    0    0    0    0  0.00000000000E+00  0.00000000000E+00  0.39999999673E+01  0.40000000000E+01  0.51109989000E-03 0. -1.
     -623   -1    0    0    0    0  0.00000000000E+00  0.00000000000E+00  0.12525980253E-10  0.17130000000E+03  0.17130000000E+03 0. -1.
       11    1    1    2    0    0 -0.30933567426E-03  0.82255435349E-03  0.60707379867E-03  0.11840801993E-02  0.51109989000E-03 0. -1.
     -623    1    1    2    0    0  0.93046434300E-03 -0.20278416639E-03  0.18276481411E-02  0.17130000001E+03  0.17130000000E+03 0. -1.
      622    1    1    2    0    0 -0.62112866879E-03 -0.61977018710E-03  0.39975652456E+01  0.39988159076E+01  0.10000000000E+00 0. -1.
</event>
<event>
 5   0  0.6262544E+06  0.9118800E+02  0.7818608E-02  0.1180000E+00
       11   -1    0    0    0    0  0.00000000000E+00  0.00000000000E+00  0.39999999673E+01  0.40000000000E+01  0.51109989000E-03 0. -1.
     -623   -1    0    0    0    0  0.00000000000E+00  0.00000000000E+00  0.12525980253E-10  0.17130000000E+03  0.17130000000E+03 0.  1.
       11    1    1    2    0    0 -0.58218705740E-02 -0.49109989965E-02  0.17657237205E+00  0.17673730756E+00  0.51109989000E-03 0. -1.
     -623    1    1    2    0    0 -0.38776616675E-02  0.56650179132E-03  0.14877386815E-02  0.17130000005E+03  0.17130000000E+03 0.  1.
      622    1    1    2    0    0  0.96995322416E-02  0.43444972052E-02  0.38219398568E+01  0.38232626413E+01  0.10000000000E+00 0. -1.
</event>
<event>
 5   0  0.6262544E+06  0.9118800E+02  0.7818608E-02  0.1180000E+00
       11   -1    0    0    0    0  0.00000000000E+00  0.00000000000E+00  0.39999999673E+01  0.40000000000E+01  0.51109989000E-03 0.  1.
     -623   -1    0    0    0    0  0.00000000000E+00  0.00000000000E+00  0.12525980253E-10  0.17130000000E+03  0.17130000000E+03 0.  1.
       11    1    1    2    0    0  0.23105414803E-02 -0.90204986840E-02  0.30374291393E-01  0.31773680919E-01  0.51109989000E-03 0.  1.
     -623    1    1    2    0    0  0.62678864898E-02  0.16968429369E-01  0.26777793743E-02  0.17130000098E+03  0.17130000000E+03 0.  1.
      622    1    1    2    0    0 -0.85784279704E-02 -0.79479306856E-02  0.39669478967E+01  0.39682253432E+01  0.10000000000E+00 0.  1.
</event>
<event>
 5   0  0.6262544E+06  0.9118800E+02  0.7818608E-02  0.1180000E+00
       11   -1    0    0    0    0  0.00000000000E+00  0.00000000000E+00  0.39999999673E+01  0.40000000000E+01  0.51109989000E-03 0. -1.
     -623   -1    0    0    0    0  0.00000000000E+00  0.00000000000E+00  0.12525980253E-10  0.17130000000E+03  0.17130000000E+03 0. -1.
       11    1    1    2    0    0 -0.10977795614E-01  0.17618350965E-02  0.99023671704E-01  0.99647201865E-01  0.51109989000E-03 0. -1.
     -623    1    1    2    0    0 -0.15836386694E-02 -0.31839398351E-02  0.19261849873E-02  0.17130000005E+03  0.17130000000E+03 0. -1.
      622    1    1    2    0    0  0.12561434283E-01  0.14221047386E-02  0.38990501107E+01  0.39003527504E+01  0.10000000000E+00 0. -1.
</event>
<event>
 5   0  0.6262544E+06  0.9118800E+02  0.7818608E-02  0.1180000E+00
       11   -1    0    0    0    0  0.00000000000E+00  0.00000000000E+00  0.39999999673E+01  0.40000000000E+01  0.51109989000E-03 0.  1.
     -623   -1    0    0    0    0  0.00000000000E+00  0.00000000000E+00  0.12525980253E-10  0.17130000000E+03  0.17130000000E+03 0.  1.
       11    1    1    2    0    0  0.31621334582E-02 -0.53197214970E-03  0.32620184408E-02  0.46026155370E-02  0.51109989000E-03 0.  1.
     -623    1    1    2    0    0  0.13212963656E-02  0.14077175460E-01  0.26182882873E-02  0.17130000060E+03  0.17130000000E+03 0.  1.
      622    1    1    2    0    0 -0.44834298239E-02 -0.13545203311E-01  0.39941196609E+01  0.39953967812E+01  0.10000000000E+00 0.  1.
</event>
<event>
 5   0  0.6262544E+06  0.9118800E+02  0.7818608E-02  0.1180000E+00
       11   -1    0    0    0    0  0.00000000000E+00  0.00000000000E+00  0.39999999673E+01  0.40000000000E+01  0.51109989000E-03 0.  1.
     -623   -1    0    0    0    0  0.00000000000E+00  0.00000000000E+00  0.12525980253E-10  0.17130000000E+03  0.17130000000E+03 0. -1.
       11    1    1    2    0    0  0.19390129124E-02  0.17890048886E-02  0.86463474521E-03  0.28229640285E-02  0.51109989000E-03 0.  1.
     -623    1    1    2    0    0  0.18193084900E-02 -0.54014573542E-03  0.32113784356E-02  0.17130000004E+03  0.17130000000E+03 0. -1.
      622    1    1    2    0    0 -0.37583214024E-02 -0.12488591532E-02  0.39959239543E+01  0.39971769955E+01  0.10000000000E+00 0.  1.
</event>
<event>
 5   0  0.6262544E+06  0.9118800E+02  0.7818608E-02  0.1180000E+00
       11   -1    0    0    0    0  0.00000000000E+00  0.00000000000E+00  0.39999999673E+01  0.40000000000E+01  0.51109989000E-03 0.  1.
     -623   -1    0    0    0    0  0.00000000000E+00  0.00000000000E+00  0.12525980253E-10  0.17130000000E+03  0.17130000000E+03 0. -1.
       11    1    1    2    0    0  0.31709308057E-01  0.37368235775E-01  0.41990743475E+00  0.42275806349E+00  0.51109989000E-03 0.  1.
     -623    1    1    2    0    0  0.87422867234E-01  0.16801185241E-01  0.66674745797E-02  0.17130002326E+03  0.17130000000E+03 0. -1.
      622    1    1    2    0    0 -0.11913217529E+00 -0.54169421016E-01  0.35734250580E+01  0.35772186747E+01  0.10000000000E+00 0.  1.
</event>
<event>
 5   0  0.6262544E+06  0.9118800E+02  0.7818608E-02  0.1180000E+00
       11   -1    0    0    0    0  0.00000000000E+00  0.00000000000E+00  0.39999999673E+01  0.40000000000E+01  0.51109989000E-03 0. -1.
     -623   -1    0    0    0    0  0.00000000000E+00  0.00000000000E+00  0.12525980253E-10  0.17130000000E+03  0.17130000000E+03 0.  1.
       11    1    1    2    0    0  0.10294158565E-01 -0.12345130464E-01  0.40111982379E-01  0.43215787626E-01  0.51109989000E-03 0. -1.
     -623    1    1    2    0    0 -0.14577267099E-01  0.11871692277E-01  0.43710618738E-02  0.17130000109E+03  0.17130000000E+03 0.  1.
      622    1    1    2    0    0  0.42831085342E-02  0.47343818682E-03  0.39555169231E+01  0.39567831250E+01  0.10000000000E+00 0. -1.
</event>
<event>
 5   0  0.6262544E+06  0.9118800E+02  0.7818608E-02  0.1180000E+00
       11   -1    0    0    0    0  0.00000000000E+00  0.00000000000E+00  0.39999999673E+01  0.40000000000E+01  0.51109989000E-03 0.  1.
     -623   -1    0    0    0    0  0.00000000000E+00  0.00000000000E+00  0.12525980253E-10  0.17130000000E+03  0.17130000000E+03 0.  1.
       11    1    1    2    0    0  0.33071541001E-02  0.88198248035E-03  0.18409120963E-02  0.39198650208E-02  0.51109989000E-03 0.  1.
     -623    1    1    2    0    0  0.72374833103E-02 -0.29421545856E-03  0.33444881747E-02  0.17130000019E+03  0.17130000000E+03 0.  1.
      622    1    1    2    0    0 -0.10544637411E-01 -0.58776702178E-03  0.39948145671E+01  0.39960799492E+01  0.10000000000E+00 0.  1.
</event>
<event>
 5   0  0.6262544E+06  0.9118800E+02  0.7818608E-02  0.1180000E+00
       11   -1    0    0    0    0  0.00000000000E+00  0.00000000000E+00  0.39999999673E+01  0.40000000000E+01  0.51109989000E-03 0. -1.
     -623   -1    0    0    0    0  0.00000000000E+00  0.00000000000E+00  0.12525980253E-10  0.17130000000E+03  0.17130000000E+03 0.  1.
       11    1    1    2    0    0 -0.55589602112E-04  0.94214916753E-03  0.97943930932E-03  0.14530174520E-02  0.51109989000E-03 0. -1.
     -623    1    1    2    0    0  0.35363050182E-02 -0.47039435109E-02  0.17275906871E-02  0.17130000011E+03  0.17130000000E+03 0.  1.
      622    1    1    2    0    0 -0.34807154163E-02  0.37617943436E-02  0.39972929376E+01  0.39985468730E+01  0.10000000000E+00 0. -1.
</event>
<event>
 5   0  0.6262544E+06  0.9118800E+02  0.7818608E-02  0.1180000E+00
       11   -1    0    0    0    0  0.00000000000E+00  0.00000000000E+00  0.39999999673E+01  0.40000000000E+01  0.51109989000E-03 0.  1.
     -623   -1    0    0    0    0  0.00000000000E+00  0.00000000000E+00  0.12525980253E-10  0.17130000000E+03  0.17130000000E+03 0.  1.
       11    1    1    2    0    0  0.59330741546E-02  0.36355802596E-03  0.16074759666E-01  0.17146214261E-01  0.51109989000E-03 0.  1.
     -623    1    1    2    0    0 -0.43261385622E-02 -0.87880810939E-04  0.23274054201E-02  0.17130000007E+03  0.17130000000E+03 0.  1.
      622    1    1    2    0    0 -0.16069355924E-02 -0.27567721502E-03  0.39815978023E+01  0.39828537153E+01  0.10000000000E+00 0.  0.
</event>
<event>
 5   0  0.6262544E+06  0.9118800E+02  0.7818608E-02  0.1180000E+00
       11   -1    0    0    0    0  0.00000000000E+00  0.00000000000E+00  0.39999999673E+01  0.40000000000E+01  0.51109989000E-03 0. -1.
     -623   -1    0    0    0    0  0.00000000000E+00  0.00000000000E+00  0.12525980253E-10  0.17130000000E+03  0.17130000000E+03 0. -1.
       11    1    1    2    0    0  0.20543929271E-01 -0.16673036898E-01  0.31724546130E-01  0.41312845931E-01  0.51109989000E-03 0. -1.
     -623    1    1    2    0    0  0.12341844685E-02  0.26724949428E-01  0.10926642457E-01  0.17130000244E+03  0.17130000000E+03 0. -1.
      622    1    1    2    0    0 -0.21778113740E-01 -0.10051912530E-01  0.39573487788E+01  0.39586847164E+01  0.10000000000E+00 0. -1.
</event>
<event>
 5   0  0.6262544E+06  0.9118800E+02  0.7818608E-02  0.1180000E+00
       11   -1    0    0    0    0  0.00000000000E+00  0.00000000000E+00  0.39999999673E+01  0.40000000000E+01  0.51109989000E-03 0.  1.
     -623   -1    0    0    0    0  0.00000000000E+00  0.00000000000E+00  0.12525980253E-10  0.17130000000E+03  0.17130000000E+03 0.  1.
       11    1    1    2    0    0  0.27853450010E-01 -0.18403653507E-01  0.25742562024E+01  0.25744727161E+01  0.51109989000E-03 0.  1.
     -623    1    1    2    0    0 -0.20698606788E-02  0.39121873627E-02  0.40360093056E-02  0.17130000010E+03  0.17130000000E+03 0.  1.
      622    1    1    2    0    0 -0.25783589331E-01  0.14491466144E-01  0.14217077556E+01  0.14255271791E+01  0.10000000000E+00 0.  1.
</event>
<event>
 5   0  0.6262544E+06  0.9118800E+02  0.7818608E-02  0.1180000E+00
       11   -1    0    0    0    0  0.00000000000E+00  0.00000000000E+00  0.39999999673E+01  0.40000000000E+01  0.51109989000E-03 0.  1.
     -623   -1    0    0    0    0  0.00000000000E+00  0.00000000000E+00  0.12525980253E-10  0.17130000000E+03  0.17130000000E+03 0.  1.
       11    1    1    2    0    0  0.21161620883E-03 -0.25175095199E-01  0.78412078875E+00  0.78452501730E+00  0.51109989000E-03 0.  1.
     -623    1    1    2    0    0  0.41771699265E-02  0.72958099846E-02  0.20124994586E-02  0.17130000022E+03  0.17130000000E+03 0.  1.
      622    1    1    2    0    0 -0.43887861356E-02  0.17879285214E-01  0.32138666794E+01  0.32154747648E+01  0.10000000000E+00 0.  1.
</event>
<event>
 5   0  0.6262544E+06  0.9118800E+02  0.7818608E-02  0.1180000E+00
       11   -1    0    0    0    0  0.00000000000E+00  0.00000000000E+00  0.39999999673E+01  0.40000000000E+01  0.51109989000E-03 0.  1.
     -623   -1    0    0    0    0  0.00000000000E+00  0.00000000000E+00  0.12525980253E-10  0.17130000000E+03  0.17130000000E+03 0.  1.
       11    1    1    2    0    0  0.35053118483E-01  0.78316194851E-01  0.82618036535E+00  0.83062410560E+00  0.51109989000E-03 0.  1.
     -623    1    1    2    0    0  0.29463361749E-02 -0.15407741881E-01  0.68752228809E-02  0.17130000086E+03  0.17130000000E+03 0.  1.
      622    1    1    2    0    0 -0.37999454658E-01 -0.62908452970E-01  0.31669443792E+01  0.31693750382E+01  0.10000000000E+00 0.  1.
</event>
<event>
 5   0  0.6262544E+06  0.9118800E+02  0.7818608E-02  0.1180000E+00
       11   -1    0    0    0    0  0.00000000000E+00  0.00000000000E+00  0.39999999673E+01  0.40000000000E+01  0.51109989000E-03 0.  1.
     -623   -1    0    0    0    0  0.00000000000E+00  0.00000000000E+00  0.12525980253E-10  0.17130000000E+03  0.17130000000E+03 0.  1.
       11    1    1    2    0    0  0.85975731316E-02 -0.47340541728E-02  0.43310162097E-01  0.44411269908E-01  0.51109989000E-03 0.  1.
     -623    1    1    2    0    0  0.34401631425E-02  0.73015072413E-02  0.23846745143E-02  0.17130000021E+03  0.17130000000E+03 0.  1.
      622    1    1    2    0    0 -0.12037736274E-01 -0.25674530686E-02  0.39543051307E+01  0.39555885233E+01  0.10000000000E+00 0.  1.
</event>
<event>
 5   0  0.6262544E+06  0.9118800E+02  0.7818608E-02  0.1180000E+00
       11   -1    0    0    0    0  0.00000000000E+00  0.00000000000E+00  0.39999999673E+01  0.40000000000E+01  0.51109989000E-03 0. -1.
     -623   -1    0    0    0    0  0.00000000000E+00  0.00000000000E+00  0.12525980253E-10  0.17130000000E+03  0.17130000000E+03 0.  1.
       11    1    1    2    0    0  0.10381342953E-02 -0.11076188344E-01  0.87930883694E+00  0.87937935591E+00  0.51109989000E-03 0. -1.
     -623    1    1    2    0    0 -0.91359158096E-05  0.87313200764E-02  0.16744252489E-02  0.17130000023E+03  0.17130000000E+03 0.  1.
      622    1    1    2    0    0 -0.10289983795E-02  0.23448682677E-02  0.31190167051E+01  0.31206204133E+01  0.10000000000E+00 0. -1.
</event>
<event>
 5   0  0.6262544E+06  0.9118800E+02  0.7818608E-02  0.1180000E+00
       11   -1    0    0    0    0  0.00000000000E+00  0.00000000000E+00  0.39999999673E+01  0.40000000000E+01  0.51109989000E-03 0. -1.
     -623   -1    0    0    0    0  0.00000000000E+00  0.00000000000E+00  0.12525980253E-10  0.17130000000E+03  0.17130000000E+03 0. -1.
       11    1    1    2    0    0  0.21016415309E-01  0.24596519331E-01  0.17726440809E+01  0.17729393608E+01  0.51109989000E-03 0. -1.
     -623    1    1    2    0    0 -0.44569514781E-02  0.21882946716E-02  0.27644568976E-02  0.17130000009E+03  0.17130000000E+03 0. -1.
      622    1    1    2    0    0 -0.16559463831E-01 -0.26784814003E-01  0.22245914295E+01  0.22270605448E+01  0.10000000000E+00 0. -1.
</event>
<event>
 5   0  0.6262544E+06  0.9118800E+02  0.7818608E-02  0.1180000E+00
       11   -1    0    0    0    0  0.00000000000E+00  0.00000000000E+00  0.39999999673E+01  0.40000000000E+01  0.51109989000E-03 0. -1.
     -623   -1    0    0    0    0  0.00000000000E+00  0.00000000000E+00  0.12525980253E-10  0.17130000000E+03  0.17130000000E+03 0. -1.
       11    1    1    2    0    0  0.74678956823E-01 -0.74980275428E-01  0.87454981606E+00  0.88092941277E+00  0.51109989000E-03 0. -1.
     -623    1    1    2    0    0 -0.71642562870E-02  0.18275021042E-01  0.92314426623E-02  0.17130000137E+03  0.17130000000E+03 0. -1.
      622    1    1    2    0    0 -0.67514700536E-01  0.56705254386E-01  0.31162187086E+01  0.31190692138E+01  0.10000000000E+00 0.  0.
</event>
<event>
 5   0  0.6262544E+06  0.9118800E+02  0.7818608E-02  0.1180000E+00
       11   -1    0    0    0    0  0.00000000000E+00  0.00000000000E+00  0.39999999673E+01  0.40000000000E+01  0.51109989000E-03 0. -1.
     -623   -1    0    0    0    0  0.00000000000E+00  0.00000000000E+00  0.12525980253E-10  0.17130000000E+03  0.17130000000E+03 0.  1.
       11    1    1    2    0    0 -0.25717013499E-02  0.30651672783E-02  0.54785958697E-01  0.54934246074E-01  0.51109989000E-03 0. -1.
     -623    1    1    2    0    0 -0.39628567649E-02 -0.63028085407E-02  0.14227747288E-02  0.17130000017E+03  0.17130000000E+03 0.  1.
      622    1    1    2    0    0  0.65345581147E-02  0.32376412622E-02  0.39437912338E+01  0.39450655861E+01  0.10000000000E+00 0. -1.
</event>
<event>
 5   0  0.6262544E+06  0.9118800E+02  0.7818608E-02  0.1180000E+00
       11   -1    0    0    0    0  0.00000000000E+00  0.00000000000E+00  0.39999999673E+01  0.40000000000E+01  0.51109989000E-03 0.  1.
     -623   -1    0    0    0    0  0.00000000000E+00  0.00000000000E+00  0.12525980253E-10  0.17130000000E+03  0.17130000000E+03 0. -1.
       11    1    1    2    0    0 -0.30321209484E-02  0.21030150137E-02  0.44977671366E-01  0.45131680383E-01  0.51109989000E-03 0.  1.
     -623    1    1    2    0    0  0.12474873076E-01 -0.74478012877E-02  0.14339547318E-02  0.17130000062E+03  0.17130000000E+03 0. -1.
      622    1    1    2    0    0 -0.94427521274E-02  0.53447862742E-02  0.39535883414E+01  0.39548676976E+01  0.10000000000E+00 0.  1.
</event>
<event>
 5   0  0.6262544E+06  0.9118800E+02  0.7818608E-02  0.1180000E+00
       11   -1    0    0    0    0  0.00000000000E+00  0.00000000000E+00  0.39999999673E+01  0.40000000000E+01  0.51109989000E-03 0.  1.
     -623   -1    0    0    0    0  0.00000000000E+00  0.00000000000E+00  0.12525980253E-10  0.17130000000E+03  0.17130000000E+03 0.  1.
       11    1    1    2    0    0  0.63005329421E-01 -0.34288726441E-01  0.99771556708E+00  0.10002909588E+01  0.51109989000E-03 0.  1.
     -623    1    1    2    0    0 -0.83903463964E-01  0.40474365705E-01  0.43472689175E-02  0.17130002538E+03  0.17130000000E+03 0.  1.
      622    1    1    2    0    0  0.20898134543E-01 -0.61856392640E-02  0.29979371314E+01  0.29996836563E+01  0.10000000000E+00 0.  1.
</event>
<event>
 5   0  0.6262544E+06  0.9118800E+02  0.7818608E-02  0.1180000E+00
       11   -1    0    0    0    0  0.00000000000E+00  0.00000000000E+00  0.39999999673E+01  0.40000000000E+01  0.51109989000E-03 0.  1.
     -623   -1    0    0    0    0  0.00000000000E+00  0.00000000000E+00  0.12525980253E-10  0.17130000000E+03  0.17130000000E+03 0.  1.
       11    1    1    2    0    0 -0.24027436972E-01 -0.19056598548E-01  0.12763798470E+01  0.12767483098E+01  0.51109989000E-03 0.  1.
     -623    1    1    2    0    0  0.25558215143E-01  0.76461914106E-02  0.22315347388E-02  0.17130000209E+03  0.17130000000E+03 0.  1.
      622    1    1    2    0    0 -0.15307781709E-02  0.11410407138E-01  0.27213885857E+01  0.27232495983E+01  0.10000000000E+00 0.  0.
</event>
<event>
 5   0  0.6262544E+06  0.9118800E+02  0.7818608E-02  0.1180000E+00
       11   -1    0    0    0    0  0.00000000000E+00  0.00000000000E+00  0.39999999673E+01  0.40000000000E+01  0.51109989000E-03 0. -1.
     -623   -1    0    0    0    0  0.00000000000E+00  0.00000000000E+00  0.12525980253E-10  0.17130000000E+03  0.17130000000E+03 0.  1.
       11    1    1    2    0    0  0.96260292876E-02  0.19868443043E-01  0.36718570437E+00  0.36784917858E+00  0.51109989000E-03 0. -1.
     -623    1    1    2    0    0  0.29455456895E-01  0.85666553603E-02  0.23647590199E-02  0.17130000276E+03  0.17130000000E+03 0.  1.
      622    1    1    2    0    0 -0.39081486183E-01 -0.28435098403E-01  0.36304495040E+01  0.36321480584E+01  0.10000000000E+00 0.  0.
</event>
<event>
 5   0  0.6262544E+06  0.9118800E+02  0.7818608E-02  0.1180000E+00
       11   -1    0    0    0    0  0.00000000000E+00  0.00000000000E+00  0.39999999673E+01  0.40000000000E+01  0.51109989000E-03 0.  1.
     -623   -1    0    0    0    0  0.00000000000E+00  0.00000000000E+00  0.12525980253E-10  0.17130000000E+03  0.17130000000E+03 0.  1.
       11    1    1    2    0    0  0.68279708080E-03 -0.44396751735E-02  0.64653255096E-01  0.64811122069E-01  0.51109989000E-03 0.  1.
     -623    1    1    2    0    0 -0.75029740073E-03  0.32985849745E-03  0.14307818733E-02  0.17130000001E+03  0.17130000000E+03 0.  1.
      622    1    1    2    0    0  0.67500319938E-04  0.41098166761E-02  0.39339159304E+01  0.39351888700E+01  0.10000000000E+00 0.  1.
</event>
<event>
 5   0  0.6262544E+06  0.9118800E+02  0.7818608E-02  0.1180000E+00
       11   -1    0    0    0    0  0.00000000000E+00  0.00000000000E+00  0.39999999673E+01  0.40000000000E+01  0.51109989000E-03 0. -1.
     -623   -1    0    0    0    0  0.00000000000E+00  0.00000000000E+00  0.12525980253E-10  0.17130000000E+03  0.17130000000E+03 0. -1.
       11    1    1    2    0    0  0.75736507145E-01 -0.37423006721E-01  0.33510661821E+00  0.34559109760E+00  0.51109989000E-03 0. -1.
     -623    1    1    2    0    0 -0.15167945168E-01  0.34733459957E-01  0.12360702175E-01  0.17130000464E+03  0.17130000000E+03 0. -1.
      622    1    1    2    0    0 -0.60568561978E-01  0.26895467638E-02  0.36525326470E+01  0.36544042636E+01  0.10000000000E+00 0. -1.
</event>
<event>
 5   0  0.6262544E+06  0.9118800E+02  0.7818608E-02  0.1180000E+00
       11   -1    0    0    0    0  0.00000000000E+00  0.00000000000E+00  0.39999999673E+01  0.40000000000E+01  0.51109989000E-03 0.  1.
     -623   -1    0    0    0    0  0.00000000000E+00  0.00000000000E+00  0.12525980253E-10  0.17130000000E+03  0.17130000000E+03 0. -1.
       11    1    1    2    0    0 -0.97218148356E-02  0.10229591442E-01  0.49400092526E-01  0.51378872965E-01  0.51109989000E-03 0.  1.
     -623    1    1    2    0    0  0.15234025295E-01  0.78702350677E-03  0.32651480825E-02  0.17130000071E+03  0.17130000000E+03 0. -1.
      622    1    1    2    0    0 -0.55122104598E-02 -0.11016614949E-01  0.39473347268E+01  0.39486204167E+01  0.10000000000E+00 0.  1.
</event>
<event>
 5   0  0.6262544E+06  0.9118800E+02  0.7818608E-02  0.1180000E+00
       11   -1    0    0    0    0  0.00000000000E+00  0.00000000000E+00  0.39999999673E+01  0.40000000000E+01  0.51109989000E-03 0. -1.
     -623   -1    0    0    0    0  0.00000000000E+00  0.00000000000E+00  0.12525980253E-10  0.17130000000E+03  0.17130000000E+03 0.  1.
       11    1    1    2    0    0  0.35643110610E-01  0.22458309516E-02  0.42190500531E-01  0.55279061577E-01  0.51109989000E-03 0. -1.
     -623    1    1    2    0    0 -0.38440351252E-01 -0.77828398467E-02  0.14366222195E-01  0.17130000509E+03  0.17130000000E+03 0.  1.
      622    1    1    2    0    0  0.27972406424E-02  0.55370088952E-02  0.39434432447E+01  0.39447158461E+01  0.10000000000E+00 0.  0.
</event>
<event>
 5   0  0.6262544E+06  0.9118800E+02  0.7818608E-02  0.1180000E+00
       11   -1    0    0    0    0  0.00000000000E+00  0.00000000000E+00  0.39999999673E+01  0.40000000000E+01  0.51109989000E-03 0. -1.
     -623   -1    0    0    0    0  0.00000000000E+00  0.00000000000E+00  0.12525980253E-10  0.17130000000E+03  0.17130000000E+03 0. -1.
       11    1    1    2    0    0 -0.93323179924E-02 -0.14405708997E-01  0.21338728425E+00  0.21407711440E+00  0.51109989000E-03 0. -1.
     -623    1    1    2    0    0 -0.19658820033E-02  0.35838309415E-02  0.20431076174E-02  0.17130000006E+03  0.17130000000E+03 0. -1.
      622    1    1    2    0    0  0.11298199996E-01  0.10821878055E-01  0.37845695755E+01  0.37859228247E+01  0.10000000000E+00 0. -1.
</event>
<event>
 5   0  0.6262544E+06  0.9118800E+02  0.7818608E-02  0.1180000E+00
       11   -1    0    0    0    0  0.00000000000E+00  0.00000000000E+00  0.39999999673E+01  0.40000000000E+01  0.51109989000E-03 0.  1.
     -623   -1    0    0    0    0  0.00000000000E+00  0.00000000000E+00  0.12525980253E-10  0.17130000000E+03  0.17130000000E+03 0. -1.
       11    1    1    2    0    0 -0.52889673232E-02  0.61858966091E-02  0.40517015788E-01  0.41329508630E-01  0.51109989000E-03 0.  1.
     -623    1    1    2    0    0 -0.11681380177E-02 -0.19611235273E-01  0.21048923725E-02  0.17130000114E+03  0.17130000000E+03 0. -1.
      622    1    1    2    0    0  0.64571053410E-02  0.13425338665E-01  0.39573780594E+01  0.39586693520E+01  0.10000000000E+00 0.  1.
</event>
<event>
 5   0  0.6262544E+06  0.9118800E+02  0.7818608E-02  0.1180000E+00
       11   -1    0    0    0    0  0.00000000000E+00  0.00000000000E+00  0.39999999673E+01  0.40000000000E+01  0.51109989000E-03 0.  1.
     -623   -1    0    0    0    0  0.00000000000E+00  0.00000000000E+00  0.12525980253E-10  0.17130000000E+03  0.17130000000E+03 0. -1.
       11    1    1    2    0    0  0.32639809603E-01  0.20054801581E-01  0.54387939465E+00  0.54522711724E+00  0.51109989000E-03 0.  1.
     -623    1    1    2    0    0  0.43398740284E-03  0.46966922528E-02  0.30424497113E-02  0.17130000009E+03  0.17130000000E+03 0. -1.
      622    1    1    2    0    0 -0.33073797005E-01 -0.24751493833E-01  0.34530781230E+01  0.34547727908E+01  0.10000000000E+00 0.  1.
</event>
<event>
 5   0  0.6262544E+06  0.9118800E+02  0.7818608E-02  0.1180000E+00
       11   -1    0    0    0    0  0.00000000000E+00  0.00000000000E+00  0.39999999673E+01  0.40000000000E+01  0.51109989000E-03 0.  1.
     -623   -1    0    0    0    0  0.00000000000E+00  0.00000000000E+00  0.12525980253E-10  0.17130000000E+03  0.17130000000E+03 0.  1.
       11    1    1    2    0    0 -0.10694719516E-02  0.15439028630E-02  0.14255901321E-01  0.14388167078E-01  0.51109989000E-03 0.  1.
     -623    1    1    2    0    0  0.20783386143E-02  0.20371984098E-02  0.13887105651E-02  0.17130000003E+03  0.17130000000E+03 0.  1.
      622    1    1    2    0    0 -0.10088666626E-02 -0.35811012728E-02  0.39843553554E+01  0.39856118025E+01  0.10000000000E+00 0.  1.
</event>
<event>
 5   0  0.6262544E+06  0.9118800E+02  0.7818608E-02  0.1180000E+00
       11   -1    0    0    0    0  0.00000000000E+00  0.00000000000E+00  0.39999999673E+01  0.40000000000E+01  0.51109989000E-03 0.  1.
     -623   -1    0    0    0    0  0.00000000000E+00  0.00000000000E+00  0.12525980253E-10  0.17130000000E+03  0.17130000000E+03 0. -1.
       11    1    1    2    0    0 -0.25547629606E-02 -0.74869472986E-03  0.31947852388E-01  0.32062655092E-01  0.51109989000E-03 0.  1.
     -623    1    1    2    0    0 -0.10918984878E-02  0.19575096002E-02  0.13769513810E-02  0.17130000002E+03  0.17130000000E+03 0. -1.
      622    1    1    2    0    0  0.36466614484E-02 -0.12088148704E-02  0.39666751636E+01  0.39679373247E+01  0.10000000000E+00 0.  1.
</event>
<event>
 5   0  0.6262544E+06  0.9118800E+02  0.7818608E-02  0.1180000E+00
       11   -1    0    0    0    0  0.00000000000E+00  0.00000000000E+00  0.39999999673E+01  0.40000000000E+01  0.51109989000E-03 0. -1.
     -623   -1    0    0    0    0  0.00000000000E+00  0.00000000000E+00  0.12525980253E-10  0.17130000000E+03  0.17130000000E+03 0. -1.
       11    1    1    2    0    0 -0.65226536200E-03 -0.39174093192E-02  0.13047644148E-01  0.13648215454E-01  0.51109989000E-03 0. -1.
     -623    1    1    2    0    0  0.12301009060E-02  0.69037463323E-02  0.18563302022E-02  0.17130000015E+03  0.17130000000E+03 0. -1.
      622    1    1    2    0    0 -0.57783554395E-03 -0.29863370131E-02  0.39850959930E+01  0.39863516310E+01  0.10000000000E+00 0. -1.
</event>
<event>
 5   0  0.6262544E+06  0.9118800E+02  0.7818608E-02  0.1180000E+00
       11   -1    0    0    0    0  0.00000000000E+00  0.00000000000E+00  0.39999999673E+01  0.40000000000E+01  0.51109989000E-03 0.  1.
     -623   -1    0    0    0    0  0.00000000000E+00  0.00000000000E+00  0.12525980253E-10  0.17130000000E+03  0.17130000000E+03 0. -1.
       11    1    1    2    0    0  0.16707796717E+00  0.55534902872E-01  0.24649809036E+01  0.24712608702E+01  0.51109989000E-03 0.  1.
     -623    1    1    2    0    0 -0.14483258358E-01 -0.16138863614E-01  0.17719114735E-01  0.17130000229E+03  0.17130000000E+03 0. -1.
      622    1    1    2    0    0 -0.15259470882E+00 -0.39396039258E-01  0.15172999491E+01  0.15287368408E+01  0.10000000000E+00 0.  1.
</event>
<event>
 5   0  0.6262544E+06  0.9118800E+02  0.7818608E-02  0.1180000E+00
       11   -1    0    0    0    0  0.00000000000E+00  0.00000000000E+00  0.39999999673E+01  0.40000000000E+01  0.51109989000E-03 0. -1.
     -623   -1    0    0    0    0  0.00000000000E+00  0.00000000000E+00  0.12525980253E-10  0.17130000000E+03  0.17130000000E+03 0.  1.
       11    1    1    2    0    0 -0.81356812087E-01 -0.59347840362E-01  0.13875257583E+01  0.13911754340E+01  0.51109989000E-03 0. -1.
     -623    1    1    2    0    0  0.60307668475E-02 -0.19680902512E-03  0.73360815076E-02  0.17130000026E+03  0.17130000000E+03 0.  1.
      622    1    1    2    0    0  0.75326045239E-01  0.59544649387E-01  0.26051381276E+01  0.26088243026E+01  0.10000000000E+00 0. -1.
</event>
<event>
 5   0  0.6262544E+06  0.9118800E+02  0.7818608E-02  0.1180000E+00
       11   -1    0    0    0    0  0.00000000000E+00  0.00000000000E+00  0.39999999673E+01  0.40000000000E+01  0.51109989000E-03 0.  1.
     -623   -1    0    0    0    0  0.00000000000E+00  0.00000000000E+00  0.12525980253E-10  0.17130000000E+03  0.17130000000E+03 0.  1.
       11    1    1    2    0    0 -0.73219777783E-02 -0.30017755539E-02  0.72830824410E-01  0.73261260033E-01  0.51109989000E-03 0.  1.
     -623    1    1    2    0    0 -0.13705312432E-01 -0.25400310240E-03  0.17621568554E-02  0.17130000056E+03  0.17130000000E+03 0.  1.
      622    1    1    2    0    0  0.21027290211E-01  0.32557786563E-02  0.39254069861E+01  0.39267381824E+01  0.10000000000E+00 0.  0.
</event>
<event>
 5   0  0.6262544E+06  0.9118800E+02  0.7818608E-02  0.1180000E+00
       11   -1    0    0    0    0  0.00000000000E+00  0.00000000000E+00  0.39999999673E+01  0.40000000000E+01  0.51109989000E-03 0. -1.
     -623   -1    0    0    0    0  0.00000000000E+00  0.00000000000E+00  0.12525980253E-10  0.17130000000E+03  0.17130000000E+03 0.  1.
       11    1    1    2    0    0  0.24221771516E-02  0.33473163731E-02  0.11491797365E-01  0.12222687834E-01  0.51109989000E-03 0. -1.
     -623    1    1    2    0    0 -0.66112949216E-02 -0.43073856438E-02  0.19873962384E-02  0.17130000019E+03  0.17130000000E+03 0.  1.
      622    1    1    2    0    0  0.41891177700E-02  0.96006927071E-03  0.39865207738E+01  0.39877771189E+01  0.10000000000E+00 0. -1.
</event>
<event>
 5   0  0.6262544E+06  0.9118800E+02  0.7818608E-02  0.1180000E+00
       11   -1    0    0    0    0  0.00000000000E+00  0.00000000000E+00  0.39999999673E+01  0.40000000000E+01  0.51109989000E-03 0. -1.
     -623   -1    0    0    0    0  0.00000000000E+00  0.00000000000E+00  0.12525980253E-10  0.17130000000E+03  0.17130000000E+03 0. -1.
       11    1    1    2    0    0 -0.14285797246E-02  0.53227126850E-03  0.22817653864E-02  0.27913848013E-02  0.51109989000E-03 0. -1.
     -623    1    1    2    0    0  0.14225359602E-02  0.36681776996E-03  0.17607719805E-02  0.17130000002E+03  0.17130000000E+03 0. -1.
      622    1    1    2    0    0  0.60437644597E-05 -0.89908903844E-03  0.39959574299E+01  0.39972085997E+01  0.10000000000E+00 0. -1.
</event>
<event>
 5   0  0.6262544E+06  0.9118800E+02  0.7818608E-02  0.1180000E+00
       11   -1    0    0    0    0  0.00000000000E+00  0.00000000000E+00  0.39999999673E+01  0.40000000000E+01  0.51109989000E-03 0. -1.
     -623   -1    0    0    0    0  0.00000000000E+00  0.00000000000E+00  0.12525980253E-10  0.17130000000E+03  0.17130000000E+03 0. -1.
       11    1    1    2    0    0  0.74412580661E-02 -0.12345400308E-03  0.66232816695E-01  0.66651592576E-01  0.51109989000E-03 0. -1.
     -623    1    1    2    0    0 -0.34103573819E-02  0.45999428786E-02  0.16948486597E-02  0.17130000010E+03  0.17130000000E+03 0. -1.
      622    1    1    2    0    0 -0.40309006842E-02 -0.44764888756E-02  0.39320723020E+01  0.39333483034E+01  0.10000000000E+00 0. -1.
</event>
<event>
 5   0  0.6262544E+06  0.9118800E+02  0.7818608E-02  0.1180000E+00
       11   -1    0    0    0    0  0.00000000000E+00  0.00000000000E+00  0.39999999673E+01  0.40000000000E+01  0.51109989000E-03 0. -1.
     -623   -1    0    0    0    0  0.00000000000E+00  0.00000000000E+00  0.12525980253E-10  0.17130000000E+03  0.17130000000E+03 0.  1.
       11    1    1    2    0    0 -0.16645806932E-01  0.14866573670E-01  0.83809313707E+00  0.83839040162E+00  0.51109989000E-03 0. -1.
     -623    1    1    2    0    0 -0.36296177705E-02 -0.11420136630E-02  0.19740055234E-02  0.17130000005E+03  0.17130000000E+03 0.  1.
      622    1    1    2    0    0  0.20275424703E-01 -0.13724560007E-01  0.31599328248E+01  0.31616095448E+01  0.10000000000E+00 0.  0.
</event>
<event>
 5   0  0.6262544E+06  0.9118800E+02  0.7818608E-02  0.1180000E+00
       11   -1    0    0    0    0  0.00000000000E+00  0.00000000000E+00  0.39999999673E+01  0.40000000000E+01  0.51109989000E-03 0.  1.
     -623   -1    0    0    0    0  0.00000000000E+00  0.00000000000E+00  0.12525980253E-10  0.17130000000E+03  0.17130000000E+03 0.  1.
       11    1    1    2    0    0  0.34740135594E-02  0.13207786287E-02  0.62769371924E-01  0.62881384372E-01  0.51109989000E-03 0.  1.
     -623    1    1    2    0    0  0.44579092099E-02 -0.84607185455E-02  0.13968905493E-02  0.17130000027E+03  0.17130000000E+03 0.  1.
      622    1    1    2    0    0 -0.79319227692E-02  0.71399399168E-02  0.39358337049E+01  0.39371183430E+01  0.10000000000E+00 0.  1.
</event>
<event>
 5   0  0.6262544E+06  0.9118800E+02  0.7818608E-02  0.1180000E+00
       11   -1    0    0    0    0  0.00000000000E+00  0.00000000000E+00  0.39999999673E+01  0.40000000000E+01  0.51109989000E-03 0.  1.
     -623   -1    0    0    0    0  0.00000000000E+00  0.00000000000E+00  0.12525980253E-10  0.17130000000E+03  0.17130000000E+03 0. -1.
       11    1    1    2    0    0  0.83956157961E-02 -0.45059043435E-03  0.40983204117E-01  0.41839857051E-01  0.51109989000E-03 0.  1.
     -623    1    1    2    0    0 -0.10541054764E-01  0.39055760565E-02  0.21225072159E-02  0.17130000038E+03  0.17130000000E+03 0. -1.
      622    1    1    2    0    0  0.21454389675E-02 -0.34549856222E-02  0.39568942560E+01  0.39581597610E+01  0.10000000000E+00 0.  1.
</event>
<event>
 5   0  0.6262544E+06  0.9118800E+02  0.7818608E-02  0.1180000E+00
       11   -1    0    0    0    0  0.00000000000E+00  0.00000000000E+00  0.39999999673E+01  0.40000000000E+01  0.51109989000E-03 0.  1.
     -623   -1    0    0    0    0  0.00000000000E+00  0.00000000000E+00  0.12525980253E-10  0.17130000000E+03  0.17130000000E+03 0. -1.
       11    1    1    2    0    0  0.58972248075E-01 -0.31657510540E-01  0.11163658830E+01  0.11183706765E+01  0.51109989000E-03 0.  1.
     -623    1    1    2    0    0  0.13612504263E-01  0.59788379593E-02  0.47705036243E-02  0.17130000071E+03  0.17130000000E+03 0. -1.
      622    1    1    2    0    0 -0.72584752338E-01  0.25678672580E-01  0.28788635807E+01  0.28816286119E+01  0.10000000000E+00 0.  0.
</event>
<event>
 5   0  0.6262544E+06  0.9118800E+02  0.7818608E-02  0.1180000E+00
       11   -1    0    0    0    0  0.00000000000E+00  0.00000000000E+00  0.39999999673E+01  0.40000000000E+01  0.51109989000E-03 0.  1.
     -623   -1    0    0    0    0  0.00000000000E+00  0.00000000000E+00  0.12525980253E-10  0.17130000000E+03  0.17130000000E+03 0. -1.
       11    1    1    2    0    0 -0.52287211227E-01 -0.77201806866E-01  0.12189573531E+01  0.12225184503E+01  0.51109989000E-03 0.  1.
     -623    1    1    2    0    0 -0.47873481733E-02 -0.16763399952E-02  0.70701443458E-02  0.17130000022E+03  0.17130000000E+03 0. -1.
      622    1    1    2    0    0  0.57074559400E-01  0.78878146861E-01  0.27739724699E+01  0.27774813287E+01  0.10000000000E+00 0.  1.
</event>
<event>
 5   0  0.6262544E+06  0.9118800E+02  0.7818608E-02  0.1180000E+00
       11   -1    0    0    0    0  0.00000000000E+00  0.00000000000E+00  0.39999999673E+01  0.40000000000E+01  0.51109989000E-03 0. -1.
     -623   -1    0    0    0    0  0.00000000000E+00  0.00000000000E+00  0.12525980253E-10  0.17130000000E+03  0.17130000000E+03 0.  1.
       11    1    1    2    0    0  0.19085796035E-01 -0.10674847486E-01  0.10479907309E+01  0.10482189911E+01  0.51109989000E-03 0. -1.
     -623    1    1    2    0    0 -0.26472317928E-01  0.43527021908E-02  0.19407410878E-02  0.17130000211E+03  0.17130000000E+03 0.  1.
      622    1    1    2    0    0  0.73865218932E-02  0.63221452957E-02  0.29500684953E+01  0.29517788971E+01  0.10000000000E+00 0. -1.
</event>
<event>
 5   0  0.6262544E+06  0.9118800E+02  0.7818608E-02  0.1180000E+00
       11   -1    0    0    0    0  0.00000000000E+00  0.00000000000E+00  0.39999999673E+01  0.40000000000E+01  0.51109989000E-03 0. -1.
     -623   -1    0    0    0    0  0.00000000000E+00  0.00000000000E+00  0.12525980253E-10  0.17130000000E+03  0.17130000000E+03 0.  1.
       11    1    1    2    0    0 -0.34513139999E-02 -0.18448071181E-01  0.28787712170E+00  0.28848871957E+00  0.51109989000E-03 0. -1.
     -623    1    1    2    0    0 -0.42145453521E-02  0.17497616903E-01  0.19679683550E-02  0.17130000096E+03  0.17130000000E+03 0.  1.
      622    1    1    2    0    0  0.76658593518E-02  0.95045427839E-03  0.37101548771E+01  0.37115103234E+01  0.10000000000E+00 0. -1.
</event>
<event>
 5   0  0.6262544E+06  0.9118800E+02  0.7818608E-02  0.1180000E+00
       11   -1    0    0    0    0  0.00000000000E+00  0.00000000000E+00  0.39999999673E+01  0.40000000000E+01  0.51109989000E-03 0. -1.
     -623   -1    0    0    0    0  0.00000000000E+00  0.00000000000E+00  0.12525980253E-10  0.17130000000E+03  0.17130000000E+03 0.  1.
       11    1    1    2    0    0 -0.19409656834E-01 -0.24341309211E-01  0.37718129389E+00  0.37846429659E+00  0.51109989000E-03 0. -1.
     -623    1    1    2    0    0  0.85186306165E-02 -0.12958944245E-01  0.28731395408E-02  0.17130000073E+03  0.17130000000E+03 0.  1.
      622    1    1    2    0    0  0.10891026217E-01  0.37300253456E-01  0.36199455341E+01  0.36215349775E+01  0.10000000000E+00 0. -1.
</event>
<event>
 5   0  0.6262544E+06  0.9118800E+02  0.7818608E-02  0.1180000E+00
       11   -1    0    0    0    0  0.00000000000E+00  0.00000000000E+00  0.39999999673E+01  0.40000000000E+01  0.51109989000E-03 0.  1.
     -623   -1    0    0    0    0  0.00000000000E+00  0.00000000000E+00  0.12525980253E-10  0.17130000000E+03  0.17130000000E+03 0. -1.
       11    1    1    2    0    0 -0.49417054398E-03  0.40560265185E-02  0.44197065949E-01  0.44388482904E-01  0.51109989000E-03 0.  1.
     -623    1    1    2    0    0 -0.18986076281E-02  0.38925883793E-02  0.14643871126E-02  0.17130000006E+03  0.17130000000E+03 0. -1.
      622    1    1    2    0    0  0.23927781721E-02 -0.79486148978E-02  0.39543385143E+01  0.39556114561E+01  0.10000000000E+00 0.  1.
</event>
<event>
 5   0  0.6262544E+06  0.9118800E+02  0.7818608E-02  0.1180000E+00
       11   -1    0    0    0    0  0.00000000000E+00  0.00000000000E+00  0.39999999673E+01  0.40000000000E+01  0.51109989000E-03 0. -1.
     -623   -1    0    0    0    0  0.00000000000E+00  0.00000000000E+00  0.12525980253E-10  0.17130000000E+03  0.17130000000E+03 0.  1.
       11    1    1    2    0    0  0.14750147664E-01 -0.44773357627E-01  0.25596167684E+00  0.26026690463E+00  0.51109989000E-03 0. -1.
     -623    1    1    2    0    0 -0.15253130871E-01 -0.33722380814E-02  0.59533166360E-02  0.17130000082E+03  0.17130000000E+03 0.  1.
      622    1    1    2    0    0  0.50298320703E-03  0.48145595709E-01  0.37380849739E+01  0.37397322796E+01  0.10000000000E+00 0. -1.
</event>
<event>
 5   0  0.6262544E+06  0.9118800E+02  0.7818608E-02  0.1180000E+00
       11   -1    0    0    0    0  0.00000000000E+00  0.00000000000E+00  0.39999999673E+01  0.40000000000E+01  0.51109989000E-03 0.  1.
     -623   -1    0    0    0    0  0.00000000000E+00  0.00000000000E+00  0.12525980253E-10  0.17130000000E+03  0.17130000000E+03 0.  1.
       11    1    1    2    0    0  0.16695822723E-01 -0.36820850659E-01  0.27160786308E+00  0.27460083403E+00  0.51109989000E-03 0.  1.
     -623    1    1    2    0    0  0.61452066605E-03  0.26599149312E-01  0.43917014746E-02  0.17130000212E+03  0.17130000000E+03 0.  1.
      622    1    1    2    0    0 -0.17310343389E-01  0.10221701349E-01  0.37240004027E+01  0.37253970433E+01  0.10000000000E+00 0.  1.
</event>
<event>
 5   0  0.6262544E+06  0.9118800E+02  0.7818608E-02  0.1180000E+00
       11   -1    0    0    0    0  0.00000000000E+00  0.00000000000E+00  0.39999999673E+01  0.40000000000E+01  0.51109989000E-03 0.  1.
     -623   -1    0    0    0    0  0.00000000000E+00  0.00000000000E+00  0.12525980253E-10  0.17130000000E+03  0.17130000000E+03 0.  1.
       11    1    1    2    0    0 -0.86692388125E-02  0.11633726747E-01  0.49873060641E+00  0.49894185863E+00  0.51109989000E-03 0.  1.
     -623    1    1    2    0    0 -0.49976903269E-02 -0.13258624891E-01  0.16673087355E-02  0.17130000059E+03  0.17130000000E+03 0.  1.
      622    1    1    2    0    0  0.13666929139E-01  0.16248981446E-02  0.34996020522E+01  0.35010575473E+01  0.10000000000E+00 0.  1.
</event>
<event>
 5   0  0.6262544E+06  0.9118800E+02  0.7818608E-02  0.1180000E+00
       11   -1    0    0    0    0  0.00000000000E+00  0.00000000000E+00  0.39999999673E+01  0.40000000000E+01  0.51109989000E-03 0. -1.
     -623   -1    0    0    0    0  0.00000000000E+00  0.00000000000E+00  0.12525980253E-10  0.17130000000E+03  0.17130000000E+03 0. -1.
       11    1    1    2    0    0  0.60375392078E-02  0.11350986186E-02  0.43594846850E-02  0.75502753841E-02  0.51109989000E-03 0. -1.
     -623    1    1    2    0    0 -0.92017814478E-02  0.39006923123E-02  0.44480990936E-02  0.17130000035E+03  0.17130000000E+03 0. -1.
      622    1    1    2    0    0  0.31642422399E-02 -0.50357909309E-02  0.39911923836E+01  0.39924493753E+01  0.10000000000E+00 0. -1.
</event>
<event>
 5   0  0.6262544E+06  0.9118800E+02  0.7818608E-02  0.1180000E+00
       11   -1    0    0    0    0  0.00000000000E+00  0.00000000000E+00  0.39999999673E+01  0.40000000000E+01  0.51109989000E-03 0. -1.
     -623   -1    0    0    0    0  0.00000000000E+00  0.00000000000E+00  0.12525980253E-10  0.17130000000E+03  0.17130000000E+03 0. -1.
       11    1    1    2    0    0  0.10842768202E-01  0.15677200685E-01  0.10190278592E+00  0.10367149678E+00  0.51109989000E-03 0. -1.
     -623    1    1    2    0    0  0.41257871776E-02 -0.45849320928E-02  0.30968444118E-02  0.17130000014E+03  0.17130000000E+03 0. -1.
      622    1    1    2    0    0 -0.14968555380E-01 -0.11092268592E-01  0.38950003371E+01  0.38963283643E+01  0.10000000000E+00 0. -1.
</event>
<event>
 5   0  0.6262544E+06  0.9118800E+02  0.7818608E-02  0.1180000E+00
       11   -1    0    0    0    0  0.00000000000E+00  0.00000000000E+00  0.39999999673E+01  0.40000000000E+01  0.51109989000E-03 0. -1.
     -623   -1    0    0    0    0  0.00000000000E+00  0.00000000000E+00  0.12525980253E-10  0.17130000000E+03  0.17130000000E+03 0.  1.
       11    1    1    2    0    0 -0.77267329921E-02 -0.36303227765E-02  0.10981429904E+00  0.11014682538E+00  0.51109989000E-03 0. -1.
     -623    1    1    2    0    0  0.11868749286E-01 -0.12138547335E-01  0.16531302260E-02  0.17130000085E+03  0.17130000000E+03 0.  1.
      622    1    1    2    0    0 -0.41420162941E-02  0.15768870112E-01  0.38885325381E+01  0.38898523254E+01  0.10000000000E+00 0. -1.
</event>
<event>
 5   0  0.6262544E+06  0.9118800E+02  0.7818608E-02  0.1180000E+00
       11   -1    0    0    0    0  0.00000000000E+00  0.00000000000E+00  0.39999999673E+01  0.40000000000E+01  0.51109989000E-03 0.  1.
     -623   -1    0    0    0    0  0.00000000000E+00  0.00000000000E+00  0.12525980253E-10  0.17130000000E+03  0.17130000000E+03 0.  1.
       11    1    1    2    0    0 -0.37004032779E-02  0.53855450206E-02  0.12180338089E-01  0.13831808934E-01  0.51109989000E-03 0.  1.
     -623    1    1    2    0    0  0.74557973223E-02 -0.14676154720E-02  0.29098619612E-02  0.17130000019E+03  0.17130000000E+03 0.  1.
      622    1    1    2    0    0 -0.37553940444E-02 -0.39179295485E-02  0.39849097673E+01  0.39861679978E+01  0.10000000000E+00 0.  1.
</event>
<event>
 5   0  0.6262544E+06  0.9118800E+02  0.7818608E-02  0.1180000E+00
       11   -1    0    0    0    0  0.00000000000E+00  0.00000000000E+00  0.39999999673E+01  0.40000000000E+01  0.51109989000E-03 0. -1.
     -623   -1    0    0    0    0  0.00000000000E+00  0.00000000000E+00  0.12525980253E-10  0.17130000000E+03  0.17130000000E+03 0.  1.
       11    1    1    2    0    0  0.87985526588E-03 -0.16379843093E-01  0.10919036979E+01  0.10920270235E+01  0.51109989000E-03 0. -1.
     -623    1    1    2    0    0  0.10526960789E-01  0.25370991752E-01  0.18817200511E-02  0.17130000221E+03  0.17130000000E+03 0.  1.
      622    1    1    2    0    0 -0.11406816054E-01 -0.89911486586E-02  0.29062145494E+01  0.29079707638E+01  0.10000000000E+00 0. -1.
</event>
<event>
 5   0  0.6262544E+06  0.9118800E+02  0.7818608E-02  0.1180000E+00
       11   -1    0    0    0    0  0.00000000000E+00  0.00000000000E+00  0.39999999673E+01  0.40000000000E+01  0.51109989000E-03 0. -1.
     -623   -1    0    0    0    0  0.00000000000E+00  0.00000000000E+00  0.12525980253E-10  0.17130000000E+03  0.17130000000E+03 0.  1.
       11    1    1    2    0    0 -0.44114254730E-03 -0.26564055806E-02  0.86743579557E-01  0.86786870633E-01  0.51109989000E-03 0. -1.
     -623    1    1    2    0    0 -0.69348308524E-03  0.36415109976E-03  0.13220325123E-02  0.17130000001E+03  0.17130000000E+03 0.  1.
      622    1    1    2    0    0  0.11346256325E-02  0.22922544808E-02  0.39119343553E+01  0.39132131225E+01  0.10000000000E+00 0. -1.
</event>
<event>
 5   0  0.6262544E+06  0.9118800E+02  0.7818608E-02  0.1180000E+00
       11   -1    0    0    0    0  0.00000000000E+00  0.00000000000E+00  0.39999999673E+01  0.40000000000E+01  0.51109989000E-03 0.  1.
     -623   -1    0    0    0    0  0.00000000000E+00  0.00000000000E+00  0.12525980253E-10  0.17130000000E+03  0.17130000000E+03 0.  1.
       11    1    1    2    0    0  0.44005091135E-02 -0.10210182418E-01  0.49089687697E+00  0.49102303138E+00  0.51109989000E-03 0.  1.
     -623    1    1    2    0    0 -0.14555126456E-01  0.10837490728E-01  0.15670519935E-02  0.17130000097E+03  0.17130000000E+03 0.  1.
      622    1    1    2    0    0  0.10154617342E-01 -0.62730831007E-03  0.35075360382E+01  0.35089760001E+01  0.10000000000E+00 0.  1.
</event>
<event>
 5   0  0.6262544E+06  0.9118800E+02  0.7818608E-02  0.1180000E+00
       11   -1    0    0    0    0  0.00000000000E+00  0.00000000000E+00  0.39999999673E+01  0.40000000000E+01  0.51109989000E-03 0.  1.
     -623   -1    0    0    0    0  0.00000000000E+00  0.00000000000E+00  0.12525980253E-10  0.17130000000E+03  0.17130000000E+03 0.  1.
       11    1    1    2    0    0  0.44683490896E-02  0.57043744529E-02  0.11225742817E-01  0.13371034230E-01  0.51109989000E-03 0.  1.
     -623    1    1    2    0    0  0.15398107993E-01 -0.22621987332E-01  0.34872940967E-02  0.17130000222E+03  0.17130000000E+03 0.  1.
      622    1    1    2    0    0 -0.19866457083E-01  0.16917612880E-01  0.39852869305E+01  0.39866267446E+01  0.10000000000E+00 0.  1.
</event>
<event>
 5   0  0.6262544E+06  0.9118800E+02  0.7818608E-02  0.1180000E+00
       11   -1    0    0    0    0  0.00000000000E+00  0.00000000000E+00  0.39999999673E+01  0.40000000000E+01  0.51109989000E-03 0.  1.
     -623   -1    0    0    0    0  0.00000000000E+00  0.00000000000E+00  0.12525980253E-10  0.17130000000E+03  0.17130000000E+03 0. -1.
       11    1    1    2    0    0 -0.37819633481E-02 -0.12525751627E-01  0.17768898934E-01  0.22072441887E-01  0.51109989000E-03 0.  1.
     -623    1    1    2    0    0  0.10947719691E-02 -0.92801539373E-02  0.56216863705E-02  0.17130000035E+03  0.17130000000E+03 0. -1.
      622    1    1    2    0    0  0.26871913790E-02  0.21805905564E-01  0.39766093821E+01  0.39779272110E+01  0.10000000000E+00 0.  1.
</event>
<event>
 5   0  0.6262544E+06  0.9118800E+02  0.7818608E-02  0.1180000E+00
       11   -1    0    0    0    0  0.00000000000E+00  0.00000000000E+00  0.39999999673E+01  0.40000000000E+01  0.51109989000E-03 0.  1.
     -623   -1    0    0    0    0  0.00000000000E+00  0.00000000000E+00  0.12525980253E-10  0.17130000000E+03  0.17130000000E+03 0.  1.
       11    1    1    2    0    0  0.25639256934E-01 -0.22133092493E-01  0.20577112800E+00  0.20854079605E+00  0.51109989000E-03 0.  1.
     -623    1    1    2    0    0 -0.43025622259E-02 -0.24591051027E-02  0.42285853918E-02  0.17130000012E+03  0.17130000000E+03 0.  1.
      622    1    1    2    0    0 -0.21336694708E-01  0.24592197596E-01  0.37900002540E+01  0.37914590801E+01  0.10000000000E+00 0.  1.
</event>
<event>
 5   0  0.6262544E+06  0.9118800E+02  0.7818608E-02  0.1180000E+00
       11   -1    0    0    0    0  0.00000000000E+00  0.00000000000E+00  0.39999999673E+01  0.40000000000E+01  0.51109989000E-03 0.  1.
     -623   -1    0    0    0    0  0.00000000000E+00  0.00000000000E+00  0.12525980253E-10  0.17130000000E+03  0.17130000000E+03 0.  1.
       11    1    1    2    0    0 -0.13842144383E-01 -0.12189024772E-01  0.71320928599E-01  0.73668944363E-01  0.51109989000E-03 0.  1.
     -623    1    1    2    0    0 -0.73600164363E-03  0.13629411039E-01  0.36495629592E-02  0.17130000058E+03  0.17130000000E+03 0.  1.
      622    1    1    2    0    0  0.14578146026E-01 -0.14403862664E-02  0.39250294758E+01  0.39263304730E+01  0.10000000000E+00 0.  1.
</event>
<event>
 5   0  0.6262544E+06  0.9118800E+02  0.7818608E-02  0.1180000E+00
       11   -1    0    0    0    0  0.00000000000E+00  0.00000000000E+00  0.39999999673E+01  0.40000000000E+01  0.51109989000E-03 0.  1.
     -623   -1    0    0    0    0  0.00000000000E+00  0.00000000000E+00  0.12525980253E-10  0.17130000000E+03  0.17130000000E+03 0.  1.
       11    1    1    2    0    0 -0.38993593784E-02  0.40006366854E-02  0.58570095285E-01  0.58838145639E-01  0.51109989000E-03 0.  1.
     -623    1    1    2    0    0 -0.39068031606E-02 -0.67695556186E-02  0.15457749611E-02  0.17130000019E+03  0.17130000000E+03 0.  1.
      622    1    1    2    0    0  0.78061625389E-02  0.27689189331E-02  0.39398840971E+01  0.39411616691E+01  0.10000000000E+00 0.  1.
</event>
<event>
 5   0  0.6262544E+06  0.9118800E+02  0.7818608E-02  0.1180000E+00
       11   -1    0    0    0    0  0.00000000000E+00  0.00000000000E+00  0.39999999673E+01  0.40000000000E+01  0.51109989000E-03 0. -1.
     -623   -1    0    0    0    0  0.00000000000E+00  0.00000000000E+00  0.12525980253E-10  0.17130000000E+03  0.17130000000E+03 0.  1.
       11    1    1    2    0    0 -0.41169561916E-01 -0.75695716727E-01  0.91726442946E+00  0.92130291931E+00  0.51109989000E-03 0. -1.
     -623    1    1    2    0    0  0.26460449572E-02 -0.76150727827E-02  0.70325436706E-02  0.17130000033E+03  0.17130000000E+03 0.  1.
      622    1    1    2    0    0  0.38523516958E-01  0.83310789510E-01  0.30757029942E+01  0.30786967466E+01  0.10000000000E+00 0.  0.
</event>
<event>
 5   0  0.6262544E+06  0.9118800E+02  0.7818608E-02  0.1180000E+00
       11   -1    0    0    0    0  0.00000000000E+00  0.00000000000E+00  0.39999999673E+01  0.40000000000E+01  0.51109989000E-03 0.  1.
     -623   -1    0    0    0    0  0.00000000000E+00  0.00000000000E+00  0.12525980253E-10  0.17130000000E+03  0.17130000000E+03 0. -1.
       11    1    1    2    0    0  0.19840313354E-01  0.32620008081E-02  0.16421635146E+01  0.16422866828E+01  0.51109989000E-03 0.  1.
     -623    1    1    2    0    0 -0.34270678207E-02 -0.19669440077E-02  0.23023888339E-02  0.17130000006E+03  0.17130000000E+03 0. -1.
      622    1    1    2    0    0 -0.16413245533E-01 -0.12950568004E-02  0.23555340639E+01  0.23577132561E+01  0.10000000000E+00 0.  1.
</event>
<event>
 5   0  0.6262544E+06  0.9118800E+02  0.7818608E-02  0.1180000E+00
       11   -1    0    0    0    0  0.00000000000E+00  0.00000000000E+00  0.39999999673E+01  0.40000000000E+01  0.51109989000E-03 0. -1.
     -623   -1    0    0    0    0  0.00000000000E+00  0.00000000000E+00  0.12525980253E-10  0.17130000000E+03  0.17130000000E+03 0.  1.
       11    1    1    2    0    0 -0.54019215331E-01 -0.23523787412E-03  0.32211966556E+00  0.32661823453E+00  0.51109989000E-03 0. -1.
     -623    1    1    2    0    0  0.22786111299E-01  0.41850731773E-01  0.62353418282E-02  0.17130000674E+03  0.17130000000E+03 0.  1.
      622    1    1    2    0    0  0.31233104031E-01 -0.41615493899E-01  0.36716449600E+01  0.36733750242E+01  0.10000000000E+00 0. -1.
</event>
<event>
 5   0  0.6262544E+06  0.9118800E+02  0.7818608E-02  0.1180000E+00
       11   -1    0    0    0    0  0.00000000000E+00  0.00000000000E+00  0.39999999673E+01  0.40000000000E+01  0.51109989000E-03 0.  1.
     -623   -1    0    0    0    0  0.00000000000E+00  0.00000000000E+00  0.12525980253E-10  0.17130000000E+03  0.17130000000E+03 0. -1.
       11    1    1    2    0    0 -0.50209483329E-03  0.74738856527E-03 -0.14499999375E-03  0.10454362653E-02  0.51109989000E-03 0.  1.
     -623    1    1    2    0    0 -0.51309489470E-03 -0.21152041554E-02  0.24413200634E-02  0.17130000003E+03  0.17130000000E+03 0. -1.
      622    1    1    2    0    0  0.10151897280E-02  0.13678155902E-02  0.39977036474E+01  0.39989545326E+01  0.10000000000E+00 0.  1.
</event>
<event>
 5   0  0.6262544E+06  0.9118800E+02  0.7818608E-02  0.1180000E+00
       11   -1    0    0    0    0  0.00000000000E+00  0.00000000000E+00  0.39999999673E+01  0.40000000000E+01  0.51109989000E-03 0.  1.
     -623   -1    0    0    0    0  0.00000000000E+00  0.00000000000E+00  0.12525980253E-10  0.17130000000E+03  0.17130000000E+03 0.  1.
       11    1    1    2    0    0 -0.96393417394E-01  0.87859862329E-01  0.97074665166E+00  0.97946943252E+00  0.51109989000E-03 0.  1.
     -623    1    1    2    0    0  0.48972683858E-02 -0.11173642396E-01  0.12740908852E-01  0.17130000091E+03  0.17130000000E+03 0.  1.
      622    1    1    2    0    0  0.91496149008E-01 -0.76686219933E-01  0.30165124069E+01  0.30205296592E+01  0.10000000000E+00 0.  1.
</event>
<event>
 5   0  0.6262544E+06  0.9118800E+02  0.7818608E-02  0.1180000E+00
       11   -1    0    0    0    0  0.00000000000E+00  0.00000000000E+00  0.39999999673E+01  0.40000000000E+01  0.51109989000E-03 0.  1.
     -623   -1    0    0    0    0  0.00000000000E+00  0.00000000000E+00  0.12525980253E-10  0.17130000000E+03  0.17130000000E+03 0.  1.
       11    1    1    2    0    0 -0.67858045223E-02  0.88592742795E-03  0.10140674911E-01  0.12244448586E-01  0.51109989000E-03 0.  1.
     -623    1    1    2    0    0  0.45566981417E-02  0.28916674454E-02  0.33603073974E-02  0.17130000012E+03  0.17130000000E+03 0.  1.
      622    1    1    2    0    0  0.22291063805E-02 -0.37775948734E-02  0.39864989851E+01  0.39877554335E+01  0.10000000000E+00 0.  1.
</event>
<event>
 5   0  0.6262544E+06  0.9118800E+02  0.7818608E-02  0.1180000E+00
       11   -1    0    0    0    0  0.00000000000E+00  0.00000000000E+00  0.39999999673E+01  0.40000000000E+01  0.51109989000E-03 0.  1.
     -623   -1    0    0    0    0  0.00000000000E+00  0.00000000000E+00  0.12525980253E-10  0.17130000000E+03  0.17130000000E+03 0.  1.
       11    1    1    2    0    0  0.56283375726E-02  0.14779961390E-02  0.67652439060E-02  0.89382550724E-02  0.51109989000E-03 0.  1.
     -623    1    1    2    0    0 -0.12441505248E-02  0.22528461584E-02  0.34301814874E-02  0.17130000005E+03  0.17130000000E+03 0.  1.
      622    1    1    2    0    0 -0.43841870478E-02 -0.37308422975E-02  0.39898045420E+01  0.39910616913E+01  0.10000000000E+00 0.  1.
</event>
<event>
 5   0  0.6262544E+06  0.9118800E+02  0.7818608E-02  0.1180000E+00
       11   -1    0    0    0    0  0.00000000000E+00  0.00000000000E+00  0.39999999673E+01  0.40000000000E+01  0.51109989000E-03 0. -1.
     -623   -1    0    0    0    0  0.00000000000E+00  0.00000000000E+00  0.12525980253E-10  0.17130000000E+03  0.17130000000E+03 0. -1.
       11    1    1    2    0    0 -0.46742961349E-01  0.22994170205E-01  0.11012861658E+01  0.11025176264E+01  0.51109989000E-03 0. -1.
     -623    1    1    2    0    0  0.41635274104E-01  0.35093827592E-02  0.30884999304E-02  0.17130000512E+03  0.17130000000E+03 0. -1.
      622    1    1    2    0    0  0.51076872452E-02 -0.26503552964E-01  0.28956253016E+01  0.28974772500E+01  0.10000000000E+00 0.  1.
</event>
<event>
 5   0  0.6262544E+06  0.9118800E+02  0.7818608E-02  0.1180000E+00
       11   -1    0    0    0    0  0.00000000000E+00  0.00000000000E+00  0.39999999673E+01  0.40000000000E+01  0.51109989000E-03 0. -1.
     -623   -1    0    0    0    0  0.00000000000E+00  0.00000000000E+00  0.12525980253E-10  0.17130000000E+03  0.17130000000E+03 0. -1.
       11    1    1    2    0    0 -0.36717069279E-02 -0.25352452218E-02  0.15685004006E-02  0.47571332442E-02  0.51109989000E-03 0. -1.
     -623    1    1    2    0    0  0.46840829608E-02 -0.36810952873E-02  0.44454119130E-02  0.17130000016E+03  0.17130000000E+03 0. -1.
      622    1    1    2    0    0 -0.10123760330E-02  0.62163405092E-02  0.39939860551E+01  0.39952427055E+01  0.10000000000E+00 0. -1.
</event>
<event>
 5   0  0.6262544E+06  0.9118800E+02  0.7818608E-02  0.1180000E+00
       11   -1    0    0    0    0  0.00000000000E+00  0.00000000000E+00  0.39999999673E+01  0.40000000000E+01  0.51109989000E-03 0. -1.
     -623   -1    0    0    0    0  0.00000000000E+00  0.00000000000E+00  0.12525980253E-10  0.17130000000E+03  0.17130000000E+03 0.  1.
       11    1    1    2    0    0  0.29051707102E-01 -0.48285915755E-01  0.29551645118E+00  0.30084176154E+00  0.51109989000E-03 0. -1.
     -623    1    1    2    0    0 -0.91903685981E-02  0.89961857891E-02  0.69398848132E-02  0.17130000062E+03  0.17130000000E+03 0.  1.
      622    1    1    2    0    0 -0.19861338504E-01  0.39289729966E-01  0.36975436314E+01  0.36991576151E+01  0.10000000000E+00 0. -1.
</event>
<event>
 5   0  0.6262544E+06  0.9118800E+02  0.7818608E-02  0.1180000E+00
       11   -1    0    0    0    0  0.00000000000E+00  0.00000000000E+00  0.39999999673E+01  0.40000000000E+01  0.51109989000E-03 0.  1.
     -623   -1    0    0    0    0  0.00000000000E+00  0.00000000000E+00  0.12525980253E-10  0.17130000000E+03  0.17130000000E+03 0. -1.
       11    1    1    2    0    0  0.10385099330E-01  0.12265910959E-01  0.15962180282E+01  0.15962990189E+01  0.51109989000E-03 0.  1.
     -623    1    1    2    0    0  0.19650113382E-02 -0.14966668580E-01  0.21959377181E-02  0.17130000068E+03  0.17130000000E+03 0. -1.
      622    1    1    2    0    0 -0.12350110668E-01  0.27007576213E-02  0.24015860014E+01  0.24037003019E+01  0.10000000000E+00 0.  1.
</event>
<event>
 5   0  0.6262544E+06  0.9118800E+02  0.7818608E-02  0.1180000E+00
       11   -1    0    0    0    0  0.00000000000E+00  0.00000000000E+00  0.39999999673E+01  0.40000000000E+01  0.51109989000E-03 0. -1.
     -623   -1    0    0    0    0  0.00000000000E+00  0.00000000000E+00  0.12525980253E-10  0.17130000000E+03  0.17130000000E+03 0. -1.
       11    1    1    2    0    0  0.41284210511E-01  0.20985042576E-01  0.48451572975E+00  0.48672426655E+00  0.51109989000E-03 0. -1.
     -623    1    1    2    0    0 -0.31054004757E-01 -0.34222835402E-02  0.36936724886E-02  0.17130000289E+03  0.17130000000E+03 0. -1.
      622    1    1    2    0    0 -0.10230205754E-01 -0.17562759036E-01  0.35117905652E+01  0.35132728448E+01  0.10000000000E+00 0. -1.
</event>
<event>
 5   0  0.6262544E+06  0.9118800E+02  0.7818608E-02  0.1180000E+00
       11   -1    0    0    0    0  0.00000000000E+00  0.00000000000E+00  0.39999999673E+01  0.40000000000E+01  0.51109989000E-03 0. -1.
     -623   -1    0    0    0    0  0.00000000000E+00  0.00000000000E+00  0.12525980253E-10  0.17130000000E+03  0.17130000000E+03 0. -1.
       11    1    1    2    0    0  0.68927254838E-02  0.30731794587E-01  0.91092251550E+00  0.91146697325E+00  0.51109989000E-03 0. -1.
     -623    1    1    2    0    0 -0.12087402304E-01  0.81958005961E-02  0.24142106677E-02  0.17130000064E+03  0.17130000000E+03 0. -1.
      622    1    1    2    0    0  0.51946768206E-02 -0.38927595183E-01  0.30866632412E+01  0.30885323872E+01  0.10000000000E+00 0. -1.
</event>
<event>
 5   0  0.6262544E+06  0.9118800E+02  0.7818608E-02  0.1180000E+00
       11   -1    0    0    0    0  0.00000000000E+00  0.00000000000E+00  0.39999999673E+01  0.40000000000E+01  0.51109989000E-03 0. -1.
     -623   -1    0    0    0    0  0.00000000000E+00  0.00000000000E+00  0.12525980253E-10  0.17130000000E+03  0.17130000000E+03 0. -1.
       11    1    1    2    0    0  0.62400924590E-02 -0.84642246835E-03  0.47682301937E-01  0.48099047038E-01  0.51109989000E-03 0. -1.
     -623    1    1    2    0    0 -0.14773896958E-01  0.20805768400E-02  0.16921970091E-02  0.17130000066E+03  0.17130000000E+03 0. -1.
      622    1    1    2    0    0  0.85338044993E-02 -0.12341543717E-02  0.39506254685E+01  0.39519002949E+01  0.10000000000E+00 0. -1.
</event>
<event>
 5   0  0.6262544E+06  0.9118800E+02  0.7818608E-02  0.1180000E+00
       11   -1    0    0    0    0  0.00000000000E+00  0.00000000000E+00  0.39999999673E+01  0.40000000000E+01  0.51109989000E-03 0. -1.
     -623   -1    0    0    0    0  0.00000000000E+00  0.00000000000E+00  0.12525980253E-10  0.17130000000E+03  0.17130000000E+03 0.  1.
       11    1    1    2    0    0 -0.51668694933E-01 -0.22426795416E-01  0.13839346802E+01  0.13850805303E+01  0.51109989000E-03 0. -1.
     -623    1    1    2    0    0 -0.76024449554E-02 -0.15213581752E-01  0.40030163023E-02  0.17130000089E+03  0.17130000000E+03 0.  1.
      622    1    1    2    0    0  0.59271139888E-01  0.37640377168E-01  0.26120622710E+01  0.26149185788E+01  0.10000000000E+00 0.  1.
</event>
<event>
 5   0  0.6262544E+06  0.9118800E+02  0.7818608E-02  0.1180000E+00
       11   -1    0    0    0    0  0.00000000000E+00  0.00000000000E+00  0.39999999673E+01  0.40000000000E+01  0.51109989000E-03 0. -1.
     -623   -1    0    0    0    0  0.00000000000E+00  0.00000000000E+00  0.12525980253E-10  0.17130000000E+03  0.17130000000E+03 0. -1.
       11    1    1    2    0    0  0.59688620448E-01 -0.40825513389E-01  0.78366230600E+00  0.78699194724E+00  0.51109989000E-03 0. -1.
     -623    1    1    2    0    0 -0.23119410887E-01  0.29651556413E-01  0.51180216037E-02  0.17130000420E+03  0.17130000000E+03 0. -1.
      622    1    1    2    0    0 -0.36569209561E-01  0.11173956977E-01  0.32112196397E+01  0.32130038498E+01  0.10000000000E+00 0.  0.
</event>
<event>
 5   0  0.6262544E+06  0.9118800E+02  0.7818608E-02  0.1180000E+00
       11   -1    0    0    0    0  0.00000000000E+00  0.00000000000E+00  0.39999999673E+01  0.40000000000E+01  0.51109989000E-03 0. -1.
     -623   -1    0    0    0    0  0.00000000000E+00  0.00000000000E+00  0.12525980253E-10  0.17130000000E+03  0.17130000000E+03 0. -1.
       11    1    1    2    0    0  0.16909022771E-02  0.17948625246E-02  0.87279083397E-02  0.90839577913E-02  0.51109989000E-03 0. -1.
     -623    1    1    2    0    0 -0.48303048753E-02 -0.26569523423E-01  0.16893541035E-02  0.17130000214E+03  0.17130000000E+03 0. -1.
      622    1    1    2    0    0  0.31394025981E-02  0.24774660898E-01  0.39895827049E+01  0.39909139052E+01  0.10000000000E+00 0. -1.
</event>
<event>
 5   0  0.6262544E+06  0.9118800E+02  0.7818608E-02  0.1180000E+00
       11   -1    0    0    0    0  0.00000000000E+00  0.00000000000E+00  0.39999999673E+01  0.40000000000E+01  0.51109989000E-03 0.  1.
     -623   -1    0    0    0    0  0.00000000000E+00  0.00000000000E+00  0.12525980253E-10  0.17130000000E+03  0.17130000000E+03 0. -1.
       11    1    1    2    0    0 -0.37604263672E-01 -0.87678414476E-02  0.90717447527E+00  0.90799600522E+00  0.51109989000E-03 0.  1.
     -623    1    1    2    0    0  0.62626534817E-03  0.18022008484E-01  0.26750599997E-02  0.17130000097E+03  0.17130000000E+03 0. -1.
      622    1    1    2    0    0  0.36977998324E-01 -0.92541670363E-02  0.30901504321E+01  0.30920030247E+01  0.10000000000E+00 0.  1.
</event>
<event>
 5   0  0.6262544E+06  0.9118800E+02  0.7818608E-02  0.1180000E+00
       11   -1    0    0    0    0  0.00000000000E+00  0.00000000000E+00  0.39999999673E+01  0.40000000000E+01  0.51109989000E-03 0. -1.
     -623   -1    0    0    0    0  0.00000000000E+00  0.00000000000E+00  0.12525980253E-10  0.17130000000E+03  0.17130000000E+03 0. -1.
       11    1    1    2    0    0  0.32432049026E-01 -0.63951879879E-03  0.94675023667E+00  0.94730592664E+00  0.51109989000E-03 0. -1.
     -623    1    1    2    0    0 -0.27746071283E-02 -0.42787380015E-02  0.23421950180E-02  0.17130000009E+03  0.17130000000E+03 0. -1.
      622    1    1    2    0    0 -0.29657441897E-01  0.49182568003E-02  0.30509075357E+01  0.30526939814E+01  0.10000000000E+00 0.  0.
</event>
<event>
 5   0  0.6262544E+06  0.9118800E+02  0.7818608E-02  0.1180000E+00
       11   -1    0    0    0    0  0.00000000000E+00  0.00000000000E+00  0.39999999673E+01  0.40000000000E+01  0.51109989000E-03 0. -1.
     -623   -1    0    0    0    0  0.00000000000E+00  0.00000000000E+00  0.12525980253E-10  0.17130000000E+03  0.17130000000E+03 0. -1.
       11    1    1    2    0    0  0.45396918663E-01 -0.67620766945E-02  0.11658466807E+00  0.12529505959E+00  0.51109989000E-03 0. -1.
     -623    1    1    2    0    0  0.11993040391E-02 -0.37918294961E-01  0.10543527266E-01  0.17130000453E+03  0.17130000000E+03 0. -1.
      622    1    1    2    0    0 -0.46596222702E-01  0.44680371656E-01  0.38728717720E+01  0.38747004150E+01  0.10000000000E+00 0. -1.
</event>
<event>
 5   0  0.6262544E+06  0.9118800E+02  0.7818608E-02  0.1180000E+00
       11   -1    0    0    0    0  0.00000000000E+00  0.00000000000E+00  0.39999999673E+01  0.40000000000E+01  0.51109989000E-03 0. -1.
     -623   -1    0    0    0    0  0.00000000000E+00  0.00000000000E+00  0.12525980253E-10  0.17130000000E+03  0.17130000000E+03 0. -1.
       11    1    1    2    0    0  0.34965538016E-02  0.68737871793E-02  0.58828330740E-01  0.59333873625E-01  0.51109989000E-03 0. -1.
     -623    1    1    2    0    0 -0.29548488175E-03 -0.38570912378E-02  0.17770441270E-02  0.17130000005E+03  0.17130000000E+03 0. -1.
      622    1    1    2    0    0 -0.32010689199E-02 -0.30166959415E-02  0.39393945925E+01  0.39406660735E+01  0.10000000000E+00 0. -1.
</event>
<event>
 5   0  0.6262544E+06  0.9118800E+02  0.7818608E-02  0.1180000E+00
       11   -1    0    0    0    0  0.00000000000E+00  0.00000000000E+00  0.39999999673E+01  0.40000000000E+01  0.51109989000E-03 0. -1.
     -623   -1    0    0    0    0  0.00000000000E+00  0.00000000000E+00  0.12525980253E-10  0.17130000000E+03  0.17130000000E+03 0.  1.
       11    1    1    2    0    0  0.37615755643E-02 -0.78251806341E-02  0.63962008962E+00  0.63967921896E+00  0.51109989000E-03 0. -1.
     -623    1    1    2    0    0  0.37596105070E-02  0.31649483282E-02  0.15591108606E-02  0.17130000008E+03  0.17130000000E+03 0.  1.
      622    1    1    2    0    0 -0.75211860716E-02  0.46602323057E-02  0.33588207671E+01  0.33603207037E+01  0.10000000000E+00 0. -1.
</event>
<event>
 5   0  0.6262544E+06  0.9118800E+02  0.7818608E-02  0.1180000E+00
       11   -1    0    0    0    0  0.00000000000E+00  0.00000000000E+00  0.39999999673E+01  0.40000000000E+01  0.51109989000E-03 0.  1.
     -623   -1    0    0    0    0  0.00000000000E+00  0.00000000000E+00  0.12525980253E-10  0.17130000000E+03  0.17130000000E+03 0.  1.
       11    1    1    2    0    0  0.38137085159E-01 -0.24743995395E-01  0.19886774859E+01  0.19891971010E+01  0.51109989000E-03 0.  1.
     -623    1    1    2    0    0  0.40420107151E-02  0.75559052660E-02  0.35244875880E-02  0.17130000025E+03  0.17130000000E+03 0.  1.
      622    1    1    2    0    0 -0.42179095874E-01  0.17188090129E-01  0.20077979939E+01  0.20108026484E+01  0.10000000000E+00 0. -1.
</event>
<event>
 5   0  0.6262544E+06  0.9118800E+02  0.7818608E-02  0.1180000E+00
       11   -1    0    0    0    0  0.00000000000E+00  0.00000000000E+00  0.39999999673E+01  0.40000000000E+01  0.51109989000E-03 0.  1.
     -623   -1    0    0    0    0  0.00000000000E+00  0.00000000000E+00  0.12525980253E-10  0.17130000000E+03  0.17130000000E+03 0. -1.
       11    1    1    2    0    0 -0.30364274849E-02  0.53173119124E-02  0.67249138534E+00  0.67251945568E+00  0.51109989000E-03 0.  1.
     -623    1    1    2    0    0 -0.99744075053E-02  0.56465914600E-02  0.15749260804E-02  0.17130000039E+03  0.17130000000E+03 0. -1.
      622    1    1    2    0    0  0.13010834990E-01 -0.10963903372E-01  0.33259336559E+01  0.33274801536E+01  0.10000000000E+00 0.  1.
</event>
<event>
 5   0  0.6262544E+06  0.9118800E+02  0.7818608E-02  0.1180000E+00
       11   -1    0    0    0    0  0.00000000000E+00  0.00000000000E+00  0.39999999673E+01  0.40000000000E+01  0.51109989000E-03 0.  1.
     -623   -1    0    0    0    0  0.00000000000E+00  0.00000000000E+00  0.12525980253E-10  0.17130000000E+03  0.17130000000E+03 0.  1.
       11    1    1    2    0    0 -0.21010466529E-02  0.11959563825E-02  0.38592118368E+00  0.38592909445E+00  0.51109989000E-03 0.  1.
     -623    1    1    2    0    0 -0.57857409804E-02  0.48219600949E-02  0.14054168878E-02  0.17130000017E+03  0.17130000000E+03 0.  1.
      622    1    1    2    0    0  0.78867876332E-02 -0.60179164774E-02  0.36126733668E+01  0.36140707342E+01  0.10000000000E+00 0.  1.
</event>
<event>
 5   0  0.6262544E+06  0.9118800E+02  0.7818608E-02  0.1180000E+00
       11   -1    0    0    0    0  0.00000000000E+00  0.00000000000E+00  0.39999999673E+01  0.40000000000E+01  0.51109989000E-03 0.  1.
     -623   -1    0    0    0    0  0.00000000000E+00  0.00000000000E+00  0.12525980253E-10  0.17130000000E+03  0.17130000000E+03 0. -1.
       11    1    1    2    0    0  0.36177200765E-01  0.23344671299E-01  0.74854096072E+00  0.74977836367E+00  0.51109989000E-03 0.  1.
     -623    1    1    2    0    0 -0.59621321047E-01 -0.14860369922E-02  0.29446375984E-02  0.17130001041E+03  0.17130000000E+03 0. -1.
      622    1    1    2    0    0  0.23444120282E-01 -0.21858634306E-01  0.32485143690E+01  0.32502112289E+01  0.10000000000E+00 0.  1.
</event>
<event>
 5   0  0.6262544E+06  0.9118800E+02  0.7818608E-02  0.1180000E+00
       11   -1    0    0    0    0  0.00000000000E+00  0.00000000000E+00  0.39999999673E+01  0.40000000000E+01  0.51109989000E-03 0. -1.
     -623   -1    0    0    0    0  0.00000000000E+00  0.00000000000E+00  0.12525980253E-10  0.17130000000E+03  0.17130000000E+03 0.  1.
       11    1    1    2    0    0 -0.71858159438E-03  0.73604055478E-01  0.18197711213E+01  0.18212592535E+01  0.51109989000E-03 0. -1.
     -623    1    1    2    0    0  0.12994788859E-01 -0.44270723721E-02  0.49191266482E-02  0.17130000062E+03  0.17130000000E+03 0.  1.
      622    1    1    2    0    0 -0.12276207265E-01 -0.69176983106E-01  0.21753097195E+01  0.21787401258E+01  0.10000000000E+00 0. -1.
</event>
<event>
 5   0  0.6262544E+06  0.9118800E+02  0.7818608E-02  0.1180000E+00
       11   -1    0    0    0    0  0.00000000000E+00  0.00000000000E+00  0.39999999673E+01  0.40000000000E+01  0.51109989000E-03 0.  1.
     -623   -1    0    0    0    0  0.00000000000E+00  0.00000000000E+00  0.12525980253E-10  0.17130000000E+03  0.17130000000E+03 0. -1.
       11    1    1    2    0    0  0.23695812537E-01 -0.12687111042E-01  0.16810491175E+01  0.16812640635E+01  0.51109989000E-03 0.  1.
     -623    1    1    2    0    0 -0.44066124432E-02 -0.24048740888E-02  0.25018268034E-02  0.17130000009E+03  0.17130000000E+03 0. -1.
      622    1    1    2    0    0 -0.19289200094E-01  0.15091985131E-01  0.23164490230E+01  0.23187358447E+01  0.10000000000E+00 0.  0.
</event>
<event>
 5   0  0.6262544E+06  0.9118800E+02  0.7818608E-02  0.1180000E+00
       11   -1    0    0    0    0  0.00000000000E+00  0.00000000000E+00  0.39999999673E+01  0.40000000000E+01  0.51109989000E-03 0. -1.
     -623   -1    0    0    0    0  0.00000000000E+00  0.00000000000E+00  0.12525980253E-10  0.17130000000E+03  0.17130000000E+03 0.  1.
       11    1    1    2    0    0  0.11163243089E-01  0.21282032772E-02  0.14644529820E-01  0.18543751568E-01  0.51109989000E-03 0. -1.
     -623    1    1    2    0    0 -0.74936302135E-02  0.33580116964E-02  0.51609564590E-02  0.17130000027E+03  0.17130000000E+03 0.  1.
      622    1    1    2    0    0 -0.36696128754E-02 -0.54862149737E-02  0.39801944811E+01  0.39814559739E+01  0.10000000000E+00 0. -1.
</event>
<event>
 5   0  0.6262544E+06  0.9118800E+02  0.7818608E-02  0.1180000E+00
       11   -1    0    0    0    0  0.00000000000E+00  0.00000000000E+00  0.39999999673E+01  0.40000000000E+01  0.51109989000E-03 0.  1.
     -623   -1    0    0    0    0  0.00000000000E+00  0.00000000000E+00  0.12525980253E-10  0.17130000000E+03  0.17130000000E+03 0. -1.
       11    1    1    2    0    0 -0.68332982137E-03 -0.12193994152E-01  0.28369696893E+00  0.28396019410E+00  0.51109989000E-03 0.  1.
     -623    1    1    2    0    0 -0.97678218880E-02  0.47807030242E-02  0.16314069902E-02  0.17130000035E+03  0.17130000000E+03 0. -1.
      622    1    1    2    0    0  0.10451151709E-01  0.74132911283E-02  0.37146715914E+01  0.37160394529E+01  0.10000000000E+00 0.  1.
</event>
<event>
 5   0  0.6262544E+06  0.9118800E+02  0.7818608E-02  0.1180000E+00
       11   -1    0    0    0    0  0.00000000000E+00  0.00000000000E+00  0.39999999673E+01  0.40000000000E+01  0.51109989000E-03 0.  1.
     -623   -1    0    0    0    0  0.00000000000E+00  0.00000000000E+00  0.12525980253E-10  0.17130000000E+03  0.17130000000E+03 0. -1.
       11    1    1    2    0    0  0.28098892729E-02  0.46065236294E-02  0.43670892387E-02  0.69604761141E-02  0.51109989000E-03 0.  1.
     -623    1    1    2    0    0 -0.40023011274E-02 -0.31950318778E-03  0.38483000230E-02  0.17130000009E+03  0.17130000000E+03 0. -1.
      622    1    1    2    0    0  0.11924118545E-02 -0.42870204417E-02  0.39917845781E+01  0.39930394336E+01  0.10000000000E+00 0.  1.
</event>
<event>
 5   0  0.6262544E+06  0.9118800E+02  0.7818608E-02  0.1180000E+00
       11   -1    0    0    0    0  0.00000000000E+00  0.00000000000E+00  0.39999999673E+01  0.40000000000E+01  0.51109989000E-03 0. -1.
     -623   -1    0    0    0    0  0.00000000000E+00  0.00000000000E+00  0.12525980253E-10  0.17130000000E+03  0.17130000000E+03 0.  1.
       11    1    1    2    0    0 -0.17475009551E-01 -0.24784999949E-01  0.23202394906E+00  0.23399796226E+00  0.51109989000E-03 0. -1.
     -623    1    1    2    0    0  0.25691462233E-01  0.87867920176E-02  0.33470271887E-02  0.17130000218E+03  0.17130000000E+03 0.  1.
      622    1    1    2    0    0 -0.82164526829E-02  0.15998207931E-01  0.37646289912E+01  0.37659998532E+01  0.10000000000E+00 0. -1.
</event>
<event>
 5   0  0.6262544E+06  0.9118800E+02  0.7818608E-02  0.1180000E+00
       11   -1    0    0    0    0  0.00000000000E+00  0.00000000000E+00  0.39999999673E+01  0.40000000000E+01  0.51109989000E-03 0.  1.
     -623   -1    0    0    0    0  0.00000000000E+00  0.00000000000E+00  0.12525980253E-10  0.17130000000E+03  0.17130000000E+03 0. -1.
       11    1    1    2    0    0  0.96929573734E-02 -0.58321380520E-02  0.67266472235E-01  0.68212951600E-01  0.51109989000E-03 0.  1.
     -623    1    1    2    0    0  0.39604383902E-02  0.31714493439E-02  0.22430431416E-02  0.17130000009E+03  0.17130000000E+03 0. -1.
      622    1    1    2    0    0 -0.13653395764E-01  0.26606887081E-02  0.39304904520E+01  0.39317869586E+01  0.10000000000E+00 0.  1.
</event>
<event>
 5   0  0.6262544E+06  0.9118800E+02  0.7818608E-02  0.1180000E+00
       11   -1    0    0    0    0  0.00000000000E+00  0.00000000000E+00  0.39999999673E+01  0.40000000000E+01  0.51109989000E-03 0.  1.
     -623   -1    0    0    0    0  0.00000000000E+00  0.00000000000E+00  0.12525980253E-10  0.17130000000E+03  0.17130000000E+03 0.  1.
       11    1    1    2    0    0 -0.55119464622E-03  0.18834610484E-02  0.35205749426E-02  0.40628699318E-02  0.51109989000E-03 0.  1.
     -623    1    1    2    0    0  0.15449990822E-02 -0.26461143298E-02  0.17939624890E-02  0.17130000004E+03  0.17130000000E+03 0.  1.
      622    1    1    2    0    0 -0.99380443608E-03  0.76265328158E-03  0.39946854302E+01  0.39959370936E+01  0.10000000000E+00 0.  1.
</event>
<event>
 5   0  0.6262544E+06  0.9118800E+02  0.7818608E-02  0.1180000E+00
       11   -1    0    0    0    0  0.00000000000E+00  0.00000000000E+00  0.39999999673E+01  0.40000000000E+01  0.51109989000E-03 0. -1.
     -623   -1    0    0    0    0  0.00000000000E+00  0.00000000000E+00  0.12525980253E-10  0.17130000000E+03  0.17130000000E+03 0. -1.
       11    1    1    2    0    0 -0.98019472522E-02 -0.13729524384E-01  0.12308622736E+00  0.12423791127E+00  0.51109989000E-03 0. -1.
     -623    1    1    2    0    0  0.27954214780E-01  0.68977070844E-02  0.24929197603E-02  0.17130000244E+03  0.17130000000E+03 0. -1.
      622    1    1    2    0    0 -0.18152267528E-01  0.68318173001E-02  0.38744208202E+01  0.38757596508E+01  0.10000000000E+00 0. -1.
</event>
<event>
 5   0  0.6262544E+06  0.9118800E+02  0.7818608E-02  0.1180000E+00
       11   -1    0    0    0    0  0.00000000000E+00  0.00000000000E+00  0.39999999673E+01  0.40000000000E+01  0.51109989000E-03 0.  1.
     -623   -1    0    0    0    0  0.00000000000E+00  0.00000000000E+00  0.12525980253E-10  0.17130000000E+03  0.17130000000E+03 0.  1.
       11    1    1    2    0    0  0.13182143865E-01  0.81428002909E-02  0.72170730095E-01  0.73817000881E-01  0.51109989000E-03 0.  1.
     -623    1    1    2    0    0  0.55191941911E-03  0.31851943702E-02  0.29603790435E-02  0.17130000006E+03  0.17130000000E+03 0.  1.
      622    1    1    2    0    0 -0.13734063284E-01 -0.11327994661E-01  0.39248688582E+01  0.39261829430E+01  0.10000000000E+00 0.  1.
</event>
<event>
 5   0  0.6262544E+06  0.9118800E+02  0.7818608E-02  0.1180000E+00
       11   -1    0    0    0    0  0.00000000000E+00  0.00000000000E+00  0.39999999673E+01  0.40000000000E+01  0.51109989000E-03 0. -1.
     -623   -1    0    0    0    0  0.00000000000E+00  0.00000000000E+00  0.12525980253E-10  0.17130000000E+03  0.17130000000E+03 0.  1.
       11    1    1    2    0    0 -0.74355939874E-01 -0.83193659410E-01  0.32037725650E+00  0.33925188056E+00  0.51109989000E-03 0. -1.
     -623    1    1    2    0    0  0.23283267294E-01  0.14283672632E-01  0.21249548514E-01  0.17130000350E+03  0.17130000000E+03 0.  1.
      622    1    1    2    0    0  0.51072672581E-01  0.68909986778E-01  0.36583731624E+01  0.36607446236E+01  0.10000000000E+00 0. -1.
</event>
<event>
 5   0  0.6262544E+06  0.9118800E+02  0.7818608E-02  0.1180000E+00
       11   -1    0    0    0    0  0.00000000000E+00  0.00000000000E+00  0.39999999673E+01  0.40000000000E+01  0.51109989000E-03 0.  1.
     -623   -1    0    0    0    0  0.00000000000E+00  0.00000000000E+00  0.12525980253E-10  0.17130000000E+03  0.17130000000E+03 0. -1.
       11    1    1    2    0    0  0.71212013660E-02 -0.58206531564E-02  0.91147773801E-02  0.12958854187E-01  0.51109989000E-03 0.  1.
     -623    1    1    2    0    0 -0.57492980044E-02 -0.64565784430E-02  0.51177435990E-02  0.17130000029E+03  0.17130000000E+03 0. -1.
      622    1    1    2    0    0 -0.13719033618E-02  0.12277231599E-01  0.39857674463E+01  0.39870408511E+01  0.10000000000E+00 0.  1.
</event>
<event>
 5   0  0.6262544E+06  0.9118800E+02  0.7818608E-02  0.1180000E+00
       11   -1    0    0    0    0  0.00000000000E+00  0.00000000000E+00  0.39999999673E+01  0.40000000000E+01  0.51109989000E-03 0.  1.
     -623   -1    0    0    0    0  0.00000000000E+00  0.00000000000E+00  0.12525980253E-10  0.17130000000E+03  0.17130000000E+03 0. -1.
       11    1    1    2    0    0 -0.31005446360E-02  0.12373894761E-02  0.48903594638E-02  0.59431766370E-02  0.51109989000E-03 0.  1.
     -623    1    1    2    0    0  0.20920786254E-04  0.33164928109E-02  0.23086730156E-02  0.17130000005E+03  0.17130000000E+03 0. -1.
      622    1    1    2    0    0  0.30796238498E-02 -0.45538822869E-02  0.39928009347E+01  0.39940567755E+01  0.10000000000E+00 0.  1.
</event>
<event>
 5   0  0.6262544E+06  0.9118800E+02  0.7818608E-02  0.1180000E+00
       11   -1    0    0    0    0  0.00000000000E+00  0.00000000000E+00  0.39999999673E+01  0.40000000000E+01  0.51109989000E-03 0.  1.
     -623   -1    0    0    0    0  0.00000000000E+00  0.00000000000E+00  0.12525980253E-10  0.17130000000E+03  0.17130000000E+03 0. -1.
       11    1    1    2    0    0 -0.78596503059E-03  0.42263438278E-02  0.23624166345E-01  0.24017538993E-01  0.51109989000E-03 0.  1.
     -623    1    1    2    0    0 -0.38555123430E-05 -0.24118620755E-02  0.16516073446E-02  0.17130000002E+03  0.17130000000E+03 0. -1.
      622    1    1    2    0    0  0.78982054294E-03 -0.18144817523E-02  0.39747241937E+01  0.39759824361E+01  0.10000000000E+00 0.  1.
</event>
<event>
 5   0  0.6262544E+06  0.9118800E+02  0.7818608E-02  0.1180000E+00
       11   -1    0    0    0    0  0.00000000000E+00  0.00000000000E+00  0.39999999673E+01  0.40000000000E+01  0.51109989000E-03 0.  1.
     -623   -1    0    0    0    0  0.00000000000E+00  0.00000000000E+00  0.12525980253E-10  0.17130000000E+03  0.17130000000E+03 0. -1.
       11    1    1    2    0    0  0.44483478011E-02  0.38029145425E-02  0.31170617493E-01  0.31719372238E-01  0.51109989000E-03 0.  1.
     -623    1    1    2    0    0 -0.72475054341E-02  0.79957404107E-03  0.18127359937E-02  0.17130000016E+03  0.17130000000E+03 0. -1.
      622    1    1    2    0    0  0.27991576330E-02 -0.46024885835E-02  0.39670166139E+01  0.39682804630E+01  0.10000000000E+00 0.  1.
</event>
<event>
 5   0  0.6262544E+06  0.9118800E+02  0.7818608E-02  0.1180000E+00
       11   -1    0    0    0    0  0.00000000000E+00  0.00000000000E+00  0.39999999673E+01  0.40000000000E+01  0.51109989000E-03 0.  1.
     -623   -1    0    0    0    0  0.00000000000E+00  0.00000000000E+00  0.12525980253E-10  0.17130000000E+03  0.17130000000E+03 0. -1.
       11    1    1    2    0    0 -0.31348226686E-02  0.34321972813E-02 -0.42059909329E-03  0.46952335443E-02  0.51109989000E-03 0.  1.
     -623    1    1    2    0    0 -0.93114709926E-02 -0.61773570830E-02  0.63882848282E-02  0.17130000048E+03  0.17130000000E+03 0. -1.
      622    1    1    2    0    0  0.12446293661E-01  0.27451598018E-02  0.39940322817E+01  0.39953042829E+01  0.10000000000E+00 0.  1.
</event>
<event>
 5   0  0.6262544E+06  0.9118800E+02  0.7818608E-02  0.1180000E+00
       11   -1    0    0    0    0  0.00000000000E+00  0.00000000000E+00  0.39999999673E+01  0.40000000000E+01  0.51109989000E-03 0.  1.
     -623   -1    0    0    0    0  0.00000000000E+00  0.00000000000E+00  0.12525980253E-10  0.17130000000E+03  0.17130000000E+03 0.  1.
       11    1    1    2    0    0 -0.12768122688E-01 -0.37843306506E-01  0.77060445026E+00  0.77163891866E+00  0.51109989000E-03 0.  1.
     -623    1    1    2    0    0  0.29978817520E-02 -0.22994291912E-02  0.28481437016E-02  0.17130000007E+03  0.17130000000E+03 0.  1.
      622    1    1    2    0    0  0.97702409356E-02  0.40142735698E-01  0.32265473735E+01  0.32283610161E+01  0.10000000000E+00 0.  1.
</event>
<event>
 5   0  0.6262544E+06  0.9118800E+02  0.7818608E-02  0.1180000E+00
       11   -1    0    0    0    0  0.00000000000E+00  0.00000000000E+00  0.39999999673E+01  0.40000000000E+01  0.51109989000E-03 0. -1.
     -623   -1    0    0    0    0  0.00000000000E+00  0.00000000000E+00  0.12525980253E-10  0.17130000000E+03  0.17130000000E+03 0. -1.
       11    1    1    2    0    0 -0.68078445722E-02 -0.17560016111E-02  0.35301691758E+00  0.35308729177E+00  0.51109989000E-03 0. -1.
     -623    1    1    2    0    0  0.14252507922E-01  0.66778998759E-02  0.14532756122E-02  0.17130000073E+03  0.17130000000E+03 0. -1.
      622    1    1    2    0    0 -0.74446633517E-02 -0.49218982654E-02  0.36455297746E+01  0.36469119794E+01  0.10000000000E+00 0. -1.
</event>
<event>
 5   0  0.6262544E+06  0.9118800E+02  0.7818608E-02  0.1180000E+00
       11   -1    0    0    0    0  0.00000000000E+00  0.00000000000E+00  0.39999999673E+01  0.40000000000E+01  0.51109989000E-03 0. -1.
     -623   -1    0    0    0    0  0.00000000000E+00  0.00000000000E+00  0.12525980253E-10  0.17130000000E+03  0.17130000000E+03 0. -1.
       11    1    1    2    0    0 -0.11309483552E-01  0.17167368803E-01  0.11294374050E+01  0.11296245996E+01  0.51109989000E-03 0. -1.
     -623    1    1    2    0    0  0.30020864938E-02 -0.15009121926E-02  0.19844766530E-02  0.17130000004E+03  0.17130000000E+03 0. -1.
      622    1    1    2    0    0  0.83073970577E-02 -0.15666456611E-01  0.28685780858E+01  0.28703753562E+01  0.10000000000E+00 0. -1.
</event>
<event>
 5   0  0.6262544E+06  0.9118800E+02  0.7818608E-02  0.1180000E+00
       11   -1    0    0    0    0  0.00000000000E+00  0.00000000000E+00  0.39999999673E+01  0.40000000000E+01  0.51109989000E-03 0.  1.
     -623   -1    0    0    0    0  0.00000000000E+00  0.00000000000E+00  0.12525980253E-10  0.17130000000E+03  0.17130000000E+03 0. -1.
       11    1    1    2    0    0  0.20535643944E-01 -0.37875523859E-01  0.85165821868E+00  0.85274747179E+00  0.51109989000E-03 0.  1.
     -623    1    1    2    0    0  0.14788190077E-01  0.21161294392E-01  0.29230268963E-02  0.17130000197E+03  0.17130000000E+03 0. -1.
      622    1    1    2    0    0 -0.35323834022E-01  0.16714229467E-01  0.31454187219E+01  0.31472505580E+01  0.10000000000E+00 0.  1.
</event>
<event>
 5   0  0.6262544E+06  0.9118800E+02  0.7818608E-02  0.1180000E+00
       11   -1    0    0    0    0  0.00000000000E+00  0.00000000000E+00  0.39999999673E+01  0.40000000000E+01  0.51109989000E-03 0.  1.
     -623   -1    0    0    0    0  0.00000000000E+00  0.00000000000E+00  0.12525980253E-10  0.17130000000E+03  0.17130000000E+03 0. -1.
       11    1    1    2    0    0 -0.54513851579E-02 -0.66994445957E-02  0.94180234010E-01  0.94576835744E-01  0.51109989000E-03 0.  1.
     -623    1    1    2    0    0  0.48877061522E-02 -0.16999966212E-02  0.16862125549E-02  0.17130000009E+03  0.17130000000E+03 0. -1.
      622    1    1    2    0    0  0.56367900590E-03  0.83994412169E-02  0.39041335207E+01  0.39054230777E+01  0.10000000000E+00 0.  1.
</event>
<event>
 5   0  0.6262544E+06  0.9118800E+02  0.7818608E-02  0.1180000E+00
       11   -1    0    0    0    0  0.00000000000E+00  0.00000000000E+00  0.39999999673E+01  0.40000000000E+01  0.51109989000E-03 0.  1.
     -623   -1    0    0    0    0  0.00000000000E+00  0.00000000000E+00  0.12525980253E-10  0.17130000000E+03  0.17130000000E+03 0. -1.
       11    1    1    2    0    0  0.35567598757E-02  0.10937176367E-01  0.50549294933E-01  0.51843657337E-01  0.51109989000E-03 0.  1.
     -623    1    1    2    0    0 -0.20592040531E-01 -0.36713631892E-02  0.26056953656E-02  0.17130000130E+03  0.17130000000E+03 0. -1.
      622    1    1    2    0    0  0.17035280655E-01 -0.72658131783E-02  0.39468449771E+01  0.39481550458E+01  0.10000000000E+00 0.  1.
</event>
<event>
 5   0  0.6262544E+06  0.9118800E+02  0.7818608E-02  0.1180000E+00
       11   -1    0    0    0    0  0.00000000000E+00  0.00000000000E+00  0.39999999673E+01  0.40000000000E+01  0.51109989000E-03 0. -1.
     -623   -1    0    0    0    0  0.00000000000E+00  0.00000000000E+00  0.12525980253E-10  0.17130000000E+03  0.17130000000E+03 0. -1.
       11    1    1    2    0    0  0.11202295213E-03  0.76454706006E-02  0.67478379386E-01  0.67912139384E-01  0.51109989000E-03 0. -1.
     -623    1    1    2    0    0  0.46675391421E-02 -0.58943450993E-04  0.17158211804E-02  0.17130000007E+03  0.17130000000E+03 0. -1.
      622    1    1    2    0    0 -0.47795620942E-02 -0.75865271496E-02  0.39308057668E+01  0.39320877884E+01  0.10000000000E+00 0. -1.
</event>
<event>
 5   0  0.6262544E+06  0.9118800E+02  0.7818608E-02  0.1180000E+00
       11   -1    0    0    0    0  0.00000000000E+00  0.00000000000E+00  0.39999999673E+01  0.40000000000E+01  0.51109989000E-03 0.  1.
     -623   -1    0    0    0    0  0.00000000000E+00  0.00000000000E+00  0.12525980253E-10  0.17130000000E+03  0.17130000000E+03 0.  1.
       11    1    1    2    0    0 -0.45803680508E-01  0.25254725079E-01  0.26431745106E+00  0.26944341603E+00  0.51109989000E-03 0.  1.
     -623    1    1    2    0    0  0.39560875046E-01  0.10882722452E-01  0.66518229649E-02  0.17130000504E+03  0.17130000000E+03 0.  1.
      622    1    1    2    0    0  0.62428054619E-02 -0.36137447531E-01  0.37290306933E+01  0.37305515409E+01  0.10000000000E+00 0.  1.
</event>
<event>
 5   0  0.6262544E+06  0.9118800E+02  0.7818608E-02  0.1180000E+00
       11   -1    0    0    0    0  0.00000000000E+00  0.00000000000E+00  0.39999999673E+01  0.40000000000E+01  0.51109989000E-03 0. -1.
     -623   -1    0    0    0    0  0.00000000000E+00  0.00000000000E+00  0.12525980253E-10  0.17130000000E+03  0.17130000000E+03 0. -1.
       11    1    1    2    0    0 -0.24290241994E-01  0.84586837163E-02  0.26566367440E+00  0.26690637741E+00  0.51109989000E-03 0. -1.
     -623    1    1    2    0    0  0.45226246831E-02 -0.14904643672E-01  0.26409346915E-02  0.17130000073E+03  0.17130000000E+03 0. -1.
      622    1    1    2    0    0  0.19767617311E-01  0.64459599554E-02  0.37316953583E+01  0.37330928941E+01  0.10000000000E+00 0. -1.
</event>
<event>
 5   0  0.6262544E+06  0.9118800E+02  0.7818608E-02  0.1180000E+00
       11   -1    0    0    0    0  0.00000000000E+00  0.00000000000E+00  0.39999999673E+01  0.40000000000E+01  0.51109989000E-03 0.  1.
     -623   -1    0    0    0    0  0.00000000000E+00  0.00000000000E+00  0.12525980253E-10  0.17130000000E+03  0.17130000000E+03 0.  1.
       11    1    1    2    0    0  0.47073087949E-03 -0.23713101875E-02  0.19812347598E-01  0.19965846839E-01  0.51109989000E-03 0.  1.
     -623    1    1    2    0    0 -0.13313661821E-02  0.12919408560E-02  0.14101908993E-02  0.17130000002E+03  0.17130000000E+03 0.  1.
      622    1    1    2    0    0  0.86063530269E-03  0.10793693314E-02  0.39787774290E+01  0.39800341374E+01  0.10000000000E+00 0.  1.
</event>
<event>
 5   0  0.6262544E+06  0.9118800E+02  0.7818608E-02  0.1180000E+00
       11   -1    0    0    0    0  0.00000000000E+00  0.00000000000E+00  0.39999999673E+01  0.40000000000E+01  0.51109989000E-03 0. -1.
     -623   -1    0    0    0    0  0.00000000000E+00  0.00000000000E+00  0.12525980253E-10  0.17130000000E+03  0.17130000000E+03 0.  1.
       11    1    1    2    0    0  0.10393055380E-02 -0.20661949685E-01  0.51016957892E+00  0.51058912719E+00  0.51109989000E-03 0. -1.
     -623    1    1    2    0    0  0.21229294954E-02  0.88310326301E-02  0.18744659828E-02  0.17130000025E+03  0.17130000000E+03 0.  1.
      622    1    1    2    0    0 -0.31622350334E-02  0.11830917055E-01  0.34879559225E+01  0.34894106218E+01  0.10000000000E+00 0. -1.
</event>
<event>
 5   0  0.6262544E+06  0.9118800E+02  0.7818608E-02  0.1180000E+00
       11   -1    0    0    0    0  0.00000000000E+00  0.00000000000E+00  0.39999999673E+01  0.40000000000E+01  0.51109989000E-03 0. -1.
     -623   -1    0    0    0    0  0.00000000000E+00  0.00000000000E+00  0.12525980253E-10  0.17130000000E+03  0.17130000000E+03 0. -1.
       11    1    1    2    0    0 -0.35832224822E-02  0.33542732613E-02  0.15657669344E+00  0.15665443749E+00  0.51109989000E-03 0. -1.
     -623    1    1    2    0    0  0.51491140722E-02 -0.23575626170E-02  0.13794291434E-02  0.17130000010E+03  0.17130000000E+03 0. -1.
      622    1    1    2    0    0 -0.15658915899E-02 -0.99671064436E-03  0.38420438447E+01  0.38433454633E+01  0.10000000000E+00 0. -1.
</event>
<event>
 5   0  0.6262544E+06  0.9118800E+02  0.7818608E-02  0.1180000E+00
       11   -1    0    0    0    0  0.00000000000E+00  0.00000000000E+00  0.39999999673E+01  0.40000000000E+01  0.51109989000E-03 0.  1.
     -623   -1    0    0    0    0  0.00000000000E+00  0.00000000000E+00  0.12525980253E-10  0.17130000000E+03  0.17130000000E+03 0. -1.
       11    1    1    2    0    0  0.65673395912E-01 -0.61376462260E-01  0.14699345214E+01  0.14726804893E+01  0.51109989000E-03 0.  1.
     -623    1    1    2    0    0  0.12721591242E-01 -0.24676928482E-02  0.67503825376E-02  0.17130000062E+03  0.17130000000E+03 0. -1.
      622    1    1    2    0    0 -0.78394987154E-01  0.63844155109E-01  0.25233150634E+01  0.25273188875E+01  0.10000000000E+00 0.  1.
</event>
<event>
 5   0  0.6262544E+06  0.9118800E+02  0.7818608E-02  0.1180000E+00
       11   -1    0    0    0    0  0.00000000000E+00  0.00000000000E+00  0.39999999673E+01  0.40000000000E+01  0.51109989000E-03 0.  1.
     -623   -1    0    0    0    0  0.00000000000E+00  0.00000000000E+00  0.12525980253E-10  0.17130000000E+03  0.17130000000E+03 0.  1.
       11    1    1    2    0    0  0.21639512641E-02 -0.36374674517E-01  0.36695721759E+00  0.36876233592E+00  0.51109989000E-03 0.  1.
     -623    1    1    2    0    0 -0.17361155998E-01  0.38088616602E-01  0.32196523823E-02  0.17130000514E+03  0.17130000000E+03 0.  1.
      622    1    1    2    0    0  0.15197204734E-01 -0.17139420862E-02  0.36298230975E+01  0.36312325197E+01  0.10000000000E+00 0.  1.
</event>
<event>
 5   0  0.6262544E+06  0.9118800E+02  0.7818608E-02  0.1180000E+00
       11   -1    0    0    0    0  0.00000000000E+00  0.00000000000E+00  0.39999999673E+01  0.40000000000E+01  0.51109989000E-03 0. -1.
     -623   -1    0    0    0    0  0.00000000000E+00  0.00000000000E+00  0.12525980253E-10  0.17130000000E+03  0.17130000000E+03 0.  1.
       11    1    1    2    0    0  0.20712768146E-02  0.21041716267E-02  0.17928719877E+00  0.17931223770E+00  0.51109989000E-03 0. -1.
     -623    1    1    2    0    0 -0.36986186360E-02  0.48789354440E-02  0.13407405189E-02  0.17130000011E+03  0.17130000000E+03 0.  1.
      622    1    1    2    0    0  0.16273418214E-02 -0.69831070708E-02  0.38193720281E+01  0.38206876476E+01  0.10000000000E+00 0. -1.
</event>
<event>
 5   0  0.6262544E+06  0.9118800E+02  0.7818608E-02  0.1180000E+00
       11   -1    0    0    0    0  0.00000000000E+00  0.00000000000E+00  0.39999999673E+01  0.40000000000E+01  0.51109989000E-03 0.  1.
     -623   -1    0    0    0    0  0.00000000000E+00  0.00000000000E+00  0.12525980253E-10  0.17130000000E+03  0.17130000000E+03 0. -1.
       11    1    1    2    0    0  0.35739203187E-01  0.98304314713E-02  0.12171964295E+01  0.12177607882E+01  0.51109989000E-03 0.  1.
     -623    1    1    2    0    0 -0.23825368338E-01 -0.71305788509E-02  0.23906791707E-02  0.17130000182E+03  0.17130000000E+03 0. -1.
      622    1    1    2    0    0 -0.11913834850E-01 -0.26998526206E-02  0.27804128586E+01  0.27822373897E+01  0.10000000000E+00 0.  1.
</event>
<event>
 5   0  0.6262544E+06  0.9118800E+02  0.7818608E-02  0.1180000E+00
       11   -1    0    0    0    0  0.00000000000E+00  0.00000000000E+00  0.39999999673E+01  0.40000000000E+01  0.51109989000E-03 0. -1.
     -623   -1    0    0    0    0  0.00000000000E+00  0.00000000000E+00  0.12525980253E-10  0.17130000000E+03  0.17130000000E+03 0. -1.
       11    1    1    2    0    0 -0.16372819883E-02 -0.39901257012E-03  0.20373407409E-02  0.26929321812E-02  0.51109989000E-03 0. -1.
     -623    1    1    2    0    0  0.10167161065E-02 -0.12621844617E-02  0.19070084379E-02  0.17130000002E+03  0.17130000000E+03 0. -1.
      622    1    1    2    0    0  0.62056588188E-03  0.16611970318E-02  0.39960556182E+01  0.39973070495E+01  0.10000000000E+00 0. -1.
</event>
<event>
 5   0  0.6262544E+06  0.9118800E+02  0.7818608E-02  0.1180000E+00
       11   -1    0    0    0    0  0.00000000000E+00  0.00000000000E+00  0.39999999673E+01  0.40000000000E+01  0.51109989000E-03 0. -1.
     -623   -1    0    0    0    0  0.00000000000E+00  0.00000000000E+00  0.12525980253E-10  0.17130000000E+03  0.17130000000E+03 0. -1.
       11    1    1    2    0    0 -0.74137104622E-01 -0.20241038390E-01  0.38528901360E+00  0.39287898282E+00  0.51109989000E-03 0. -1.
     -623    1    1    2    0    0  0.65965285981E-01 -0.33544856026E-01  0.94030410032E-02  0.17130001624E+03  0.17130000000E+03 0. -1.
      622    1    1    2    0    0  0.81718186409E-02  0.53785894416E-01  0.36053079128E+01  0.36071047735E+01  0.10000000000E+00 0. -1.
</event>
<event>
 5   0  0.6262544E+06  0.9118800E+02  0.7818608E-02  0.1180000E+00
       11   -1    0    0    0    0  0.00000000000E+00  0.00000000000E+00  0.39999999673E+01  0.40000000000E+01  0.51109989000E-03 0. -1.
     -623   -1    0    0    0    0  0.00000000000E+00  0.00000000000E+00  0.12525980253E-10  0.17130000000E+03  0.17130000000E+03 0. -1.
       11    1    1    2    0    0 -0.49182237715E-03 -0.62235714189E-02  0.24208750125E-02  0.67153992270E-02  0.51109989000E-03 0. -1.
     -623    1    1    2    0    0 -0.10237251378E-01  0.60015170274E-02  0.55617155550E-02  0.17130000050E+03  0.17130000000E+03 0. -1.
      622    1    1    2    0    0  0.10729073755E-01  0.22205439148E-03  0.39920173768E+01  0.39932840995E+01  0.10000000000E+00 0. -1.
</event>
<event>
 5   0  0.6262544E+06  0.9118800E+02  0.7818608E-02  0.1180000E+00
       11   -1    0    0    0    0  0.00000000000E+00  0.00000000000E+00  0.39999999673E+01  0.40000000000E+01  0.51109989000E-03 0. -1.
     -623   -1    0    0    0    0  0.00000000000E+00  0.00000000000E+00  0.12525980253E-10  0.17130000000E+03  0.17130000000E+03 0. -1.
       11    1    1    2    0    0 -0.43816292862E-01  0.36060967788E-01  0.16578215166E+01  0.16587925437E+01  0.51109989000E-03 0. -1.
     -623    1    1    2    0    0  0.34793483566E-02 -0.17532761531E-03  0.37308569389E-02  0.17130000008E+03  0.17130000000E+03 0. -1.
      622    1    1    2    0    0  0.40336944505E-01 -0.35885640173E-01  0.23384475939E+01  0.23412073803E+01  0.10000000000E+00 0.  0.
</event>
<event>
 5   0  0.6262544E+06  0.9118800E+02  0.7818608E-02  0.1180000E+00
       11   -1    0    0    0    0  0.00000000000E+00  0.00000000000E+00  0.39999999673E+01  0.40000000000E+01  0.51109989000E-03 0.  1.
     -623   -1    0    0    0    0  0.00000000000E+00  0.00000000000E+00  0.12525980253E-10  0.17130000000E+03  0.17130000000E+03 0.  1.
       11    1    1    2    0    0 -0.10655995349E-01 -0.20563206777E-01  0.17643059167E-01  0.29119314339E-01  0.51109989000E-03 0.  1.
     -623    1    1    2    0    0 -0.17713512673E-01  0.89861352315E-02  0.12855480311E-01  0.17130000163E+03  0.17130000000E+03 0.  1.
      622    1    1    2    0    0  0.28369508022E-01  0.11577071545E-01  0.39695014279E+01  0.39708790517E+01  0.10000000000E+00 0.  1.
</event>
<event>
 5   0  0.6262544E+06  0.9118800E+02  0.7818608E-02  0.1180000E+00
       11   -1    0    0    0    0  0.00000000000E+00  0.00000000000E+00  0.39999999673E+01  0.40000000000E+01  0.51109989000E-03 0.  1.
     -623   -1    0    0    0    0  0.00000000000E+00  0.00000000000E+00  0.12525980253E-10  0.17130000000E+03  0.17130000000E+03 0. -1.
       11    1    1    2    0    0  0.36188986960E-02  0.29815010944E-03  0.11635175654E+00  0.11640952621E+00  0.51109989000E-03 0.  1.
     -623    1    1    2    0    0 -0.40280823829E-02  0.21819570949E-02  0.13462992166E-02  0.17130000007E+03  0.17130000000E+03 0. -1.
      622    1    1    2    0    0  0.40918368686E-03 -0.24801072043E-02  0.38823019116E+01  0.38835904072E+01  0.10000000000E+00 0.  1.
</event>
<event>
 5   0  0.6262544E+06  0.9118800E+02  0.7818608E-02  0.1180000E+00
       11   -1    0    0    0    0  0.00000000000E+00  0.00000000000E+00  0.39999999673E+01  0.40000000000E+01  0.51109989000E-03 0. -1.
     -623   -1    0    0    0    0  0.00000000000E+00  0.00000000000E+00  0.12525980253E-10  0.17130000000E+03  0.17130000000E+03 0.  1.
       11    1    1    2    0    0 -0.80090417855E-03 -0.71875962737E-02  0.38642960099E+00  0.38649760766E+00  0.51109989000E-03 0. -1.
     -623    1    1    2    0    0  0.90181933451E-02  0.30791588253E-02  0.14638929200E-02  0.17130000027E+03  0.17130000000E+03 0.  1.
      622    1    1    2    0    0 -0.82172891665E-02  0.41084374484E-02  0.36121064734E+01  0.36135021210E+01  0.10000000000E+00 0. -1.
</event>
<event>
 5   0  0.6262544E+06  0.9118800E+02  0.7818608E-02  0.1180000E+00
       11   -1    0    0    0    0  0.00000000000E+00  0.00000000000E+00  0.39999999673E+01  0.40000000000E+01  0.51109989000E-03 0.  1.
     -623   -1    0    0    0    0  0.00000000000E+00  0.00000000000E+00  0.12525980253E-10  0.17130000000E+03  0.17130000000E+03 0. -1.
       11    1    1    2    0    0  0.54107676566E-02  0.36362424982E-02  0.60763934008E-02  0.89265024505E-02  0.51109989000E-03 0.  1.
     -623    1    1    2    0    0 -0.31262740494E-02 -0.35445568788E-02  0.41038383437E-02  0.17130000011E+03  0.17130000000E+03 0. -1.
      622    1    1    2    0    0 -0.22844936071E-02 -0.91685619338E-04  0.39898197357E+01  0.39910733832E+01  0.10000000000E+00 0.  1.
</event>
<event>
 5   0  0.6262544E+06  0.9118800E+02  0.7818608E-02  0.1180000E+00
       11   -1    0    0    0    0  0.00000000000E+00  0.00000000000E+00  0.39999999673E+01  0.40000000000E+01  0.51109989000E-03 0.  1.
     -623   -1    0    0    0    0  0.00000000000E+00  0.00000000000E+00  0.12525980253E-10  0.17130000000E+03  0.17130000000E+03 0. -1.
       11    1    1    2    0    0  0.20517763310E-02 -0.63753840173E-02  0.38679333591E-01  0.39258214130E-01  0.51109989000E-03 0.  1.
     -623    1    1    2    0    0  0.39585552537E-02  0.34788116850E-02  0.18471512098E-02  0.17130000009E+03  0.17130000000E+03 0. -1.
      622    1    1    2    0    0 -0.60103315847E-02  0.28965723323E-02  0.39594734826E+01  0.39607416948E+01  0.10000000000E+00 0.  1.
</event>
<event>
 5   0  0.6262544E+06  0.9118800E+02  0.7818608E-02  0.1180000E+00
       11   -1    0    0    0    0  0.00000000000E+00  0.00000000000E+00  0.39999999673E+01  0.40000000000E+01  0.51109989000E-03 0.  1.
     -623   -1    0    0    0    0  0.00000000000E+00  0.00000000000E+00  0.12525980253E-10  0.17130000000E+03  0.17130000000E+03 0.  1.
       11    1    1    2    0    0 -0.39862652913E-01 -0.84656749236E-02  0.10699451168E+01  0.10707210248E+01  0.51109989000E-03 0.  1.
     -623    1    1    2    0    0  0.42518375308E-02 -0.36749499675E-02  0.27251590908E-02  0.17130000011E+03  0.17130000000E+03 0.  1.
      622    1    1    2    0    0  0.35610815383E-01  0.12140624891E-01  0.29273296913E+01  0.29292788612E+01  0.10000000000E+00 0.  1.
</event>
<event>
 5   0  0.6262544E+06  0.9118800E+02  0.7818608E-02  0.1180000E+00
       11   -1    0    0    0    0  0.00000000000E+00  0.00000000000E+00  0.39999999673E+01  0.40000000000E+01  0.51109989000E-03 0.  1.
     -623   -1    0    0    0    0  0.00000000000E+00  0.00000000000E+00  0.12525980253E-10  0.17130000000E+03  0.17130000000E+03 0.  1.
       11    1    1    2    0    0 -0.43472838906E-02 -0.26710990706E-01  0.98161864619E+00  0.98199175336E+00  0.51109989000E-03 0.  1.
     -623    1    1    2    0    0 -0.15020011985E-01  0.11921888379E-01  0.21297719190E-02  0.17130000109E+03  0.17130000000E+03 0.  1.
      622    1    1    2    0    0  0.19367295876E-01  0.14789102327E-01  0.30162515493E+01  0.30180071600E+01  0.10000000000E+00 0.  1.
</event>
<event>
 5   0  0.6262544E+06  0.9118800E+02  0.7818608E-02  0.1180000E+00
       11   -1    0    0    0    0  0.00000000000E+00  0.00000000000E+00  0.39999999673E+01  0.40000000000E+01  0.51109989000E-03 0.  1.
     -623   -1    0    0    0    0  0.00000000000E+00  0.00000000000E+00  0.12525980253E-10  0.17130000000E+03  0.17130000000E+03 0.  1.
       11    1    1    2    0    0  0.41373335616E-02 -0.13409793056E-02  0.17774534274E+00  0.17779927964E+00  0.51109989000E-03 0.  1.
     -623    1    1    2    0    0  0.33293419149E-02 -0.23140032746E-02  0.13713723078E-02  0.17130000005E+03  0.17130000000E+03 0.  1.
      622    1    1    2    0    0 -0.74666754766E-02  0.36549825802E-02  0.38208832523E+01  0.38222006669E+01  0.10000000000E+00 0.  1.
</event>
<event>
 5   0  0.6262544E+06  0.9118800E+02  0.7818608E-02  0.1180000E+00
       11   -1    0    0    0    0  0.00000000000E+00  0.00000000000E+00  0.39999999673E+01  0.40000000000E+01  0.51109989000E-03 0.  1.
     -623   -1    0    0    0    0  0.00000000000E+00  0.00000000000E+00  0.12525980253E-10  0.17130000000E+03  0.17130000000E+03 0.  1.
       11    1    1    2    0    0 -0.17362668087E-01  0.31922125229E-01  0.49422176953E+00  0.49555615527E+00  0.51109989000E-03 0.  1.
     -623    1    1    2    0    0  0.38006023831E-02  0.20074763359E-02  0.29520592432E-02  0.17130000008E+03  0.17130000000E+03 0.  1.
      622    1    1    2    0    0  0.13562065704E-01 -0.33929601565E-01  0.35028261386E+01  0.35044437654E+01  0.10000000000E+00 0.  1.
</event>
<event>
 5   0  0.6262544E+06  0.9118800E+02  0.7818608E-02  0.1180000E+00
       11   -1    0    0    0    0  0.00000000000E+00  0.00000000000E+00  0.39999999673E+01  0.40000000000E+01  0.51109989000E-03 0.  1.
     -623   -1    0    0    0    0  0.00000000000E+00  0.00000000000E+00  0.12525980253E-10  0.17130000000E+03  0.17130000000E+03 0.  1.
       11    1    1    2    0    0 -0.11542885620E-02 -0.48296764380E-03 -0.11768652365E-03  0.13567288029E-02  0.51109989000E-03 0.  1.
     -623    1    1    2    0    0  0.14420256480E-02 -0.76484511777E-04  0.27250796563E-02  0.17130000003E+03  0.17130000000E+03 0.  1.
      622    1    1    2    0    0 -0.28773708596E-03  0.55945215558E-03  0.39973925742E+01  0.39986432434E+01  0.10000000000E+00 0.  1.
</event>
<event>
 5   0  0.6262544E+06  0.9118800E+02  0.7818608E-02  0.1180000E+00
       11   -1    0    0    0    0  0.00000000000E+00  0.00000000000E+00  0.39999999673E+01  0.40000000000E+01  0.51109989000E-03 0. -1.
     -623   -1    0    0    0    0  0.00000000000E+00  0.00000000000E+00  0.12525980253E-10  0.17130000000E+03  0.17130000000E+03 0. -1.
       11    1    1    2    0    0  0.19292186371E-01  0.16892982279E-01  0.99904330059E+00  0.99937247259E+00  0.51109989000E-03 0. -1.
     -623    1    1    2    0    0 -0.36133612578E-02 -0.73785321264E-02  0.20522081781E-02  0.17130000021E+03  0.17130000000E+03 0. -1.
      622    1    1    2    0    0 -0.15678825114E-01 -0.95144501523E-02  0.29989044586E+01  0.30006273181E+01  0.10000000000E+00 0.  0.
</event>
<event>
 5   0  0.6262544E+06  0.9118800E+02  0.7818608E-02  0.1180000E+00
       11   -1    0    0    0    0  0.00000000000E+00  0.00000000000E+00  0.39999999673E+01  0.40000000000E+01  0.51109989000E-03 0. -1.
     -623   -1    0    0    0    0  0.00000000000E+00  0.00000000000E+00  0.12525980253E-10  0.17130000000E+03  0.17130000000E+03 0.  1.
       11    1    1    2    0    0  0.53284043773E-02 -0.29682101984E-01  0.12433179913E+00  0.12793778397E+00  0.51109989000E-03 0. -1.
     -623    1    1    2    0    0 -0.11020035087E-01 -0.85331473171E-02  0.50909466743E-02  0.17130000064E+03  0.17130000000E+03 0.  1.
      622    1    1    2    0    0  0.56916307093E-02  0.38215249301E-01  0.38705772216E+01  0.38720615734E+01  0.10000000000E+00 0. -1.
</event>
<event>
 5   0  0.6262544E+06  0.9118800E+02  0.7818608E-02  0.1180000E+00
       11   -1    0    0    0    0  0.00000000000E+00  0.00000000000E+00  0.39999999673E+01  0.40000000000E+01  0.51109989000E-03 0.  1.
     -623   -1    0    0    0    0  0.00000000000E+00  0.00000000000E+00  0.12525980253E-10  0.17130000000E+03  0.17130000000E+03 0.  1.
       11    1    1    2    0    0 -0.66030483307E-02  0.45487051396E-02  0.73453832705E-01  0.73891932766E-01  0.51109989000E-03 0.  1.
     -623    1    1    2    0    0  0.61094119990E-03 -0.85800459887E-02  0.17186690174E-02  0.17130000022E+03  0.17130000000E+03 0.  1.
      622    1    1    2    0    0  0.59921071308E-02  0.40313408491E-02  0.39248274656E+01  0.39261078426E+01  0.10000000000E+00 0.  1.
</event>
<event>
 5   0  0.6262544E+06  0.9118800E+02  0.7818608E-02  0.1180000E+00
       11   -1    0    0    0    0  0.00000000000E+00  0.00000000000E+00  0.39999999673E+01  0.40000000000E+01  0.51109989000E-03 0.  1.
     -623   -1    0    0    0    0  0.00000000000E+00  0.00000000000E+00  0.12525980253E-10  0.17130000000E+03  0.17130000000E+03 0.  1.
       11    1    1    2    0    0 -0.43838671087E-02 -0.63460070369E-02  0.97332154949E-01  0.97638617894E-01  0.51109989000E-03 0.  1.
     -623    1    1    2    0    0  0.75774882271E-02  0.11115625550E-01  0.15926750279E-02  0.17130000054E+03  0.17130000000E+03 0.  1.
      622    1    1    2    0    0 -0.31936211183E-02 -0.47696185135E-02  0.39010751374E+01  0.39023608465E+01  0.10000000000E+00 0.  1.
</event>
<event>
 5   0  0.6262544E+06  0.9118800E+02  0.7818608E-02  0.1180000E+00
       11   -1    0    0    0    0  0.00000000000E+00  0.00000000000E+00  0.39999999673E+01  0.40000000000E+01  0.51109989000E-03 0.  1.
     -623   -1    0    0    0    0  0.00000000000E+00  0.00000000000E+00  0.12525980253E-10  0.17130000000E+03  0.17130000000E+03 0.  1.
       11    1    1    2    0    0  0.68049551912E-03  0.48372844833E-02  0.28672954813E-01  0.29090581915E-01  0.51109989000E-03 0.  1.
     -623    1    1    2    0    0  0.10922717585E-02 -0.37148350985E-02  0.16775580920E-02  0.17130000005E+03  0.17130000000E+03 0.  1.
      622    1    1    2    0    0 -0.17727672777E-02 -0.11224493845E-02  0.39696494547E+01  0.39709093664E+01  0.10000000000E+00 0.  1.
</event>
<event>
 5   0  0.6262544E+06  0.9118800E+02  0.7818608E-02  0.1180000E+00
       11   -1    0    0    0    0  0.00000000000E+00  0.00000000000E+00  0.39999999673E+01  0.40000000000E+01  0.51109989000E-03 0. -1.
     -623   -1    0    0    0    0  0.00000000000E+00  0.00000000000E+00  0.12525980253E-10  0.17130000000E+03  0.17130000000E+03 0.  1.
       11    1    1    2    0    0 -0.34815811344E-02  0.42518371030E-02  0.17236156113E+00  0.17244990143E+00  0.51109989000E-03 0. -1.
     -623    1    1    2    0    0  0.10780363318E-02  0.55710015574E-02  0.14083127703E-02  0.17130000010E+03  0.17130000000E+03 0.  1.
      622    1    1    2    0    0  0.24035448026E-02 -0.98228386602E-02  0.38262300933E+01  0.38275499986E+01  0.10000000000E+00 0. -1.
</event>
<event>
 5   0  0.6262544E+06  0.9118800E+02  0.7818608E-02  0.1180000E+00
       11   -1    0    0    0    0  0.00000000000E+00  0.00000000000E+00  0.39999999673E+01  0.40000000000E+01  0.51109989000E-03 0. -1.
     -623   -1    0    0    0    0  0.00000000000E+00  0.00000000000E+00  0.12525980253E-10  0.17130000000E+03  0.17130000000E+03 0. -1.
       11    1    1    2    0    0 -0.66680118732E-02 -0.17440675403E-01  0.96666456769E-02  0.21031994736E-01  0.51109989000E-03 0. -1.
     -623    1    1    2    0    0  0.75116961196E-02  0.18591591735E-01  0.12624017402E-01  0.17130000164E+03  0.17130000000E+03 0. -1.
      622    1    1    2    0    0 -0.84368424635E-03 -0.11509163325E-02  0.39777093043E+01  0.39789663665E+01  0.10000000000E+00 0. -1.
</event>
<event>
 5   0  0.6262544E+06  0.9118800E+02  0.7818608E-02  0.1180000E+00
       11   -1    0    0    0    0  0.00000000000E+00  0.00000000000E+00  0.39999999673E+01  0.40000000000E+01  0.51109989000E-03 0.  1.
     -623   -1    0    0    0    0  0.00000000000E+00  0.00000000000E+00  0.12525980253E-10  0.17130000000E+03  0.17130000000E+03 0.  1.
       11    1    1    2    0    0 -0.10743570566E-01 -0.14683569446E-01  0.49476658569E+00  0.49510126949E+00  0.51109989000E-03 0.  1.
     -623    1    1    2    0    0 -0.96879106790E-04 -0.60505765283E-01  0.25959301781E-02  0.17130001071E+03  0.17130000000E+03 0.  1.
      622    1    1    2    0    0  0.10840449672E-01  0.75189334728E-01  0.35026374515E+01  0.35048880250E+01  0.10000000000E+00 0.  0.
</event>
<event>
 5   0  0.6262544E+06  0.9118800E+02  0.7818608E-02  0.1180000E+00
       11   -1    0    0    0    0  0.00000000000E+00  0.00000000000E+00  0.39999999673E+01  0.40000000000E+01  0.51109989000E-03 0.  1.
     -623   -1    0    0    0    0  0.00000000000E+00  0.00000000000E+00  0.12525980253E-10  0.17130000000E+03  0.17130000000E+03 0.  1.
       11    1    1    2    0    0 -0.14029770902E-01  0.64603521323E-01  0.10958893426E+01  0.10978816703E+01  0.51109989000E-03 0.  1.
     -623    1    1    2    0    0 -0.31240471881E-01 -0.95947078398E-01  0.42681840072E-02  0.17130002977E+03  0.17130000000E+03 0.  1.
      622    1    1    2    0    0  0.45270242784E-01  0.31343557077E-01  0.28998424408E+01  0.29020885574E+01  0.10000000000E+00 0.  1.
</event>
<event>
 5   0  0.6262544E+06  0.9118800E+02  0.7818608E-02  0.1180000E+00
       11   -1    0    0    0    0  0.00000000000E+00  0.00000000000E+00  0.39999999673E+01  0.40000000000E+01  0.51109989000E-03 0. -1.
     -623   -1    0    0    0    0  0.00000000000E+00  0.00000000000E+00  0.12525980253E-10  0.17130000000E+03  0.17130000000E+03 0. -1.
       11    1    1    2    0    0 -0.11118439793E-01 -0.49865951798E-01  0.12131711175E+01  0.12142465377E+01  0.51109989000E-03 0. -1.
     -623    1    1    2    0    0  0.82521498719E-02 -0.58928549731E-02  0.34310650041E-02  0.17130000033E+03  0.17130000000E+03 0. -1.
      622    1    1    2    0    0  0.28662899207E-02  0.55758806771E-01  0.27833977848E+01  0.27857531277E+01  0.10000000000E+00 0. -1.
</event>
<event>
 5   0  0.6262544E+06  0.9118800E+02  0.7818608E-02  0.1180000E+00
       11   -1    0    0    0    0  0.00000000000E+00  0.00000000000E+00  0.39999999673E+01  0.40000000000E+01  0.51109989000E-03 0.  1.
     -623   -1    0    0    0    0  0.00000000000E+00  0.00000000000E+00  0.12525980253E-10  0.17130000000E+03  0.17130000000E+03 0.  1.
       11    1    1    2    0    0 -0.11848051822E-01  0.77890441661E-02  0.69708851074E-01  0.71138109908E-01  0.51109989000E-03 0.  1.
     -623    1    1    2    0    0  0.59670855405E-02  0.66366215586E-02  0.27332150389E-02  0.17130000025E+03  0.17130000000E+03 0.  1.
      622    1    1    2    0    0  0.58809662814E-02 -0.14425665725E-01  0.39275579012E+01  0.39288616358E+01  0.10000000000E+00 0.  1.
</event>
<event>
 5   0  0.6262544E+06  0.9118800E+02  0.7818608E-02  0.1180000E+00
       11   -1    0    0    0    0  0.00000000000E+00  0.00000000000E+00  0.39999999673E+01  0.40000000000E+01  0.51109989000E-03 0. -1.
     -623   -1    0    0    0    0  0.00000000000E+00  0.00000000000E+00  0.12525980253E-10  0.17130000000E+03  0.17130000000E+03 0. -1.
       11    1    1    2    0    0 -0.66459866446E-02  0.11519060999E-02  0.98598443093E+00  0.98600763450E+00  0.51109989000E-03 0. -1.
     -623    1    1    2    0    0  0.56761745560E-02 -0.27707901165E-02  0.16832728556E-02  0.17130000012E+03  0.17130000000E+03 0. -1.
      622    1    1    2    0    0  0.96981208873E-03  0.16188840164E-02  0.30123322634E+01  0.30139922406E+01  0.10000000000E+00 0. -1.
</event>
<event>
 5   0  0.6262544E+06  0.9118800E+02  0.7818608E-02  0.1180000E+00
       11   -1    0    0    0    0  0.00000000000E+00  0.00000000000E+00  0.39999999673E+01  0.40000000000E+01  0.51109989000E-03 0.  1.
     -623   -1    0    0    0    0  0.00000000000E+00  0.00000000000E+00  0.12525980253E-10  0.17130000000E+03  0.17130000000E+03 0.  1.
       11    1    1    2    0    0 -0.17467702583E-01  0.79788650645E-02  0.26272666030E+00  0.26342805883E+00  0.51109989000E-03 0.  1.
     -623    1    1    2    0    0  0.19413644215E-01 -0.19058355167E-01  0.20588428996E-02  0.17130000217E+03  0.17130000000E+03 0.  1.
      622    1    1    2    0    0 -0.19459416326E-02  0.11079490103E-01  0.37352144642E+01  0.37365697686E+01  0.10000000000E+00 0.  1.
</event>
<event>
 5   0  0.6262544E+06  0.9118800E+02  0.7818608E-02  0.1180000E+00
       11   -1    0    0    0    0  0.00000000000E+00  0.00000000000E+00  0.39999999673E+01  0.40000000000E+01  0.51109989000E-03 0. -1.
     -623   -1    0    0    0    0  0.00000000000E+00  0.00000000000E+00  0.12525980253E-10  0.17130000000E+03  0.17130000000E+03 0.  1.
       11    1    1    2    0    0 -0.80985021517E-02  0.91589863263E-02  0.16740719278E+00  0.16785381195E+00  0.51109989000E-03 0. -1.
     -623    1    1    2    0    0 -0.22124624712E-01  0.48795484492E-01  0.23176000503E-02  0.17130000839E+03  0.17130000000E+03 0.  1.
      622    1    1    2    0    0  0.30223126863E-01 -0.57954470817E-01  0.38302751744E+01  0.38321377937E+01  0.10000000000E+00 0. -1.
</event>
<event>
 5   0  0.6262544E+06  0.9118800E+02  0.7818608E-02  0.1180000E+00
       11   -1    0    0    0    0  0.00000000000E+00  0.00000000000E+00  0.39999999673E+01  0.40000000000E+01  0.51109989000E-03 0. -1.
     -623   -1    0    0    0    0  0.00000000000E+00  0.00000000000E+00  0.12525980253E-10  0.17130000000E+03  0.17130000000E+03 0. -1.
       11    1    1    2    0    0 -0.13204104280E-02  0.51313403510E-02  0.22247727838E-01  0.22875680391E-01  0.51109989000E-03 0. -1.
     -623    1    1    2    0    0  0.37281946463E-02 -0.87402309208E-03  0.18883700944E-02  0.17130000005E+03  0.17130000000E+03 0. -1.
      622    1    1    2    0    0 -0.24077842183E-02 -0.42573172589E-02  0.39758638694E+01  0.39771242664E+01  0.10000000000E+00 0. -1.
</event>
<event>
 5   0  0.6262544E+06  0.9118800E+02  0.7818608E-02  0.1180000E+00
       11   -1    0    0    0    0  0.00000000000E+00  0.00000000000E+00  0.39999999673E+01  0.40000000000E+01  0.51109989000E-03 0. -1.
     -623   -1    0    0    0    0  0.00000000000E+00  0.00000000000E+00  0.12525980253E-10  0.17130000000E+03  0.17130000000E+03 0.  1.
       11    1    1    2    0    0 -0.30252206536E-02  0.13420420389E-02  0.20011977769E-01  0.20290231989E-01  0.51109989000E-03 0. -1.
     -623    1    1    2    0    0  0.24725310088E-02  0.13293482290E-02  0.15357581404E-02  0.17130000003E+03  0.17130000000E+03 0.  1.
      622    1    1    2    0    0  0.55268964467E-03 -0.26713902680E-02  0.39784522317E+01  0.39797097384E+01  0.10000000000E+00 0. -1.
</event>
<event>
 5   0  0.6262544E+06  0.9118800E+02  0.7818608E-02  0.1180000E+00
       11   -1    0    0    0    0  0.00000000000E+00  0.00000000000E+00  0.39999999673E+01  0.40000000000E+01  0.51109989000E-03 0. -1.
     -623   -1    0    0    0    0  0.00000000000E+00  0.00000000000E+00  0.12525980253E-10  0.17130000000E+03  0.17130000000E+03 0.  1.
       11    1    1    2    0    0  0.73134086637E-02 -0.59662398539E-01  0.31844973376E+00  0.32407342053E+00  0.51109989000E-03 0. -1.
     -623    1    1    2    0    0 -0.65556383203E-02  0.16465308667E-02  0.74425006331E-02  0.17130000030E+03  0.17130000000E+03 0.  1.
      622    1    1    2    0    0 -0.75777034341E-03  0.58015867672E-01  0.36741077330E+01  0.36759262844E+01  0.10000000000E+00 0. -1.
</event>
<event>
 5   0  0.6262544E+06  0.9118800E+02  0.7818608E-02  0.1180000E+00
       11   -1    0    0    0    0  0.00000000000E+00  0.00000000000E+00  0.39999999673E+01  0.40000000000E+01  0.51109989000E-03 0.  1.
     -623   -1    0    0    0    0  0.00000000000E+00  0.00000000000E+00  0.12525980253E-10  0.17130000000E+03  0.17130000000E+03 0.  1.
       11    1    1    2    0    0 -0.17180881392E-01 -0.31080984783E-02  0.58737610878E+00  0.58763576929E+00  0.51109989000E-03 0.  1.
     -623    1    1    2    0    0 -0.22559692469E-02 -0.67194712755E-02  0.17948969138E-02  0.17130000016E+03  0.17130000000E+03 0.  1.
      622    1    1    2    0    0  0.19436850639E-01  0.98275697535E-02  0.34108289615E+01  0.34123640745E+01  0.10000000000E+00 0.  1.
</event>
<event>
 5   0  0.6262544E+06  0.9118800E+02  0.7818608E-02  0.1180000E+00
       11   -1    0    0    0    0  0.00000000000E+00  0.00000000000E+00  0.39999999673E+01  0.40000000000E+01  0.51109989000E-03 0. -1.
     -623   -1    0    0    0    0  0.00000000000E+00  0.00000000000E+00  0.12525980253E-10  0.17130000000E+03  0.17130000000E+03 0. -1.
       11    1    1    2    0    0 -0.79546179309E-03 -0.89862556324E-02  0.29069254847E+00  0.29083294949E+00  0.51109989000E-03 0. -1.
     -623    1    1    2    0    0  0.36072542902E-02  0.38229720751E-02  0.14933733345E-02  0.17130000009E+03  0.17130000000E+03 0. -1.
      622    1    1    2    0    0 -0.28117924971E-02  0.51632835573E-02  0.37078140456E+01  0.37091669634E+01  0.10000000000E+00 0. -1.
</event>
<event>
 5   0  0.6262544E+06  0.9118800E+02  0.7818608E-02  0.1180000E+00
       11   -1    0    0    0    0  0.00000000000E+00  0.00000000000E+00  0.39999999673E+01  0.40000000000E+01  0.51109989000E-03 0.  1.
     -623   -1    0    0    0    0  0.00000000000E+00  0.00000000000E+00  0.12525980253E-10  0.17130000000E+03  0.17130000000E+03 0. -1.
       11    1    1    2    0    0  0.19851039980E-01 -0.95200979234E-02  0.12556955867E+00  0.12748596526E+00  0.51109989000E-03 0.  1.
     -623    1    1    2    0    0 -0.32542291955E-01 -0.75823085918E-02  0.32696128459E-02  0.17130000329E+03  0.17130000000E+03 0. -1.
      622    1    1    2    0    0  0.12691251974E-01  0.17102406515E-01  0.38711607958E+01  0.38725107447E+01  0.10000000000E+00 0.  1.
</event>
<event>
 5   0  0.6262544E+06  0.9118800E+02  0.7818608E-02  0.1180000E+00
       11   -1    0    0    0    0  0.00000000000E+00  0.00000000000E+00  0.39999999673E+01  0.40000000000E+01  0.51109989000E-03 0. -1.
     -623   -1    0    0    0    0  0.00000000000E+00  0.00000000000E+00  0.12525980253E-10  0.17130000000E+03  0.17130000000E+03 0. -1.
       11    1    1    2    0    0 -0.18856675869E-02  0.83744478834E-04  0.86074959863E-03  0.21365552544E-02  0.51109989000E-03 0. -1.
     -623    1    1    2    0    0  0.42269884770E-02 -0.12403288963E-03  0.25273936042E-02  0.17130000007E+03  0.17130000000E+03 0. -1.
      622    1    1    2    0    0 -0.23413208901E-02  0.40288410796E-04  0.39966118243E+01  0.39978633740E+01  0.10000000000E+00 0. -1.
</event>
<event>
 5   0  0.6262544E+06  0.9118800E+02  0.7818608E-02  0.1180000E+00
       11   -1    0    0    0    0  0.00000000000E+00  0.00000000000E+00  0.39999999673E+01  0.40000000000E+01  0.51109989000E-03 0. -1.
     -623   -1    0    0    0    0  0.00000000000E+00  0.00000000000E+00  0.12525980253E-10  0.17130000000E+03  0.17130000000E+03 0. -1.
       11    1    1    2    0    0  0.14316754263E-02  0.68787224918E-03  0.19044051858E-02  0.25319646457E-02  0.51109989000E-03 0. -1.
     -623    1    1    2    0    0 -0.16354484769E-02  0.20671020289E-02  0.18794997333E-02  0.17130000003E+03  0.17130000000E+03 0. -1.
      622    1    1    2    0    0  0.20377305065E-03 -0.27549742782E-02  0.39962160627E+01  0.39974680051E+01  0.10000000000E+00 0. -1.
</event>
<event>
 5   0  0.6262544E+06  0.9118800E+02  0.7818608E-02  0.1180000E+00
       11   -1    0    0    0    0  0.00000000000E+00  0.00000000000E+00  0.39999999673E+01  0.40000000000E+01  0.51109989000E-03 0. -1.
     -623   -1    0    0    0    0  0.00000000000E+00  0.00000000000E+00  0.12525980253E-10  0.17130000000E+03  0.17130000000E+03 0.  1.
       11    1    1    2    0    0 -0.44663531929E-02  0.81720130121E-02  0.12068060214E+00  0.12104048522E+00  0.51109989000E-03 0. -1.
     -623    1    1    2    0    0  0.78627440084E-02 -0.16635961142E-01  0.16607915346E-02  0.17130000100E+03  0.17130000000E+03 0.  1.
      622    1    1    2    0    0 -0.33963908153E-02  0.84639481296E-02  0.38776585736E+01  0.38789585183E+01  0.10000000000E+00 0. -1.
</event>
<event>
 5   0  0.6262544E+06  0.9118800E+02  0.7818608E-02  0.1180000E+00
       11   -1    0    0    0    0  0.00000000000E+00  0.00000000000E+00  0.39999999673E+01  0.40000000000E+01  0.51109989000E-03 0. -1.
     -623   -1    0    0    0    0  0.00000000000E+00  0.00000000000E+00  0.12525980253E-10  0.17130000000E+03  0.17130000000E+03 0. -1.
       11    1    1    2    0    0  0.22993121522E-01 -0.70284613586E-02  0.24135923202E+00  0.24255437124E+00  0.51109989000E-03 0. -1.
     -623    1    1    2    0    0 -0.69119881881E-02  0.21898378199E-01  0.25914515976E-02  0.17130000156E+03  0.17130000000E+03 0. -1.
      622    1    1    2    0    0 -0.16081133334E-01 -0.14869916840E-01  0.37560492837E+01  0.37574440700E+01  0.10000000000E+00 0. -1.
</event>
<event>
 5   0  0.6262544E+06  0.9118800E+02  0.7818608E-02  0.1180000E+00
       11   -1    0    0    0    0  0.00000000000E+00  0.00000000000E+00  0.39999999673E+01  0.40000000000E+01  0.51109989000E-03 0. -1.
     -623   -1    0    0    0    0  0.00000000000E+00  0.00000000000E+00  0.12525980253E-10  0.17130000000E+03  0.17130000000E+03 0. -1.
       11    1    1    2    0    0  0.41563861940E-02 -0.95243789004E-02  0.31546915281E-01  0.33218344691E-01  0.51109989000E-03 0. -1.
     -623    1    1    2    0    0 -0.97377604293E-02  0.75584362650E-02  0.29369487575E-02  0.17130000047E+03  0.17130000000E+03 0. -1.
      622    1    1    2    0    0  0.55813742353E-02  0.19659426354E-02  0.39655161033E+01  0.39667811866E+01  0.10000000000E+00 0. -1.
</event>
<event>
 5   0  0.6262544E+06  0.9118800E+02  0.7818608E-02  0.1180000E+00
       11   -1    0    0    0    0  0.00000000000E+00  0.00000000000E+00  0.39999999673E+01  0.40000000000E+01  0.51109989000E-03 0.  1.
     -623   -1    0    0    0    0  0.00000000000E+00  0.00000000000E+00  0.12525980253E-10  0.17130000000E+03  0.17130000000E+03 0.  1.
       11    1    1    2    0    0 -0.94436030807E-03  0.26737798388E-02 -0.13447713358E-03  0.28844795397E-02  0.51109989000E-03 0.  1.
     -623    1    1    2    0    0 -0.31337694515E-02 -0.20301645767E-01  0.43122724277E-02  0.17130000129E+03  0.17130000000E+03 0.  1.
      622    1    1    2    0    0  0.40781297596E-02  0.17627865928E-01  0.39958221721E+01  0.39971142345E+01  0.10000000000E+00 0.  1.
</event>
<event>
 5   0  0.6262544E+06  0.9118800E+02  0.7818608E-02  0.1180000E+00
       11   -1    0    0    0    0  0.00000000000E+00  0.00000000000E+00  0.39999999673E+01  0.40000000000E+01  0.51109989000E-03 0.  1.
     -623   -1    0    0    0    0  0.00000000000E+00  0.00000000000E+00  0.12525980253E-10  0.17130000000E+03  0.17130000000E+03 0. -1.
       11    1    1    2    0    0 -0.64491101948E-02 -0.12630651930E-01  0.68103638950E-01  0.69566452043E-01  0.51109989000E-03 0.  1.
     -623    1    1    2    0    0 -0.87239957300E-02 -0.11972860568E-02  0.27889893005E-02  0.17130000025E+03  0.17130000000E+03 0. -1.
      622    1    1    2    0    0  0.15173105925E-01  0.13827937987E-01  0.39291073391E+01  0.39304332989E+01  0.10000000000E+00 0.  1.
</event>
<event>
 5   0  0.6262544E+06  0.9118800E+02  0.7818608E-02  0.1180000E+00
       11   -1    0    0    0    0  0.00000000000E+00  0.00000000000E+00  0.39999999673E+01  0.40000000000E+01  0.51109989000E-03 0.  1.
     -623   -1    0    0    0    0  0.00000000000E+00  0.00000000000E+00  0.12525980253E-10  0.17130000000E+03  0.17130000000E+03 0. -1.
       11    1    1    2    0    0  0.36458851032E-01 -0.89001336027E-01  0.33899327755E+01  0.33912969450E+01  0.51109989000E-03 0.  1.
     -623    1    1    2    0    0 -0.62973244069E-01  0.15876259312E-01  0.14707331316E-01  0.17130001294E+03  0.17130000000E+03 0. -1.
      622    1    1    2    0    0  0.26514393038E-01  0.73125076716E-01  0.59535986057E+00  0.60869011283E+00  0.10000000000E+00 0.  1.
</event>
<event>
 5   0  0.6262544E+06  0.9118800E+02  0.7818608E-02  0.1180000E+00
       11   -1    0    0    0    0  0.00000000000E+00  0.00000000000E+00  0.39999999673E+01  0.40000000000E+01  0.51109989000E-03 0.  1.
     -623   -1    0    0    0    0  0.00000000000E+00  0.00000000000E+00  0.12525980253E-10  0.17130000000E+03  0.17130000000E+03 0.  1.
       11    1    1    2    0    0  0.13711815958E-03  0.36277183572E-02  0.80314095733E-02  0.88285845242E-02  0.51109989000E-03 0.  1.
     -623    1    1    2    0    0 -0.43705780011E-02  0.20603337513E-03  0.20542600224E-02  0.17130000007E+03  0.17130000000E+03 0.  1.
      622    1    1    2    0    0  0.42334598415E-02 -0.38337517323E-02  0.39899142978E+01  0.39911713473E+01  0.10000000000E+00 0.  1.
</event>
<event>
 5   0  0.6262544E+06  0.9118800E+02  0.7818608E-02  0.1180000E+00
       11   -1    0    0    0    0  0.00000000000E+00  0.00000000000E+00  0.39999999673E+01  0.40000000000E+01  0.51109989000E-03 0. -1.
     -623   -1    0    0    0    0  0.00000000000E+00  0.00000000000E+00  0.12525980253E-10  0.17130000000E+03  0.17130000000E+03 0.  1.
       11    1    1    2    0    0 -0.13183390078E-02 -0.15294249623E-01  0.30788582392E+00  0.30826870402E+00  0.51109989000E-03 0. -1.
     -623    1    1    2    0    0 -0.63596677247E-03  0.18518115460E-01  0.17404110538E-02  0.17130000101E+03  0.17130000000E+03 0.  1.
      622    1    1    2    0    0  0.19543057803E-02 -0.32238658362E-02  0.36903737324E+01  0.36917302850E+01  0.10000000000E+00 0. -1.
</event>
<event>
 5   0  0.6262544E+06  0.9118800E+02  0.7818608E-02  0.1180000E+00
       11   -1    0    0    0    0  0.00000000000E+00  0.00000000000E+00  0.39999999673E+01  0.40000000000E+01  0.51109989000E-03 0. -1.
     -623   -1    0    0    0    0  0.00000000000E+00  0.00000000000E+00  0.12525980253E-10  0.17130000000E+03  0.17130000000E+03 0.  1.
       11    1    1    2    0    0  0.10498577735E-02  0.11329039703E-03  0.55114605092E-02  0.56349317743E-02  0.51109989000E-03 0. -1.
     -623    1    1    2    0    0  0.15334198251E-02  0.42450327408E-02  0.13786773305E-02  0.17130000007E+03  0.17130000000E+03 0.  1.
      622    1    1    2    0    0 -0.25832775985E-02 -0.43583231377E-02  0.39931098295E+01  0.39943650032E+01  0.10000000000E+00 0. -1.
</event>
<event>
 5   0  0.6262544E+06  0.9118800E+02  0.7818608E-02  0.1180000E+00
       11   -1    0    0    0    0  0.00000000000E+00  0.00000000000E+00  0.39999999673E+01  0.40000000000E+01  0.51109989000E-03 0. -1.
     -623   -1    0    0    0    0  0.00000000000E+00  0.00000000000E+00  0.12525980253E-10  0.17130000000E+03  0.17130000000E+03 0. -1.
       11    1    1    2    0    0  0.85560234742E-03 -0.26911392173E-02  0.21292837134E-02  0.35734238335E-02  0.51109989000E-03 0. -1.
     -623    1    1    2    0    0  0.18319658528E-02  0.24635549576E-02  0.26963802695E-02  0.17130000005E+03  0.17130000000E+03 0. -1.
      622    1    1    2    0    0 -0.26875682003E-02  0.22758425964E-03  0.39951743034E+01  0.39964265275E+01  0.10000000000E+00 0. -1.
</event>
<event>
 5   0  0.6262544E+06  0.9118800E+02  0.7818608E-02  0.1180000E+00
       11   -1    0    0    0    0  0.00000000000E+00  0.00000000000E+00  0.39999999673E+01  0.40000000000E+01  0.51109989000E-03 0.  1.
     -623   -1    0    0    0    0  0.00000000000E+00  0.00000000000E+00  0.12525980253E-10  0.17130000000E+03  0.17130000000E+03 0. -1.
       11    1    1    2    0    0 -0.58856451625E-02  0.14419852800E-01  0.15862739335E+00  0.15939097878E+00  0.51109989000E-03 0.  1.
     -623    1    1    2    0    0  0.80458316872E-02 -0.10242910638E-01  0.20690380886E-02  0.17130000051E+03  0.17130000000E+03 0. -1.
      622    1    1    2    0    0 -0.21601865249E-02 -0.41769421615E-02  0.38393035361E+01  0.38406085137E+01  0.10000000000E+00 0.  1.
</event>
<event>
 5   0  0.6262544E+06  0.9118800E+02  0.7818608E-02  0.1180000E+00
       11   -1    0    0    0    0  0.00000000000E+00  0.00000000000E+00  0.39999999673E+01  0.40000000000E+01  0.51109989000E-03 0.  1.
     -623   -1    0    0    0    0  0.00000000000E+00  0.00000000000E+00  0.12525980253E-10  0.17130000000E+03  0.17130000000E+03 0.  1.
       11    1    1    2    0    0 -0.28361437989E-03  0.11467562208E-01  0.10288321935E+00  0.10352199508E+00  0.51109989000E-03 0.  1.
     -623    1    1    2    0    0  0.26089666917E-02  0.25868814912E-02  0.19482645158E-02  0.17130000005E+03  0.17130000000E+03 0.  1.
      622    1    1    2    0    0 -0.23253523118E-02 -0.14054443699E-01  0.38951684835E+01  0.38964779544E+01  0.10000000000E+00 0.  1.
</event>
<event>
 5   0  0.6262544E+06  0.9118800E+02  0.7818608E-02  0.1180000E+00
       11   -1    0    0    0    0  0.00000000000E+00  0.00000000000E+00  0.39999999673E+01  0.40000000000E+01  0.51109989000E-03 0. -1.
     -623   -1    0    0    0    0  0.00000000000E+00  0.00000000000E+00  0.12525980253E-10  0.17130000000E+03  0.17130000000E+03 0.  1.
       11    1    1    2    0    0 -0.54205988503E-02 -0.23061249744E-03  0.31882122982E+00  0.31886780001E+00  0.51109989000E-03 0. -1.
     -623    1    1    2    0    0  0.18617336953E-02 -0.42781582980E-02  0.14096185872E-02  0.17130000007E+03  0.17130000000E+03 0.  1.
      622    1    1    2    0    0  0.35588651549E-02  0.45087707956E-02  0.36797691191E+01  0.36811321308E+01  0.10000000000E+00 0. -1.
</event>
<event>
 5   0  0.6262544E+06  0.9118800E+02  0.7818608E-02  0.1180000E+00
       11   -1    0    0    0    0  0.00000000000E+00  0.00000000000E+00  0.39999999673E+01  0.40000000000E+01  0.51109989000E-03 0. -1.
     -623   -1    0    0    0    0  0.00000000000E+00  0.00000000000E+00  0.12525980253E-10  0.17130000000E+03  0.17130000000E+03 0. -1.
       11    1    1    2    0    0  0.16970674849E-01  0.46800611701E-01  0.64488553761E+00  0.64680438999E+00  0.51109989000E-03 0. -1.
     -623    1    1    2    0    0  0.18729968457E-01 -0.28443811357E-01  0.36541024701E-02  0.17130000342E+03  0.17130000000E+03 0. -1.
      622    1    1    2    0    0 -0.35700643305E-01 -0.18356800345E-01  0.33514603272E+01  0.33531921855E+01  0.10000000000E+00 0. -1.
</event>
<event>
 5   0  0.6262544E+06  0.9118800E+02  0.7818608E-02  0.1180000E+00
       11   -1    0    0    0    0  0.00000000000E+00  0.00000000000E+00  0.39999999673E+01  0.40000000000E+01  0.51109989000E-03 0. -1.
     -623   -1    0    0    0    0  0.00000000000E+00  0.00000000000E+00  0.12525980253E-10  0.17130000000E+03  0.17130000000E+03 0. -1.
       11    1    1    2    0    0  0.20840789330E-01  0.13360582891E-01  0.83611748415E+00  0.83648404181E+00  0.51109989000E-03 0. -1.
     -623    1    1    2    0    0  0.12768153836E-02 -0.26565456602E-01  0.20544487524E-02  0.17130000208E+03  0.17130000000E+03 0. -1.
      622    1    1    2    0    0 -0.22117604713E-01  0.13204873711E-01  0.31618280345E+01  0.31635138812E+01  0.10000000000E+00 0. -1.
</event>
<event>
 5   0  0.6262544E+06  0.9118800E+02  0.7818608E-02  0.1180000E+00
       11   -1    0    0    0    0  0.00000000000E+00  0.00000000000E+00  0.39999999673E+01  0.40000000000E+01  0.51109989000E-03 0. -1.
     -623   -1    0    0    0    0  0.00000000000E+00  0.00000000000E+00  0.12525980253E-10  0.17130000000E+03  0.17130000000E+03 0.  1.
       11    1    1    2    0    0  0.82202758413E-04  0.24913699674E-02  0.30727297912E-02  0.39895580050E-02  0.51109989000E-03 0. -1.
     -623    1    1    2    0    0 -0.39296619284E-02 -0.63533904638E-02  0.21721358803E-02  0.17130000018E+03  0.17130000000E+03 0.  1.
      622    1    1    2    0    0  0.38474591700E-02  0.38620204964E-02  0.39947551017E+01  0.39960102653E+01  0.10000000000E+00 0. -1.
</event>
<event>
 5   0  0.6262544E+06  0.9118800E+02  0.7818608E-02  0.1180000E+00
       11   -1    0    0    0    0  0.00000000000E+00  0.00000000000E+00  0.39999999673E+01  0.40000000000E+01  0.51109989000E-03 0.  1.
     -623   -1    0    0    0    0  0.00000000000E+00  0.00000000000E+00  0.12525980253E-10  0.17130000000E+03  0.17130000000E+03 0.  1.
       11    1    1    2    0    0  0.72982029155E-02 -0.13733514318E-02  0.20275179961E+01  0.20275316608E+01  0.51109989000E-03 0.  1.
     -623    1    1    2    0    0 -0.17980640694E-01 -0.98404401116E-02  0.26122879634E-02  0.17130000125E+03  0.17130000000E+03 0.  1.
      622    1    1    2    0    0  0.10682437779E-01  0.11213791543E-01  0.19698696833E+01  0.19724670930E+01  0.10000000000E+00 0. -1.
</event>
<event>
 5   0  0.6262544E+06  0.9118800E+02  0.7818608E-02  0.1180000E+00
       11   -1    0    0    0    0  0.00000000000E+00  0.00000000000E+00  0.39999999673E+01  0.40000000000E+01  0.51109989000E-03 0. -1.
     -623   -1    0    0    0    0  0.00000000000E+00  0.00000000000E+00  0.12525980253E-10  0.17130000000E+03  0.17130000000E+03 0.  1.
       11    1    1    2    0    0 -0.74304067658E-03  0.20741434747E-02  0.83365757571E-03  0.24104747772E-02  0.51109989000E-03 0. -1.
     -623    1    1    2    0    0 -0.54937957133E-02 -0.14617485508E-02  0.28327654539E-02  0.17130000012E+03  0.17130000000E+03 0.  1.
      622    1    1    2    0    0  0.62368363901E-02 -0.61239492380E-03  0.39963335444E+01  0.39975894076E+01  0.10000000000E+00 0. -1.
</event>
<event>
 5   0  0.6262544E+06  0.9118800E+02  0.7818608E-02  0.1180000E+00
       11   -1    0    0    0    0  0.00000000000E+00  0.00000000000E+00  0.39999999673E+01  0.40000000000E+01  0.51109989000E-03 0.  1.
     -623   -1    0    0    0    0  0.00000000000E+00  0.00000000000E+00  0.12525980253E-10  0.17130000000E+03  0.17130000000E+03 0. -1.
       11    1    1    2    0    0 -0.53123494730E-02  0.21112471766E-03  0.75016884277E+00  0.75018785615E+00  0.51109989000E-03 0.  1.
     -623    1    1    2    0    0 -0.64232711714E-02  0.29619231422E-02  0.15807985354E-02  0.17130000015E+03  0.17130000000E+03 0. -1.
      622    1    1    2    0    0  0.11735620644E-01 -0.31730478599E-02  0.32482503261E+01  0.32498119905E+01  0.10000000000E+00 0.  1.
</event>
<event>
 5   0  0.6262544E+06  0.9118800E+02  0.7818608E-02  0.1180000E+00
       11   -1    0    0    0    0  0.00000000000E+00  0.00000000000E+00  0.39999999673E+01  0.40000000000E+01  0.51109989000E-03 0. -1.
     -623   -1    0    0    0    0  0.00000000000E+00  0.00000000000E+00  0.12525980253E-10  0.17130000000E+03  0.17130000000E+03 0. -1.
       11    1    1    2    0    0  0.34370192096E-03 -0.57944948375E-02  0.14001510574E-01  0.15165679058E-01  0.51109989000E-03 0. -1.
     -623    1    1    2    0    0 -0.27054850889E-02  0.95564860704E-02  0.24218724111E-02  0.17130000031E+03  0.17130000000E+03 0. -1.
      622    1    1    2    0    0  0.23617831680E-02 -0.37619912329E-02  0.39835765844E+01  0.39848340159E+01  0.10000000000E+00 0. -1.
</event>
<event>
 5   0  0.6262544E+06  0.9118800E+02  0.7818608E-02  0.1180000E+00
       11   -1    0    0    0    0  0.00000000000E+00  0.00000000000E+00  0.39999999673E+01  0.40000000000E+01  0.51109989000E-03 0. -1.
     -623   -1    0    0    0    0  0.00000000000E+00  0.00000000000E+00  0.12525980253E-10  0.17130000000E+03  0.17130000000E+03 0.  1.
       11    1    1    2    0    0 -0.47731645659E-01 -0.27025927421E-02  0.86854455853E+00  0.86985948599E+00  0.51109989000E-03 0. -1.
     -623    1    1    2    0    0  0.13339980143E-01  0.13636163022E-01  0.31219099525E-02  0.17130000109E+03  0.17130000000E+03 0.  1.
      622    1    1    2    0    0  0.34391665516E-01 -0.10933570280E-01  0.31283334989E+01  0.31301394234E+01  0.10000000000E+00 0. -1.
</event>
<event>
 5   0  0.6262544E+06  0.9118800E+02  0.7818608E-02  0.1180000E+00
       11   -1    0    0    0    0  0.00000000000E+00  0.00000000000E+00  0.39999999673E+01  0.40000000000E+01  0.51109989000E-03 0.  1.
     -623   -1    0    0    0    0  0.00000000000E+00  0.00000000000E+00  0.12525980253E-10  0.17130000000E+03  0.17130000000E+03 0.  1.
       11    1    1    2    0    0  0.10729717164E-01  0.87104739984E-02  0.11468457675E+00  0.11551542129E+00  0.51109989000E-03 0.  1.
     -623    1    1    2    0    0  0.70867488104E-03 -0.39548071098E-02  0.21380164247E-02  0.17130000006E+03  0.17130000000E+03 0.  1.
      622    1    1    2    0    0 -0.11438392045E-01 -0.47556668886E-02  0.38831773742E+01  0.38844845183E+01  0.10000000000E+00 0.  1.
</event>
<event>
 5   0  0.6262544E+06  0.9118800E+02  0.7818608E-02  0.1180000E+00
       11   -1    0    0    0    0  0.00000000000E+00  0.00000000000E+00  0.39999999673E+01  0.40000000000E+01  0.51109989000E-03 0.  1.
     -623   -1    0    0    0    0  0.00000000000E+00  0.00000000000E+00  0.12525980253E-10  0.17130000000E+03  0.17130000000E+03 0. -1.
       11    1    1    2    0    0  0.11240926998E-02  0.29463155278E-02  0.92515456545E-02  0.97875778251E-02  0.51109989000E-03 0.  1.
     -623    1    1    2    0    0  0.91353160487E-02 -0.12766134679E-01  0.18152720048E-02  0.17130000073E+03  0.17130000000E+03 0. -1.
      622    1    1    2    0    0 -0.10259408749E-01  0.98198191519E-02  0.39889331499E+01  0.39902116935E+01  0.10000000000E+00 0.  1.
</event>
<event>
 5   0  0.6262544E+06  0.9118800E+02  0.7818608E-02  0.1180000E+00
       11   -1    0    0    0    0  0.00000000000E+00  0.00000000000E+00  0.39999999673E+01  0.40000000000E+01  0.51109989000E-03 0. -1.
     -623   -1    0    0    0    0  0.00000000000E+00  0.00000000000E+00  0.12525980253E-10  0.17130000000E+03  0.17130000000E+03 0. -1.
       11    1    1    2    0    0 -0.72184385524E-02 -0.32047411175E-02  0.29084571894E-01  0.30142159281E-01  0.51109989000E-03 0. -1.
     -623    1    1    2    0    0 -0.56064585913E-02 -0.24391968205E-01  0.24357665759E-02  0.17130000185E+03  0.17130000000E+03 0. -1.
      622    1    1    2    0    0  0.12824897144E-01  0.27596709322E-01  0.39684796289E+01  0.39698559951E+01  0.10000000000E+00 0. -1.
</event>
<event>
 5   0  0.6262544E+06  0.9118800E+02  0.7818608E-02  0.1180000E+00
       11   -1    0    0    0    0  0.00000000000E+00  0.00000000000E+00  0.39999999673E+01  0.40000000000E+01  0.51109989000E-03 0.  1.
     -623   -1    0    0    0    0  0.00000000000E+00  0.00000000000E+00  0.12525980253E-10  0.17130000000E+03  0.17130000000E+03 0.  1.
       11    1    1    2    0    0  0.98786171027E-03  0.15460238510E-02  0.13793968573E-02  0.23515993055E-02  0.51109989000E-03 0.  1.
     -623    1    1    2    0    0 -0.25704357308E-02 -0.27059653973E-02  0.22236376260E-02  0.17130000006E+03  0.17130000000E+03 0.  1.
      622    1    1    2    0    0  0.15825740204E-02  0.11599415463E-02  0.39963969327E+01  0.39976483455E+01  0.10000000000E+00 0.  1.
</event>
<event>
 5   0  0.6262544E+06  0.9118800E+02  0.7818608E-02  0.1180000E+00
       11   -1    0    0    0    0  0.00000000000E+00  0.00000000000E+00  0.39999999673E+01  0.40000000000E+01  0.51109989000E-03 0.  1.
     -623   -1    0    0    0    0  0.00000000000E+00  0.00000000000E+00  0.12525980253E-10  0.17130000000E+03  0.17130000000E+03 0.  1.
       11    1    1    2    0    0 -0.59244635325E-04 -0.96300925542E-02  0.60415415686E+00  0.60423112189E+00  0.51109989000E-03 0.  1.
     -623    1    1    2    0    0 -0.65095605251E-04 -0.17589374026E-02  0.15687979628E-02  0.17130000002E+03  0.17130000000E+03 0.  1.
      622    1    1    2    0    0  0.12434024058E-03  0.11389029957E-01  0.33942770126E+01  0.33957688619E+01  0.10000000000E+00 0.  1.
</event>
<event>
 5   0  0.6262544E+06  0.9118800E+02  0.7818608E-02  0.1180000E+00
       11   -1    0    0    0    0  0.00000000000E+00  0.00000000000E+00  0.39999999673E+01  0.40000000000E+01  0.51109989000E-03 0.  1.
     -623   -1    0    0    0    0  0.00000000000E+00  0.00000000000E+00  0.12525980253E-10  0.17130000000E+03  0.17130000000E+03 0.  1.
       11    1    1    2    0    0 -0.47007830005E-02 -0.86245226558E-02  0.16788574209E-01  0.19457574296E-01  0.51109989000E-03 0.  1.
     -623    1    1    2    0    0  0.12981683000E-01  0.86492619761E-02  0.39346479679E-02  0.17130000076E+03  0.17130000000E+03 0.  1.
      622    1    1    2    0    0 -0.82808999998E-02 -0.24739320271E-04  0.39792767452E+01  0.39805416703E+01  0.10000000000E+00 0.  1.
</event>
<event>
 5   0  0.6262544E+06  0.9118800E+02  0.7818608E-02  0.1180000E+00
       11   -1    0    0    0    0  0.00000000000E+00  0.00000000000E+00  0.39999999673E+01  0.40000000000E+01  0.51109989000E-03 0. -1.
     -623   -1    0    0    0    0  0.00000000000E+00  0.00000000000E+00  0.12525980253E-10  0.17130000000E+03  0.17130000000E+03 0.  1.
       11    1    1    2    0    0 -0.75913010976E-03 -0.16326759678E-02  0.23616170067E-01  0.23690222008E-01  0.51109989000E-03 0. -1.
     -623    1    1    2    0    0  0.97715192813E-03 -0.16742799767E-02  0.13330632047E-02  0.17130000002E+03  0.17130000000E+03 0.  1.
      622    1    1    2    0    0 -0.21802181836E-03  0.33069559444E-02  0.39750507341E+01  0.39763097618E+01  0.10000000000E+00 0. -1.
</event>
<event>
 5   0  0.6262544E+06  0.9118800E+02  0.7818608E-02  0.1180000E+00
       11   -1    0    0    0    0  0.00000000000E+00  0.00000000000E+00  0.39999999673E+01  0.40000000000E+01  0.51109989000E-03 0.  1.
     -623   -1    0    0    0    0  0.00000000000E+00  0.00000000000E+00  0.12525980253E-10  0.17130000000E+03  0.17130000000E+03 0. -1.
       11    1    1    2    0    0  0.79830587993E-02  0.70403347845E-02  0.16876984656E-01  0.19959693782E-01  0.51109989000E-03 0.  1.
     -623    1    1    2    0    0  0.24956890990E-01 -0.28272347221E-02  0.44796303481E-02  0.17130000190E+03  0.17130000000E+03 0. -1.
      622    1    1    2    0    0 -0.32939949790E-01 -0.42131000624E-02  0.39786433524E+01  0.39800384064E+01  0.10000000000E+00 0.  1.
</event>
<event>
 5   0  0.6262544E+06  0.9118800E+02  0.7818608E-02  0.1180000E+00
       11   -1    0    0    0    0  0.00000000000E+00  0.00000000000E+00  0.39999999673E+01  0.40000000000E+01  0.51109989000E-03 0.  1.
     -623   -1    0    0    0    0  0.00000000000E+00  0.00000000000E+00  0.12525980253E-10  0.17130000000E+03  0.17130000000E+03 0.  1.
       11    1    1    2    0    0 -0.61016412821E-02 -0.15760251014E-02  0.24171251382E+00  0.24179519111E+00  0.51109989000E-03 0.  1.
     -623    1    1    2    0    0 -0.79783245419E-03 -0.12612370867E-02  0.14207218530E-02  0.17130000001E+03  0.17130000000E+03 0.  1.
      622    1    1    2    0    0  0.68994737364E-02  0.28372621880E-02  0.37568667318E+01  0.37582047966E+01  0.10000000000E+00 0.  1.
</event>
<event>
 5   0  0.6262544E+06  0.9118800E+02  0.7818608E-02  0.1180000E+00
       11   -1    0    0    0    0  0.00000000000E+00  0.00000000000E+00  0.39999999673E+01  0.40000000000E+01  0.51109989000E-03 0. -1.
     -623   -1    0    0    0    0  0.00000000000E+00  0.00000000000E+00  0.12525980253E-10  0.17130000000E+03  0.17130000000E+03 0. -1.
       11    1    1    2    0    0 -0.41178651603E-02 -0.63766248260E-02  0.52712464799E+00  0.52717954617E+00  0.51109989000E-03 0. -1.
     -623    1    1    2    0    0 -0.12360774321E-01 -0.46293364733E-02  0.15519914474E-02  0.17130000052E+03  0.17130000000E+03 0. -1.
      622    1    1    2    0    0  0.16478639481E-01  0.11005961299E-01  0.34713233279E+01  0.34728199383E+01  0.10000000000E+00 0. -1.
</event>
<event>
 5   0  0.6262544E+06  0.9118800E+02  0.7818608E-02  0.1180000E+00
       11   -1    0    0    0    0  0.00000000000E+00  0.00000000000E+00  0.39999999673E+01  0.40000000000E+01  0.51109989000E-03 0.  1.
     -623   -1    0    0    0    0  0.00000000000E+00  0.00000000000E+00  0.12525980253E-10  0.17130000000E+03  0.17130000000E+03 0.  1.
       11    1    1    2    0    0  0.35187613237E-03 -0.10249505649E-02 -0.50497478813E-03  0.13002165616E-02  0.51109989000E-03 0.  1.
     -623    1    1    2    0    0  0.15896699905E-02 -0.26994260236E-02  0.30580231629E-02  0.17130000006E+03  0.17130000000E+03 0.  1.
      622    1    1    2    0    0 -0.19415461229E-02  0.37243765885E-02  0.39974469190E+01  0.39986997275E+01  0.10000000000E+00 0.  1.
</event>
<event>
 5   0  0.6262544E+06  0.9118800E+02  0.7818608E-02  0.1180000E+00
       11   -1    0    0    0    0  0.00000000000E+00  0.00000000000E+00  0.39999999673E+01  0.40000000000E+01  0.51109989000E-03 0.  1.
     -623   -1    0    0    0    0  0.00000000000E+00  0.00000000000E+00  0.12525980253E-10  0.17130000000E+03  0.17130000000E+03 0.  1.
       11    1    1    2    0    0  0.18617226994E-02 -0.41509335230E-02  0.94945370141E-02  0.10540574708E-01  0.51109989000E-03 0.  1.
     -623    1    1    2    0    0  0.46592371326E-03  0.49670245271E-03  0.23018747947E-02  0.17130000002E+03  0.17130000000E+03 0.  1.
      622    1    1    2    0    0 -0.23276464126E-02  0.36542310703E-02  0.39882035556E+01  0.39894594085E+01  0.10000000000E+00 0.  1.
</event>
<event>
 5   0  0.6262544E+06  0.9118800E+02  0.7818608E-02  0.1180000E+00
       11   -1    0    0    0    0  0.00000000000E+00  0.00000000000E+00  0.39999999673E+01  0.40000000000E+01  0.51109989000E-03 0.  1.
     -623   -1    0    0    0    0  0.00000000000E+00  0.00000000000E+00  0.12525980253E-10  0.17130000000E+03  0.17130000000E+03 0. -1.
       11    1    1    2    0    0 -0.41267597901E-02  0.17680468056E-02  0.11964728934E-01  0.12789530775E-01  0.51109989000E-03 0.  1.
     -623    1    1    2    0    0  0.76492791568E-02  0.11608874843E-01  0.21035563760E-02  0.17130000058E+03  0.17130000000E+03 0. -1.
      622    1    1    2    0    0 -0.35225193670E-02 -0.13376921649E-01  0.39859316822E+01  0.39872098923E+01  0.10000000000E+00 0.  1.
</event>
<event>
 5   0  0.6262544E+06  0.9118800E+02  0.7818608E-02  0.1180000E+00
       11   -1    0    0    0    0  0.00000000000E+00  0.00000000000E+00  0.39999999673E+01  0.40000000000E+01  0.51109989000E-03 0. -1.
     -623   -1    0    0    0    0  0.00000000000E+00  0.00000000000E+00  0.12525980253E-10  0.17130000000E+03  0.17130000000E+03 0.  1.
       11    1    1    2    0    0  0.22373734386E-02 -0.33670234384E-02  0.16453809881E-01  0.16950863383E-01  0.51109989000E-03 0. -1.
     -623    1    1    2    0    0 -0.20623004625E-02  0.24396762551E-02  0.17526890323E-02  0.17130000004E+03  0.17130000000E+03 0.  1.
      622    1    1    2    0    0 -0.17507297612E-03  0.92734718342E-03  0.39817934684E+01  0.39830490978E+01  0.10000000000E+00 0. -1.
</event>
<event>
 5   0  0.6262544E+06  0.9118800E+02  0.7818608E-02  0.1180000E+00
       11   -1    0    0    0    0  0.00000000000E+00  0.00000000000E+00  0.39999999673E+01  0.40000000000E+01  0.51109989000E-03 0.  1.
     -623   -1    0    0    0    0  0.00000000000E+00  0.00000000000E+00  0.12525980253E-10  0.17130000000E+03  0.17130000000E+03 0. -1.
       11    1    1    2    0    0 -0.48678612206E-02 -0.39178431651E-01  0.71209000659E+00  0.71318376615E+00  0.51109989000E-03 0.  1.
     -623    1    1    2    0    0  0.88594909654E-02  0.25777521706E-02  0.28218910244E-02  0.17130000027E+03  0.17130000000E+03 0. -1.
      622    1    1    2    0    0 -0.39916297450E-02  0.36600679480E-01  0.32850880699E+01  0.32868159622E+01  0.10000000000E+00 0.  1.
</event>
<event>
 5   0  0.6262544E+06  0.9118800E+02  0.7818608E-02  0.1180000E+00
       11   -1    0    0    0    0  0.00000000000E+00  0.00000000000E+00  0.39999999673E+01  0.40000000000E+01  0.51109989000E-03 0. -1.
     -623   -1    0    0    0    0  0.00000000000E+00  0.00000000000E+00  0.12525980253E-10  0.17130000000E+03  0.17130000000E+03 0.  1.
       11    1    1    2    0    0  0.98083723169E-02  0.86329510264E-02  0.63086124152E-02  0.14518671551E-01  0.51109989000E-03 0. -1.
     -623    1    1    2    0    0 -0.63771941936E-02 -0.26469824534E-01  0.95086104932E-02  0.17130000243E+03  0.17130000000E+03 0.  1.
      622    1    1    2    0    0 -0.34311781233E-02  0.17836873508E-01  0.39841827445E+01  0.39854789007E+01  0.10000000000E+00 0. -1.
</event>
<event>
 5   0  0.6262544E+06  0.9118800E+02  0.7818608E-02  0.1180000E+00
       11   -1    0    0    0    0  0.00000000000E+00  0.00000000000E+00  0.39999999673E+01  0.40000000000E+01  0.51109989000E-03 0. -1.
     -623   -1    0    0    0    0  0.00000000000E+00  0.00000000000E+00  0.12525980253E-10  0.17130000000E+03  0.17130000000E+03 0. -1.
       11    1    1    2    0    0 -0.58057631694E-02  0.12188601307E-02  0.11375722336E-02  0.60619962467E-02  0.51109989000E-03 0. -1.
     -623    1    1    2    0    0  0.68232876005E-02  0.49608045812E-02  0.61817161890E-02  0.17130000032E+03  0.17130000000E+03 0. -1.
      622    1    1    2    0    0 -0.10175244311E-02 -0.61796647119E-02  0.39926806789E+01  0.39939376845E+01  0.10000000000E+00 0. -1.
</event>
<event>
 5   0  0.6262544E+06  0.9118800E+02  0.7818608E-02  0.1180000E+00
       11   -1    0    0    0    0  0.00000000000E+00  0.00000000000E+00  0.39999999673E+01  0.40000000000E+01  0.51109989000E-03 0.  1.
     -623   -1    0    0    0    0  0.00000000000E+00  0.00000000000E+00  0.12525980253E-10  0.17130000000E+03  0.17130000000E+03 0. -1.
       11    1    1    2    0    0  0.14156137438E-02 -0.19829713984E-01  0.27959283765E+00  0.28029919302E+00  0.51109989000E-03 0.  1.
     -623    1    1    2    0    0  0.68922137095E-02  0.82377546383E-02  0.20784593165E-02  0.17130000035E+03  0.17130000000E+03 0. -1.
      622    1    1    2    0    0 -0.83078274533E-02  0.11591959345E-01  0.37183286704E+01  0.37197004577E+01  0.10000000000E+00 0.  1.
</event>
<event>
 5   0  0.6262544E+06  0.9118800E+02  0.7818608E-02  0.1180000E+00
       11   -1    0    0    0    0  0.00000000000E+00  0.00000000000E+00  0.39999999673E+01  0.40000000000E+01  0.51109989000E-03 0.  1.
     -623   -1    0    0    0    0  0.00000000000E+00  0.00000000000E+00  0.12525980253E-10  0.17130000000E+03  0.17130000000E+03 0. -1.
       11    1    1    2    0    0  0.29207581284E-01 -0.93533613550E-02  0.76650469591E-01  0.82559820038E-01  0.51109989000E-03 0.  1.
     -623    1    1    2    0    0 -0.11345385253E-01  0.32246517588E-01  0.72970890714E-02  0.17130000357E+03  0.17130000000E+03 0. -1.
      622    1    1    2    0    0 -0.17862196031E-01 -0.22893156233E-01  0.39160524087E+01  0.39174366137E+01  0.10000000000E+00 0.  1.
</event>
<event>
 5   0  0.6262544E+06  0.9118800E+02  0.7818608E-02  0.1180000E+00
       11   -1    0    0    0    0  0.00000000000E+00  0.00000000000E+00  0.39999999673E+01  0.40000000000E+01  0.51109989000E-03 0.  1.
     -623   -1    0    0    0    0  0.00000000000E+00  0.00000000000E+00  0.12525980253E-10  0.17130000000E+03  0.17130000000E+03 0. -1.
       11    1    1    2    0    0 -0.82104808078E-02  0.27654660916E-02  0.14980313223E-01  0.17312735276E-01  0.51109989000E-03 0.  1.
     -623    1    1    2    0    0  0.13170203400E-01  0.23400736201E-02  0.35949439786E-02  0.17130000056E+03  0.17130000000E+03 0. -1.
      622    1    1    2    0    0 -0.49597225923E-02 -0.51055397116E-02  0.39814247102E+01  0.39826867047E+01  0.10000000000E+00 0.  1.
</event>
<event>
 5   0  0.6262544E+06  0.9118800E+02  0.7818608E-02  0.1180000E+00
       11   -1    0    0    0    0  0.00000000000E+00  0.00000000000E+00  0.39999999673E+01  0.40000000000E+01  0.51109989000E-03 0. -1.
     -623   -1    0    0    0    0  0.00000000000E+00  0.00000000000E+00  0.12525980253E-10  0.17130000000E+03  0.17130000000E+03 0.  1.
       11    1    1    2    0    0  0.15299571094E-01 -0.52877599919E-03  0.28467874348E+01  0.28468286419E+01  0.51109989000E-03 0. -1.
     -623    1    1    2    0    0 -0.57518953412E-02  0.73402412381E-01  0.67546590987E-02  0.17130001596E+03  0.17130000000E+03 0.  1.
      622    1    1    2    0    0 -0.95476757525E-02 -0.72873636382E-01  0.11464578735E+01  0.11531554018E+01  0.10000000000E+00 0.  0.
</event>
<event>
 5   0  0.6262544E+06  0.9118800E+02  0.7818608E-02  0.1180000E+00
       11   -1    0    0    0    0  0.00000000000E+00  0.00000000000E+00  0.39999999673E+01  0.40000000000E+01  0.51109989000E-03 0. -1.
     -623   -1    0    0    0    0  0.00000000000E+00  0.00000000000E+00  0.12525980253E-10  0.17130000000E+03  0.17130000000E+03 0. -1.
       11    1    1    2    0    0  0.23307375582E-01  0.14557691154E-01  0.57781956195E+00  0.57847287535E+00  0.51109989000E-03 0. -1.
     -623    1    1    2    0    0 -0.34538456816E-02  0.24813405414E-02  0.22150672541E-02  0.17130000007E+03  0.17130000000E+03 0. -1.
      622    1    1    2    0    0 -0.19853529900E-01 -0.17039031696E-01  0.34199653382E+01  0.34215270575E+01  0.10000000000E+00 0. -1.
</event>
<event>
 5   0  0.6262544E+06  0.9118800E+02  0.7818608E-02  0.1180000E+00
       11   -1    0    0    0    0  0.00000000000E+00  0.00000000000E+00  0.39999999673E+01  0.40000000000E+01  0.51109989000E-03 0. -1.
     -623   -1    0    0    0    0  0.00000000000E+00  0.00000000000E+00  0.12525980253E-10  0.17130000000E+03  0.17130000000E+03 0.  1.
       11    1    1    2    0    0  0.10665876844E-02 -0.49270444888E-02  0.61308497011E-01  0.61517529254E-01  0.51109989000E-03 0. -1.
     -623    1    1    2    0    0 -0.35794898995E-03  0.10421654627E-02  0.14807191201E-02  0.17130000001E+03  0.17130000000E+03 0.  1.
      622    1    1    2    0    0 -0.70863869444E-03  0.38848790261E-02  0.39372107513E+01  0.39384824608E+01  0.10000000000E+00 0. -1.
</event>
<event>
 5   0  0.6262544E+06  0.9118800E+02  0.7818608E-02  0.1180000E+00
       11   -1    0    0    0    0  0.00000000000E+00  0.00000000000E+00  0.39999999673E+01  0.40000000000E+01  0.51109989000E-03 0. -1.
     -623   -1    0    0    0    0  0.00000000000E+00  0.00000000000E+00  0.12525980253E-10  0.17130000000E+03  0.17130000000E+03 0.  1.
       11    1    1    2    0    0 -0.28572048489E-01 -0.67375422595E-04  0.57806736565E+00  0.57877327767E+00  0.51109989000E-03 0. -1.
     -623    1    1    2    0    0  0.21013084310E-01 -0.17444570538E-01  0.22230403267E-02  0.17130000219E+03  0.17130000000E+03 0.  1.
      622    1    1    2    0    0  0.75589641782E-02  0.17511945961E-01  0.34197095615E+01  0.34212245309E+01  0.10000000000E+00 0. -1.
</event>
<event>
 5   0  0.6262544E+06  0.9118800E+02  0.7818608E-02  0.1180000E+00
       11   -1    0    0    0    0  0.00000000000E+00  0.00000000000E+00  0.39999999673E+01  0.40000000000E+01  0.51109989000E-03 0. -1.
     -623   -1    0    0    0    0  0.00000000000E+00  0.00000000000E+00  0.12525980253E-10  0.17130000000E+03  0.17130000000E+03 0. -1.
       11    1    1    2    0    0 -0.21916591128E-01  0.14179574899E-01  0.28835323330E+01  0.28836505291E+01  0.51109989000E-03 0. -1.
     -623    1    1    2    0    0 -0.65187814768E-02  0.11404963536E-01  0.52648189822E-02  0.17130000058E+03  0.17130000000E+03 0. -1.
      622    1    1    2    0    0  0.28435372604E-01 -0.25584538435E-01  0.11112028154E+01  0.11163488863E+01  0.10000000000E+00 0.  0.
</event>
<event>
 5   0  0.6262544E+06  0.9118800E+02  0.7818608E-02  0.1180000E+00
       11   -1    0    0    0    0  0.00000000000E+00  0.00000000000E+00  0.39999999673E+01  0.40000000000E+01  0.51109989000E-03 0.  1.
     -623   -1    0    0    0    0  0.00000000000E+00  0.00000000000E+00  0.12525980253E-10  0.17130000000E+03  0.17130000000E+03 0. -1.
       11    1    1    2    0    0 -0.13501241956E-01 -0.44237715465E-02 -0.92559059905E-03  0.14246797128E-01  0.51109989000E-03 0.  1.
     -623    1    1    2    0    0  0.20475582422E-01  0.16046171354E-02  0.16436142162E-01  0.17130000202E+03  0.17130000000E+03 0. -1.
      622    1    1    2    0    0 -0.69743404665E-02  0.28191544111E-02  0.39844894158E+01  0.39857511831E+01  0.10000000000E+00 0.  1.
</event>
<event>
 5   0  0.6262544E+06  0.9118800E+02  0.7818608E-02  0.1180000E+00
       11   -1    0    0    0    0  0.00000000000E+00  0.00000000000E+00  0.39999999673E+01  0.40000000000E+01  0.51109989000E-03 0.  1.
     -623   -1    0    0    0    0  0.00000000000E+00  0.00000000000E+00  0.12525980253E-10  0.17130000000E+03  0.17130000000E+03 0. -1.
       11    1    1    2    0    0 -0.35013061002E-01 -0.19893093631E-01  0.79161589847E+00  0.79263966690E+00  0.51109989000E-03 0.  1.
     -623    1    1    2    0    0 -0.24531680875E-02 -0.61132325928E-02  0.29076162711E-02  0.17130000015E+03  0.17130000000E+03 0. -1.
      622    1    1    2    0    0  0.37466229089E-01  0.26006326223E-01  0.32054764526E+01  0.32073601818E+01  0.10000000000E+00 0.  1.
</event>
<event>
 5   0  0.6262544E+06  0.9118800E+02  0.7818608E-02  0.1180000E+00
       11   -1    0    0    0    0  0.00000000000E+00  0.00000000000E+00  0.39999999673E+01  0.40000000000E+01  0.51109989000E-03 0.  1.
     -623   -1    0    0    0    0  0.00000000000E+00  0.00000000000E+00  0.12525980253E-10  0.17130000000E+03  0.17130000000E+03 0. -1.
       11    1    1    2    0    0 -0.65818387377E-04 -0.95504131176E-03  0.26703043243E+00  0.26703263753E+00  0.51109989000E-03 0.  1.
     -623    1    1    2    0    0  0.19218731249E-03  0.11061331305E-02  0.13418439869E-02  0.17130000001E+03  0.17130000000E+03 0. -1.
      622    1    1    2    0    0 -0.12636892513E-03 -0.15109181881E-03  0.37316276913E+01  0.37329673539E+01  0.10000000000E+00 0.  1.
</event>
<event>
 5   0  0.6262544E+06  0.9118800E+02  0.7818608E-02  0.1180000E+00
       11   -1    0    0    0    0  0.00000000000E+00  0.00000000000E+00  0.39999999673E+01  0.40000000000E+01  0.51109989000E-03 0. -1.
     -623   -1    0    0    0    0  0.00000000000E+00  0.00000000000E+00  0.12525980253E-10  0.17130000000E+03  0.17130000000E+03 0.  1.
       11    1    1    2    0    0 -0.31932459085E-01 -0.19373573164E-02  0.12796921879E+01  0.12800921030E+01  0.51109989000E-03 0. -1.
     -623    1    1    2    0    0  0.79218988029E-02 -0.12021715609E-01  0.23813227721E-02  0.17130000062E+03  0.17130000000E+03 0.  1.
      622    1    1    2    0    0  0.24010560282E-01  0.13959072925E-01  0.27179264567E+01  0.27199072754E+01  0.10000000000E+00 0. -1.
</event>
<event>
 5   0  0.6262544E+06  0.9118800E+02  0.7818608E-02  0.1180000E+00
       11   -1    0    0    0    0  0.00000000000E+00  0.00000000000E+00  0.39999999673E+01  0.40000000000E+01  0.51109989000E-03 0.  1.
     -623   -1    0    0    0    0  0.00000000000E+00  0.00000000000E+00  0.12525980253E-10  0.17130000000E+03  0.17130000000E+03 0.  1.
       11    1    1    2    0    0  0.11578813778E-01  0.68889932787E-02  0.13880864379E+00  0.13946192300E+00  0.51109989000E-03 0.  1.
     -623    1    1    2    0    0 -0.92736731442E-02 -0.76413131980E-03  0.19544328230E-02  0.17130000026E+03  0.17130000000E+03 0.  1.
      622    1    1    2    0    0 -0.23051406335E-02 -0.61248619589E-02  0.38592368907E+01  0.38605378131E+01  0.10000000000E+00 0.  1.
</event>
<event>
 5   0  0.6262544E+06  0.9118800E+02  0.7818608E-02  0.1180000E+00
       11   -1    0    0    0    0  0.00000000000E+00  0.00000000000E+00  0.39999999673E+01  0.40000000000E+01  0.51109989000E-03 0.  1.
     -623   -1    0    0    0    0  0.00000000000E+00  0.00000000000E+00  0.12525980253E-10  0.17130000000E+03  0.17130000000E+03 0.  1.
       11    1    1    2    0    0  0.23636092653E-01  0.61580749086E-02  0.35738581030E+00  0.35821985621E+00  0.51109989000E-03 0.  1.
     -623    1    1    2    0    0  0.64100653831E-02 -0.10924845055E-02  0.23348863159E-02  0.17130000014E+03  0.17130000000E+03 0.  1.
      622    1    1    2    0    0 -0.30046158036E-01 -0.50655904032E-02  0.36402792707E+01  0.36417800044E+01  0.10000000000E+00 0.  1.
</event>
<event>
 5   0  0.6262544E+06  0.9118800E+02  0.7818608E-02  0.1180000E+00
       11   -1    0    0    0    0  0.00000000000E+00  0.00000000000E+00  0.39999999673E+01  0.40000000000E+01  0.51109989000E-03 0.  1.
     -623   -1    0    0    0    0  0.00000000000E+00  0.00000000000E+00  0.12525980253E-10  0.17130000000E+03  0.17130000000E+03 0. -1.
       11    1    1    2    0    0 -0.19339658980E-01  0.11036985069E-01  0.21917259010E+00  0.22030143649E+00  0.51109989000E-03 0.  1.
     -623    1    1    2    0    0  0.63846016136E-02  0.35985324062E-01  0.27706468204E-02  0.17130000392E+03  0.17130000000E+03 0. -1.
      622    1    1    2    0    0  0.12955057367E-01 -0.47022309132E-01  0.37780567305E+01  0.37796946425E+01  0.10000000000E+00 0.  1.
</event>
<event>
 5   0  0.6262544E+06  0.9118800E+02  0.7818608E-02  0.1180000E+00
       11   -1    0    0    0    0  0.00000000000E+00  0.00000000000E+00  0.39999999673E+01  0.40000000000E+01  0.51109989000E-03 0.  1.
     -623   -1    0    0    0    0  0.00000000000E+00  0.00000000000E+00  0.12525980253E-10  0.17130000000E+03  0.17130000000E+03 0.  1.
       11    1    1    2    0    0  0.47115679330E-02  0.72564838169E-04  0.29227979874E-01  0.29609798480E-01  0.51109989000E-03 0.  1.
     -623    1    1    2    0    0  0.33476308000E-02  0.57480628735E-02  0.16538948891E-02  0.17130000014E+03  0.17130000000E+03 0.  1.
      622    1    1    2    0    0 -0.80591987330E-02 -0.58206277117E-02  0.39691180926E+01  0.39703900644E+01  0.10000000000E+00 0.  1.
</event>
<event>
 5   0  0.6262544E+06  0.9118800E+02  0.7818608E-02  0.1180000E+00
       11   -1    0    0    0    0  0.00000000000E+00  0.00000000000E+00  0.39999999673E+01  0.40000000000E+01  0.51109989000E-03 0.  1.
     -623   -1    0    0    0    0  0.00000000000E+00  0.00000000000E+00  0.12525980253E-10  0.17130000000E+03  0.17130000000E+03 0.  1.
       11    1    1    2    0    0 -0.90577579913E-01  0.99920644311E-02  0.13454453302E+01  0.13485279149E+01  0.51109989000E-03 0.  1.
     -623    1    1    2    0    0  0.10767355490E-01  0.26100531973E-01  0.64196530716E-02  0.17130000245E+03  0.17130000000E+03 0.  1.
      622    1    1    2    0    0  0.79810224422E-01 -0.36092596405E-01  0.26481349841E+01  0.26514696381E+01  0.10000000000E+00 0. -1.
</event>
<event>
 5   0  0.6262544E+06  0.9118800E+02  0.7818608E-02  0.1180000E+00
       11   -1    0    0    0    0  0.00000000000E+00  0.00000000000E+00  0.39999999673E+01  0.40000000000E+01  0.51109989000E-03 0. -1.
     -623   -1    0    0    0    0  0.00000000000E+00  0.00000000000E+00  0.12525980253E-10  0.17130000000E+03  0.17130000000E+03 0. -1.
       11    1    1    2    0    0  0.15516093677E-01  0.15373354445E-01  0.17060248312E+01  0.17061647268E+01  0.51109989000E-03 0. -1.
     -623    1    1    2    0    0  0.12485738157E-01 -0.65215565714E-02  0.25094344419E-02  0.17130000060E+03  0.17130000000E+03 0. -1.
      622    1    1    2    0    0 -0.28001831834E-01 -0.88517978731E-02  0.22914657017E+01  0.22938346756E+01  0.10000000000E+00 0. -1.
</event>
<event>
 5   0  0.6262544E+06  0.9118800E+02  0.7818608E-02  0.1180000E+00
       11   -1    0    0    0    0  0.00000000000E+00  0.00000000000E+00  0.39999999673E+01  0.40000000000E+01  0.51109989000E-03 0.  1.
     -623   -1    0    0    0    0  0.00000000000E+00  0.00000000000E+00  0.12525980253E-10  0.17130000000E+03  0.17130000000E+03 0. -1.
       11    1    1    2    0    0  0.11446569276E-01  0.10458787560E-01  0.69714434608E+00  0.69731693704E+00  0.51109989000E-03 0.  1.
     -623    1    1    2    0    0 -0.99491969324E-03  0.16371617551E-02  0.17255515551E-02  0.17130000002E+03  0.17130000000E+03 0. -1.
      622    1    1    2    0    0 -0.10451649583E-01 -0.12095949316E-01  0.33011300699E+01  0.33026830438E+01  0.10000000000E+00 0.  1.
</event>
<event>
 5   0  0.6262544E+06  0.9118800E+02  0.7818608E-02  0.1180000E+00
       11   -1    0    0    0    0  0.00000000000E+00  0.00000000000E+00  0.39999999673E+01  0.40000000000E+01  0.51109989000E-03 0.  1.
     -623   -1    0    0    0    0  0.00000000000E+00  0.00000000000E+00  0.12525980253E-10  0.17130000000E+03  0.17130000000E+03 0.  1.
       11    1    1    2    0    0  0.79024659665E-02 -0.40066069544E-02  0.75257323839E-01  0.75778808913E-01  0.51109989000E-03 0.  1.
     -623    1    1    2    0    0 -0.48122262150E-02 -0.25483682088E-02  0.18025871876E-02  0.17130000010E+03  0.17130000000E+03 0.  1.
      622    1    1    2    0    0 -0.30902397515E-02  0.65549751632E-02  0.39229400563E+01  0.39242210951E+01  0.10000000000E+00 0.  1.
</event>
<event>
 5   0  0.6262544E+06  0.9118800E+02  0.7818608E-02  0.1180000E+00
       11   -1    0    0    0    0  0.00000000000E+00  0.00000000000E+00  0.39999999673E+01  0.40000000000E+01  0.51109989000E-03 0.  1.
     -623   -1    0    0    0    0  0.00000000000E+00  0.00000000000E+00  0.12525980253E-10  0.17130000000E+03  0.17130000000E+03 0.  1.
       11    1    1    2    0    0  0.16355586205E-02 -0.11453355126E-02  0.36661341818E-01  0.36719232708E-01  0.51109989000E-03 0.  1.
     -623    1    1    2    0    0 -0.35876648214E-02 -0.11668189761E-03  0.13203647895E-02  0.17130000004E+03  0.17130000000E+03 0.  1.
      622    1    1    2    0    0  0.19521062009E-02  0.12620174102E-02  0.39620182608E+01  0.39632807246E+01  0.10000000000E+00 0.  1.
</event>
<event>
 5   0  0.6262544E+06  0.9118800E+02  0.7818608E-02  0.1180000E+00
       11   -1    0    0    0    0  0.00000000000E+00  0.00000000000E+00  0.39999999673E+01  0.40000000000E+01  0.51109989000E-03 0.  1.
     -623   -1    0    0    0    0  0.00000000000E+00  0.00000000000E+00  0.12525980253E-10  0.17130000000E+03  0.17130000000E+03 0. -1.
       11    1    1    2    0    0 -0.67639379415E-02 -0.12548102895E-01  0.19085639251E+00  0.19138868704E+00  0.51109989000E-03 0.  1.
     -623    1    1    2    0    0 -0.16019341048E-02 -0.85160565883E-04  0.18754715196E-02  0.17130000002E+03  0.17130000000E+03 0. -1.
      622    1    1    2    0    0  0.83658720462E-02  0.12633263461E-01  0.38072681033E+01  0.38086112952E+01  0.10000000000E+00 0.  1.
</event>
<event>
 5   0  0.6262544E+06  0.9118800E+02  0.7818608E-02  0.1180000E+00
       11   -1    0    0    0    0  0.00000000000E+00  0.00000000000E+00  0.39999999673E+01  0.40000000000E+01  0.51109989000E-03 0. -1.
     -623   -1    0    0    0    0  0.00000000000E+00  0.00000000000E+00  0.12525980253E-10  0.17130000000E+03  0.17130000000E+03 0. -1.
       11    1    1    2    0    0 -0.23231122228E-01 -0.22870691232E-02  0.41884445498E+00  0.41949476089E+00  0.51109989000E-03 0. -1.
     -623    1    1    2    0    0  0.37188848312E-01  0.17603619565E-01  0.21119426004E-02  0.17130000495E+03  0.17130000000E+03 0. -1.
      622    1    1    2    0    0 -0.13957726084E-01 -0.15316550442E-01  0.35790435698E+01  0.35805002848E+01  0.10000000000E+00 0. -1.
</event>
<event>
 5   0  0.6262544E+06  0.9118800E+02  0.7818608E-02  0.1180000E+00
       11   -1    0    0    0    0  0.00000000000E+00  0.00000000000E+00  0.39999999673E+01  0.40000000000E+01  0.51109989000E-03 0. -1.
     -623   -1    0    0    0    0  0.00000000000E+00  0.00000000000E+00  0.12525980253E-10  0.17130000000E+03  0.17130000000E+03 0.  1.
       11    1    1    2    0    0 -0.26554744977E-01  0.28484103866E-02  0.28606139543E+00  0.28730584940E+00  0.51109989000E-03 0. -1.
     -623    1    1    2    0    0  0.11014728063E-02 -0.85168975371E-02  0.26832451468E-02  0.17130000024E+03  0.17130000000E+03 0.  1.
      622    1    1    2    0    0  0.25453272171E-01  0.56684871507E-02  0.37112553269E+01  0.37126939144E+01  0.10000000000E+00 0. -1.
</event>
<event>
 5   0  0.6262544E+06  0.9118800E+02  0.7818608E-02  0.1180000E+00
       11   -1    0    0    0    0  0.00000000000E+00  0.00000000000E+00  0.39999999673E+01  0.40000000000E+01  0.51109989000E-03 0.  1.
     -623   -1    0    0    0    0  0.00000000000E+00  0.00000000000E+00  0.12525980253E-10  0.17130000000E+03  0.17130000000E+03 0.  1.
       11    1    1    2    0    0  0.78544058774E-02 -0.13766418485E-02 -0.14603760138E-01  0.16646857528E-01  0.51109989000E-03 0.  1.
     -623    1    1    2    0    0 -0.21624733972E-01 -0.98384006470E-04  0.32534545304E-01  0.17130000445E+03  0.17130000000E+03 0.  1.
      622    1    1    2    0    0  0.13770328094E-01  0.14750258549E-02  0.39820691822E+01  0.39833486879E+01  0.10000000000E+00 0.  1.
</event>
<event>
 5   0  0.6262544E+06  0.9118800E+02  0.7818608E-02  0.1180000E+00
       11   -1    0    0    0    0  0.00000000000E+00  0.00000000000E+00  0.39999999673E+01  0.40000000000E+01  0.51109989000E-03 0. -1.
     -623   -1    0    0    0    0  0.00000000000E+00  0.00000000000E+00  0.12525980253E-10  0.17130000000E+03  0.17130000000E+03 0. -1.
       11    1    1    2    0    0 -0.12755516292E-02  0.13685252396E-01  0.79107967600E-01  0.80294737847E-01  0.51109989000E-03 0. -1.
     -623    1    1    2    0    0 -0.76455690596E-02  0.58359566583E-03  0.24988766185E-02  0.17130000019E+03  0.17130000000E+03 0. -1.
      622    1    1    2    0    0  0.89211206889E-02 -0.14268848062E-01  0.39183931232E+01  0.39197050724E+01  0.10000000000E+00 0. -1.
</event>
<event>
 5   0  0.6262544E+06  0.9118800E+02  0.7818608E-02  0.1180000E+00
       11   -1    0    0    0    0  0.00000000000E+00  0.00000000000E+00  0.39999999673E+01  0.40000000000E+01  0.51109989000E-03 0. -1.
     -623   -1    0    0    0    0  0.00000000000E+00  0.00000000000E+00  0.12525980253E-10  0.17130000000E+03  0.17130000000E+03 0.  1.
       11    1    1    2    0    0 -0.23965257284E-02  0.37784478881E-02  0.37337977737E+00  0.37340693536E+00  0.51109989000E-03 0. -1.
     -623    1    1    2    0    0 -0.21973862997E-02  0.22938286476E-02  0.14141235752E-02  0.17130000004E+03  0.17130000000E+03 0.  1.
      622    1    1    2    0    0  0.45939120281E-02 -0.60722765357E-02  0.36252060664E+01  0.36265930293E+01  0.10000000000E+00 0. -1.
</event>
<event>
 5   0  0.6262544E+06  0.9118800E+02  0.7818608E-02  0.1180000E+00
       11   -1    0    0    0    0  0.00000000000E+00  0.00000000000E+00  0.39999999673E+01  0.40000000000E+01  0.51109989000E-03 0. -1.
     -623   -1    0    0    0    0  0.00000000000E+00  0.00000000000E+00  0.12525980253E-10  0.17130000000E+03  0.17130000000E+03 0.  1.
       11    1    1    2    0    0 -0.72099926540E-01 -0.34620142826E-01  0.81220783058E+00  0.81613649286E+00  0.51109989000E-03 0. -1.
     -623    1    1    2    0    0 -0.27744033341E-04  0.27969835620E-02  0.64762466467E-02  0.17130000015E+03  0.17130000000E+03 0.  1.
      622    1    1    2    0    0  0.72127670573E-01  0.31823159264E-01  0.31813158902E+01  0.31838633619E+01  0.10000000000E+00 0. -1.
</event>
<event>
 5   0  0.6262544E+06  0.9118800E+02  0.7818608E-02  0.1180000E+00
       11   -1    0    0    0    0  0.00000000000E+00  0.00000000000E+00  0.39999999673E+01  0.40000000000E+01  0.51109989000E-03 0. -1.
     -623   -1    0    0    0    0  0.00000000000E+00  0.00000000000E+00  0.12525980253E-10  0.17130000000E+03  0.17130000000E+03 0.  1.
       11    1    1    2    0    0  0.29024273490E-01 -0.58382250709E-02  0.20287040388E+00  0.20501989004E+00  0.51109989000E-03 0. -1.
     -623    1    1    2    0    0  0.37226181975E-03  0.87388954502E-02  0.35824785588E-02  0.17130000026E+03  0.17130000000E+03 0.  1.
      622    1    1    2    0    0 -0.29396535310E-01 -0.29006703793E-02  0.37935470849E+01  0.37949798492E+01  0.10000000000E+00 0. -1.
</event>
<event>
 5   0  0.6262544E+06  0.9118800E+02  0.7818608E-02  0.1180000E+00
       11   -1    0    0    0    0  0.00000000000E+00  0.00000000000E+00  0.39999999673E+01  0.40000000000E+01  0.51109989000E-03 0. -1.
     -623   -1    0    0    0    0  0.00000000000E+00  0.00000000000E+00  0.12525980253E-10  0.17130000000E+03  0.17130000000E+03 0.  1.
       11    1    1    2    0    0  0.18716345113E-01 -0.23462100701E-02  0.85268104079E+00  0.85288980813E+00  0.51109989000E-03 0. -1.
     -623    1    1    2    0    0 -0.89735035703E-03 -0.88943930822E-02  0.18686949422E-02  0.17130000024E+03  0.17130000000E+03 0.  1.
      622    1    1    2    0    0 -0.17818994756E-01  0.11240603152E-01  0.31454502317E+01  0.31471099485E+01  0.10000000000E+00 0. -1.
</event>
<event>
 5   0  0.6262544E+06  0.9118800E+02  0.7818608E-02  0.1180000E+00
       11   -1    0    0    0    0  0.00000000000E+00  0.00000000000E+00  0.39999999673E+01  0.40000000000E+01  0.51109989000E-03 0. -1.
     -623   -1    0    0    0    0  0.00000000000E+00  0.00000000000E+00  0.12525980253E-10  0.17130000000E+03  0.17130000000E+03 0.  1.
       11    1    1    2    0    0  0.61391092145E-02 -0.99174280651E-02  0.15482106039E+00  0.15526063894E+00  0.51109989000E-03 0. -1.
     -623    1    1    2    0    0  0.98494425771E-03  0.70478042454E-02  0.17480747087E-02  0.17130000016E+03  0.17130000000E+03 0.  1.
      622    1    1    2    0    0 -0.71240534722E-02  0.28696238200E-02  0.38434308321E+01  0.38447392041E+01  0.10000000000E+00 0. -1.
</event>
<event>
 5   0  0.6262544E+06  0.9118800E+02  0.7818608E-02  0.1180000E+00
       11   -1    0    0    0    0  0.00000000000E+00  0.00000000000E+00  0.39999999673E+01  0.40000000000E+01  0.51109989000E-03 0.  1.
     -623   -1    0    0    0    0  0.00000000000E+00  0.00000000000E+00  0.12525980253E-10  0.17130000000E+03  0.17130000000E+03 0.  1.
       11    1    1    2    0    0  0.89730212445E-01  0.20902370819E-01  0.18798323174E+01  0.18820887925E+01  0.51109989000E-03 0.  1.
     -623    1    1    2    0    0  0.79355942826E-03  0.25051422488E-01  0.70578100340E-02  0.17130000198E+03  0.17130000000E+03 0.  1.
      622    1    1    2    0    0 -0.90523771874E-01 -0.45953793308E-01  0.21131098399E+01  0.21179092285E+01  0.10000000000E+00 0.  1.
</event>
<event>
 5   0  0.6262544E+06  0.9118800E+02  0.7818608E-02  0.1180000E+00
       11   -1    0    0    0    0  0.00000000000E+00  0.00000000000E+00  0.39999999673E+01  0.40000000000E+01  0.51109989000E-03 0.  1.
     -623   -1    0    0    0    0  0.00000000000E+00  0.00000000000E+00  0.12525980253E-10  0.17130000000E+03  0.17130000000E+03 0.  1.
       11    1    1    2    0    0 -0.29306956660E-01 -0.34871200607E-01  0.86429544040E-01  0.97699670649E-01  0.51109989000E-03 0.  1.
     -623    1    1    2    0    0 -0.36952534017E-02  0.24383023953E-01  0.12707547070E-01  0.17130000225E+03  0.17130000000E+03 0.  1.
      622    1    1    2    0    0  0.33002210062E-01  0.10488176654E-01  0.39008628763E+01  0.39022980828E+01  0.10000000000E+00 0.  1.
</event>
<event>
 5   0  0.6262544E+06  0.9118800E+02  0.7818608E-02  0.1180000E+00
       11   -1    0    0    0    0  0.00000000000E+00  0.00000000000E+00  0.39999999673E+01  0.40000000000E+01  0.51109989000E-03 0.  1.
     -623   -1    0    0    0    0  0.00000000000E+00  0.00000000000E+00  0.12525980253E-10  0.17130000000E+03  0.17130000000E+03 0. -1.
       11    1    1    2    0    0  0.67168086024E-02 -0.80725171755E-03  0.87090350885E+00  0.87092993411E+00  0.51109989000E-03 0.  1.
     -623    1    1    2    0    0 -0.48415351553E-02  0.45105968618E-02  0.16276101212E-02  0.17130000014E+03  0.17130000000E+03 0. -1.
      622    1    1    2    0    0 -0.18752734469E-02 -0.37033451444E-02  0.31274688485E+01  0.31290699304E+01  0.10000000000E+00 0.  1.
</event>
<event>
 5   0  0.6262544E+06  0.9118800E+02  0.7818608E-02  0.1180000E+00
       11   -1    0    0    0    0  0.00000000000E+00  0.00000000000E+00  0.39999999673E+01  0.40000000000E+01  0.51109989000E-03 0.  1.
     -623   -1    0    0    0    0  0.00000000000E+00  0.00000000000E+00  0.12525980253E-10  0.17130000000E+03  0.17130000000E+03 0. -1.
       11    1    1    2    0    0 -0.63222215296E-02 -0.19988753933E-02  0.98705226857E-01  0.98929009996E-01  0.51109989000E-03 0.  1.
     -623    1    1    2    0    0  0.11366948476E-01  0.16579467174E-01  0.15373672922E-02  0.17130000119E+03  0.17130000000E+03 0. -1.
      622    1    1    2    0    0 -0.50447269466E-02 -0.14580591780E-01  0.38997573732E+01  0.39010698036E+01  0.10000000000E+00 0.  1.
</event>
<event>
 5   0  0.6262544E+06  0.9118800E+02  0.7818608E-02  0.1180000E+00
       11   -1    0    0    0    0  0.00000000000E+00  0.00000000000E+00  0.39999999673E+01  0.40000000000E+01  0.51109989000E-03 0.  1.
     -623   -1    0    0    0    0  0.00000000000E+00  0.00000000000E+00  0.12525980253E-10  0.17130000000E+03  0.17130000000E+03 0. -1.
       11    1    1    2    0    0  0.49956161852E-02  0.33084032226E-02  0.42910028692E-01  0.43329360688E-01  0.51109989000E-03 0.  1.
     -623    1    1    2    0    0 -0.17545128961E-02  0.18853013098E-02  0.16879553463E-02  0.17130000003E+03  0.17130000000E+03 0. -1.
      622    1    1    2    0    0 -0.32411032891E-02 -0.51937045325E-02  0.39554019833E+01  0.39566706116E+01  0.10000000000E+00 0.  1.
</event>
<event>
 5   0  0.6262544E+06  0.9118800E+02  0.7818608E-02  0.1180000E+00
       11   -1    0    0    0    0  0.00000000000E+00  0.00000000000E+00  0.39999999673E+01  0.40000000000E+01  0.51109989000E-03 0.  1.
     -623   -1    0    0    0    0  0.00000000000E+00  0.00000000000E+00  0.12525980253E-10  0.17130000000E+03  0.17130000000E+03 0. -1.
       11    1    1    2    0    0 -0.10065973445E-02 -0.17432700986E-02  0.24945273955E-01  0.25031582943E-01  0.51109989000E-03 0.  1.
     -623    1    1    2    0    0  0.15787494524E-02  0.14385471225E-02  0.13444185375E-02  0.17130000002E+03  0.17130000000E+03 0. -1.
      622    1    1    2    0    0 -0.57215210777E-03  0.30472297611E-03  0.39737102748E+01  0.39749683984E+01  0.10000000000E+00 0.  1.
</event>
<event>
 5   0  0.6262544E+06  0.9118800E+02  0.7818608E-02  0.1180000E+00
       11   -1    0    0    0    0  0.00000000000E+00  0.00000000000E+00  0.39999999673E+01  0.40000000000E+01  0.51109989000E-03 0. -1.
     -623   -1    0    0    0    0  0.00000000000E+00  0.00000000000E+00  0.12525980253E-10  0.17130000000E+03  0.17130000000E+03 0. -1.
       11    1    1    2    0    0 -0.37686185225E-02 -0.19232283871E-02  0.20561704539E-01  0.20998719238E-01  0.51109989000E-03 0. -1.
     -623    1    1    2    0    0  0.37672987251E-03 -0.21885866921E-02  0.16973714489E-02  0.17130000002E+03  0.17130000000E+03 0. -1.
      622    1    1    2    0    0  0.33918886500E-02  0.41118150793E-02  0.39777408915E+01  0.39790012581E+01  0.10000000000E+00 0. -1.
</event>
<event>
 5   0  0.6262544E+06  0.9118800E+02  0.7818608E-02  0.1180000E+00
       11   -1    0    0    0    0  0.00000000000E+00  0.00000000000E+00  0.39999999673E+01  0.40000000000E+01  0.51109989000E-03 0. -1.
     -623   -1    0    0    0    0  0.00000000000E+00  0.00000000000E+00  0.12525980253E-10  0.17130000000E+03  0.17130000000E+03 0. -1.
       11    1    1    2    0    0  0.45118867691E-01  0.36876476333E-02  0.28243423941E+00  0.28603963323E+00  0.51109989000E-03 0. -1.
     -623    1    1    2    0    0  0.12178346384E-01  0.10662835111E-01  0.54226298606E-02  0.17130000085E+03  0.17130000000E+03 0. -1.
      622    1    1    2    0    0 -0.57297214075E-01 -0.14350482745E-01  0.37121430981E+01  0.37139595162E+01  0.10000000000E+00 0. -1.
</event>
<event>
 5   0  0.6262544E+06  0.9118800E+02  0.7818608E-02  0.1180000E+00
       11   -1    0    0    0    0  0.00000000000E+00  0.00000000000E+00  0.39999999673E+01  0.40000000000E+01  0.51109989000E-03 0.  1.
     -623   -1    0    0    0    0  0.00000000000E+00  0.00000000000E+00  0.12525980253E-10  0.17130000000E+03  0.17130000000E+03 0. -1.
       11    1    1    2    0    0  0.21785793605E-02 -0.11075126190E-02  0.14714726874E-01  0.14925052802E-01  0.51109989000E-03 0.  1.
     -623    1    1    2    0    0 -0.33165128198E-02 -0.28261883896E-02  0.14673387617E-02  0.17130000006E+03  0.17130000000E+03 0. -1.
      622    1    1    2    0    0  0.11379334593E-02  0.39337010086E-02  0.39838179017E+01  0.39850748855E+01  0.10000000000E+00 0.  1.
</event>
<event>
 5   0  0.6262544E+06  0.9118800E+02  0.7818608E-02  0.1180000E+00
       11   -1    0    0    0    0  0.00000000000E+00  0.00000000000E+00  0.39999999673E+01  0.40000000000E+01  0.51109989000E-03 0. -1.
     -623   -1    0    0    0    0  0.00000000000E+00  0.00000000000E+00  0.12525980253E-10  0.17130000000E+03  0.17130000000E+03 0. -1.
       11    1    1    2    0    0  0.59909631693E-02 -0.82856324924E-02  0.91195694126E-01  0.91768508736E-01  0.51109989000E-03 0. -1.
     -623    1    1    2    0    0  0.52290740204E-02  0.15406633435E-01  0.18757261769E-02  0.17130000078E+03  0.17130000000E+03 0. -1.
      622    1    1    2    0    0 -0.11220037190E-01 -0.71210009437E-02  0.39069285474E+01  0.39082307087E+01  0.10000000000E+00 0. -1.
</event>
<event>
 5   0  0.6262544E+06  0.9118800E+02  0.7818608E-02  0.1180000E+00
       11   -1    0    0    0    0  0.00000000000E+00  0.00000000000E+00  0.39999999673E+01  0.40000000000E+01  0.51109989000E-03 0.  1.
     -623   -1    0    0    0    0  0.00000000000E+00  0.00000000000E+00  0.12525980253E-10  0.17130000000E+03  0.17130000000E+03 0. -1.
       11    1    1    2    0    0 -0.65728193513E-02  0.15568657381E-02  0.13712982021E+00  0.13729703055E+00  0.51109989000E-03 0.  1.
     -623    1    1    2    0    0 -0.63940145181E-02  0.24547913157E-02  0.14858240776E-02  0.17130000014E+03  0.17130000000E+03 0. -1.
      622    1    1    2    0    0  0.12966833869E-01 -0.40116570538E-02  0.38613843231E+01  0.38627028261E+01  0.10000000000E+00 0.  1.
</event>
<event>
 5   0  0.6262544E+06  0.9118800E+02  0.7818608E-02  0.1180000E+00
       11   -1    0    0    0    0  0.00000000000E+00  0.00000000000E+00  0.39999999673E+01  0.40000000000E+01  0.51109989000E-03 0.  1.
     -623   -1    0    0    0    0  0.00000000000E+00  0.00000000000E+00  0.12525980253E-10  0.17130000000E+03  0.17130000000E+03 0.  1.
       11    1    1    2    0    0 -0.36286968740E-01  0.56838683094E-01  0.88401818251E+00  0.88658659376E+00  0.51109989000E-03 0.  1.
     -623    1    1    2    0    0  0.83048635324E-02 -0.17135968544E-02  0.47891612662E-02  0.17130000028E+03  0.17130000000E+03 0.  1.
      622    1    1    2    0    0  0.27982105207E-01 -0.55125086239E-01  0.31111926237E+01  0.31134131295E+01  0.10000000000E+00 0.  0.
</event>
<event>
 5   0  0.6262544E+06  0.9118800E+02  0.7818608E-02  0.1180000E+00
       11   -1    0    0    0    0  0.00000000000E+00  0.00000000000E+00  0.39999999673E+01  0.40000000000E+01  0.51109989000E-03 0.  1.
     -623   -1    0    0    0    0  0.00000000000E+00  0.00000000000E+00  0.12525980253E-10  0.17130000000E+03  0.17130000000E+03 0.  1.
       11    1    1    2    0    0 -0.83502888567E-02  0.20253552570E-02  0.11794742074E-01  0.14601594146E-01  0.51109989000E-03 0.  1.
     -623    1    1    2    0    0  0.59747381751E-02  0.15301545412E-03  0.40630529108E-02  0.17130000015E+03  0.17130000000E+03 0.  1.
      622    1    1    2    0    0  0.23755506818E-02 -0.21783707111E-02  0.39841421723E+01  0.39853982533E+01  0.10000000000E+00 0.  1.
</event>
<event>
 5   0  0.6262544E+06  0.9118800E+02  0.7818608E-02  0.1180000E+00
       11   -1    0    0    0    0  0.00000000000E+00  0.00000000000E+00  0.39999999673E+01  0.40000000000E+01  0.51109989000E-03 0. -1.
     -623   -1    0    0    0    0  0.00000000000E+00  0.00000000000E+00  0.12525980253E-10  0.17130000000E+03  0.17130000000E+03 0.  1.
       11    1    1    2    0    0  0.10075223137E+00 -0.84430632599E-02  0.86426818231E+00  0.87016208238E+00  0.51109989000E-03 0. -1.
     -623    1    1    2    0    0  0.15999210864E-01  0.49728170430E-02  0.96742664031E-02  0.17130000109E+03  0.17130000000E+03 0.  1.
      622    1    1    2    0    0 -0.11675144224E+00  0.34702462169E-02  0.31260575187E+01  0.31298368251E+01  0.10000000000E+00 0. -1.
</event>
<event>
 5   0  0.6262544E+06  0.9118800E+02  0.7818608E-02  0.1180000E+00
       11   -1    0    0    0    0  0.00000000000E+00  0.00000000000E+00  0.39999999673E+01  0.40000000000E+01  0.51109989000E-03 0. -1.
     -623   -1    0    0    0    0  0.00000000000E+00  0.00000000000E+00  0.12525980253E-10  0.17130000000E+03  0.17130000000E+03 0. -1.
       11    1    1    2    0    0  0.74740940287E-02  0.25486952577E-02  0.19551510582E-01  0.21092195624E-01  0.51109989000E-03 0. -1.
     -623    1    1    2    0    0 -0.86847555144E-02  0.28088325174E-02  0.28015356184E-02  0.17130000027E+03  0.17130000000E+03 0. -1.
      622    1    1    2    0    0  0.12106614856E-02 -0.53575277751E-02  0.39776469212E+01  0.39789075383E+01  0.10000000000E+00 0. -1.
</event>
<event>
 5   0  0.6262544E+06  0.9118800E+02  0.7818608E-02  0.1180000E+00
       11   -1    0    0    0    0  0.00000000000E+00  0.00000000000E+00  0.39999999673E+01  0.40000000000E+01  0.51109989000E-03 0.  1.
     -623   -1    0    0    0    0  0.00000000000E+00  0.00000000000E+00  0.12525980253E-10  0.17130000000E+03  0.17130000000E+03 0.  1.
       11    1    1    2    0    0 -0.46326120711E-02  0.12594031445E-01  0.56130649827E+00  0.56146711118E+00  0.51109989000E-03 0.  1.
     -623    1    1    2    0    0 -0.25999849251E-02 -0.21069485324E-01  0.16343797786E-02  0.17130000132E+03  0.17130000000E+03 0.  1.
      622    1    1    2    0    0  0.72325969962E-02  0.84754538790E-02  0.34370590893E+01  0.34385315655E+01  0.10000000000E+00 0.  1.
</event>
<event>
 5   0  0.6262544E+06  0.9118800E+02  0.7818608E-02  0.1180000E+00
       11   -1    0    0    0    0  0.00000000000E+00  0.00000000000E+00  0.39999999673E+01  0.40000000000E+01  0.51109989000E-03 0. -1.
     -623   -1    0    0    0    0  0.00000000000E+00  0.00000000000E+00  0.12525980253E-10  0.17130000000E+03  0.17130000000E+03 0. -1.
       11    1    1    2    0    0 -0.37841944785E-02  0.75284328305E-02  0.26726889337E-01  0.28028293993E-01  0.51109989000E-03 0. -1.
     -623    1    1    2    0    0  0.67177084663E-02  0.50368008655E-02  0.25815823824E-02  0.17130000023E+03  0.17130000000E+03 0. -1.
      622    1    1    2    0    0 -0.29335139877E-02 -0.12565233696E-01  0.39706914956E+01  0.39719714808E+01  0.10000000000E+00 0. -1.
</event>
<event>
 5   0  0.6262544E+06  0.9118800E+02  0.7818608E-02  0.1180000E+00
       11   -1    0    0    0    0  0.00000000000E+00  0.00000000000E+00  0.39999999673E+01  0.40000000000E+01  0.51109989000E-03 0.  1.
     -623   -1    0    0    0    0  0.00000000000E+00  0.00000000000E+00  0.12525980253E-10  0.17130000000E+03  0.17130000000E+03 0. -1.
       11    1    1    2    0    0  0.13638033203E-02  0.48238110911E-02  0.12578905657E-01  0.13550616353E-01  0.51109989000E-03 0.  1.
     -623    1    1    2    0    0 -0.14031270737E-02 -0.57819604692E-02  0.22263575998E-02  0.17130000012E+03  0.17130000000E+03 0. -1.
      622    1    1    2    0    0  0.39323753330E-04  0.95814937806E-03  0.39851947041E+01  0.39864492659E+01  0.10000000000E+00 0.  1.
</event>
<event>
 5   0  0.6262544E+06  0.9118800E+02  0.7818608E-02  0.1180000E+00
       11   -1    0    0    0    0  0.00000000000E+00  0.00000000000E+00  0.39999999673E+01  0.40000000000E+01  0.51109989000E-03 0.  1.
     -623   -1    0    0    0    0  0.00000000000E+00  0.00000000000E+00  0.12525980253E-10  0.17130000000E+03  0.17130000000E+03 0.  1.
       11    1    1    2    0    0 -0.16006134857E-01  0.17921189741E-02  0.61997682159E-01  0.64057644819E-01  0.51109989000E-03 0.  1.
     -623    1    1    2    0    0  0.78472040351E-02  0.72354373225E-02  0.33496597685E-02  0.17130000037E+03  0.17130000000E+03 0.  1.
      622    1    1    2    0    0  0.81589308218E-02 -0.90275562968E-02  0.39346526255E+01  0.39359419900E+01  0.10000000000E+00 0.  1.
</event>
<event>
 5   0  0.6262544E+06  0.9118800E+02  0.7818608E-02  0.1180000E+00
       11   -1    0    0    0    0  0.00000000000E+00  0.00000000000E+00  0.39999999673E+01  0.40000000000E+01  0.51109989000E-03 0. -1.
     -623   -1    0    0    0    0  0.00000000000E+00  0.00000000000E+00  0.12525980253E-10  0.17130000000E+03  0.17130000000E+03 0.  1.
       11    1    1    2    0    0 -0.13760286612E-02 -0.50804171125E-02  0.43747159882E-01  0.44065625080E-01  0.51109989000E-03 0. -1.
     -623    1    1    2    0    0 -0.21280375913E-02  0.78215749479E-02  0.15852600312E-02  0.17130000020E+03  0.17130000000E+03 0.  1.
      622    1    1    2    0    0  0.35040662525E-02 -0.27411578355E-02  0.39546675475E+01  0.39559341758E+01  0.10000000000E+00 0. -1.
</event>
<event>
 5   0  0.6262544E+06  0.9118800E+02  0.7818608E-02  0.1180000E+00
       11   -1    0    0    0    0  0.00000000000E+00  0.00000000000E+00  0.39999999673E+01  0.40000000000E+01  0.51109989000E-03 0. -1.
     -623   -1    0    0    0    0  0.00000000000E+00  0.00000000000E+00  0.12525980253E-10  0.17130000000E+03  0.17130000000E+03 0. -1.
       11    1    1    2    0    0 -0.37979966379E-02 -0.12013204004E-01  0.37638023749E+00  0.37659140490E+00  0.51109989000E-03 0. -1.
     -623    1    1    2    0    0 -0.13712108145E-02  0.39270228052E-02  0.16040866667E-02  0.17130000006E+03  0.17130000000E+03 0. -1.
      622    1    1    2    0    0  0.51692074525E-02  0.80861811982E-02  0.36220156434E+01  0.36234085373E+01  0.10000000000E+00 0. -1.
</event>
<event>
 5   0  0.6262544E+06  0.9118800E+02  0.7818608E-02  0.1180000E+00
       11   -1    0    0    0    0  0.00000000000E+00  0.00000000000E+00  0.39999999673E+01  0.40000000000E+01  0.51109989000E-03 0. -1.
     -623   -1    0    0    0    0  0.00000000000E+00  0.00000000000E+00  0.12525980253E-10  0.17130000000E+03  0.17130000000E+03 0. -1.
       11    1    1    2    0    0  0.14438905125E-01 -0.49612028958E-02  0.29562079797E+00  0.29601522415E+00  0.51109989000E-03 0. -1.
     -623    1    1    2    0    0 -0.38251127365E-01 -0.79595053197E-02  0.18481199561E-02  0.17130000447E+03  0.17130000000E+03 0. -1.
      622    1    1    2    0    0  0.23812222240E-01  0.12920708216E-01  0.37025310494E+01  0.37039803102E+01  0.10000000000E+00 0. -1.
</event>
<event>
 5   0  0.6262544E+06  0.9118800E+02  0.7818608E-02  0.1180000E+00
       11   -1    0    0    0    0  0.00000000000E+00  0.00000000000E+00  0.39999999673E+01  0.40000000000E+01  0.51109989000E-03 0.  1.
     -623   -1    0    0    0    0  0.00000000000E+00  0.00000000000E+00  0.12525980253E-10  0.17130000000E+03  0.17130000000E+03 0.  1.
       11    1    1    2    0    0  0.75526406245E-02 -0.20234901111E-01  0.90405683328E-01  0.92951290493E-01  0.51109989000E-03 0.  1.
     -623    1    1    2    0    0  0.86149641488E-03  0.17775187412E-01  0.38363279444E-02  0.17130000097E+03  0.17130000000E+03 0.  1.
      622    1    1    2    0    0 -0.84141370394E-02  0.24597136993E-02  0.39057579561E+01  0.39070477421E+01  0.10000000000E+00 0.  1.
</event>
<event>
 5   0  0.6262544E+06  0.9118800E+02  0.7818608E-02  0.1180000E+00
       11   -1    0    0    0    0  0.00000000000E+00  0.00000000000E+00  0.39999999673E+01  0.40000000000E+01  0.51109989000E-03 0. -1.
     -623   -1    0    0    0    0  0.00000000000E+00  0.00000000000E+00  0.12525980253E-10  0.17130000000E+03  0.17130000000E+03 0. -1.
       11    1    1    2    0    0  0.20343273525E-01  0.19889674285E-02  0.40221920830E-01  0.45120604024E-01  0.51109989000E-03 0. -1.
     -623    1    1    2    0    0 -0.32616665525E-02  0.17473514662E-01  0.62489558443E-02  0.17130000104E+03  0.17130000000E+03 0. -1.
      622    1    1    2    0    0 -0.17081606973E-01 -0.19462482091E-01  0.39535290907E+01  0.39548783598E+01  0.10000000000E+00 0. -1.
</event>
<event>
 5   0  0.6262544E+06  0.9118800E+02  0.7818608E-02  0.1180000E+00
       11   -1    0    0    0    0  0.00000000000E+00  0.00000000000E+00  0.39999999673E+01  0.40000000000E+01  0.51109989000E-03 0. -1.
     -623   -1    0    0    0    0  0.00000000000E+00  0.00000000000E+00  0.12525980253E-10  0.17130000000E+03  0.17130000000E+03 0.  1.
       11    1    1    2    0    0 -0.16465340641E-01  0.12430342167E-01  0.40878381730E+00  0.40930439938E+00  0.51109989000E-03 0. -1.
     -623    1    1    2    0    0 -0.66989807562E-02 -0.12492883133E-01  0.19886549726E-02  0.17130000060E+03  0.17130000000E+03 0.  1.
      622    1    1    2    0    0  0.23164321397E-01  0.62540966000E-04  0.35892274950E+01  0.35906950025E+01  0.10000000000E+00 0. -1.
</event>
<event>
 5   0  0.6262544E+06  0.9118800E+02  0.7818608E-02  0.1180000E+00
       11   -1    0    0    0    0  0.00000000000E+00  0.00000000000E+00  0.39999999673E+01  0.40000000000E+01  0.51109989000E-03 0. -1.
     -623   -1    0    0    0    0  0.00000000000E+00  0.00000000000E+00  0.12525980253E-10  0.17130000000E+03  0.17130000000E+03 0. -1.
       11    1    1    2    0    0 -0.71563164448E-02  0.66212975072E-02  0.16232528530E-01  0.18942297879E-01  0.51109989000E-03 0. -1.
     -623    1    1    2    0    0  0.70853317554E-02  0.32152711596E-02  0.39782622873E-02  0.17130000022E+03  0.17130000000E+03 0. -1.
      622    1    1    2    0    0  0.70984689330E-04 -0.98365686668E-02  0.39797891765E+01  0.39810574792E+01  0.10000000000E+00 0. -1.
</event>
<event>
 5   0  0.6262544E+06  0.9118800E+02  0.7818608E-02  0.1180000E+00
       11   -1    0    0    0    0  0.00000000000E+00  0.00000000000E+00  0.39999999673E+01  0.40000000000E+01  0.51109989000E-03 0.  1.
     -623   -1    0    0    0    0  0.00000000000E+00  0.00000000000E+00  0.12525980253E-10  0.17130000000E+03  0.17130000000E+03 0. -1.
       11    1    1    2    0    0  0.24228255185E-02 -0.35670016248E-02  0.13788961043E-01  0.14456495124E-01  0.51109989000E-03 0.  1.
     -623    1    1    2    0    0  0.20091922768E-02  0.11503105667E-01  0.19330108421E-02  0.17130000041E+03  0.17130000000E+03 0. -1.
      622    1    1    2    0    0 -0.44320177953E-02 -0.79361040418E-02  0.39842779955E+01  0.39855430960E+01  0.10000000000E+00 0.  1.
</event>
<event>
 5   0  0.6262544E+06  0.9118800E+02  0.7818608E-02  0.1180000E+00
       11   -1    0    0    0    0  0.00000000000E+00  0.00000000000E+00  0.39999999673E+01  0.40000000000E+01  0.51109989000E-03 0. -1.
     -623   -1    0    0    0    0  0.00000000000E+00  0.00000000000E+00  0.12525980253E-10  0.17130000000E+03  0.17130000000E+03 0.  1.
       11    1    1    2    0    0 -0.35171850497E-02  0.17609262253E-01  0.13011217398E-01  0.22181291835E-01  0.51109989000E-03 0. -1.
     -623    1    1    2    0    0  0.79125842682E-02 -0.15340485257E-01  0.10431474788E-01  0.17130000119E+03  0.17130000000E+03 0.  1.
      622    1    1    2    0    0 -0.43953992185E-02 -0.22687769953E-02  0.39765572752E+01  0.39778175209E+01  0.10000000000E+00 0. -1.
</event>
<event>
 5   0  0.6262544E+06  0.9118800E+02  0.7818608E-02  0.1180000E+00
       11   -1    0    0    0    0  0.00000000000E+00  0.00000000000E+00  0.39999999673E+01  0.40000000000E+01  0.51109989000E-03 0. -1.
     -623   -1    0    0    0    0  0.00000000000E+00  0.00000000000E+00  0.12525980253E-10  0.17130000000E+03  0.17130000000E+03 0. -1.
       11    1    1    2    0    0  0.18614308143E-01 -0.87545255970E-02  0.27439080384E+00  0.27516124117E+00  0.51109989000E-03 0. -1.
     -623    1    1    2    0    0 -0.62459370609E-02  0.12261754509E-03  0.21436615559E-02  0.17130000013E+03  0.17130000000E+03 0. -1.
      622    1    1    2    0    0 -0.12368371082E-01  0.86319080519E-02  0.37234655020E+01  0.37248386316E+01  0.10000000000E+00 0.  0.
</event>
<event>
 5   0  0.6262544E+06  0.9118800E+02  0.7818608E-02  0.1180000E+00
       11   -1    0    0    0    0  0.00000000000E+00  0.00000000000E+00  0.39999999673E+01  0.40000000000E+01  0.51109989000E-03 0. -1.
     -623   -1    0    0    0    0  0.00000000000E+00  0.00000000000E+00  0.12525980253E-10  0.17130000000E+03  0.17130000000E+03 0. -1.
       11    1    1    2    0    0  0.13432903492E-01  0.31148588747E-02  0.40673482077E+00  0.40696882054E+00  0.51109989000E-03 0. -1.
     -623    1    1    2    0    0 -0.32528422712E-02 -0.67729249855E-02  0.16422820914E-02  0.17130000017E+03  0.17130000000E+03 0. -1.
      622    1    1    2    0    0 -0.10180061221E-01  0.36580661111E-02  0.35916228647E+01  0.35930310070E+01  0.10000000000E+00 0. -1.
</event>
<event>
 5   0  0.6262544E+06  0.9118800E+02  0.7818608E-02  0.1180000E+00
       11   -1    0    0    0    0  0.00000000000E+00  0.00000000000E+00  0.39999999673E+01  0.40000000000E+01  0.51109989000E-03 0. -1.
     -623   -1    0    0    0    0  0.00000000000E+00  0.00000000000E+00  0.12525980253E-10  0.17130000000E+03  0.17130000000E+03 0.  1.
       11    1    1    2    0    0 -0.12303290749E-01  0.45600954745E-01  0.99506149757E-01  0.11014786924E+00  0.51109989000E-03 0. -1.
     -623    1    1    2    0    0 -0.54805458351E-02 -0.47292669369E-01  0.11975366360E-01  0.17130000703E+03  0.17130000000E+03 0.  1.
      622    1    1    2    0    0  0.17783836584E-01  0.16917146238E-02  0.38885184512E+01  0.38898450962E+01  0.10000000000E+00 0. -1.
</event>
<event>
 5   0  0.6262544E+06  0.9118800E+02  0.7818608E-02  0.1180000E+00
       11   -1    0    0    0    0  0.00000000000E+00  0.00000000000E+00  0.39999999673E+01  0.40000000000E+01  0.51109989000E-03 0.  1.
     -623   -1    0    0    0    0  0.00000000000E+00  0.00000000000E+00  0.12525980253E-10  0.17130000000E+03  0.17130000000E+03 0.  1.
       11    1    1    2    0    0 -0.82127590865E-02 -0.17656248317E-01  0.57948748728E-01  0.61135188057E-01  0.51109989000E-03 0.  1.
     -623    1    1    2    0    0  0.11194320010E-01  0.29079801536E-02  0.44852106525E-02  0.17130000045E+03  0.17130000000E+03 0.  1.
      622    1    1    2    0    0 -0.29815609238E-02  0.14748268164E-01  0.39375660080E+01  0.39388643628E+01  0.10000000000E+00 0.  1.
</event>
<event>
 5   0  0.6262544E+06  0.9118800E+02  0.7818608E-02  0.1180000E+00
       11   -1    0    0    0    0  0.00000000000E+00  0.00000000000E+00  0.39999999673E+01  0.40000000000E+01  0.51109989000E-03 0.  1.
     -623   -1    0    0    0    0  0.00000000000E+00  0.00000000000E+00  0.12525980253E-10  0.17130000000E+03  0.17130000000E+03 0. -1.
       11    1    1    2    0    0  0.20276869338E-02  0.96900373174E-02  0.12826761746E+01  0.12827144805E+01  0.51109989000E-03 0.  1.
     -623    1    1    2    0    0  0.34303838797E-02  0.65170108641E-03  0.19041932214E-02  0.17130000005E+03  0.17130000000E+03 0. -1.
      622    1    1    2    0    0 -0.54580708135E-02 -0.10341738404E-01  0.27154195996E+01  0.27172854734E+01  0.10000000000E+00 0.  0.
</event>
<event>
 5   0  0.6262544E+06  0.9118800E+02  0.7818608E-02  0.1180000E+00
       11   -1    0    0    0    0  0.00000000000E+00  0.00000000000E+00  0.39999999673E+01  0.40000000000E+01  0.51109989000E-03 0.  1.
     -623   -1    0    0    0    0  0.00000000000E+00  0.00000000000E+00  0.12525980253E-10  0.17130000000E+03  0.17130000000E+03 0. -1.
       11    1    1    2    0    0 -0.10047955781E-01 -0.57191131956E-02  0.65519543966E-01  0.66533762375E-01  0.51109989000E-03 0.  1.
     -623    1    1    2    0    0 -0.16995373461E-01  0.22846533026E-01  0.24182163586E-02  0.17130000238E+03  0.17130000000E+03 0. -1.
      622    1    1    2    0    0  0.27043329242E-01 -0.17127419831E-01  0.39320622071E+01  0.39334638540E+01  0.10000000000E+00 0.  1.
</event>
<event>
 5   0  0.6262544E+06  0.9118800E+02  0.7818608E-02  0.1180000E+00
       11   -1    0    0    0    0  0.00000000000E+00  0.00000000000E+00  0.39999999673E+01  0.40000000000E+01  0.51109989000E-03 0. -1.
     -623   -1    0    0    0    0  0.00000000000E+00  0.00000000000E+00  0.12525980253E-10  0.17130000000E+03  0.17130000000E+03 0.  1.
       11    1    1    2    0    0  0.43768075826E-03  0.64045567806E-02  0.19134739393E-01  0.20189338442E-01  0.51109989000E-03 0. -1.
     -623    1    1    2    0    0 -0.10853509803E-01 -0.65179419699E-02  0.23252256483E-02  0.17130000048E+03  0.17130000000E+03 0.  1.
      622    1    1    2    0    0  0.10415829045E-01  0.11338518935E-03  0.39785400023E+01  0.39798101780E+01  0.10000000000E+00 0. -1.
</event>
<event>
 5   0  0.6262544E+06  0.9118800E+02  0.7818608E-02  0.1180000E+00
       11   -1    0    0    0    0  0.00000000000E+00  0.00000000000E+00  0.39999999673E+01  0.40000000000E+01  0.51109989000E-03 0.  1.
     -623   -1    0    0    0    0  0.00000000000E+00  0.00000000000E+00  0.12525980253E-10  0.17130000000E+03  0.17130000000E+03 0. -1.
       11    1    1    2    0    0 -0.69427868155E-02  0.14246557288E-01  0.16593372171E+00  0.16668961548E+00  0.51109989000E-03 0.  1.
     -623    1    1    2    0    0  0.93684102889E-03 -0.82280216815E-02  0.20700844512E-02  0.17130000021E+03  0.17130000000E+03 0. -1.
      622    1    1    2    0    0  0.60059457866E-02 -0.60185356060E-02  0.38319961613E+01  0.38333101719E+01  0.10000000000E+00 0.  1.
</event>
<event>
 5   0  0.6262544E+06  0.9118800E+02  0.7818608E-02  0.1180000E+00
       11   -1    0    0    0    0  0.00000000000E+00  0.00000000000E+00  0.39999999673E+01  0.40000000000E+01  0.51109989000E-03 0. -1.
     -623   -1    0    0    0    0  0.00000000000E+00  0.00000000000E+00  0.12525980253E-10  0.17130000000E+03  0.17130000000E+03 0.  1.
       11    1    1    2    0    0 -0.28154284753E-02  0.30899922757E-03  0.53376003514E-01  0.53453541438E-01  0.51109989000E-03 0. -1.
     -623    1    1    2    0    0 -0.60383909463E-02 -0.26494655177E-02  0.13554004150E-02  0.17130000013E+03  0.17130000000E+03 0.  1.
      622    1    1    2    0    0  0.88538194219E-02  0.23404662902E-02  0.39452685637E+01  0.39465463265E+01  0.10000000000E+00 0. -1.
</event>
<event>
 5   0  0.6262544E+06  0.9118800E+02  0.7818608E-02  0.1180000E+00
       11   -1    0    0    0    0  0.00000000000E+00  0.00000000000E+00  0.39999999673E+01  0.40000000000E+01  0.51109989000E-03 0. -1.
     -623   -1    0    0    0    0  0.00000000000E+00  0.00000000000E+00  0.12525980253E-10  0.17130000000E+03  0.17130000000E+03 0. -1.
       11    1    1    2    0    0  0.18742471504E-01  0.16388769484E-01  0.20677294291E+01  0.20678793788E+01  0.51109989000E-03 0. -1.
     -623    1    1    2    0    0 -0.24825390580E-01  0.20490786918E-01  0.31046056638E-02  0.17130000305E+03  0.17130000000E+03 0. -1.
      622    1    1    2    0    0  0.60829190761E-02 -0.36879556402E-01  0.19291659326E+01  0.19321175686E+01  0.10000000000E+00 0.  0.
</event>
<event>
 5   0  0.6262544E+06  0.9118800E+02  0.7818608E-02  0.1180000E+00
       11   -1    0    0    0    0  0.00000000000E+00  0.00000000000E+00  0.39999999673E+01  0.40000000000E+01  0.51109989000E-03 0.  1.
     -623   -1    0    0    0    0  0.00000000000E+00  0.00000000000E+00  0.12525980253E-10  0.17130000000E+03  0.17130000000E+03 0.  1.
       11    1    1    2    0    0 -0.37074716619E-02  0.44630868517E-02  0.13823402517E-01  0.15000405646E-01  0.51109989000E-03 0.  1.
     -623    1    1    2    0    0  0.40284326653E-02  0.53763729670E-03  0.24350904809E-02  0.17130000007E+03  0.17130000000E+03 0.  1.
      622    1    1    2    0    0 -0.32096100347E-03 -0.50007241484E-02  0.39837414744E+01  0.39849995288E+01  0.10000000000E+00 0.  1.
</event>
<event>
 5   0  0.6262544E+06  0.9118800E+02  0.7818608E-02  0.1180000E+00
       11   -1    0    0    0    0  0.00000000000E+00  0.00000000000E+00  0.39999999673E+01  0.40000000000E+01  0.51109989000E-03 0.  1.
     -623   -1    0    0    0    0  0.00000000000E+00  0.00000000000E+00  0.12525980253E-10  0.17130000000E+03  0.17130000000E+03 0.  1.
       11    1    1    2    0    0 -0.10023543290E-01 -0.20798268542E-01  0.52906912179E+00  0.52957288097E+00  0.51109989000E-03 0.  1.
     -623    1    1    2    0    0 -0.59309754464E-02 -0.70030961673E-02  0.20931250911E-02  0.17130000026E+03  0.17130000000E+03 0.  1.
      622    1    1    2    0    0  0.15954518737E-01  0.27801364710E-01  0.34688377206E+01  0.34704268606E+01  0.10000000000E+00 0.  0.
</event>
<event>
 5   0  0.6262544E+06  0.9118800E+02  0.7818608E-02  0.1180000E+00
       11   -1    0    0    0    0  0.00000000000E+00  0.00000000000E+00  0.39999999673E+01  0.40000000000E+01  0.51109989000E-03 0.  1.
     -623   -1    0    0    0    0  0.00000000000E+00  0.00000000000E+00  0.12525980253E-10  0.17130000000E+03  0.17130000000E+03 0.  1.
       11    1    1    2    0    0 -0.41329966167E-02  0.23241754782E-01  0.46138739092E+00  0.46199117583E+00  0.51109989000E-03 0.  1.
     -623    1    1    2    0    0 -0.46463174145E-02 -0.26787845768E-02  0.20880333835E-02  0.17130000010E+03  0.17130000000E+03 0.  1.
      622    1    1    2    0    0  0.87793140311E-02 -0.20562970205E-01  0.35365245431E+01  0.35380087275E+01  0.10000000000E+00 0.  1.
</event>
<event>
 5   0  0.6262544E+06  0.9118800E+02  0.7818608E-02  0.1180000E+00
       11   -1    0    0    0    0  0.00000000000E+00  0.00000000000E+00  0.39999999673E+01  0.40000000000E+01  0.51109989000E-03 0.  1.
     -623   -1    0    0    0    0  0.00000000000E+00  0.00000000000E+00  0.12525980253E-10  0.17130000000E+03  0.17130000000E+03 0.  1.
       11    1    1    2    0    0 -0.44212009119E-03  0.20767996420E-02  0.71311686718E-01  0.71345122136E-01  0.51109989000E-03 0.  1.
     -623    1    1    2    0    0 -0.37957733617E-02 -0.18237860762E-02  0.13086606395E-02  0.17130000006E+03  0.17130000000E+03 0.  1.
      622    1    1    2    0    0  0.42378934527E-02 -0.25301356589E-03  0.39273796198E+01  0.39286548209E+01  0.10000000000E+00 0.  1.
</event>
<event>
 5   0  0.6262544E+06  0.9118800E+02  0.7818608E-02  0.1180000E+00
       11   -1    0    0    0    0  0.00000000000E+00  0.00000000000E+00  0.39999999673E+01  0.40000000000E+01  0.51109989000E-03 0.  1.
     -623   -1    0    0    0    0  0.00000000000E+00  0.00000000000E+00  0.12525980253E-10  0.17130000000E+03  0.17130000000E+03 0. -1.
       11    1    1    2    0    0  0.11765765813E-01  0.25142867460E-02  0.50086535326E-01  0.51513853730E-01  0.51109989000E-03 0.  1.
     -623    1    1    2    0    0  0.54121979824E-02  0.61023716332E-02  0.27407969259E-02  0.17130000022E+03  0.17130000000E+03 0. -1.
      622    1    1    2    0    0 -0.17177963795E-01 -0.86166583792E-02  0.39471726351E+01  0.39484859301E+01  0.10000000000E+00 0.  1.
</event>
<event>
 5   0  0.6262544E+06  0.9118800E+02  0.7818608E-02  0.1180000E+00
       11   -1    0    0    0    0  0.00000000000E+00  0.00000000000E+00  0.39999999673E+01  0.40000000000E+01  0.51109989000E-03 0. -1.
     -623   -1    0    0    0    0  0.00000000000E+00  0.00000000000E+00  0.12525980253E-10  0.17130000000E+03  0.17130000000E+03 0. -1.
       11    1    1    2    0    0 -0.14241051434E-02  0.16249727059E-02  0.17348570857E-02  0.28177231872E-02  0.51109989000E-03 0. -1.
     -623    1    1    2    0    0 -0.43536081659E-02 -0.53228604238E-04  0.23384678333E-02  0.17130000007E+03  0.17130000000E+03 0. -1.
      622    1    1    2    0    0  0.57777133091E-02 -0.15717441017E-02  0.39959266424E+01  0.39971822055E+01  0.10000000000E+00 0. -1.
</event>
<event>
 5   0  0.6262544E+06  0.9118800E+02  0.7818608E-02  0.1180000E+00
       11   -1    0    0    0    0  0.00000000000E+00  0.00000000000E+00  0.39999999673E+01  0.40000000000E+01  0.51109989000E-03 0.  1.
     -623   -1    0    0    0    0  0.00000000000E+00  0.00000000000E+00  0.12525980253E-10  0.17130000000E+03  0.17130000000E+03 0. -1.
       11    1    1    2    0    0 -0.43822544057E-01 -0.25520237625E-01  0.19632258218E+01  0.19638807465E+01  0.51109989000E-03 0.  1.
     -623    1    1    2    0    0 -0.33159783379E-01  0.10205174574E-02  0.47205654655E-02  0.17130000328E+03  0.17130000000E+03 0. -1.
      622    1    1    2    0    0  0.76982327436E-01  0.24499720167E-01  0.20320535801E+01  0.20361159760E+01  0.10000000000E+00 0.  0.
</event>
<event>
 5   0  0.6262544E+06  0.9118800E+02  0.7818608E-02  0.1180000E+00
       11   -1    0    0    0    0  0.00000000000E+00  0.00000000000E+00  0.39999999673E+01  0.40000000000E+01  0.51109989000E-03 0.  1.
     -623   -1    0    0    0    0  0.00000000000E+00  0.00000000000E+00  0.12525980253E-10  0.17130000000E+03  0.17130000000E+03 0. -1.
       11    1    1    2    0    0 -0.15321205259E-01  0.20785684602E-01  0.16065307383E-01  0.30416103283E-01  0.51109989000E-03 0.  1.
     -623    1    1    2    0    0  0.41240525695E-02 -0.16733053501E-01  0.15629988037E-01  0.17130000158E+03  0.17130000000E+03 0. -1.
      622    1    1    2    0    0  0.11197152690E-01 -0.40526311015E-02  0.39683046719E+01  0.39695823167E+01  0.10000000000E+00 0.  1.
</event>
<event>
 5   0  0.6262544E+06  0.9118800E+02  0.7818608E-02  0.1180000E+00
       11   -1    0    0    0    0  0.00000000000E+00  0.00000000000E+00  0.39999999673E+01  0.40000000000E+01  0.51109989000E-03 0.  1.
     -623   -1    0    0    0    0  0.00000000000E+00  0.00000000000E+00  0.12525980253E-10  0.17130000000E+03  0.17130000000E+03 0. -1.
       11    1    1    2    0    0  0.80513425212E-02 -0.17766443125E-02  0.56565084598E+00  0.56571116425E+00  0.51109989000E-03 0.  1.
     -623    1    1    2    0    0 -0.47945182110E-02 -0.11603492953E-02  0.15193789710E-02  0.17130000008E+03  0.17130000000E+03 0. -1.
      622    1    1    2    0    0 -0.32568243103E-02  0.29369936078E-02  0.34328297424E+01  0.34342887580E+01  0.10000000000E+00 0.  1.
</event>
<event>
 5   0  0.6262544E+06  0.9118800E+02  0.7818608E-02  0.1180000E+00
       11   -1    0    0    0    0  0.00000000000E+00  0.00000000000E+00  0.39999999673E+01  0.40000000000E+01  0.51109989000E-03 0. -1.
     -623   -1    0    0    0    0  0.00000000000E+00  0.00000000000E+00  0.12525980253E-10  0.17130000000E+03  0.17130000000E+03 0.  1.
       11    1    1    2    0    0  0.36571948417E-01 -0.37697528837E-01  0.98825525339E+00  0.98965009886E+00  0.51109989000E-03 0. -1.
     -623    1    1    2    0    0 -0.77246877226E-02  0.15409798653E-01  0.32779600490E-02  0.17130000090E+03  0.17130000000E+03 0.  1.
      622    1    1    2    0    0 -0.28847260694E-01  0.22287730184E-01  0.30084667539E+01  0.30103490025E+01  0.10000000000E+00 0. -1.
</event>
<event>
 5   0  0.6262544E+06  0.9118800E+02  0.7818608E-02  0.1180000E+00
       11   -1    0    0    0    0  0.00000000000E+00  0.00000000000E+00  0.39999999673E+01  0.40000000000E+01  0.51109989000E-03 0. -1.
     -623   -1    0    0    0    0  0.00000000000E+00  0.00000000000E+00  0.12525980253E-10  0.17130000000E+03  0.17130000000E+03 0. -1.
       11    1    1    2    0    0 -0.12361471180E-01 -0.12831020245E-01  0.18579091817E+00  0.18664395931E+00  0.51109989000E-03 0. -1.
     -623    1    1    2    0    0  0.19077467616E-01  0.41016815315E-01  0.22805241814E-02  0.17130000599E+03  0.17130000000E+03 0. -1.
      622    1    1    2    0    0 -0.67159964376E-02 -0.28185795074E-01  0.38119285254E+01  0.38133500529E+01  0.10000000000E+00 0. -1.
</event>
<event>
 5   0  0.6262544E+06  0.9118800E+02  0.7818608E-02  0.1180000E+00
       11   -1    0    0    0    0  0.00000000000E+00  0.00000000000E+00  0.39999999673E+01  0.40000000000E+01  0.51109989000E-03 0.  1.
     -623   -1    0    0    0    0  0.00000000000E+00  0.00000000000E+00  0.12525980253E-10  0.17130000000E+03  0.17130000000E+03 0. -1.
       11    1    1    2    0    0  0.18813037911E-01 -0.42990741160E-01  0.18247600968E+00  0.18841414371E+00  0.51109989000E-03 0.  1.
     -623    1    1    2    0    0  0.20443910012E-02  0.14493968440E-01  0.74145562527E-02  0.17130000079E+03  0.17130000000E+03 0. -1.
      622    1    1    2    0    0 -0.20857428912E-01  0.28496772720E-01  0.38101094014E+01  0.38115850704E+01  0.10000000000E+00 0.  1.
</event>
<event>
 5   0  0.6262544E+06  0.9118800E+02  0.7818608E-02  0.1180000E+00
       11   -1    0    0    0    0  0.00000000000E+00  0.00000000000E+00  0.39999999673E+01  0.40000000000E+01  0.51109989000E-03 0.  1.
     -623   -1    0    0    0    0  0.00000000000E+00  0.00000000000E+00  0.12525980253E-10  0.17130000000E+03  0.17130000000E+03 0. -1.
       11    1    1    2    0    0  0.13528250967E-01 -0.31891499787E-02  0.22626583009E-01  0.26559513022E-01  0.51109989000E-03 0.  1.
     -623    1    1    2    0    0 -0.70905452785E-02  0.88753508555E-02  0.52011945090E-02  0.17130000046E+03  0.17130000000E+03 0. -1.
      622    1    1    2    0    0 -0.64377056888E-02 -0.56862008768E-02  0.39721721898E+01  0.39734400313E+01  0.10000000000E+00 0.  1.
</event>
<event>
 5   0  0.6262544E+06  0.9118800E+02  0.7818608E-02  0.1180000E+00
       11   -1    0    0    0    0  0.00000000000E+00  0.00000000000E+00  0.39999999673E+01  0.40000000000E+01  0.51109989000E-03 0.  1.
     -623   -1    0    0    0    0  0.00000000000E+00  0.00000000000E+00  0.12525980253E-10  0.17130000000E+03  0.17130000000E+03 0.  1.
       11    1    1    2    0    0  0.25611062245E-02  0.17709483619E-02  0.44182233001E-02  0.54293133471E-02  0.51109989000E-03 0.  1.
     -623    1    1    2    0    0 -0.30025289668E-02  0.28944425568E-03  0.22635500092E-02  0.17130000004E+03  0.17130000000E+03 0.  1.
      622    1    1    2    0    0  0.44142274229E-03 -0.20603926176E-02  0.39933181941E+01  0.39945706452E+01  0.10000000000E+00 0.  1.
</event>
<event>
 5   0  0.6262544E+06  0.9118800E+02  0.7818608E-02  0.1180000E+00
       11   -1    0    0    0    0  0.00000000000E+00  0.00000000000E+00  0.39999999673E+01  0.40000000000E+01  0.51109989000E-03 0.  1.
     -623   -1    0    0    0    0  0.00000000000E+00  0.00000000000E+00  0.12525980253E-10  0.17130000000E+03  0.17130000000E+03 0. -1.
       11    1    1    2    0    0 -0.39839844457E-03  0.13621533159E-02  0.15866141877E+00  0.15866858924E+00  0.51109989000E-03 0.  1.
     -623    1    1    2    0    0  0.15573754018E-01  0.64002099191E-02  0.13476549264E-02  0.17130000083E+03  0.17130000000E+03 0. -1.
      622    1    1    2    0    0 -0.15175355573E-01 -0.77623632350E-02  0.38399908937E+01  0.38413305780E+01  0.10000000000E+00 0.  1.
</event>
<event>
 5   0  0.6262544E+06  0.9118800E+02  0.7818608E-02  0.1180000E+00
       11   -1    0    0    0    0  0.00000000000E+00  0.00000000000E+00  0.39999999673E+01  0.40000000000E+01  0.51109989000E-03 0. -1.
     -623   -1    0    0    0    0  0.00000000000E+00  0.00000000000E+00  0.12525980253E-10  0.17130000000E+03  0.17130000000E+03 0.  1.
       11    1    1    2    0    0 -0.53327872174E-02 -0.26115910108E-02  0.42137388880E-02  0.72990304580E-02  0.51109989000E-03 0. -1.
     -623    1    1    2    0    0  0.10317134067E-01 -0.13185183502E-02  0.43431584132E-02  0.17130000037E+03  0.17130000000E+03 0.  1.
      622    1    1    2    0    0 -0.49843468495E-02  0.39301093609E-02  0.39914430702E+01  0.39927005988E+01  0.10000000000E+00 0. -1.
</event>
<event>
 5   0  0.6262544E+06  0.9118800E+02  0.7818608E-02  0.1180000E+00
       11   -1    0    0    0    0  0.00000000000E+00  0.00000000000E+00  0.39999999673E+01  0.40000000000E+01  0.51109989000E-03 0. -1.
     -623   -1    0    0    0    0  0.00000000000E+00  0.00000000000E+00  0.12525980253E-10  0.17130000000E+03  0.17130000000E+03 0.  1.
       11    1    1    2    0    0 -0.24150969138E-02  0.61890751109E-02  0.57932932402E-01  0.58314862802E-01  0.51109989000E-03 0. -1.
     -623    1    1    2    0    0 -0.21132306455E-02 -0.71242936836E-02  0.16534771130E-02  0.17130000017E+03  0.17130000000E+03 0.  1.
      622    1    1    2    0    0  0.45283275593E-02  0.93521857295E-03  0.39404135580E+01  0.39416849682E+01  0.10000000000E+00 0. -1.
</event>
<event>
 5   0  0.6262544E+06  0.9118800E+02  0.7818608E-02  0.1180000E+00
       11   -1    0    0    0    0  0.00000000000E+00  0.00000000000E+00  0.39999999673E+01  0.40000000000E+01  0.51109989000E-03 0.  1.
     -623   -1    0    0    0    0  0.00000000000E+00  0.00000000000E+00  0.12525980253E-10  0.17130000000E+03  0.17130000000E+03 0.  1.
       11    1    1    2    0    0  0.34870114170E-01 -0.83301712319E-01  0.19513074318E+01  0.19533960312E+01  0.51109989000E-03 0.  1.
     -623    1    1    2    0    0 -0.49707267947E-01 -0.10556392606E-01  0.67505862666E-02  0.17130000767E+03  0.17130000000E+03 0.  1.
      622    1    1    2    0    0  0.14837153777E-01  0.93858104925E-01  0.20419419493E+01  0.20465962985E+01  0.10000000000E+00 0. -1.
</event>
<event>
 5   0  0.6262544E+06  0.9118800E+02  0.7818608E-02  0.1180000E+00
       11   -1    0    0    0    0  0.00000000000E+00  0.00000000000E+00  0.39999999673E+01  0.40000000000E+01  0.51109989000E-03 0. -1.
     -623   -1    0    0    0    0  0.00000000000E+00  0.00000000000E+00  0.12525980253E-10  0.17130000000E+03  0.17130000000E+03 0.  1.
       11    1    1    2    0    0 -0.16182747297E-02 -0.75606175007E-02  0.24969552493E+00  0.24981572837E+00  0.51109989000E-03 0. -1.
     -623    1    1    2    0    0 -0.38811169535E-02  0.53621861475E-02  0.14584881494E-02  0.17130000013E+03  0.17130000000E+03 0.  1.
      622    1    1    2    0    0  0.54993916833E-02  0.21984313532E-02  0.37488459543E+01  0.37501841376E+01  0.10000000000E+00 0. -1.
</event>
<event>
 5   0  0.6262544E+06  0.9118800E+02  0.7818608E-02  0.1180000E+00
       11   -1    0    0    0    0  0.00000000000E+00  0.00000000000E+00  0.39999999673E+01  0.40000000000E+01  0.51109989000E-03 0. -1.
     -623   -1    0    0    0    0  0.00000000000E+00  0.00000000000E+00  0.12525980253E-10  0.17130000000E+03  0.17130000000E+03 0.  1.
       11    1    1    2    0    0  0.29825732151E-03 -0.74123352087E-02  0.37033073614E-01  0.37772231004E-01  0.51109989000E-03 0. -1.
     -623    1    1    2    0    0  0.28290855303E-02  0.50669166349E-02  0.20032811458E-02  0.17130000011E+03  0.17130000000E+03 0.  1.
      622    1    1    2    0    0 -0.31273428519E-02  0.23454185736E-02  0.39609636127E+01  0.39622276591E+01  0.10000000000E+00 0. -1.
</event>
<event>
 5   0  0.6262544E+06  0.9118800E+02  0.7818608E-02  0.1180000E+00
       11   -1    0    0    0    0  0.00000000000E+00  0.00000000000E+00  0.39999999673E+01  0.40000000000E+01  0.51109989000E-03 0. -1.
     -623   -1    0    0    0    0  0.00000000000E+00  0.00000000000E+00  0.12525980253E-10  0.17130000000E+03  0.17130000000E+03 0. -1.
       11    1    1    2    0    0  0.36293423931E-02  0.13141159058E-02  0.19938406788E+00  0.19942208196E+00  0.51109989000E-03 0. -1.
     -623    1    1    2    0    0 -0.71199278173E-02  0.46969150503E-03  0.13559749009E-02  0.17130000015E+03  0.17130000000E+03 0. -1.
      622    1    1    2    0    0  0.34905854242E-02 -0.17838074109E-02  0.37992599246E+01  0.38005777640E+01  0.10000000000E+00 0. -1.
</event>
<event>
 5   0  0.6262544E+06  0.9118800E+02  0.7818608E-02  0.1180000E+00
       11   -1    0    0    0    0  0.00000000000E+00  0.00000000000E+00  0.39999999673E+01  0.40000000000E+01  0.51109989000E-03 0.  1.
     -623   -1    0    0    0    0  0.00000000000E+00  0.00000000000E+00  0.12525980253E-10  0.17130000000E+03  0.17130000000E+03 0.  1.
       11    1    1    2    0    0  0.54956517402E-01  0.17298283199E-01  0.68635895937E+00  0.68877306258E+00  0.51109989000E-03 0.  1.
     -623    1    1    2    0    0  0.14484783054E-01 -0.17240630160E-01  0.46545296931E-02  0.17130000154E+03  0.17130000000E+03 0.  1.
      622    1    1    2    0    0 -0.69441300456E-01 -0.57653039325E-04  0.33089864783E+01  0.33112253942E+01  0.10000000000E+00 0.  1.
</event>
<event>
 5   0  0.6262544E+06  0.9118800E+02  0.7818608E-02  0.1180000E+00
       11   -1    0    0    0    0  0.00000000000E+00  0.00000000000E+00  0.39999999673E+01  0.40000000000E+01  0.51109989000E-03 0.  1.
     -623   -1    0    0    0    0  0.00000000000E+00  0.00000000000E+00  0.12525980253E-10  0.17130000000E+03  0.17130000000E+03 0. -1.
       11    1    1    2    0    0  0.17472801053E-01  0.10954621493E-01  0.17361236169E+00  0.17483368057E+00  0.51109989000E-03 0.  1.
     -623    1    1    2    0    0 -0.11979579776E-01  0.59672808530E-02  0.25705732129E-02  0.17130000054E+03  0.17130000000E+03 0. -1.
      622    1    1    2    0    0 -0.54932212772E-02 -0.16921902346E-01  0.38238170325E+01  0.38251657773E+01  0.10000000000E+00 0.  1.
</event>
<event>
 5   0  0.6262544E+06  0.9118800E+02  0.7818608E-02  0.1180000E+00
       11   -1    0    0    0    0  0.00000000000E+00  0.00000000000E+00  0.39999999673E+01  0.40000000000E+01  0.51109989000E-03 0.  1.
     -623   -1    0    0    0    0  0.00000000000E+00  0.00000000000E+00  0.12525980253E-10  0.17130000000E+03  0.17130000000E+03 0.  1.
       11    1    1    2    0    0  0.16330210349E-01  0.28140442904E-01  0.65133498751E-01  0.72809300079E-01  0.51109989000E-03 0.  1.
     -623    1    1    2    0    0 -0.19928694016E-01  0.41327998524E-02  0.90849039448E-02  0.17130000145E+03  0.17130000000E+03 0.  1.
      622    1    1    2    0    0  0.35984836675E-02 -0.32273242757E-01  0.39257815647E+01  0.39271892499E+01  0.10000000000E+00 0.  1.
</event>
<event>
 5   0  0.6262544E+06  0.9118800E+02  0.7818608E-02  0.1180000E+00
       11   -1    0    0    0    0  0.00000000000E+00  0.00000000000E+00  0.39999999673E+01  0.40000000000E+01  0.51109989000E-03 0. -1.
     -623   -1    0    0    0    0  0.00000000000E+00  0.00000000000E+00  0.12525980253E-10  0.17130000000E+03  0.17130000000E+03 0.  1.
       11    1    1    2    0    0 -0.18407325411E-02  0.34895923079E-02  0.24186853829E-02  0.46558364278E-02  0.51109989000E-03 0. -1.
     -623    1    1    2    0    0 -0.38698498618E-02 -0.92830095930E-02  0.34973862034E-02  0.17130000033E+03  0.17130000000E+03 0.  1.
      622    1    1    2    0    0  0.57105824030E-02  0.57934172851E-02  0.39940838958E+01  0.39953438327E+01  0.10000000000E+00 0. -1.
</event>
<event>
 5   0  0.6262544E+06  0.9118800E+02  0.7818608E-02  0.1180000E+00
       11   -1    0    0    0    0  0.00000000000E+00  0.00000000000E+00  0.39999999673E+01  0.40000000000E+01  0.51109989000E-03 0.  1.
     -623   -1    0    0    0    0  0.00000000000E+00  0.00000000000E+00  0.12525980253E-10  0.17130000000E+03  0.17130000000E+03 0. -1.
       11    1    1    2    0    0  0.36265208463E-03  0.17003074855E-01  0.32613906838E+00  0.32658259172E+00  0.51109989000E-03 0.  1.
     -623    1    1    2    0    0 -0.14549590133E-02  0.17531198633E-02  0.18529629156E-02  0.17130000003E+03  0.17130000000E+03 0. -1.
      622    1    1    2    0    0  0.10923069287E-02 -0.18756194718E-01  0.36720079361E+01  0.36734173831E+01  0.10000000000E+00 0.  1.
</event>
<event>
 5   0  0.6262544E+06  0.9118800E+02  0.7818608E-02  0.1180000E+00
       11   -1    0    0    0    0  0.00000000000E+00  0.00000000000E+00  0.39999999673E+01  0.40000000000E+01  0.51109989000E-03 0. -1.
     -623   -1    0    0    0    0  0.00000000000E+00  0.00000000000E+00  0.12525980253E-10  0.17130000000E+03  0.17130000000E+03 0.  1.
       11    1    1    2    0    0  0.45968479901E-02 -0.44595314608E-02  0.95341354797E-01  0.95557593047E-01  0.51109989000E-03 0. -1.
     -623    1    1    2    0    0 -0.62692852211E-02 -0.97168346917E-02  0.15235083164E-02  0.17130000040E+03  0.17130000000E+03 0.  1.
      622    1    1    2    0    0  0.16724372311E-02  0.14176366152E-01  0.39031351042E+01  0.39044420099E+01  0.10000000000E+00 0. -1.
</event>
<event>
 5   0  0.6262544E+06  0.9118800E+02  0.7818608E-02  0.1180000E+00
       11   -1    0    0    0    0  0.00000000000E+00  0.00000000000E+00  0.39999999673E+01  0.40000000000E+01  0.51109989000E-03 0.  1.
     -623   -1    0    0    0    0  0.00000000000E+00  0.00000000000E+00  0.12525980253E-10  0.17130000000E+03  0.17130000000E+03 0.  1.
       11    1    1    2    0    0 -0.48331747095E-01  0.73342162976E-01  0.15262839407E+01  0.15288093274E+01  0.51109989000E-03 0.  1.
     -623    1    1    2    0    0  0.92876022960E-02 -0.51401418072E-01  0.49637539853E-02  0.17130000804E+03  0.17130000000E+03 0.  1.
      622    1    1    2    0    0  0.39044144799E-01 -0.21940744903E-01  0.24687522727E+01  0.24711826370E+01  0.10000000000E+00 0.  1.
</event>
<event>
 5   0  0.6262544E+06  0.9118800E+02  0.7818608E-02  0.1180000E+00
       11   -1    0    0    0    0  0.00000000000E+00  0.00000000000E+00  0.39999999673E+01  0.40000000000E+01  0.51109989000E-03 0.  1.
     -623   -1    0    0    0    0  0.00000000000E+00  0.00000000000E+00  0.12525980253E-10  0.17130000000E+03  0.17130000000E+03 0. -1.
       11    1    1    2    0    0 -0.31933896336E-02 -0.35754017772E-02  0.89707364214E-01  0.89836816799E-01  0.51109989000E-03 0.  1.
     -623    1    1    2    0    0  0.34835058083E-02 -0.97612966203E-02  0.14314302671E-02  0.17130000032E+03  0.17130000000E+03 0. -1.
      622    1    1    2    0    0 -0.29011617469E-03  0.13336698398E-01  0.39088611729E+01  0.39101628637E+01  0.10000000000E+00 0.  1.
</event>
<event>
 5   0  0.6262544E+06  0.9118800E+02  0.7818608E-02  0.1180000E+00
       11   -1    0    0    0    0  0.00000000000E+00  0.00000000000E+00  0.39999999673E+01  0.40000000000E+01  0.51109989000E-03 0. -1.
     -623   -1    0    0    0    0  0.00000000000E+00  0.00000000000E+00  0.12525980253E-10  0.17130000000E+03  0.17130000000E+03 0.  1.
       11    1    1    2    0    0  0.25309008588E-02  0.12389608149E-02  0.81778072906E-02  0.86647699472E-02  0.51109989000E-03 0. -1.
     -623    1    1    2    0    0  0.17830116815E-02 -0.65455675271E-02  0.17458443372E-02  0.17130000014E+03  0.17130000000E+03 0.  1.
      622    1    1    2    0    0 -0.43139125404E-02  0.53066067127E-02  0.39900763161E+01  0.39913350872E+01  0.10000000000E+00 0. -1.
</event>
<event>
 5   0  0.6262544E+06  0.9118800E+02  0.7818608E-02  0.1180000E+00
       11   -1    0    0    0    0  0.00000000000E+00  0.00000000000E+00  0.39999999673E+01  0.40000000000E+01  0.51109989000E-03 0. -1.
     -623   -1    0    0    0    0  0.00000000000E+00  0.00000000000E+00  0.12525980253E-10  0.17130000000E+03  0.17130000000E+03 0. -1.
       11    1    1    2    0    0  0.79256970780E-03  0.26049884182E-03  0.33313951387E-02  0.34720949088E-02  0.51109989000E-03 0. -1.
     -623    1    1    2    0    0 -0.40205921643E-02  0.27870021155E-02  0.13944908780E-02  0.17130000008E+03  0.17130000000E+03 0. -1.
      622    1    1    2    0    0  0.32280224566E-02 -0.30475009573E-02  0.39952740814E+01  0.39965278296E+01  0.10000000000E+00 0. -1.
</event>
<event>
 5   0  0.6262544E+06  0.9118800E+02  0.7818608E-02  0.1180000E+00
       11   -1    0    0    0    0  0.00000000000E+00  0.00000000000E+00  0.39999999673E+01  0.40000000000E+01  0.51109989000E-03 0. -1.
     -623   -1    0    0    0    0  0.00000000000E+00  0.00000000000E+00  0.12525980253E-10  0.17130000000E+03  0.17130000000E+03 0. -1.
       11    1    1    2    0    0  0.22229806640E-01 -0.10506288462E-01  0.28828439663E+00  0.28933147248E+00  0.51109989000E-03 0. -1.
     -623    1    1    2    0    0 -0.20481163266E-01  0.17061999292E-01  0.24030510942E-02  0.17130000209E+03  0.17130000000E+03 0. -1.
      622    1    1    2    0    0 -0.17486433728E-02 -0.65557108308E-02  0.37093125197E+01  0.37106664366E+01  0.10000000000E+00 0. -1.
</event>
<event>
 5   0  0.6262544E+06  0.9118800E+02  0.7818608E-02  0.1180000E+00
       11   -1    0    0    0    0  0.00000000000E+00  0.00000000000E+00  0.39999999673E+01  0.40000000000E+01  0.51109989000E-03 0. -1.
     -623   -1    0    0    0    0  0.00000000000E+00  0.00000000000E+00  0.12525980253E-10  0.17130000000E+03  0.17130000000E+03 0. -1.
       11    1    1    2    0    0 -0.36689427901E-01 -0.24185954337E-01  0.44449250709E+00  0.44665974140E+00  0.51109989000E-03 0. -1.
     -623    1    1    2    0    0  0.38709172175E-01  0.29938624936E-01  0.35868700316E-02  0.17130000703E+03  0.17130000000E+03 0. -1.
      622    1    1    2    0    0 -0.20197442738E-02 -0.57526705986E-02  0.35519205902E+01  0.35533332312E+01  0.10000000000E+00 0. -1.
</event>
<event>
 5   0  0.6262544E+06  0.9118800E+02  0.7818608E-02  0.1180000E+00
       11   -1    0    0    0    0  0.00000000000E+00  0.00000000000E+00  0.39999999673E+01  0.40000000000E+01  0.51109989000E-03 0. -1.
     -623   -1    0    0    0    0  0.00000000000E+00  0.00000000000E+00  0.12525980253E-10  0.17130000000E+03  0.17130000000E+03 0.  1.
       11    1    1    2    0    0  0.27957844271E-01  0.13089093944E-02  0.29591194445E+00  0.29723306409E+00  0.51109989000E-03 0. -1.
     -623    1    1    2    0    0 -0.18491298131E-02 -0.46501997099E-02  0.27653612357E-02  0.17130000010E+03  0.17130000000E+03 0.  1.
      622    1    1    2    0    0 -0.26108714458E-01  0.33412903156E-02  0.37013226617E+01  0.37027668405E+01  0.10000000000E+00 0. -1.
</event>
<event>
 5   0  0.6262544E+06  0.9118800E+02  0.7818608E-02  0.1180000E+00
       11   -1    0    0    0    0  0.00000000000E+00  0.00000000000E+00  0.39999999673E+01  0.40000000000E+01  0.51109989000E-03 0. -1.
     -623   -1    0    0    0    0  0.00000000000E+00  0.00000000000E+00  0.12525980253E-10  0.17130000000E+03  0.17130000000E+03 0.  1.
       11    1    1    2    0    0 -0.52018012812E-02  0.23965010723E-01  0.67677083492E-01  0.71984924315E-01  0.51109989000E-03 0. -1.
     -623    1    1    2    0    0 -0.18774687659E-01 -0.14395979576E-01  0.56675100337E-02  0.17130000173E+03  0.17130000000E+03 0.  1.
      622    1    1    2    0    0  0.23976488940E-01 -0.95690311465E-02  0.39266553738E+01  0.39280133481E+01  0.10000000000E+00 0. -1.
</event>
<event>
 5   0  0.6262544E+06  0.9118800E+02  0.7818608E-02  0.1180000E+00
       11   -1    0    0    0    0  0.00000000000E+00  0.00000000000E+00  0.39999999673E+01  0.40000000000E+01  0.51109989000E-03 0.  1.
     -623   -1    0    0    0    0  0.00000000000E+00  0.00000000000E+00  0.12525980253E-10  0.17130000000E+03  0.17130000000E+03 0. -1.
       11    1    1    2    0    0  0.11541345376E+00 -0.86381165976E-02  0.28791956392E+01  0.28815208957E+01  0.51109989000E-03 0.  1.
     -623    1    1    2    0    0  0.16057997459E-01  0.10774522421E+00  0.19074466553E-01  0.17130003570E+03  0.17130000000E+03 0. -1.
      622    1    1    2    0    0 -0.13147145122E+00 -0.99107107614E-01  0.11017298616E+01  0.11184434046E+01  0.10000000000E+00 0.  0.
</event>
<event>
 5   0  0.6262544E+06  0.9118800E+02  0.7818608E-02  0.1180000E+00
       11   -1    0    0    0    0  0.00000000000E+00  0.00000000000E+00  0.39999999673E+01  0.40000000000E+01  0.51109989000E-03 0.  1.
     -623   -1    0    0    0    0  0.00000000000E+00  0.00000000000E+00  0.12525980253E-10  0.17130000000E+03  0.17130000000E+03 0.  1.
       11    1    1    2    0    0 -0.12299070543E-01  0.14187743692E-02  0.26074660530E-01  0.28869173856E-01  0.51109989000E-03 0.  1.
     -623    1    1    2    0    0 -0.77846477094E-03 -0.35719034500E-02  0.40759790218E-02  0.17130000009E+03  0.17130000000E+03 0.  1.
      622    1    1    2    0    0  0.13077535314E-01  0.21531290807E-02  0.39698493278E+01  0.39711307386E+01  0.10000000000E+00 0.  1.
</event>
<event>
 5   0  0.6262544E+06  0.9118800E+02  0.7818608E-02  0.1180000E+00
       11   -1    0    0    0    0  0.00000000000E+00  0.00000000000E+00  0.39999999673E+01  0.40000000000E+01  0.51109989000E-03 0. -1.
     -623   -1    0    0    0    0  0.00000000000E+00  0.00000000000E+00  0.12525980253E-10  0.17130000000E+03  0.17130000000E+03 0.  1.
       11    1    1    2    0    0 -0.55279862380E-02 -0.10256974199E-01  0.16277383706E+00  0.16319113764E+00  0.51109989000E-03 0. -1.
     -623    1    1    2    0    0  0.25850095326E-02 -0.68363697560E-03  0.17374182289E-02  0.17130000003E+03  0.17130000000E+03 0.  1.
      622    1    1    2    0    0  0.29429767054E-02  0.10940611175E-01  0.38354887121E+01  0.38368088327E+01  0.10000000000E+00 0. -1.
</event>
<event>
 5   0  0.6262544E+06  0.9118800E+02  0.7818608E-02  0.1180000E+00
       11   -1    0    0    0    0  0.00000000000E+00  0.00000000000E+00  0.39999999673E+01  0.40000000000E+01  0.51109989000E-03 0. -1.
     -623   -1    0    0    0    0  0.00000000000E+00  0.00000000000E+00  0.12525980253E-10  0.17130000000E+03  0.17130000000E+03 0.  1.
       11    1    1    2    0    0  0.17383444638E-01  0.18762386086E-01  0.87161259823E-01  0.90838085163E-01  0.51109989000E-03 0. -1.
     -623    1    1    2    0    0 -0.30486439211E-01 -0.19674463520E-01  0.49820384392E-02  0.17130000392E+03  0.17130000000E+03 0.  1.
      622    1    1    2    0    0  0.13102994573E-01  0.91207743381E-03  0.39078566691E+01  0.39091579997E+01  0.10000000000E+00 0. -1.
</event>
<event>
 5   0  0.6262544E+06  0.9118800E+02  0.7818608E-02  0.1180000E+00
       11   -1    0    0    0    0  0.00000000000E+00  0.00000000000E+00  0.39999999673E+01  0.40000000000E+01  0.51109989000E-03 0.  1.
     -623   -1    0    0    0    0  0.00000000000E+00  0.00000000000E+00  0.12525980253E-10  0.17130000000E+03  0.17130000000E+03 0.  1.
       11    1    1    2    0    0  0.11248521912E-01 -0.86349365402E-02  0.17185045585E-01  0.22286282511E-01  0.51109989000E-03 0.  1.
     -623    1    1    2    0    0 -0.15675622363E-01  0.27729333731E-01  0.64097980062E-02  0.17130000308E+03  0.17130000000E+03 0.  1.
      622    1    1    2    0    0  0.44271004504E-02 -0.19094397191E-01  0.39764051238E+01  0.39777106360E+01  0.10000000000E+00 0.  1.
</event>
<event>
 5   0  0.6262544E+06  0.9118800E+02  0.7818608E-02  0.1180000E+00
       11   -1    0    0    0    0  0.00000000000E+00  0.00000000000E+00  0.39999999673E+01  0.40000000000E+01  0.51109989000E-03 0.  1.
     -623   -1    0    0    0    0  0.00000000000E+00  0.00000000000E+00  0.12525980253E-10  0.17130000000E+03  0.17130000000E+03 0. -1.
       11    1    1    2    0    0  0.96369150475E-02 -0.78364361965E-01  0.83996833266E+00  0.84367108784E+00  0.51109989000E-03 0.  1.
     -623    1    1    2    0    0 -0.22797281104E-01  0.11747888066E-02  0.62608040130E-02  0.17130000164E+03  0.17130000000E+03 0. -1.
      622    1    1    2    0    0  0.13160366056E-01  0.77189573159E-01  0.31537708307E+01  0.31563272768E+01  0.10000000000E+00 0.  1.
</event>
<event>
 5   0  0.6262544E+06  0.9118800E+02  0.7818608E-02  0.1180000E+00
       11   -1    0    0    0    0  0.00000000000E+00  0.00000000000E+00  0.39999999673E+01  0.40000000000E+01  0.51109989000E-03 0. -1.
     -623   -1    0    0    0    0  0.00000000000E+00  0.00000000000E+00  0.12525980253E-10  0.17130000000E+03  0.17130000000E+03 0.  1.
       11    1    1    2    0    0  0.64246974127E-02 -0.62343048243E-02  0.88014114693E-02  0.12564607369E-01  0.51109989000E-03 0. -1.
     -623    1    1    2    0    0 -0.12825178245E-02 -0.31782814814E-02  0.50318372479E-02  0.17130000011E+03  0.17130000000E+03 0.  1.
      622    1    1    2    0    0 -0.51421795882E-02  0.94125863057E-02  0.39861667186E+01  0.39874352844E+01  0.10000000000E+00 0. -1.
</event>
<event>
 5   0  0.6262544E+06  0.9118800E+02  0.7818608E-02  0.1180000E+00
       11   -1    0    0    0    0  0.00000000000E+00  0.00000000000E+00  0.39999999673E+01  0.40000000000E+01  0.51109989000E-03 0.  1.
     -623   -1    0    0    0    0  0.00000000000E+00  0.00000000000E+00  0.12525980253E-10  0.17130000000E+03  0.17130000000E+03 0.  1.
       11    1    1    2    0    0 -0.10818839876E-01  0.46991251233E-01  0.51468300261E+00  0.51693721029E+00  0.51109989000E-03 0.  1.
     -623    1    1    2    0    0  0.37353883683E-02 -0.12437144076E-03  0.40127399096E-02  0.17130000009E+03  0.17130000000E+03 0.  1.
      622    1    1    2    0    0  0.70834515075E-02 -0.46866879792E-01  0.34813042248E+01  0.34830627019E+01  0.10000000000E+00 0.  1.
</event>
<event>
 5   0  0.6262544E+06  0.9118800E+02  0.7818608E-02  0.1180000E+00
       11   -1    0    0    0    0  0.00000000000E+00  0.00000000000E+00  0.39999999673E+01  0.40000000000E+01  0.51109989000E-03 0. -1.
     -623   -1    0    0    0    0  0.00000000000E+00  0.00000000000E+00  0.12525980253E-10  0.17130000000E+03  0.17130000000E+03 0. -1.
       11    1    1    2    0    0  0.45854446036E-02 -0.32825841872E-02  0.22677129240E-01  0.23373383898E-01  0.51109989000E-03 0. -1.
     -623    1    1    2    0    0  0.51292820566E-02  0.89400931510E-02  0.19699853150E-02  0.17130000032E+03  0.17130000000E+03 0. -1.
      622    1    1    2    0    0 -0.97147266601E-02 -0.56575089637E-02  0.39753528528E+01  0.39766262946E+01  0.10000000000E+00 0. -1.
</event>
<event>
 5   0  0.6262544E+06  0.9118800E+02  0.7818608E-02  0.1180000E+00
       11   -1    0    0    0    0  0.00000000000E+00  0.00000000000E+00  0.39999999673E+01  0.40000000000E+01  0.51109989000E-03 0. -1.
     -623   -1    0    0    0    0  0.00000000000E+00  0.00000000000E+00  0.12525980253E-10  0.17130000000E+03  0.17130000000E+03 0. -1.
       11    1    1    2    0    0 -0.31660020630E-03 -0.57241690835E-03 -0.68060728821E-03  0.10734738869E-02  0.51109989000E-03 0. -1.
     -623    1    1    2    0    0 -0.10262854670E-02  0.11323686438E-02  0.30048775640E-02  0.17130000003E+03  0.17130000000E+03 0. -1.
      622    1    1    2    0    0  0.13428856734E-02 -0.55995173549E-03  0.39976756972E+01  0.39989264930E+01  0.10000000000E+00 0. -1.
</event>
<event>
 5   0  0.6262544E+06  0.9118800E+02  0.7818608E-02  0.1180000E+00
       11   -1    0    0    0    0  0.00000000000E+00  0.00000000000E+00  0.39999999673E+01  0.40000000000E+01  0.51109989000E-03 0. -1.
     -623   -1    0    0    0    0  0.00000000000E+00  0.00000000000E+00  0.12525980253E-10  0.17130000000E+03  0.17130000000E+03 0.  1.
       11    1    1    2    0    0 -0.17885539311E-02 -0.14019960066E-02 -0.68117810495E-03  0.24268796170E-02  0.51109989000E-03 0. -1.
     -623    1    1    2    0    0  0.25974362714E-01 -0.10115112112E-01  0.44510893826E-02  0.17130000233E+03  0.17130000000E+03 0.  1.
      622    1    1    2    0    0 -0.24185808783E-01  0.11517108119E-01  0.39962300561E+01  0.39975707947E+01  0.10000000000E+00 0. -1.
</event>
<event>
 5   0  0.6262544E+06  0.9118800E+02  0.7818608E-02  0.1180000E+00
       11   -1    0    0    0    0  0.00000000000E+00  0.00000000000E+00  0.39999999673E+01  0.40000000000E+01  0.51109989000E-03 0.  1.
     -623   -1    0    0    0    0  0.00000000000E+00  0.00000000000E+00  0.12525980253E-10  0.17130000000E+03  0.17130000000E+03 0.  1.
       11    1    1    2    0    0 -0.48772112511E-02 -0.93382004238E-02  0.12023141607E+00  0.12069318045E+00  0.51109989000E-03 0.  1.
     -623    1    1    2    0    0  0.77168728304E-02 -0.35402397230E-02  0.17734792659E-02  0.17130000022E+03  0.17130000000E+03 0.  1.
      622    1    1    2    0    0 -0.28396615793E-02  0.12878440147E-01  0.38779950720E+01  0.38793066000E+01  0.10000000000E+00 0.  1.
</event>
<event>
 5   0  0.6262544E+06  0.9118800E+02  0.7818608E-02  0.1180000E+00
       11   -1    0    0    0    0  0.00000000000E+00  0.00000000000E+00  0.39999999673E+01  0.40000000000E+01  0.51109989000E-03 0.  1.
     -623   -1    0    0    0    0  0.00000000000E+00  0.00000000000E+00  0.12525980253E-10  0.17130000000E+03  0.17130000000E+03 0. -1.
       11    1    1    2    0    0 -0.24973865224E-01 -0.30555245817E-01  0.17582520060E+00  0.18020010927E+00  0.51109989000E-03 0.  1.
     -623    1    1    2    0    0  0.29034741403E-02  0.70498958447E-02  0.58204681261E-02  0.17130000027E+03  0.17130000000E+03 0. -1.
      622    1    1    2    0    0  0.22070391084E-01  0.23505349973E-01  0.38183542987E+01  0.38197996222E+01  0.10000000000E+00 0.  0.
</event>
<event>
 5   0  0.6262544E+06  0.9118800E+02  0.7818608E-02  0.1180000E+00
       11   -1    0    0    0    0  0.00000000000E+00  0.00000000000E+00  0.39999999673E+01  0.40000000000E+01  0.51109989000E-03 0. -1.
     -623   -1    0    0    0    0  0.00000000000E+00  0.00000000000E+00  0.12525980253E-10  0.17130000000E+03  0.17130000000E+03 0.  1.
       11    1    1    2    0    0  0.39501768364E-01  0.91148532853E-02  0.70386612286E+00  0.70503280093E+00  0.51109989000E-03 0. -1.
     -623    1    1    2    0    0 -0.23329367583E-01 -0.15845604795E-01  0.27333903781E-02  0.17130000234E+03  0.17130000000E+03 0.  1.
      622    1    1    2    0    0 -0.16172400781E-01  0.67307515095E-02  0.32934004541E+01  0.32949648558E+01  0.10000000000E+00 0. -1.
</event>
<event>
 5   0  0.6262544E+06  0.9118800E+02  0.7818608E-02  0.1180000E+00
       11   -1    0    0    0    0  0.00000000000E+00  0.00000000000E+00  0.39999999673E+01  0.40000000000E+01  0.51109989000E-03 0.  1.
     -623   -1    0    0    0    0  0.00000000000E+00  0.00000000000E+00  0.12525980253E-10  0.17130000000E+03  0.17130000000E+03 0.  1.
       11    1    1    2    0    0 -0.88404638981E-02 -0.18962403383E-01  0.13223137153E+01  0.13224793190E+01  0.51109989000E-03 0.  1.
     -623    1    1    2    0    0  0.60125740145E-03  0.21096199390E-02  0.20994095655E-02  0.17130000003E+03  0.17130000000E+03 0.  1.
      622    1    1    2    0    0  0.82392064967E-02  0.16852783444E-01  0.26755868425E+01  0.26775206540E+01  0.10000000000E+00 0.  1.
</event>
<event>
 5   0  0.6262544E+06  0.9118800E+02  0.7818608E-02  0.1180000E+00
       11   -1    0    0    0    0  0.00000000000E+00  0.00000000000E+00  0.39999999673E+01  0.40000000000E+01  0.51109989000E-03 0. -1.
     -623   -1    0    0    0    0  0.00000000000E+00  0.00000000000E+00  0.12525980253E-10  0.17130000000E+03  0.17130000000E+03 0.  1.
       11    1    1    2    0    0 -0.20988881621E-02  0.56558930458E-01  0.89671108280E+00  0.89849560109E+00  0.51109989000E-03 0. -1.
     -623    1    1    2    0    0 -0.14310391568E-01 -0.13714898472E-02  0.39324035273E-02  0.17130000065E+03  0.17130000000E+03 0.  1.
      622    1    1    2    0    0  0.16409279731E-01 -0.55187440611E-01  0.30993564810E+01  0.31015037505E+01  0.10000000000E+00 0. -1.
</event>
<event>
 5   0  0.6262544E+06  0.9118800E+02  0.7818608E-02  0.1180000E+00
       11   -1    0    0    0    0  0.00000000000E+00  0.00000000000E+00  0.39999999673E+01  0.40000000000E+01  0.51109989000E-03 0. -1.
     -623   -1    0    0    0    0  0.00000000000E+00  0.00000000000E+00  0.12525980253E-10  0.17130000000E+03  0.17130000000E+03 0. -1.
       11    1    1    2    0    0  0.22001663482E-02 -0.37599458457E-01  0.68164837912E+00  0.68268831394E+00  0.51109989000E-03 0. -1.
     -623    1    1    2    0    0  0.12670703008E-01 -0.15782526362E-01  0.30117964571E-02  0.17130000122E+03  0.17130000000E+03 0. -1.
      622    1    1    2    0    0 -0.14870869356E-01  0.53381984819E-01  0.33153397918E+01  0.33173104639E+01  0.10000000000E+00 0.  0.
</event>
<event>
 5   0  0.6262544E+06  0.9118800E+02  0.7818608E-02  0.1180000E+00
       11   -1    0    0    0    0  0.00000000000E+00  0.00000000000E+00  0.39999999673E+01  0.40000000000E+01  0.51109989000E-03 0.  1.
     -623   -1    0    0    0    0  0.00000000000E+00  0.00000000000E+00  0.12525980253E-10  0.17130000000E+03  0.17130000000E+03 0. -1.
       11    1    1    2    0    0 -0.27209432524E-01 -0.96332698506E-02  0.92181371479E+00  0.92226565539E+00  0.51109989000E-03 0.  1.
     -623    1    1    2    0    0 -0.42753387010E-03 -0.21799492411E-01  0.23630727127E-02  0.17130000140E+03  0.17130000000E+03 0. -1.
      622    1    1    2    0    0  0.27636966394E-01  0.31432762262E-01  0.30758231798E+01  0.30777329407E+01  0.10000000000E+00 0.  1.
</event>
<event>
 5   0  0.6262544E+06  0.9118800E+02  0.7818608E-02  0.1180000E+00
       11   -1    0    0    0    0  0.00000000000E+00  0.00000000000E+00  0.39999999673E+01  0.40000000000E+01  0.51109989000E-03 0.  1.
     -623   -1    0    0    0    0  0.00000000000E+00  0.00000000000E+00  0.12525980253E-10  0.17130000000E+03  0.17130000000E+03 0. -1.
       11    1    1    2    0    0  0.15956413996E-01  0.17187554255E-01  0.13578905240E+00  0.13780038877E+00  0.51109989000E-03 0.  1.
     -623    1    1    2    0    0 -0.59501055208E-02  0.22767428622E-02  0.33683021282E-02  0.17130000015E+03  0.17130000000E+03 0. -1.
      622    1    1    2    0    0 -0.10006308475E-01 -0.19464297117E-01  0.38608426127E+01  0.38621994596E+01  0.10000000000E+00 0.  1.
</event>
<event>
 5   0  0.6262544E+06  0.9118800E+02  0.7818608E-02  0.1180000E+00
       11   -1    0    0    0    0  0.00000000000E+00  0.00000000000E+00  0.39999999673E+01  0.40000000000E+01  0.51109989000E-03 0. -1.
     -623   -1    0    0    0    0  0.00000000000E+00  0.00000000000E+00  0.12525980253E-10  0.17130000000E+03  0.17130000000E+03 0. -1.
       11    1    1    2    0    0  0.69221237771E-02 -0.17035976546E-01  0.50159547808E+00  0.50193268986E+00  0.51109989000E-03 0. -1.
     -623    1    1    2    0    0  0.14904679690E-01  0.28171748093E-01  0.18556653783E-02  0.17130000298E+03  0.17130000000E+03 0. -1.
      622    1    1    2    0    0 -0.21826803468E-01 -0.11135771548E-01  0.34965488240E+01  0.34980643352E+01  0.10000000000E+00 0. -1.
</event>
<event>
 5   0  0.6262544E+06  0.9118800E+02  0.7818608E-02  0.1180000E+00
       11   -1    0    0    0    0  0.00000000000E+00  0.00000000000E+00  0.39999999673E+01  0.40000000000E+01  0.51109989000E-03 0. -1.
     -623   -1    0    0    0    0  0.00000000000E+00  0.00000000000E+00  0.12525980253E-10  0.17130000000E+03  0.17130000000E+03 0.  1.
       11    1    1    2    0    0  0.20006871076E-01 -0.13046948140E-01  0.79392716929E-01  0.82909362971E-01  0.51109989000E-03 0. -1.
     -623    1    1    2    0    0 -0.42198919101E-02 -0.18359192919E-02  0.48535161787E-02  0.17130000013E+03  0.17130000000E+03 0.  1.
      622    1    1    2    0    0 -0.15786979166E-01  0.14882867432E-01  0.39157537343E+01  0.39170905065E+01  0.10000000000E+00 0. -1.
</event>
<event>
 5   0  0.6262544E+06  0.9118800E+02  0.7818608E-02  0.1180000E+00
       11   -1    0    0    0    0  0.00000000000E+00  0.00000000000E+00  0.39999999673E+01  0.40000000000E+01  0.51109989000E-03 0.  1.
     -623   -1    0    0    0    0  0.00000000000E+00  0.00000000000E+00  0.12525980253E-10  0.17130000000E+03  0.17130000000E+03 0.  1.
       11    1    1    2    0    0 -0.88902811224E-02 -0.13272852270E-02  0.16128566245E+00  0.16153676027E+00  0.51109989000E-03 0.  1.
     -623    1    1    2    0    0  0.40866166658E-02 -0.13598149345E-02  0.15578998366E-02  0.17130000006E+03  0.17130000000E+03 0.  1.
      622    1    1    2    0    0  0.48036644566E-02  0.26871001615E-02  0.38371564051E+01  0.38384631785E+01  0.10000000000E+00 0.  1.
</event>
<event>
 5   0  0.6262544E+06  0.9118800E+02  0.7818608E-02  0.1180000E+00
       11   -1    0    0    0    0  0.00000000000E+00  0.00000000000E+00  0.39999999673E+01  0.40000000000E+01  0.51109989000E-03 0. -1.
     -623   -1    0    0    0    0  0.00000000000E+00  0.00000000000E+00  0.12525980253E-10  0.17130000000E+03  0.17130000000E+03 0.  1.
       11    1    1    2    0    0  0.93419369377E-01  0.13554375246E-01  0.11186950789E+01  0.11226708513E+01  0.51109989000E-03 0. -1.
     -623    1    1    2    0    0 -0.58665920536E-01  0.17980211908E-01  0.61080377370E-02  0.17130001110E+03  0.17130000000E+03 0.  1.
      622    1    1    2    0    0 -0.34753448841E-01 -0.31534587155E-01  0.28751968508E+01  0.28773180504E+01  0.10000000000E+00 0. -1.
</event>
<event>
 5   0  0.6262544E+06  0.9118800E+02  0.7818608E-02  0.1180000E+00
       11   -1    0    0    0    0  0.00000000000E+00  0.00000000000E+00  0.39999999673E+01  0.40000000000E+01  0.51109989000E-03 0. -1.
     -623   -1    0    0    0    0  0.00000000000E+00  0.00000000000E+00  0.12525980253E-10  0.17130000000E+03  0.17130000000E+03 0. -1.
       11    1    1    2    0    0  0.33641038191E-02 -0.31359300962E-02  0.60654045972E-02  0.76289976648E-02  0.51109989000E-03 0. -1.
     -623    1    1    2    0    0 -0.85412737317E-02  0.38420147076E-02  0.28198451655E-02  0.17130000028E+03  0.17130000000E+03 0. -1.
      622    1    1    2    0    0  0.51771699127E-02 -0.70608461145E-03  0.39911147176E+01  0.39923707231E+01  0.10000000000E+00 0. -1.
</event>
<event>
 5   0  0.6262544E+06  0.9118800E+02  0.7818608E-02  0.1180000E+00
       11   -1    0    0    0    0  0.00000000000E+00  0.00000000000E+00  0.39999999673E+01  0.40000000000E+01  0.51109989000E-03 0.  1.
     -623   -1    0    0    0    0  0.00000000000E+00  0.00000000000E+00  0.12525980253E-10  0.17130000000E+03  0.17130000000E+03 0.  1.
       11    1    1    2    0    0 -0.63740724976E-01 -0.92824826361E-01  0.62282174364E+00  0.63291904220E+00  0.51109989000E-03 0.  1.
     -623    1    1    2    0    0 -0.32532292130E-01  0.27027845298E-01  0.13609042384E-01  0.17130000576E+03  0.17130000000E+03 0.  1.
      622    1    1    2    0    0  0.96273017106E-01  0.65796981064E-01  0.33635691813E+01  0.33670751958E+01  0.10000000000E+00 0.  1.
</event>
<event>
 5   0  0.6262544E+06  0.9118800E+02  0.7818608E-02  0.1180000E+00
       11   -1    0    0    0    0  0.00000000000E+00  0.00000000000E+00  0.39999999673E+01  0.40000000000E+01  0.51109989000E-03 0. -1.
     -623   -1    0    0    0    0  0.00000000000E+00  0.00000000000E+00  0.12525980253E-10  0.17130000000E+03  0.17130000000E+03 0. -1.
       11    1    1    2    0    0  0.22194686214E-02 -0.56929237185E-02  0.45736074266E-03  0.61486440272E-02  0.51109989000E-03 0. -1.
     -623    1    1    2    0    0 -0.23789040889E-01  0.49977019169E-01  0.72563355286E-02  0.17130000910E+03  0.17130000000E+03 0. -1.
      622    1    1    2    0    0  0.21569572268E-01 -0.44284095451E-01  0.39922862711E+01  0.39938422601E+01  0.10000000000E+00 0. -1.
</event>
<event>
 5   0  0.6262544E+06  0.9118800E+02  0.7818608E-02  0.1180000E+00
       11   -1    0    0    0    0  0.00000000000E+00  0.00000000000E+00  0.39999999673E+01  0.40000000000E+01  0.51109989000E-03 0. -1.
     -623   -1    0    0    0    0  0.00000000000E+00  0.00000000000E+00  0.12525980253E-10  0.17130000000E+03  0.17130000000E+03 0. -1.
       11    1    1    2    0    0 -0.48777193352E-01 -0.45416220670E-02  0.85155750267E+00  0.85296558107E+00  0.51109989000E-03 0. -1.
     -623    1    1    2    0    0  0.14915520443E-01 -0.15934786000E-01  0.32475912413E-02  0.17130000142E+03  0.17130000000E+03 0. -1.
      622    1    1    2    0    0  0.33861672908E-01  0.20476408067E-01  0.31451948735E+01  0.31470329977E+01  0.10000000000E+00 0. -1.
</event>
<event>
 5   0  0.6262544E+06  0.9118800E+02  0.7818608E-02  0.1180000E+00
       11   -1    0    0    0    0  0.00000000000E+00  0.00000000000E+00  0.39999999673E+01  0.40000000000E+01  0.51109989000E-03 0.  1.
     -623   -1    0    0    0    0  0.00000000000E+00  0.00000000000E+00  0.12525980253E-10  0.17130000000E+03  0.17130000000E+03 0. -1.
       11    1    1    2    0    0 -0.98642450315E-02 -0.37757419970E-02  0.56065791886E-01  0.57054305713E-01  0.51109989000E-03 0.  1.
     -623    1    1    2    0    0 -0.29578682653E-02  0.63276660710E-02  0.22786112869E-02  0.17130000016E+03  0.17130000000E+03 0. -1.
      622    1    1    2    0    0  0.12822113297E-01 -0.25519240740E-02  0.39416555642E+01  0.39429455367E+01  0.10000000000E+00 0.  1.
</event>
<event>
 5   0  0.6262544E+06  0.9118800E+02  0.7818608E-02  0.1180000E+00
       11   -1    0    0    0    0  0.00000000000E+00  0.00000000000E+00  0.39999999673E+01  0.40000000000E+01  0.51109989000E-03 0. -1.
     -623   -1    0    0    0    0  0.00000000000E+00  0.00000000000E+00  0.12525980253E-10  0.17130000000E+03  0.17130000000E+03 0. -1.
       11    1    1    2    0    0  0.27463512156E-01 -0.32457960861E-01  0.63196931563E+00  0.63339816928E+00  0.51109989000E-03 0. -1.
     -623    1    1    2    0    0  0.23330497885E-02  0.21839094979E-02  0.31824926613E-02  0.17130000006E+03  0.17130000000E+03 0. -1.
      622    1    1    2    0    0 -0.29796561945E-01  0.30274051363E-01  0.33648481591E+01  0.33666017714E+01  0.10000000000E+00 0. -1.
</event>
<event>
 5   0  0.6262544E+06  0.9118800E+02  0.7818608E-02  0.1180000E+00
       11   -1    0    0    0    0  0.00000000000E+00  0.00000000000E+00  0.39999999673E+01  0.40000000000E+01  0.51109989000E-03 0.  1.
     -623   -1    0    0    0    0  0.00000000000E+00  0.00000000000E+00  0.12525980253E-10  0.17130000000E+03  0.17130000000E+03 0. -1.
       11    1    1    2    0    0  0.64727111215E-02  0.19423649095E-02  0.45118855217E-02  0.81416893065E-02  0.51109989000E-03 0.  1.
     -623    1    1    2    0    0 -0.21985223709E-02  0.71526205483E-02  0.48954038132E-02  0.17130000023E+03  0.17130000000E+03 0. -1.
      622    1    1    2    0    0 -0.42741887507E-02 -0.90949854579E-02  0.39905926781E+01  0.39918580773E+01  0.10000000000E+00 0.  1.
</event>
<event>
 5   0  0.6262544E+06  0.9118800E+02  0.7818608E-02  0.1180000E+00
       11   -1    0    0    0    0  0.00000000000E+00  0.00000000000E+00  0.39999999673E+01  0.40000000000E+01  0.51109989000E-03 0. -1.
     -623   -1    0    0    0    0  0.00000000000E+00  0.00000000000E+00  0.12525980253E-10  0.17130000000E+03  0.17130000000E+03 0. -1.
       11    1    1    2    0    0  0.70488180989E-02  0.32172915494E-02  0.70473338301E-01  0.70899854978E-01  0.51109989000E-03 0. -1.
     -623    1    1    2    0    0  0.27682132128E-02  0.31456248223E-02  0.17167280478E-02  0.17130000006E+03  0.17130000000E+03 0. -1.
      622    1    1    2    0    0 -0.98170313119E-02 -0.63629163719E-02  0.39278099013E+01  0.39291000854E+01  0.10000000000E+00 0. -1.
</event>
<event>
 5   0  0.6262544E+06  0.9118800E+02  0.7818608E-02  0.1180000E+00
       11   -1    0    0    0    0  0.00000000000E+00  0.00000000000E+00  0.39999999673E+01  0.40000000000E+01  0.51109989000E-03 0. -1.
     -623   -1    0    0    0    0  0.00000000000E+00  0.00000000000E+00  0.12525980253E-10  0.17130000000E+03  0.17130000000E+03 0.  1.
       11    1    1    2    0    0  0.99649875556E-03 -0.29085584959E-02  0.11173214361E+00  0.11177560494E+00  0.51109989000E-03 0. -1.
     -623    1    1    2    0    0  0.91499382451E-03  0.10660878968E-02  0.13304930475E-02  0.17130000001E+03  0.17130000000E+03 0.  1.
      622    1    1    2    0    0 -0.19114925800E-02  0.18424705991E-02  0.38869373306E+01  0.38882243840E+01  0.10000000000E+00 0. -1.
</event>
<event>
 5   0  0.6262544E+06  0.9118800E+02  0.7818608E-02  0.1180000E+00
       11   -1    0    0    0    0  0.00000000000E+00  0.00000000000E+00  0.39999999673E+01  0.40000000000E+01  0.51109989000E-03 0.  1.
     -623   -1    0    0    0    0  0.00000000000E+00  0.00000000000E+00  0.12525980253E-10  0.17130000000E+03  0.17130000000E+03 0.  1.
       11    1    1    2    0    0 -0.24598388423E-01  0.10625200202E-01  0.96403893135E-01  0.10005971929E+00  0.51109989000E-03 0.  1.
     -623    1    1    2    0    0 -0.82016688614E-02  0.69208188072E-02  0.51159513096E-02  0.17130000041E+03  0.17130000000E+03 0.  1.
      622    1    1    2    0    0  0.32800057284E-01 -0.17546019009E-01  0.38984801229E+01  0.38999398682E+01  0.10000000000E+00 0.  0.
</event>
<event>
 5   0  0.6262544E+06  0.9118800E+02  0.7818608E-02  0.1180000E+00
       11   -1    0    0    0    0  0.00000000000E+00  0.00000000000E+00  0.39999999673E+01  0.40000000000E+01  0.51109989000E-03 0.  1.
     -623   -1    0    0    0    0  0.00000000000E+00  0.00000000000E+00  0.12525980253E-10  0.17130000000E+03  0.17130000000E+03 0. -1.
       11    1    1    2    0    0  0.74829393596E-02 -0.46941887080E-02  0.16466379951E+00  0.16490135803E+00  0.51109989000E-03 0.  1.
     -623    1    1    2    0    0 -0.50268366463E-02 -0.47762592054E-02  0.15541264102E-02  0.17130000015E+03  0.17130000000E+03 0. -1.
      622    1    1    2    0    0 -0.24561027134E-02  0.94704479134E-02  0.38337820414E+01  0.38350984946E+01  0.10000000000E+00 0.  1.
</event>
<event>
 5   0  0.6262544E+06  0.9118800E+02  0.7818608E-02  0.1180000E+00
       11   -1    0    0    0    0  0.00000000000E+00  0.00000000000E+00  0.39999999673E+01  0.40000000000E+01  0.51109989000E-03 0.  1.
     -623   -1    0    0    0    0  0.00000000000E+00  0.00000000000E+00  0.12525980253E-10  0.17130000000E+03  0.17130000000E+03 0.  1.
       11    1    1    2    0    0 -0.20179118050E-01  0.11454925122E+00  0.52446039274E+00  0.53720358574E+00  0.51109989000E-03 0.  1.
     -623    1    1    2    0    0  0.27071566720E-01 -0.25602518122E-01  0.15342014373E-01  0.17130000474E+03  0.17130000000E+03 0.  1.
      622    1    1    2    0    0 -0.68924486708E-02 -0.88946733095E-01  0.34601975602E+01  0.34627916748E+01  0.10000000000E+00 0.  1.
</event>
<event>
 5   0  0.6262544E+06  0.9118800E+02  0.7818608E-02  0.1180000E+00
       11   -1    0    0    0    0  0.00000000000E+00  0.00000000000E+00  0.39999999673E+01  0.40000000000E+01  0.51109989000E-03 0. -1.
     -623   -1    0    0    0    0  0.00000000000E+00  0.00000000000E+00  0.12525980253E-10  0.17130000000E+03  0.17130000000E+03 0.  1.
       11    1    1    2    0    0  0.28738025339E-02  0.51756743041E-02  0.57808073058E-01  0.58112656791E-01  0.51109989000E-03 0. -1.
     -623    1    1    2    0    0  0.53049180146E-03 -0.24575102102E-02  0.15756168221E-02  0.17130000003E+03  0.17130000000E+03 0.  1.
      622    1    1    2    0    0 -0.34042943354E-02 -0.27181640938E-02  0.39406162776E+01  0.39418873177E+01  0.10000000000E+00 0. -1.
</event>
<event>
 5   0  0.6262544E+06  0.9118800E+02  0.7818608E-02  0.1180000E+00
       11   -1    0    0    0    0  0.00000000000E+00  0.00000000000E+00  0.39999999673E+01  0.40000000000E+01  0.51109989000E-03 0. -1.
     -623   -1    0    0    0    0  0.00000000000E+00  0.00000000000E+00  0.12525980253E-10  0.17130000000E+03  0.17130000000E+03 0. -1.
       11    1    1    2    0    0 -0.11222912642E-02 -0.44110194854E-02  0.58238854189E+00  0.58240655180E+00  0.51109989000E-03 0. -1.
     -623    1    1    2    0    0 -0.55468480376E-03 -0.42458756702E-02  0.14927488365E-02  0.17130000006E+03  0.17130000000E+03 0. -1.
      622    1    1    2    0    0  0.16769760680E-02  0.86568951555E-02  0.34161186766E+01  0.34175933881E+01  0.10000000000E+00 0.  1.
</event>
<event>
 5   0  0.6262544E+06  0.9118800E+02  0.7818608E-02  0.1180000E+00
       11   -1    0    0    0    0  0.00000000000E+00  0.00000000000E+00  0.39999999673E+01  0.40000000000E+01  0.51109989000E-03 0. -1.
     -623   -1    0    0    0    0  0.00000000000E+00  0.00000000000E+00  0.12525980253E-10  0.17130000000E+03  0.17130000000E+03 0. -1.
       11    1    1    2    0    0 -0.51122062582E-01  0.42434476814E-01  0.13530649384E+00  0.15073904140E+00  0.51109989000E-03 0. -1.
     -623    1    1    2    0    0  0.30131491591E-01 -0.26576304492E-01  0.16827154844E-01  0.17130000554E+03  0.17130000000E+03 0. -1.
      622    1    1    2    0    0  0.20990570991E-01 -0.15858172321E-01  0.38478663187E+01  0.38492554205E+01  0.10000000000E+00 0. -1.
</event>
<event>
 5   0  0.6262544E+06  0.9118800E+02  0.7818608E-02  0.1180000E+00
       11   -1    0    0    0    0  0.00000000000E+00  0.00000000000E+00  0.39999999673E+01  0.40000000000E+01  0.51109989000E-03 0. -1.
     -623   -1    0    0    0    0  0.00000000000E+00  0.00000000000E+00  0.12525980253E-10  0.17130000000E+03  0.17130000000E+03 0.  1.
       11    1    1    2    0    0 -0.16533448474E-01  0.22482464916E-01  0.76797690278E+00  0.76848396247E+00  0.51109989000E-03 0. -1.
     -623    1    1    2    0    0 -0.92971626185E-02 -0.41268535304E-02  0.22104217457E-02  0.17130000032E+03  0.17130000000E+03 0.  1.
      622    1    1    2    0    0  0.25830611093E-01 -0.18355611385E-01  0.32298126429E+01  0.32315157213E+01  0.10000000000E+00 0. -1.
</event>
<event>
 5   0  0.6262544E+06  0.9118800E+02  0.7818608E-02  0.1180000E+00
       11   -1    0    0    0    0  0.00000000000E+00  0.00000000000E+00  0.39999999673E+01  0.40000000000E+01  0.51109989000E-03 0. -1.
     -623   -1    0    0    0    0  0.00000000000E+00  0.00000000000E+00  0.12525980253E-10  0.17130000000E+03  0.17130000000E+03 0. -1.
       11    1    1    2    0    0  0.43305008093E-02  0.25859463164E-02  0.39404787880E-01  0.39729571941E-01  0.51109989000E-03 0. -1.
     -623    1    1    2    0    0 -0.43069472882E-02 -0.31849702846E-02  0.15876293058E-02  0.17130000009E+03  0.17130000000E+03 0. -1.
      622    1    1    2    0    0 -0.23553520933E-04  0.59902396830E-03  0.39590075503E+01  0.39602703370E+01  0.10000000000E+00 0. -1.
</event>
<event>
 5   0  0.6262544E+06  0.9118800E+02  0.7818608E-02  0.1180000E+00
       11   -1    0    0    0    0  0.00000000000E+00  0.00000000000E+00  0.39999999673E+01  0.40000000000E+01  0.51109989000E-03 0.  1.
     -623   -1    0    0    0    0  0.00000000000E+00  0.00000000000E+00  0.12525980253E-10  0.17130000000E+03  0.17130000000E+03 0. -1.
       11    1    1    2    0    0 -0.22838623875E-02  0.14011548399E-01  0.60278697043E-01  0.61929977022E-01  0.51109989000E-03 0.  1.
     -623    1    1    2    0    0 -0.11871742316E-01 -0.12952727132E-01  0.29476285099E-02  0.17130000093E+03  0.17130000000E+03 0. -1.
      622    1    1    2    0    0  0.14155604703E-01 -0.10588212670E-02  0.39367736418E+01  0.39380690965E+01  0.10000000000E+00 0.  1.
</event>
<event>
 5   0  0.6262544E+06  0.9118800E+02  0.7818608E-02  0.1180000E+00
       11   -1    0    0    0    0  0.00000000000E+00  0.00000000000E+00  0.39999999673E+01  0.40000000000E+01  0.51109989000E-03 0.  1.
     -623   -1    0    0    0    0  0.00000000000E+00  0.00000000000E+00  0.12525980253E-10  0.17130000000E+03  0.17130000000E+03 0.  1.
       11    1    1    2    0    0  0.32277981118E-01  0.10954496290E-01 -0.11051454285E-02  0.34107940770E-01  0.51109989000E-03 0.  1.
     -623    1    1    2    0    0 -0.78503925749E-01  0.62428086028E-01  0.37456213779E-01  0.17130003346E+03  0.17130000000E+03 0.  1.
      622    1    1    2    0    0  0.46225944631E-01 -0.73382582318E-01  0.39636488990E+01  0.39658586001E+01  0.10000000000E+00 0.  1.
</event>
<event>
 5   0  0.6262544E+06  0.9118800E+02  0.7818608E-02  0.1180000E+00
       11   -1    0    0    0    0  0.00000000000E+00  0.00000000000E+00  0.39999999673E+01  0.40000000000E+01  0.51109989000E-03 0. -1.
     -623   -1    0    0    0    0  0.00000000000E+00  0.00000000000E+00  0.12525980253E-10  0.17130000000E+03  0.17130000000E+03 0. -1.
       11    1    1    2    0    0  0.17436531963E-02 -0.11584153482E-01  0.11677195564E+00  0.11735920835E+00  0.51109989000E-03 0. -1.
     -623    1    1    2    0    0  0.67049022463E-02  0.16624734630E-02  0.18972430342E-02  0.17130000015E+03  0.17130000000E+03 0. -1.
      622    1    1    2    0    0 -0.84485554426E-02  0.99216800194E-02  0.38813307687E+01  0.38826406419E+01  0.10000000000E+00 0. -1.
</event>
<event>
 5   0  0.6262544E+06  0.9118800E+02  0.7818608E-02  0.1180000E+00
       11   -1    0    0    0    0  0.00000000000E+00  0.00000000000E+00  0.39999999673E+01  0.40000000000E+01  0.51109989000E-03 0.  1.
     -623   -1    0    0    0    0  0.00000000000E+00  0.00000000000E+00  0.12525980253E-10  0.17130000000E+03  0.17130000000E+03 0. -1.
       11    1    1    2    0    0  0.27372840761E-01 -0.64627688274E-02  0.13086354017E+00  0.13385278167E+00  0.51109989000E-03 0.  1.
     -623    1    1    2    0    0 -0.10765836927E-01  0.93979048657E-02  0.43201475020E-02  0.17130000065E+03  0.17130000000E+03 0. -1.
      622    1    1    2    0    0 -0.16607003834E-01 -0.29351360384E-02  0.38648162797E+01  0.38661465678E+01  0.10000000000E+00 0.  1.
</event>
<event>
 5   0  0.6262544E+06  0.9118800E+02  0.7818608E-02  0.1180000E+00
       11   -1    0    0    0    0  0.00000000000E+00  0.00000000000E+00  0.39999999673E+01  0.40000000000E+01  0.51109989000E-03 0.  1.
     -623   -1    0    0    0    0  0.00000000000E+00  0.00000000000E+00  0.12525980253E-10  0.17130000000E+03  0.17130000000E+03 0.  1.
       11    1    1    2    0    0 -0.25363831582E-01  0.29952081038E-01  0.11699800163E+00  0.12340682605E+00  0.51109989000E-03 0.  1.
     -623    1    1    2    0    0  0.85139805482E-02 -0.22312060001E-01  0.77448020082E-02  0.17130000184E+03  0.17130000000E+03 0.  1.
      622    1    1    2    0    0  0.16849851034E-01 -0.76400210367E-02  0.38752571637E+01  0.38765913342E+01  0.10000000000E+00 0.  1.
</event>
<event>
 5   0  0.6262544E+06  0.9118800E+02  0.7818608E-02  0.1180000E+00
       11   -1    0    0    0    0  0.00000000000E+00  0.00000000000E+00  0.39999999673E+01  0.40000000000E+01  0.51109989000E-03 0.  1.
     -623   -1    0    0    0    0  0.00000000000E+00  0.00000000000E+00  0.12525980253E-10  0.17130000000E+03  0.17130000000E+03 0.  1.
       11    1    1    2    0    0 -0.41581669035E-02  0.21019474450E-02  0.21813921651E+00  0.21818956789E+00  0.51109989000E-03 0.  1.
     -623    1    1    2    0    0 -0.13690202643E-02  0.19399920613E-02  0.13788912358E-02  0.17130000002E+03  0.17130000000E+03 0.  1.
      622    1    1    2    0    0  0.55271871678E-02 -0.40419395063E-02  0.37804818597E+01  0.37818104102E+01  0.10000000000E+00 0.  1.
</event>
<event>
 5   0  0.6262544E+06  0.9118800E+02  0.7818608E-02  0.1180000E+00
       11   -1    0    0    0    0  0.00000000000E+00  0.00000000000E+00  0.39999999673E+01  0.40000000000E+01  0.51109989000E-03 0. -1.
     -623   -1    0    0    0    0  0.00000000000E+00  0.00000000000E+00  0.12525980253E-10  0.17130000000E+03  0.17130000000E+03 0. -1.
       11    1    1    2    0    0  0.12698708311E-01 -0.64949144381E-02  0.78351714908E-01  0.79641029349E-01  0.51109989000E-03 0. -1.
     -623    1    1    2    0    0 -0.28399140897E-02 -0.33509369396E-02  0.25897268485E-02  0.17130000008E+03  0.17130000000E+03 0. -1.
      622    1    1    2    0    0 -0.98587942214E-02  0.98458513776E-02  0.39190585256E+01  0.39203588948E+01  0.10000000000E+00 0. -1.
</event>
<event>
 5   0  0.6262544E+06  0.9118800E+02  0.7818608E-02  0.1180000E+00
       11   -1    0    0    0    0  0.00000000000E+00  0.00000000000E+00  0.39999999673E+01  0.40000000000E+01  0.51109989000E-03 0. -1.
     -623   -1    0    0    0    0  0.00000000000E+00  0.00000000000E+00  0.12525980253E-10  0.17130000000E+03  0.17130000000E+03 0. -1.
       11    1    1    2    0    0 -0.91922276784E-02  0.38218843178E-02  0.12043294343E+01  0.12043706869E+01  0.51109989000E-03 0. -1.
     -623    1    1    2    0    0  0.30874960237E-02  0.81034093529E-02  0.18626491503E-02  0.17130000023E+03  0.17130000000E+03 0. -1.
      622    1    1    2    0    0  0.61047316547E-02 -0.11925293671E-01  0.27938078839E+01  0.27956290835E+01  0.10000000000E+00 0. -1.
</event>
<event>
 5   0  0.6262544E+06  0.9118800E+02  0.7818608E-02  0.1180000E+00
       11   -1    0    0    0    0  0.00000000000E+00  0.00000000000E+00  0.39999999673E+01  0.40000000000E+01  0.51109989000E-03 0. -1.
     -623   -1    0    0    0    0  0.00000000000E+00  0.00000000000E+00  0.12525980253E-10  0.17130000000E+03  0.17130000000E+03 0. -1.
       11    1    1    2    0    0  0.32245743557E-02  0.64222305756E-03  0.32219124183E-01  0.32390484917E-01  0.51109989000E-03 0. -1.
     -623    1    1    2    0    0  0.92592882374E-03 -0.18138931587E-02  0.14340957292E-02  0.17130000002E+03  0.17130000000E+03 0. -1.
      622    1    1    2    0    0 -0.41505031794E-02  0.11716701012E-02  0.39663467474E+01  0.39676094970E+01  0.10000000000E+00 0. -1.
</event>
<event>
 5   0  0.6262544E+06  0.9118800E+02  0.7818608E-02  0.1180000E+00
       11   -1    0    0    0    0  0.00000000000E+00  0.00000000000E+00  0.39999999673E+01  0.40000000000E+01  0.51109989000E-03 0. -1.
     -623   -1    0    0    0    0  0.00000000000E+00  0.00000000000E+00  0.12525980253E-10  0.17130000000E+03  0.17130000000E+03 0. -1.
       11    1    1    2    0    0 -0.67732958191E-02  0.38057320117E-02  0.26509510901E-02  0.82249557553E-02  0.51109989000E-03 0. -1.
     -623    1    1    2    0    0 -0.11401884451E-01  0.12593356652E-01  0.69028130086E-02  0.17130000098E+03  0.17130000000E+03 0. -1.
      622    1    1    2    0    0  0.18175180270E-01 -0.16399088664E-01  0.39904462033E+01  0.39917740628E+01  0.10000000000E+00 0. -1.
</event>
<event>
 5   0  0.6262544E+06  0.9118800E+02  0.7818608E-02  0.1180000E+00
       11   -1    0    0    0    0  0.00000000000E+00  0.00000000000E+00  0.39999999673E+01  0.40000000000E+01  0.51109989000E-03 0. -1.
     -623   -1    0    0    0    0  0.00000000000E+00  0.00000000000E+00  0.12525980253E-10  0.17130000000E+03  0.17130000000E+03 0.  1.
       11    1    1    2    0    0 -0.10798192803E-01 -0.51610913724E-02  0.37240880633E+00  0.37260141987E+00  0.51109989000E-03 0. -1.
     -623    1    1    2    0    0  0.38196839784E-02  0.11665534924E-02  0.15802106076E-02  0.17130000005E+03  0.17130000000E+03 0.  1.
      622    1    1    2    0    0  0.69785088245E-02  0.39945378800E-02  0.36260109504E+01  0.36273985263E+01  0.10000000000E+00 0. -1.
</event>
<event>
 5   0  0.6262544E+06  0.9118800E+02  0.7818608E-02  0.1180000E+00
       11   -1    0    0    0    0  0.00000000000E+00  0.00000000000E+00  0.39999999673E+01  0.40000000000E+01  0.51109989000E-03 0. -1.
     -623   -1    0    0    0    0  0.00000000000E+00  0.00000000000E+00  0.12525980253E-10  0.17130000000E+03  0.17130000000E+03 0.  1.
       11    1    1    2    0    0  0.20183815928E-02 -0.31153406338E-02  0.43715320101E-02  0.57576665390E-02  0.51109989000E-03 0. -1.
     -623    1    1    2    0    0 -0.20308066856E-02 -0.13841945998E-02  0.26406731590E-02  0.17130000004E+03  0.17130000000E+03 0.  1.
      622    1    1    2    0    0  0.12425092898E-04  0.44995352336E-02  0.39929877622E+01  0.39942422955E+01  0.10000000000E+00 0. -1.
</event>
<event>
 5   0  0.6262544E+06  0.9118800E+02  0.7818608E-02  0.1180000E+00
       11   -1    0    0    0    0  0.00000000000E+00  0.00000000000E+00  0.39999999673E+01  0.40000000000E+01  0.51109989000E-03 0.  1.
     -623   -1    0    0    0    0  0.00000000000E+00  0.00000000000E+00  0.12525980253E-10  0.17130000000E+03  0.17130000000E+03 0.  1.
       11    1    1    2    0    0 -0.25285548989E-01 -0.40674198252E-01  0.66238395365E+00  0.66411332818E+00  0.51109989000E-03 0.  1.
     -623    1    1    2    0    0  0.19230697459E-02 -0.94696138936E-03  0.35702097112E-02  0.17130000005E+03  0.17130000000E+03 0.  1.
      622    1    1    2    0    0  0.23362479244E-01  0.41621159642E-01  0.33340458040E+01  0.33358866212E+01  0.10000000000E+00 0.  1.
</event>
<event>
 5   0  0.6262544E+06  0.9118800E+02  0.7818608E-02  0.1180000E+00
       11   -1    0    0    0    0  0.00000000000E+00  0.00000000000E+00  0.39999999673E+01  0.40000000000E+01  0.51109989000E-03 0. -1.
     -623   -1    0    0    0    0  0.00000000000E+00  0.00000000000E+00  0.12525980253E-10  0.17130000000E+03  0.17130000000E+03 0. -1.
       11    1    1    2    0    0 -0.34650695814E-01  0.70283685870E-01  0.10721337397E+01  0.10749937136E+01  0.51109989000E-03 0. -1.
     -623    1    1    2    0    0 -0.19602377092E-02 -0.19202287177E-02  0.55987537578E-02  0.17130000011E+03  0.17130000000E+03 0. -1.
      622    1    1    2    0    0  0.36610933523E-01 -0.68363457152E-01  0.29222674740E+01  0.29250061730E+01  0.10000000000E+00 0. -1.
</event>
<event>
 5   0  0.6262544E+06  0.9118800E+02  0.7818608E-02  0.1180000E+00
       11   -1    0    0    0    0  0.00000000000E+00  0.00000000000E+00  0.39999999673E+01  0.40000000000E+01  0.51109989000E-03 0. -1.
     -623   -1    0    0    0    0  0.00000000000E+00  0.00000000000E+00  0.12525980253E-10  0.17130000000E+03  0.17130000000E+03 0.  1.
       11    1    1    2    0    0  0.23204585004E-01 -0.34757924597E-01  0.50069449094E+00  0.50243586712E+00  0.51109989000E-03 0. -1.
     -623    1    1    2    0    0  0.98241686049E-03  0.23843703009E-02  0.34048152084E-02  0.17130000005E+03  0.17130000000E+03 0.  1.
      622    1    1    2    0    0 -0.24187001864E-01  0.32373554296E-01  0.34959006612E+01  0.34975640796E+01  0.10000000000E+00 0. -1.
</event>
<event>
 5   0  0.6262544E+06  0.9118800E+02  0.7818608E-02  0.1180000E+00
       11   -1    0    0    0    0  0.00000000000E+00  0.00000000000E+00  0.39999999673E+01  0.40000000000E+01  0.51109989000E-03 0. -1.
     -623   -1    0    0    0    0  0.00000000000E+00  0.00000000000E+00  0.12525980253E-10  0.17130000000E+03  0.17130000000E+03 0. -1.
       11    1    1    2    0    0  0.24130987519E-01 -0.30902070520E-01  0.13683682724E+01  0.13689299590E+01  0.51109989000E-03 0. -1.
     -623    1    1    2    0    0  0.15392412280E-01  0.11730275239E-01  0.28308222825E-02  0.17130000112E+03  0.17130000000E+03 0. -1.
      622    1    1    2    0    0 -0.39523399799E-01  0.19171795281E-01  0.26288008727E+01  0.26310689244E+01  0.10000000000E+00 0.  1.
</event>
<event>
 5   0  0.6262544E+06  0.9118800E+02  0.7818608E-02  0.1180000E+00
       11   -1    0    0    0    0  0.00000000000E+00  0.00000000000E+00  0.39999999673E+01  0.40000000000E+01  0.51109989000E-03 0. -1.
     -623   -1    0    0    0    0  0.00000000000E+00  0.00000000000E+00  0.12525980253E-10  0.17130000000E+03  0.17130000000E+03 0. -1.
       11    1    1    2    0    0 -0.90092619183E-02 -0.10828300074E-01  0.14069295312E+00  0.14139726717E+00  0.51109989000E-03 0. -1.
     -623    1    1    2    0    0  0.35876437132E-02 -0.40913026193E-02  0.20330673671E-02  0.17130000010E+03  0.17130000000E+03 0. -1.
      622    1    1    2    0    0  0.54216182049E-02  0.14919602694E-01  0.38572739471E+01  0.38586026346E+01  0.10000000000E+00 0. -1.
</event>
<event>
 5   0  0.6262544E+06  0.9118800E+02  0.7818608E-02  0.1180000E+00
       11   -1    0    0    0    0  0.00000000000E+00  0.00000000000E+00  0.39999999673E+01  0.40000000000E+01  0.51109989000E-03 0.  1.
     -623   -1    0    0    0    0  0.00000000000E+00  0.00000000000E+00  0.12525980253E-10  0.17130000000E+03  0.17130000000E+03 0.  1.
       11    1    1    2    0    0 -0.91043703657E-03 -0.73304215185E-02  0.97237727871E-01  0.97519233589E-01  0.51109989000E-03 0.  1.
     -623    1    1    2    0    0  0.41220443648E-01 -0.72873229251E-02  0.18036951688E-02  0.17130000512E+03  0.17130000000E+03 0.  1.
      622    1    1    2    0    0 -0.40310006615E-01  0.14617744444E-01  0.39009585447E+01  0.39024756428E+01  0.10000000000E+00 0.  0.
</event>
<event>
 5   0  0.6262544E+06  0.9118800E+02  0.7818608E-02  0.1180000E+00
       11   -1    0    0    0    0  0.00000000000E+00  0.00000000000E+00  0.39999999673E+01  0.40000000000E+01  0.51109989000E-03 0. -1.
     -623   -1    0    0    0    0  0.00000000000E+00  0.00000000000E+00  0.12525980253E-10  0.17130000000E+03  0.17130000000E+03 0.  1.
       11    1    1    2    0    0 -0.61459309164E-02  0.52295908939E-02  0.68534705814E-01  0.69010058756E-01  0.51109989000E-03 0. -1.
     -623    1    1    2    0    0  0.12419038450E-01  0.54734446170E-02  0.17675997906E-02  0.17130000055E+03  0.17130000000E+03 0.  1.
      622    1    1    2    0    0 -0.62731075332E-02 -0.10703035511E-01  0.39296976618E+01  0.39309893945E+01  0.10000000000E+00 0. -1.
</event>
<event>
 5   0  0.6262544E+06  0.9118800E+02  0.7818608E-02  0.1180000E+00
       11   -1    0    0    0    0  0.00000000000E+00  0.00000000000E+00  0.39999999673E+01  0.40000000000E+01  0.51109989000E-03 0.  1.
     -623   -1    0    0    0    0  0.00000000000E+00  0.00000000000E+00  0.12525980253E-10  0.17130000000E+03  0.17130000000E+03 0.  1.
       11    1    1    2    0    0 -0.10469865433E-01 -0.40051393187E-01  0.25894655112E+00  0.26223521834E+00  0.51109989000E-03 0.  1.
     -623    1    1    2    0    0 -0.20426467618E-01  0.16032665855E-01  0.48335541812E-02  0.17130000204E+03  0.17130000000E+03 0.  1.
      622    1    1    2    0    0  0.30896333052E-01  0.24018727332E-01  0.37362198621E+01  0.37377627453E+01  0.10000000000E+00 0.  1.
</event>
<event>
 5   0  0.6262544E+06  0.9118800E+02  0.7818608E-02  0.1180000E+00
       11   -1    0    0    0    0  0.00000000000E+00  0.00000000000E+00  0.39999999673E+01  0.40000000000E+01  0.51109989000E-03 0. -1.
     -623   -1    0    0    0    0  0.00000000000E+00  0.00000000000E+00  0.12525980253E-10  0.17130000000E+03  0.17130000000E+03 0.  1.
       11    1    1    2    0    0 -0.27921221759E-03 -0.12388844328E-02  0.26134545625E-02  0.29502816726E-02  0.51109989000E-03 0. -1.
     -623    1    1    2    0    0  0.10200062157E-02  0.44831249572E-02  0.15893677059E-02  0.17130000007E+03  0.17130000000E+03 0.  1.
      622    1    1    2    0    0 -0.74079399816E-03 -0.32442405246E-02  0.39957971453E+01  0.39970496495E+01  0.10000000000E+00 0. -1.
</event>
<event>
 5   0  0.6262544E+06  0.9118800E+02  0.7818608E-02  0.1180000E+00
       11   -1    0    0    0    0  0.00000000000E+00  0.00000000000E+00  0.39999999673E+01  0.40000000000E+01  0.51109989000E-03 0. -1.
     -623   -1    0    0    0    0  0.00000000000E+00  0.00000000000E+00  0.12525980253E-10  0.17130000000E+03  0.17130000000E+03 0. -1.
       11    1    1    2    0    0  0.24241653326E-01  0.98008490661E-01  0.15736729920E+01  0.15769084530E+01  0.51109989000E-03 0. -1.
     -623    1    1    2    0    0 -0.26221026478E-02 -0.52607892929E-01  0.58302701927E-02  0.17130000820E+03  0.17130000000E+03 0. -1.
      622    1    1    2    0    0 -0.21619550678E-01 -0.45400597732E-01  0.24204967051E+01  0.24230833495E+01  0.10000000000E+00 0.  0.
</event>
<event>
 5   0  0.6262544E+06  0.9118800E+02  0.7818608E-02  0.1180000E+00
       11   -1    0    0    0    0  0.00000000000E+00  0.00000000000E+00  0.39999999673E+01  0.40000000000E+01  0.51109989000E-03 0.  1.
     -623   -1    0    0    0    0  0.00000000000E+00  0.00000000000E+00  0.12525980253E-10  0.17130000000E+03  0.17130000000E+03 0.  1.
       11    1    1    2    0    0  0.15889656938E-01 -0.10387680107E-01  0.18460069129E+00  0.18557494858E+00  0.51109989000E-03 0.  1.
     -623    1    1    2    0    0  0.27366799641E-01  0.64246156615E-01  0.29252973774E-02  0.17130001426E+03  0.17130000000E+03 0.  1.
      622    1    1    2    0    0 -0.43256456579E-01 -0.53858476507E-01  0.38124739786E+01  0.38144107926E+01  0.10000000000E+00 0.  1.
</event>
<event>
 5   0  0.6262544E+06  0.9118800E+02  0.7818608E-02  0.1180000E+00
       11   -1    0    0    0    0  0.00000000000E+00  0.00000000000E+00  0.39999999673E+01  0.40000000000E+01  0.51109989000E-03 0.  1.
     -623   -1    0    0    0    0  0.00000000000E+00  0.00000000000E+00  0.12525980253E-10  0.17130000000E+03  0.17130000000E+03 0. -1.
       11    1    1    2    0    0  0.44786866702E-01  0.16177205625E-01  0.17244139498E+01  0.17250713889E+01  0.51109989000E-03 0.  1.
     -623    1    1    2    0    0 -0.41270696921E-02  0.79641994623E-02  0.33485868602E-02  0.17130000027E+03  0.17130000000E+03 0. -1.
      622    1    1    2    0    0 -0.40659797010E-01 -0.24141405088E-01  0.22722374307E+01  0.22749283435E+01  0.10000000000E+00 0.  1.
</event>
<event>
 5   0  0.6262544E+06  0.9118800E+02  0.7818608E-02  0.1180000E+00
       11   -1    0    0    0    0  0.00000000000E+00  0.00000000000E+00  0.39999999673E+01  0.40000000000E+01  0.51109989000E-03 0. -1.
     -623   -1    0    0    0    0  0.00000000000E+00  0.00000000000E+00  0.12525980253E-10  0.17130000000E+03  0.17130000000E+03 0. -1.
       11    1    1    2    0    0  0.69264388102E-01  0.35846256327E-03  0.37646221715E+00  0.38278159062E+00  0.51109989000E-03 0. -1.
     -623    1    1    2    0    0 -0.17248941231E-01  0.50271376307E-01  0.84390126698E-02  0.17130000845E+03  0.17130000000E+03 0. -1.
      622    1    1    2    0    0 -0.52015446870E-01 -0.50629838870E-01  0.36150987375E+01  0.36172099565E+01  0.10000000000E+00 0. -1.
</event>
<event>
 5   0  0.6262544E+06  0.9118800E+02  0.7818608E-02  0.1180000E+00
       11   -1    0    0    0    0  0.00000000000E+00  0.00000000000E+00  0.39999999673E+01  0.40000000000E+01  0.51109989000E-03 0.  1.
     -623   -1    0    0    0    0  0.00000000000E+00  0.00000000000E+00  0.12525980253E-10  0.17130000000E+03  0.17130000000E+03 0.  1.
       11    1    1    2    0    0 -0.15433252824E-01 -0.66298109240E-02  0.30469044744E+00  0.30515351819E+00  0.51109989000E-03 0.  1.
     -623    1    1    2    0    0  0.17740240529E-01 -0.58356921576E-02  0.18393065088E-02  0.17130000103E+03  0.17130000000E+03 0.  1.
      622    1    1    2    0    0 -0.23069877055E-02  0.12465503082E-01  0.36934702134E+01  0.36948454539E+01  0.10000000000E+00 0.  1.
</event>
<event>
 5   0  0.6262544E+06  0.9118800E+02  0.7818608E-02  0.1180000E+00
       11   -1    0    0    0    0  0.00000000000E+00  0.00000000000E+00  0.39999999673E+01  0.40000000000E+01  0.51109989000E-03 0. -1.
     -623   -1    0    0    0    0  0.00000000000E+00  0.00000000000E+00  0.12525980253E-10  0.17130000000E+03  0.17130000000E+03 0. -1.
       11    1    1    2    0    0 -0.36490438553E-01 -0.12554672536E-01  0.98870663073E+00  0.98945956703E+00  0.51109989000E-03 0. -1.
     -623    1    1    2    0    0  0.44455281736E-01  0.11091347381E-01  0.24312393659E-02  0.17130000614E+03  0.17130000000E+03 0. -1.
      622    1    1    2    0    0 -0.79648431839E-02  0.14633251548E-02  0.30088620973E+01  0.30105342883E+01  0.10000000000E+00 0. -1.
</event>
<event>
 5   0  0.6262544E+06  0.9118800E+02  0.7818608E-02  0.1180000E+00
       11   -1    0    0    0    0  0.00000000000E+00  0.00000000000E+00  0.39999999673E+01  0.40000000000E+01  0.51109989000E-03 0. -1.
     -623   -1    0    0    0    0  0.00000000000E+00  0.00000000000E+00  0.12525980253E-10  0.17130000000E+03  0.17130000000E+03 0. -1.
       11    1    1    2    0    0  0.94429512686E-02  0.15253876622E-01  0.66106969563E+00  0.66131327961E+00  0.51109989000E-03 0. -1.
     -623    1    1    2    0    0 -0.50587382419E-01 -0.35714960734E-01  0.20690706664E-02  0.17130001121E+03  0.17130000000E+03 0. -1.
      622    1    1    2    0    0  0.41144431151E-01  0.20461084112E-01  0.33368612011E+01  0.33386755152E+01  0.10000000000E+00 0.  0.
</event>
<event>
 5   0  0.6262544E+06  0.9118800E+02  0.7818608E-02  0.1180000E+00
       11   -1    0    0    0    0  0.00000000000E+00  0.00000000000E+00  0.39999999673E+01  0.40000000000E+01  0.51109989000E-03 0. -1.
     -623   -1    0    0    0    0  0.00000000000E+00  0.00000000000E+00  0.12525980253E-10  0.17130000000E+03  0.17130000000E+03 0.  1.
       11    1    1    2    0    0  0.11431854874E+00 -0.40518931555E-01  0.16468025773E+01  0.16512630028E+01  0.51109989000E-03 0. -1.
     -623    1    1    2    0    0 -0.14203453993E-01 -0.36790850593E-03  0.90841639151E-02  0.17130000083E+03  0.17130000000E+03 0.  1.
      622    1    1    2    0    0 -0.10011509474E+00  0.40886840061E-01  0.23441132261E+01  0.23487361671E+01  0.10000000000E+00 0.  0.
</event>
<event>
 5   0  0.6262544E+06  0.9118800E+02  0.7818608E-02  0.1180000E+00
       11   -1    0    0    0    0  0.00000000000E+00  0.00000000000E+00  0.39999999673E+01  0.40000000000E+01  0.51109989000E-03 0.  1.
     -623   -1    0    0    0    0  0.00000000000E+00  0.00000000000E+00  0.12525980253E-10  0.17130000000E+03  0.17130000000E+03 0.  1.
       11    1    1    2    0    0 -0.27522690452E-01  0.52939368937E-02  0.49845729215E+00  0.49924488738E+00  0.51109989000E-03 0.  1.
     -623    1    1    2    0    0  0.33701705506E-02 -0.10570797383E-01  0.23038229920E-02  0.17130000037E+03  0.17130000000E+03 0.  1.
      622    1    1    2    0    0  0.24152519902E-01  0.52768604893E-02  0.34992388522E+01  0.35007547378E+01  0.10000000000E+00 0.  1.
</event>
<event>
 5   0  0.6262544E+06  0.9118800E+02  0.7818608E-02  0.1180000E+00
       11   -1    0    0    0    0  0.00000000000E+00  0.00000000000E+00  0.39999999673E+01  0.40000000000E+01  0.51109989000E-03 0.  1.
     -623   -1    0    0    0    0  0.00000000000E+00  0.00000000000E+00  0.12525980253E-10  0.17130000000E+03  0.17130000000E+03 0. -1.
       11    1    1    2    0    0 -0.46728474317E-03 -0.19931714481E-02  0.19709049444E-01  0.19821678550E-01  0.51109989000E-03 0.  1.
     -623    1    1    2    0    0  0.17661332293E-02  0.15285083208E-02  0.13692804243E-02  0.17130000002E+03  0.17130000000E+03 0. -1.
      622    1    1    2    0    0 -0.12988484863E-02  0.46466312715E-03  0.39789216378E+01  0.39801783003E+01  0.10000000000E+00 0.  1.
</event>
<event>
 5   0  0.6262544E+06  0.9118800E+02  0.7818608E-02  0.1180000E+00
       11   -1    0    0    0    0  0.00000000000E+00  0.00000000000E+00  0.39999999673E+01  0.40000000000E+01  0.51109989000E-03 0.  1.
     -623   -1    0    0    0    0  0.00000000000E+00  0.00000000000E+00  0.12525980253E-10  0.17130000000E+03  0.17130000000E+03 0. -1.
       11    1    1    2    0    0 -0.73669554645E-02  0.11372081631E-02  0.47421821612E+00  0.47427707408E+00  0.51109989000E-03 0.  1.
     -623    1    1    2    0    0  0.57430381364E-02 -0.47371736766E-02  0.14796405089E-02  0.17130000017E+03  0.17130000000E+03 0. -1.
      622    1    1    2    0    0  0.16239173282E-02  0.35999655134E-02  0.35243021107E+01  0.35257227577E+01  0.10000000000E+00 0.  1.
</event>
<event>
 5   0  0.6262544E+06  0.9118800E+02  0.7818608E-02  0.1180000E+00
       11   -1    0    0    0    0  0.00000000000E+00  0.00000000000E+00  0.39999999673E+01  0.40000000000E+01  0.51109989000E-03 0.  1.
     -623   -1    0    0    0    0  0.00000000000E+00  0.00000000000E+00  0.12525980253E-10  0.17130000000E+03  0.17130000000E+03 0.  1.
       11    1    1    2    0    0 -0.41490627059E-02 -0.52857775805E-02  0.88942410405E-02  0.11158983429E-01  0.51109989000E-03 0.  1.
     -623    1    1    2    0    0 -0.89803538189E-03  0.12347326189E-03  0.35249779933E-02  0.17130000004E+03  0.17130000000E+03 0.  1.
      622    1    1    2    0    0  0.50470980878E-02  0.51623043186E-02  0.39875807483E+01  0.39888409779E+01  0.10000000000E+00 0.  1.
</event>
<event>
 5   0  0.6262544E+06  0.9118800E+02  0.7818608E-02  0.1180000E+00
       11   -1    0    0    0    0  0.00000000000E+00  0.00000000000E+00  0.39999999673E+01  0.40000000000E+01  0.51109989000E-03 0. -1.
     -623   -1    0    0    0    0  0.00000000000E+00  0.00000000000E+00  0.12525980253E-10  0.17130000000E+03  0.17130000000E+03 0. -1.
       11    1    1    2    0    0 -0.19121241925E-02  0.66507096066E-03  0.26689754380E-02  0.33886857772E-02  0.51109989000E-03 0. -1.
     -623    1    1    2    0    0 -0.14148481886E-02  0.23804655165E-02  0.19735131529E-02  0.17130000003E+03  0.17130000000E+03 0. -1.
      622    1    1    2    0    0  0.33269723811E-02 -0.30455364772E-02  0.39953574788E+01  0.39966112805E+01  0.10000000000E+00 0. -1.
</event>
<event>
 5   0  0.6262544E+06  0.9118800E+02  0.7818608E-02  0.1180000E+00
       11   -1    0    0    0    0  0.00000000000E+00  0.00000000000E+00  0.39999999673E+01  0.40000000000E+01  0.51109989000E-03 0.  1.
     -623   -1    0    0    0    0  0.00000000000E+00  0.00000000000E+00  0.12525980253E-10  0.17130000000E+03  0.17130000000E+03 0.  1.
       11    1    1    2    0    0 -0.50988916193E-02  0.40569165195E-03  0.76312948647E-01  0.76485885207E-01  0.51109989000E-03 0.  1.
     -623    1    1    2    0    0  0.12478060723E-01  0.48420992324E-03  0.14549826375E-02  0.17130000046E+03  0.17130000000E+03 0.  1.
      622    1    1    2    0    0 -0.73791691036E-02 -0.88990157520E-03  0.39222320362E+01  0.39235136536E+01  0.10000000000E+00 0.  1.
</event>
<event>
 5   0  0.6262544E+06  0.9118800E+02  0.7818608E-02  0.1180000E+00
       11   -1    0    0    0    0  0.00000000000E+00  0.00000000000E+00  0.39999999673E+01  0.40000000000E+01  0.51109989000E-03 0. -1.
     -623   -1    0    0    0    0  0.00000000000E+00  0.00000000000E+00  0.12525980253E-10  0.17130000000E+03  0.17130000000E+03 0.  1.
       11    1    1    2    0    0 -0.21113179072E-01 -0.71003579396E-02  0.14973975573E+01  0.14975633166E+01  0.51109989000E-03 0. -1.
     -623    1    1    2    0    0  0.50523109725E-02  0.35179179285E-02  0.22188507980E-02  0.17130000012E+03  0.17130000000E+03 0.  1.
      622    1    1    2    0    0  0.16060868100E-01  0.35824400110E-02  0.25003835593E+01  0.25024365584E+01  0.10000000000E+00 0. -1.
</event>
<event>
 5   0  0.6262544E+06  0.9118800E+02  0.7818608E-02  0.1180000E+00
       11   -1    0    0    0    0  0.00000000000E+00  0.00000000000E+00  0.39999999673E+01  0.40000000000E+01  0.51109989000E-03 0.  1.
     -623   -1    0    0    0    0  0.00000000000E+00  0.00000000000E+00  0.12525980253E-10  0.17130000000E+03  0.17130000000E+03 0. -1.
       11    1    1    2    0    0  0.57366530028E-02  0.36107803123E-02  0.15766275855E+00  0.15780923160E+00  0.51109989000E-03 0.  1.
     -623    1    1    2    0    0 -0.35432160445E-02  0.53641200551E-02  0.14592406854E-02  0.17130000013E+03  0.17130000000E+03 0. -1.
      622    1    1    2    0    0 -0.21934369585E-02 -0.89749003671E-02  0.38408779680E+01  0.38421906414E+01  0.10000000000E+00 0.  1.
</event>
<event>
 5   0  0.6262544E+06  0.9118800E+02  0.7818608E-02  0.1180000E+00
       11   -1    0    0    0    0  0.00000000000E+00  0.00000000000E+00  0.39999999673E+01  0.40000000000E+01  0.51109989000E-03 0.  1.
     -623   -1    0    0    0    0  0.00000000000E+00  0.00000000000E+00  0.12525980253E-10  0.17130000000E+03  0.17130000000E+03 0. -1.
       11    1    1    2    0    0 -0.15126331660E-01  0.14996201053E-01  0.48740069050E-01  0.53193491233E-01  0.51109989000E-03 0.  1.
     -623    1    1    2    0    0 -0.11657834799E-01  0.18090973832E-01  0.59515482806E-02  0.17130000146E+03  0.17130000000E+03 0. -1.
      622    1    1    2    0    0  0.26784166459E-01 -0.33087174886E-01  0.39453083501E+01  0.39468050535E+01  0.10000000000E+00 0.  1.
</event>
<event>
 5   0  0.6262544E+06  0.9118800E+02  0.7818608E-02  0.1180000E+00
       11   -1    0    0    0    0  0.00000000000E+00  0.00000000000E+00  0.39999999673E+01  0.40000000000E+01  0.51109989000E-03 0.  1.
     -623   -1    0    0    0    0  0.00000000000E+00  0.00000000000E+00  0.12525980253E-10  0.17130000000E+03  0.17130000000E+03 0. -1.
       11    1    1    2    0    0 -0.82541149958E-01  0.99997292030E-03  0.67456965475E+00  0.67960173758E+00  0.51109989000E-03 0.  1.
     -623    1    1    2    0    0  0.39510585982E-01  0.17877358475E-01  0.68765210966E-02  0.17130000563E+03  0.17130000000E+03 0. -1.
      622    1    1    2    0    0  0.43030563976E-01 -0.18877331396E-01  0.33185537915E+01  0.33203926349E+01  0.10000000000E+00 0.  1.
</event>
<event>
 5   0  0.6262544E+06  0.9118800E+02  0.7818608E-02  0.1180000E+00
       11   -1    0    0    0    0  0.00000000000E+00  0.00000000000E+00  0.39999999673E+01  0.40000000000E+01  0.51109989000E-03 0.  1.
     -623   -1    0    0    0    0  0.00000000000E+00  0.00000000000E+00  0.12525980253E-10  0.17130000000E+03  0.17130000000E+03 0.  1.
       11    1    1    2    0    0 -0.78751222892E-03  0.54630710572E-03 -0.10870354006E-02  0.15367159868E-02  0.51109989000E-03 0.  1.
     -623    1    1    2    0    0 -0.21322287383E-02  0.46230729983E-03  0.38756461156E-02  0.17130000006E+03  0.17130000000E+03 0.  1.
      622    1    1    2    0    0  0.29197409671E-02 -0.10086144055E-02  0.39972113566E+01  0.39984632262E+01  0.10000000000E+00 0.  1.
</event>
<event>
 5   0  0.6262544E+06  0.9118800E+02  0.7818608E-02  0.1180000E+00
       11   -1    0    0    0    0  0.00000000000E+00  0.00000000000E+00  0.39999999673E+01  0.40000000000E+01  0.51109989000E-03 0.  1.
     -623   -1    0    0    0    0  0.00000000000E+00  0.00000000000E+00  0.12525980253E-10  0.17130000000E+03  0.17130000000E+03 0. -1.
       11    1    1    2    0    0  0.13881871623E-01  0.53582626961E-02  0.74532284705E-01  0.76004868432E-01  0.51109989000E-03 0.  1.
     -623    1    1    2    0    0 -0.21232068676E-01 -0.14908636414E-02  0.27571071989E-02  0.17130000134E+03  0.17130000000E+03 0. -1.
      622    1    1    2    0    0  0.73501970536E-02 -0.38673990546E-02  0.39227105756E+01  0.39239937873E+01  0.10000000000E+00 0.  1.
</event>
<event>
 5   0  0.6262544E+06  0.9118800E+02  0.7818608E-02  0.1180000E+00
       11   -1    0    0    0    0  0.00000000000E+00  0.00000000000E+00  0.39999999673E+01  0.40000000000E+01  0.51109989000E-03 0.  1.
     -623   -1    0    0    0    0  0.00000000000E+00  0.00000000000E+00  0.12525980253E-10  0.17130000000E+03  0.17130000000E+03 0.  1.
       11    1    1    2    0    0 -0.21781555857E-02 -0.13723318182E-01  0.11112969265E+00  0.11199617688E+00  0.51109989000E-03 0.  1.
     -623    1    1    2    0    0  0.49365446010E-02  0.69709373934E-03  0.21755650875E-02  0.17130000009E+03  0.17130000000E+03 0.  1.
      622    1    1    2    0    0 -0.27583890152E-02  0.13026224443E-01  0.38866947095E+01  0.38880037366E+01  0.10000000000E+00 0.  1.
</event>
<event>
 5   0  0.6262544E+06  0.9118800E+02  0.7818608E-02  0.1180000E+00
       11   -1    0    0    0    0  0.00000000000E+00  0.00000000000E+00  0.39999999673E+01  0.40000000000E+01  0.51109989000E-03 0.  1.
     -623   -1    0    0    0    0  0.00000000000E+00  0.00000000000E+00  0.12525980253E-10  0.17130000000E+03  0.17130000000E+03 0.  1.
       11    1    1    2    0    0 -0.20110571811E-02  0.35579130477E-02  0.10569652610E-01  0.11343803402E-01  0.51109989000E-03 0.  1.
     -623    1    1    2    0    0  0.11723806184E-01 -0.22333068865E-02  0.20403477294E-02  0.17130000043E+03  0.17130000000E+03 0.  1.
      622    1    1    2    0    0 -0.97127490027E-02 -0.13246061611E-02  0.39873899671E+01  0.39886557688E+01  0.10000000000E+00 0.  1.
</event>
<event>
 5   0  0.6262544E+06  0.9118800E+02  0.7818608E-02  0.1180000E+00
       11   -1    0    0    0    0  0.00000000000E+00  0.00000000000E+00  0.39999999673E+01  0.40000000000E+01  0.51109989000E-03 0.  1.
     -623   -1    0    0    0    0  0.00000000000E+00  0.00000000000E+00  0.12525980253E-10  0.17130000000E+03  0.17130000000E+03 0. -1.
       11    1    1    2    0    0 -0.40191383894E-01 -0.52296139417E-02  0.55618393393E+00  0.55765896907E+00  0.51109989000E-03 0.  1.
     -623    1    1    2    0    0 -0.27683122197E-03 -0.32628756496E-02  0.31763318380E-02  0.17130000006E+03  0.17130000000E+03 0. -1.
      622    1    1    2    0    0  0.40468215116E-01  0.84924895913E-02  0.34406397016E+01  0.34423409702E+01  0.10000000000E+00 0.  1.
</event>
<event>
 5   0  0.6262544E+06  0.9118800E+02  0.7818608E-02  0.1180000E+00
       11   -1    0    0    0    0  0.00000000000E+00  0.00000000000E+00  0.39999999673E+01  0.40000000000E+01  0.51109989000E-03 0. -1.
     -623   -1    0    0    0    0  0.00000000000E+00  0.00000000000E+00  0.12525980253E-10  0.17130000000E+03  0.17130000000E+03 0. -1.
       11    1    1    2    0    0 -0.21479790903E-01 -0.43565178240E-01  0.11813344549E+00  0.12773049102E+00  0.51109989000E-03 0. -1.
     -623    1    1    2    0    0  0.81345742044E-01  0.24684605686E-01  0.11418945760E-01  0.17130002147E+03  0.17130000000E+03 0. -1.
      622    1    1    2    0    0 -0.59865951140E-01  0.18880572555E-01  0.38704475761E+01  0.38722480354E+01  0.10000000000E+00 0. -1.
</event>
<event>
 5   0  0.6262544E+06  0.9118800E+02  0.7818608E-02  0.1180000E+00
       11   -1    0    0    0    0  0.00000000000E+00  0.00000000000E+00  0.39999999673E+01  0.40000000000E+01  0.51109989000E-03 0. -1.
     -623   -1    0    0    0    0  0.00000000000E+00  0.00000000000E+00  0.12525980253E-10  0.17130000000E+03  0.17130000000E+03 0. -1.
       11    1    1    2    0    0 -0.51008574378E-02  0.41419353176E-02  0.14620942127E-01  0.16037691434E-01  0.51109989000E-03 0. -1.
     -623    1    1    2    0    0  0.23033956754E-02 -0.48216559171E-02  0.26730910735E-02  0.17130000010E+03  0.17130000000E+03 0. -1.
      622    1    1    2    0    0  0.27974617623E-02  0.67972059980E-03  0.39827059344E+01  0.39839622046E+01  0.10000000000E+00 0. -1.
</event>
</LesHouchesEvents>
