<LesHouchesEvents version="1.0">
<header>
<!--
#*********************************************************************
#                                                                    *
#                       MadGraph/MadEvent                            *
#                                                                    *
#                      The new web generation                        *
#                                                                    *
#                   http://madgraph.hep.uiuc.edu                     *
#                   http://madgraph.phys.ucl.ac.be                   *
#                   http://madgraph.roma2.infn.it                    *
#                                                                    *
#            CP3 team                      Tim Stelzer               *
#      Universite de Louvain          University of Illinois         *
#                                                                    *
#....................................................................*
#                                                                    *
# This file contains all the information necessary to reproduce      *
# the events generated:                                              *
#                                                                    *
# 1. software version                                                *
# 2. proc_card.dat      : code generation info including model       *
# 3. param_card.dat     : model primary parameters in the LH format  *
# 4. run_card.dat       : running parameters (collider and cuts)     *
# 5. pythia_card.dat    : present only in the pythia event file      *
# 6. pgs_card.dat       : present only in the pgs event file         *
#                                                                    *
#                                                                    *
#*********************************************************************
-->
<MGVersion>
# MG/ME version    : 4.4.17
# madgraph version : 4.4.2
# template version : 2.4.8
# helas version    : 3.5
# model version    : usrmod_1.0.4
</MGVersion>
<MGProcCard>
#*********************************************************************
#                        MadGraph/MadEvent                           *
#                   http://madgraph.hep.uiuc.edu                     *
#                                                                    *
#                          proc_card.dat                             *
#                                                                    *
# This file is used to generate the code for a specific process.     *
# Some notation/conventions:                                         *
#                                                                    *
# 0. Do not modify the TAGS and their order.                         *
# 1. hash/pound is a comment.                                        *
# 2. The number after the @ is used as an identifier for the class   *
#    of processes. It can be any positive integer.                   *
# 3. The number of lines for the max couplings depends on how many   *
#    different classes of couplings are present in the model         *
#    In the SM these are just two: QED (which include EW) and QCD    *
# 4. Write "end_coup" after  the couplings list,                     *
#    to tell MG that the couplings input is over.                    *
# 5. Write "done" after the proc list to                             *
#    to tell MG that the proc input is over.                         *
# 6. Some model names available at present are:                      *
#    sm     =  Standard Model                                        *
#    smckm =  Standard Model with Cabibbo matrix                     *
#    mssm   =  Minimal Supersymmetric Standard Model                 *
#    2hdm   =  Generic Two Higgs Doublet model                       *
#    heft   =  Higgs EFT (+Standard Model)                           *
#    usrmod =  User Model                                            *
# 7. Don't leave spaces between the particles name in the            *
#    definition of the multiparticles.                               *
#*********************************************************************
#*********************************************************************
# Process(es) requested : mg2 input                                  *
#*********************************************************************
# Begin PROCESS # This is TAG. Do not modify this line
e- N+ > e- N+ x      # Radiative
QCD=0             # Max QCD couplings
QED=1             # Max QED couplings
QFD=0 
QND=1
QWD=9
QDS=2
end_coup           # End the couplings input
done               # this tells MG there are no more procs
# End PROCESS  # This is TAG. Do not modify this line
#*********************************************************************
# Model information                                                  *
#*********************************************************************
# Begin MODEL  # This is TAG. Do not modify this line
fixedAP2     
# End   MODEL  # This is TAG. Do not modify this line
#*********************************************************************
# Start multiparticle definitions                                    *
#*********************************************************************
# Begin MULTIPARTICLES # This is TAG. Do not modify this line
P uu~cc~dd~ss~gf+f-
J uu~cc~dd~ss~gf+f-
L+ e+mu+
L- e-mu-
vl vevm
vl~ ve~vm~
# End  MULTIPARTICLES # This is TAG. Do not modify this line
</MGProcCard>
<slha>
#*********************************************************************
#                        MadGraph/MadEvent                           *
#                   http://madgraph.hep.uiuc.edu                     *
#                                                                    *
#                         param_card.dat                             *
#                                                                    *
#   Les Houches friendly file for the SM parameters of MadGraph      *
#        Spectrum and decay widths produced by SMCalc                *
#                                                                    *
#  Please note the following IMPORTANT issues:                       *
#                                                                    *
# 0. REFRAIN from editing this file by hand! Some of the parame-     *
#    ters are not independent                                        *
#    (such as G_Fermi, alpha_em, sin(theta_W),MZ,MW) and serious     *
#    problems might be encountered (such as violation of unitarity   *
#    or gauge invariance).  Always use a calculator.                 *
#                                                                    *
# 1. alpha_S(MZ) has been used in the calculation of the parameters  *
#    but, for consistency, it will be reset by madgraph to the       *
#    value expected IF the pdfs for collisions with hadrons are      *
#    used. This value is KEPT by madgraph when no pdf are used       *
#    lpp(i)=0 .                                                      *
#                                                                    *
#  2. Values of the charm and bottom kinematic (pole) masses are     *
#     those used in the matrix elements and phase space UNLESS they  *
#     are set to ZERO from the start in the model (particles.dat)    *
#     This happens, for example,  when using 5-flavor QCD where      *
#     charm and bottom are treated as partons in the initial state   *
#     and a zero mass might be hardwired in the model definition.    *
#                                                                    *
##********************************************************************
Block MODSEL # Select Model
     0   1   #  0 1 = SM
Block SMINPUTS      # Standard Model inputs
     1         1.27900000E+02   # alpha_em(MZ)(-1) SM MSbar
     2         1.16600000E-05   # G_Fermi
     3         1.18000000E-01   # alpha_s(MZ) SM MSbar
     4         9.15445065E+01   # Z mass (as input parameter)
Block MGYUKAWA     # Yukawa masses m/v=y/sqrt(2)
#    PDG          YMASS
     5         4.20000000E+00   # mbottom for the Yukawa  y_b
     4         1.25000000E+00   # mcharm  for the Yukawa  y_c
     6         1.74300000E+02   # mtop    for the Yukawa  y_t
    15         1.77700000E+00   # mtau    for the Yukawa  y_ta
Block MGCKM     # CKM elements for MadGraph
     1   1     9.75000000E-01   # Vud for Cabibbo matrix
#===========================================================
# QUANTUM NUMBERS OF NEW STATE(S) (NON SM PDG CODE) IF ANY
# (see below for masses and decay tables)
# These blocks are automatically created by the MadGraph
# qnumbers.pl script from the particles.dat model file
#===========================================================
BLOCK QNUMBERS 611 # f-
         1  -3 # 3 times electric charge
         2  2 # number of spin states (2S+1)
         3  1 # colour rep (1: singlet, 3: triplet, 8: octet)
         4  1 # Particle/Antiparticle distinction (0=own anti)
BLOCK QNUMBERS 622 # x
         1  0 # 3 times electric charge
         2  3 # number of spin states (2S+1)
         3  1 # colour rep (1: singlet, 3: triplet, 8: octet)
         4  0 # Particle/Antiparticle distinction (0=own anti)
BLOCK QNUMBERS 623 # N-
         1  0 # 3 times electric charge
         2  2 # number of spin states (2S+1)
         3  1 # colour rep (1: singlet, 3: triplet, 8: octet)
         4  1 # Particle/Antiparticle distinction (0=own anti)
# END of QNUMBERS blocks
#===========================================================
Block MASS      #  Mass spectrum (kinematic masses)
#       PDG       Mass
         4     1.40000000E+00   # charm    pole mass
         5     4.20000000E+00   # bottom   pole mass
         6     1.74300000E+02   # top      pole mass
        11     0.51109989E-03   # electron mass
        13     0.10565837E+00   # muon     mass
        15     1.77700000E+00   # tau      mass
        23     9.15445065E+01   # Z        mass
        24     8.02673592E+01   # W        mass
        25     1.20000000E+02   # H        mass
       611 1.0 # FMASS
       622 3.0 # APMASS
       623     1.71300000e+02   # HPMASS (tungsten)
#            PDG       Width
DECAY       611     0.00000000e+00   # ELWIDTH
DECAY 622 0.09109906575 # APWIDTH
DECAY       623     0.00000000e+00   # HPWIDTH
DECAY         6     1.51013490E+00   # top width
DECAY        23     2.44639985E+00   # Z   width
DECAY        24     2.03535570E+00   # W   width
DECAY        25     6.79485838E-03   # H   width
#        BR           NDA        ID1       ID2
     7.00588389E-02    2           4        -4   # BR( H -> c  cbar  )
     7.61074375E-01    2           5        -5   # BR( H -> b  bbar  )
     0.00000000E+00    2           6        -6   # BR( H -> t  tbar  )
     3.65529942E-02    2          15       -15   # BR( H -> tau- tau+)
     5.84716539E-03    2          23        23   # BR( H -> Z   Z^(*))
     6.31545979E-02    2          24       -24   # BR( H -> W   W^(*))
     2.55499652E-02    2          21        21   # BR( H -> g   g    )
     1.20906932E-03    2          22        22   # BR( H -> A   A    )
BLOCK MGUSER
         1     1.00000000e-00   # epsilon ,mixing coefficient
         2     74.0000000e+00   # Znuc    ,nuclear charge
</slha>
<MGRunCard>
#*********************************************************************
#                       MadGraph/MadEvent                            *
#                  http://madgraph.hep.uiuc.edu                      *
#                                                                    *
#                        run_card.dat                                *
#                                                                    *
#  This file is used to set the parameters of the run.               *
#                                                                    *
#  Some notation/conventions:                                        *
#                                                                    *
#   Lines starting with a '# ' are info or comments                  *
#                                                                    *
#   mind the format:   value    = variable     ! comment             *
#*********************************************************************
#
#*******************                                                 
# Running parameters
#*******************                                                 
#                                                                    
#*********************************************************************
# Tag name for the run (one word)                                    *
#*********************************************************************
  'HPS'     = run_tag ! name of the run 
#*********************************************************************
# Run to generate the grid pack                                      *
#*********************************************************************
  .false.     = gridpack  !True = setting up the grid pack
#*********************************************************************
# Number of events and rnd seed                                      *
#*********************************************************************
   1000      = nevents ! Number of unweighted events requested 
188728 = iseed ! rnd seed (0=assigned automatically=default))
#*********************************************************************
# Collider type and energy                                           *
#*********************************************************************
        0     = lpp1  ! beam 1 type (0=NO PDF)
        0     = lpp2  ! beam 2 type (0=NO PDF)
4 = ebeam1  ! beam 1 energy in GeV
    171.3    = ebeam2  ! beam 2 energy in GeV
    0.000511  = mbeam1  ! beam 1 energy in GeV
    171.3    = mbeam2  ! beam 2 energy in GeV
#*********************************************************************
# Beam polarization from -100 (left-handed) to 100 (right-handed)    *
#*********************************************************************
        0     = polbeam1 ! beam polarization for beam 1
        0     = polbeam2 ! beam polarization for beam 2
#*********************************************************************
# PDF CHOICE: this automatically fixes also alpha_s and its evol.    *
#*********************************************************************
 'cteq6l1'    = pdlabel     ! PDF set                                     
#*********************************************************************
# Renormalization and factorization scales                           *
#*********************************************************************
 F        = fixed_ren_scale  ! if .true. use fixed ren scale
 F        = fixed_fac_scale  ! if .true. use fixed fac scale
 91.1880  = scale            ! fixed ren scale
 91.1880  = dsqrt_q2fact1    ! fixed fact scale for pdf1
 91.1880  = dsqrt_q2fact2    ! fixed fact scale for pdf2
 1        = scalefact        ! scale factor for event-by-event scales
 F        = fixed_couplings  ! if .false. calc. coupl. for every event
#*********************************************************************
# Matching - Warning! ickkw > 0 is still beta
#*********************************************************************
 0        = ickkw            ! 0 no matching, 1 MLM, 2 CKKW matching
#*********************************************************************
#                                                                    
#**********************************
32.9311829414 = bwcutoff*Gamma)
#**********************************
32.9311829414 = bwcutoff
#*******************                                                 
# Fixed-Target Cuts
#*******************                                                 
#
 0.0 = ef        ! minimum E for all f's
 100.0 = efmax     ! maximum E for all f's
 0.0 = thetafmin ! min angle for both f's
 100.0 = thetafmax ! max angle for both f's
 0.0 = thetaxfmin ! min angle (x direction) for both f's
 100.0 = thetaxfmax ! max angle (x direction) for both f's 
 0.0 = thetayfmin ! min angle (y direction) for both f's
 100.0 = thetayfmax ! max angle (y direction) for both f's 
 0.0 = xthetaxfmin ! min angle (x direction) for >=1 f's
 100.0 = xthetaxfmax ! max angle (x direction) for >=1 f's 
 0.0 = xthetayfmin ! min angle (y direction) for >=1 f's
 100.0 = xthetayfmax ! max angle (y direction) for >=1 f's 
 0.0 = mmff      ! min invariant mass of f+f- lepton pair
 100.0 = mmffmax  ! max invariant mass of f+f- lepton pair
 0.0 = xef       ! min. energy for at least one f
 0.0 = xthetaf   ! minimum angle for at least one f
 0.0 = eftot     ! minimum energy for the two f's
 0d0 = efrat     ! min. ratio Emin/Emax for the two f's
 0.0  = el     !!! 0.2 = el  !!! was 0.05 with normal cuts! minimum E for the charged leptons 
 0.0  = drll  !!! was 0.1  ! min distance between leptons 
 0.0  = mmll    ! min invariant mass of l+l- (same flavour) lepton pair
#
#*******************                                                 
# Standard Cuts
#*******************                                                 
#                                                                    
#*********************************************************************
# Minimum and maximum pt's                                           *
#*********************************************************************
  0  = ptj       ! minimum pt for the jets 
  0  = ptb       ! minimum pt for the b 
  0  = pta       ! minimum pt for the photons 
  0  = ptl       ! minimum pt for the charged leptons 
  0  = misset    ! minimum missing Et (sum of neutrino's momenta)
  0  = ptheavy   ! minimum pt for one heavy final state
 1.0 = ptonium   ! minimum pt for the quarkonium states
 1d5 = ptjmax    ! maximum pt for the jets
 1d5 = ptbmax    ! maximum pt for the b
 1d5 = ptamax    ! maximum pt for the photons
 1d9 = ptlmax    ! maximum pt for the charged leptons
 1d9 = missetmax ! maximum missing Et (sum of neutrino's momenta)
#*********************************************************************
# Minimum and maximum E's (in the lab frame)                         *
#*********************************************************************
  0  = ej     ! minimum E for the jets 
  0  = eb     ! minimum E for the b 
  0  = ea     ! minimum E for the photons 
 1d5  = ejmax ! maximum E for the jets
 1d5  = ebmax ! maximum E for the b
 1d5  = eamax ! maximum E for the photons
 1.2  = elmax ! maximum E for the charged leptons
#*********************************************************************
# Maximum and minimum rapidity                                       *
#*********************************************************************
 1d5  = etaj    ! max rap for the jets 
 1d5  = etab    ! max rap for the b 
 1d5  = etaa    ! max rap for the photons 
 1d5  = etal     !!! 1(2) wth cuts ! max rap for the charged leptons 
 1d5  = etafl     !!! 0(1) wth cuts ! max rap for the charged leptons 
 0.0  = etaonium ! max rap for the quarkonium states
 0d0  = etajmin ! min rap for the jets
 0d0  = etabmin ! min rap for the b
 0d0  = etaamin ! min rap for the photons
 0d0  = etalmin ! main rap for the charged lepton
#*********************************************************************
# Minimum and maximum DeltaR distance                                *
#*********************************************************************
 0   = drjj    ! min distance between jets 
 0   = drbb    ! min distance between b's 
 0   = draa    ! min distance between gammas 
 0   = drbj    ! min distance between b and jet 
 0   = draj    ! min distance between gamma and jet 
 0   = drjl    ! min distance between jet and lepton 
 0   = drab    ! min distance between gamma and b 
 0   = drbl    ! min distance between b and lepton 
 0   = dral    ! min distance between gamma and lepton 
 1d2 = drjjmax ! max distance between jets
 1d2 = drbbmax ! max distance between b's
 1d9 = drllmax ! max distance between leptons
 1d2 = draamax ! max distance between gammas
 1d2 = drbjmax ! max distance between b and jet
 1d2 = drajmax ! max distance between gamma and jet
 1d2 = drjlmax ! max distance between jet and lepton
 1d2 = drabmax ! max distance between gamma and b
 1d2 = drblmax ! max distance between b and lepton
 1d2 = dralmax ! maxdistance between gamma and lepton
#*********************************************************************
# Minimum and maximum invariant mass for pairs                       *
#*********************************************************************
 0   = mmjj    ! min invariant mass of a jet pair 
 0   = mmbb    ! min invariant mass of a b pair 
 0   = mmaa    ! min invariant mass of gamma gamma pair
 1d5 = mmjjmax ! max invariant mass of a jet pair
 1d5 = mmbbmax ! max invariant mass of a b pair
 1d5 = mmaamax ! max invariant mass of gamma gamma pair
 1d5 = mmllmax ! max invariant mass of l+l- (same flavour) lepton pair
#*********************************************************************
# Minimum and maximum invariant mass for all letpons                 *
#*********************************************************************
 0   = mmnl    ! min invariant mass for all letpons (l+- and vl) 
 1d9 = mmnlmax ! max invariant mass for all letpons (l+- and vl) 
#*********************************************************************
# Inclusive cuts                                                     *
#*********************************************************************
 0  = xptj ! minimum pt for at least one jet  
 0  = xptb ! minimum pt for at least one b 
 0  = xpta ! minimum pt for at least one photon 
 0  = xptl ! minimum pt for at least one charged lepton 
#*********************************************************************
# Control the pt's of the jets sorted by pt                          *
#*********************************************************************
 0   = ptj1min ! minimum pt for the leading jet in pt
 0   = ptj2min ! minimum pt for the second jet in pt
 0   = ptj3min ! minimum pt for the third jet in pt
 0   = ptj4min ! minimum pt for the fourth jet in pt
 1d5 = ptj1max ! maximum pt for the leading jet in pt 
 1d5 = ptj2max ! maximum pt for the second jet in pt
 1d5 = ptj3max ! maximum pt for the third jet in pt
 1d5 = ptj4max ! maximum pt for the fourth jet in pt
 0   = cutuse  ! reject event if fails any (0) / all (1) jet pt cuts
#*********************************************************************
# Control the Ht(k)=Sum of k leading jets                            *
#*********************************************************************
 0   = htjmin ! minimum jet HT=Sum(jet pt)
 1d5 = htjmax ! maximum jet HT=Sum(jet pt)
 0   = ht2min ! minimum Ht for the two leading jets
 0   = ht3min ! minimum Ht for the three leading jets
 0   = ht4min ! minimum Ht for the four leading jets
 1d5 = ht2max ! maximum Ht for the two leading jets
 1d5 = ht3max ! maximum Ht for the three leading jets
 1d5 = ht4max ! maximum Ht for the four leading jets
#*********************************************************************
# WBF cuts                                                           *
#*********************************************************************
 0   = xetamin ! minimum rapidity for two jets in the WBF case  
 0   = deltaeta ! minimum rapidity for two jets in the WBF case 
#*********************************************************************
# maximal pdg code for quark to be considered as a jet               *
# otherwise b cuts are applied                                       *
#*********************************************************************
 4 = maxjetflavor
#*********************************************************************
# Jet measure cuts                                                   *
#*********************************************************************
 0   = xqcut   ! minimum kt jet measure between partons
#*********************************************************************
</MGRunCard>
<MGGenerationInfo>
#  Number of Events        :        1000
#  Integrated weight (pb)  :  .74958E-02
#  Truncated wgt (pb)      :  .25317E-04
#  Unit wgt                :  .74958E-05
</MGGenerationInfo>
</header>
<init>
       11     -623  0.40000000000E+01  0.17130000000E+03 0 0     0     0 3  1
  0.74957521250E-02  0.77510504944E-04  0.74958000000E-05   0
</init>
<event>
 5   0  0.7495800E-05  0.9118800E+02  0.7818608E-02  0.1180000E+00
       11   -1    0    0    0    0  0.00000000000E+00  0.00000000000E+00  0.39999999673E+01  0.40000000000E+01  0.51109989000E-03 0.  1.
     -623   -1    0    0    0    0  0.00000000000E+00  0.00000000000E+00  0.12525980253E-10  0.17130000000E+03  0.17130000000E+03 0.  1.
       11    1    1    2    0    0  0.14111598164E+00  0.19922562023E-02  0.15650874898E+00  0.21074377592E+00  0.51109989000E-03 0.  1.
     -623    1    1    2    0    0 -0.10002947303E+00  0.77972261424E+00  0.16825875788E+01  0.17131006705E+03  0.17130000000E+03 0.  1.
      622    1    1    2    0    0 -0.41086508609E-01 -0.78171487044E+00  0.21609036396E+01  0.37791891696E+01  0.30000000000E+01 0.  1.
</event>
<event>
 5   0  0.7495800E-05  0.9118800E+02  0.7818608E-02  0.1180000E+00
       11   -1    0    0    0    0  0.00000000000E+00  0.00000000000E+00  0.39999999673E+01  0.40000000000E+01  0.51109989000E-03 0.  1.
     -623   -1    0    0    0    0  0.00000000000E+00  0.00000000000E+00  0.12525980253E-10  0.17130000000E+03  0.17130000000E+03 0. -1.
       11    1    1    2    0    0  0.37994337377E+00  0.16291594414E-01 -0.17506956544E+00  0.41865498598E+00  0.51109989000E-03 0.  1.
     -623    1    1    2    0    0 -0.87659852145E+00 -0.67686400358E+00  0.24450907442E+01  0.17132102918E+03  0.17130000000E+03 0. -1.
      622    1    1    2    0    0  0.49665514768E+00  0.66057240917E+00  0.17299787886E+01  0.35603158361E+01  0.30000000000E+01 0.  0.
</event>
<event>
 5   0  0.7495800E-05  0.9118800E+02  0.7818608E-02  0.1180000E+00
       11   -1    0    0    0    0  0.00000000000E+00  0.00000000000E+00  0.39999999673E+01  0.40000000000E+01  0.51109989000E-03 0. -1.
     -623   -1    0    0    0    0  0.00000000000E+00  0.00000000000E+00  0.12525980253E-10  0.17130000000E+03  0.17130000000E+03 0. -1.
       11    1    1    2    0    0 -0.51352922590E+00  0.11783808396E+00  0.93972671376E-01  0.53519081090E+00  0.51109989000E-03 0. -1.
     -623    1    1    2    0    0  0.62243426417E+00 -0.48760107336E+00  0.22502699839E+01  0.17131660426E+03  0.17130000000E+03 0. -1.
      622    1    1    2    0    0 -0.10890503827E+00  0.36976298940E+00  0.16557573121E+01  0.34482049319E+01  0.30000000000E+01 0. -1.
</event>
<event>
 5   0  0.7495800E-05  0.9118800E+02  0.7818608E-02  0.1180000E+00
       11   -1    0    0    0    0  0.00000000000E+00  0.00000000000E+00  0.39999999673E+01  0.40000000000E+01  0.51109989000E-03 0. -1.
     -623   -1    0    0    0    0  0.00000000000E+00  0.00000000000E+00  0.12525980253E-10  0.17130000000E+03  0.17130000000E+03 0.  1.
       11    1    1    2    0    0  0.37202261014E+00  0.33427040450E+00 -0.40734469322E+00  0.64503293412E+00  0.51109989000E-03 0. -1.
     -623    1    1    2    0    0 -0.51984040325E+00  0.75697894453E-01  0.30359436846E+01  0.17132770622E+03  0.17130000000E+03 0.  1.
      622    1    1    2    0    0  0.14781779312E+00 -0.40996829895E+00  0.13714009760E+01  0.33272608469E+01  0.30000000000E+01 0. -1.
</event>
<event>
 5   0  0.7495800E-05  0.9118800E+02  0.7818608E-02  0.1180000E+00
       11   -1    0    0    0    0  0.00000000000E+00  0.00000000000E+00  0.39999999673E+01  0.40000000000E+01  0.51109989000E-03 0. -1.
     -623   -1    0    0    0    0  0.00000000000E+00  0.00000000000E+00  0.12525980253E-10  0.17130000000E+03  0.17130000000E+03 0. -1.
       11    1    1    2    0    0  0.46014448059E-01  0.53121776974E-01 -0.71867478585E-01  0.10052088500E+00  0.51109989000E-03 0. -1.
     -623    1    1    2    0    0  0.25233117987E+00 -0.27252303816E-01  0.16110196380E+01  0.17130776339E+03  0.17130000000E+03 0. -1.
      622    1    1    2    0    0 -0.29834562793E+00 -0.25869473158E-01  0.24608478080E+01  0.38917157241E+01  0.30000000000E+01 0. -1.
</event>
<event>
 5   0  0.7495800E-05  0.9118800E+02  0.7818608E-02  0.1180000E+00
       11   -1    0    0    0    0  0.00000000000E+00  0.00000000000E+00  0.39999999673E+01  0.40000000000E+01  0.51109989000E-03 0. -1.
     -623   -1    0    0    0    0  0.00000000000E+00  0.00000000000E+00  0.12525980253E-10  0.17130000000E+03  0.17130000000E+03 0. -1.
       11    1    1    2    0    0  0.78548552569E-01 -0.86291699187E-01 -0.20713792896E-01  0.11851352201E+00  0.51109989000E-03 0. -1.
     -623    1    1    2    0    0  0.22811840966E+00 -0.33786765729E+00  0.16273314227E+01  0.17130821463E+03  0.17130000000E+03 0. -1.
      622    1    1    2    0    0 -0.30666696223E+00  0.42415935647E+00  0.23933823376E+01  0.38732718468E+01  0.30000000000E+01 0. -1.
</event>
<event>
 5   0  0.7495800E-05  0.9118800E+02  0.7818608E-02  0.1180000E+00
       11   -1    0    0    0    0  0.00000000000E+00  0.00000000000E+00  0.39999999673E+01  0.40000000000E+01  0.51109989000E-03 0. -1.
     -623   -1    0    0    0    0  0.00000000000E+00  0.00000000000E+00  0.12525980253E-10  0.17130000000E+03  0.17130000000E+03 0.  1.
       11    1    1    2    0    0  0.25600603737E+00 -0.19231874780E-01  0.62917485301E-01  0.26432523027E+00  0.51109989000E-03 0. -1.
     -623    1    1    2    0    0 -0.50633652694E+00 -0.71244961635E+00  0.18720611109E+01  0.17131245890E+03  0.17130000000E+03 0.  1.
      622    1    1    2    0    0  0.25033048957E+00  0.73168149113E+00  0.20650213712E+01  0.37232158710E+01  0.30000000000E+01 0. -1.
</event>
<event>
 5   0  0.7495800E-05  0.9118800E+02  0.7818608E-02  0.1180000E+00
       11   -1    0    0    0    0  0.00000000000E+00  0.00000000000E+00  0.39999999673E+01  0.40000000000E+01  0.51109989000E-03 0. -1.
     -623   -1    0    0    0    0  0.00000000000E+00  0.00000000000E+00  0.12525980253E-10  0.17130000000E+03  0.17130000000E+03 0. -1.
       11    1    1    2    0    0  0.14820941831E+00 -0.10578275377E+00  0.29287024367E-01  0.18442888518E+00  0.51109989000E-03 0. -1.
     -623    1    1    2    0    0 -0.80294132828E+00 -0.34691214129E+00  0.17711228908E+01  0.17131138882E+03  0.17130000000E+03 0. -1.
      622    1    1    2    0    0  0.65473190997E+00  0.45269489505E+00  0.21995900522E+01  0.38041822958E+01  0.30000000000E+01 0. -1.
</event>
<event>
 5   0  0.7495800E-05  0.9118800E+02  0.7818608E-02  0.1180000E+00
       11   -1    0    0    0    0  0.00000000000E+00  0.00000000000E+00  0.39999999673E+01  0.40000000000E+01  0.51109989000E-03 0.  1.
     -623   -1    0    0    0    0  0.00000000000E+00  0.00000000000E+00  0.12525980253E-10  0.17130000000E+03  0.17130000000E+03 0. -1.
       11    1    1    2    0    0 -0.55144899979E+00  0.70517186128E+00  0.31837588172E-01  0.89575512644E+00  0.51109989000E-03 0.  1.
     -623    1    1    2    0    0  0.86142173835E+00 -0.22702262657E+00  0.37612470969E+01  0.17134360381E+03  0.17130000000E+03 0. -1.
      622    1    1    2    0    0 -0.30997273856E+00 -0.47814923471E+00  0.20691528227E+00  0.30606410641E+01  0.30000000000E+01 0.  1.
</event>
<event>
 5   0  0.7495800E-05  0.9118800E+02  0.7818608E-02  0.1180000E+00
       11   -1    0    0    0    0  0.00000000000E+00  0.00000000000E+00  0.39999999673E+01  0.40000000000E+01  0.51109989000E-03 0. -1.
     -623   -1    0    0    0    0  0.00000000000E+00  0.00000000000E+00  0.12525980253E-10  0.17130000000E+03  0.17130000000E+03 0. -1.
       11    1    1    2    0    0  0.12893227313E+00  0.41860657979E+00  0.21912686452E-01  0.43856063064E+00  0.51109989000E-03 0. -1.
     -623    1    1    2    0    0 -0.27238840781E+00 -0.37581579198E+00  0.20896059284E+01  0.17131337334E+03  0.17130000000E+03 0. -1.
      622    1    1    2    0    0  0.14345613468E+00 -0.42790787814E-01  0.18884813525E+01  0.35480660271E+01  0.30000000000E+01 0. -1.
</event>
<event>
 5   0  0.7495800E-05  0.9118800E+02  0.7818608E-02  0.1180000E+00
       11   -1    0    0    0    0  0.00000000000E+00  0.00000000000E+00  0.39999999673E+01  0.40000000000E+01  0.51109989000E-03 0. -1.
     -623   -1    0    0    0    0  0.00000000000E+00  0.00000000000E+00  0.12525980253E-10  0.17130000000E+03  0.17130000000E+03 0.  1.
       11    1    1    2    0    0 -0.92355771844E-01  0.26723723352E+00  0.22245216755E+00  0.35976458364E+00  0.51109989000E-03 0. -1.
     -623    1    1    2    0    0  0.37919452615E+00 -0.45169872063E+00  0.17621731302E+01  0.17131007873E+03  0.17130000000E+03 0.  1.
      622    1    1    2    0    0 -0.28683875431E+00  0.18446148710E+00  0.20153746696E+01  0.36301566867E+01  0.30000000000E+01 0. -1.
</event>
<event>
 5   0  0.7495800E-05  0.9118800E+02  0.7818608E-02  0.1180000E+00
       11   -1    0    0    0    0  0.00000000000E+00  0.00000000000E+00  0.39999999673E+01  0.40000000000E+01  0.51109989000E-03 0. -1.
     -623   -1    0    0    0    0  0.00000000000E+00  0.00000000000E+00  0.12525980253E-10  0.17130000000E+03  0.17130000000E+03 0.  1.
       11    1    1    2    0    0 -0.30023668028E+00 -0.31925694567E+00 -0.69399022124E-01  0.44371561505E+00  0.51109989000E-03 0. -1.
     -623    1    1    2    0    0  0.70558780819E+00  0.67876550048E+00  0.22730803262E+01  0.17131787843E+03  0.17130000000E+03 0.  1.
      622    1    1    2    0    0 -0.40535112791E+00 -0.35950855481E+00  0.17963186632E+01  0.35384059515E+01  0.30000000000E+01 0.  0.
</event>
<event>
 5   0  0.7495800E-05  0.9118800E+02  0.7818608E-02  0.1180000E+00
       11   -1    0    0    0    0  0.00000000000E+00  0.00000000000E+00  0.39999999673E+01  0.40000000000E+01  0.51109989000E-03 0. -1.
     -623   -1    0    0    0    0  0.00000000000E+00  0.00000000000E+00  0.12525980253E-10  0.17130000000E+03  0.17130000000E+03 0.  1.
       11    1    1    2    0    0 -0.99561100504E-01  0.96143511112E-01  0.61875604321E-01  0.15160751662E+00  0.51109989000E-03 0. -1.
     -623    1    1    2    0    0 -0.14562545761E+01 -0.20850702562E+00  0.21421215838E+01  0.17131970942E+03  0.17130000000E+03 0.  1.
      622    1    1    2    0    0  0.15558156766E+01  0.11236351451E+00  0.17960027792E+01  0.38286830584E+01  0.30000000000E+01 0. -1.
</event>
<event>
 5   0  0.7495800E-05  0.9118800E+02  0.7818608E-02  0.1180000E+00
       11   -1    0    0    0    0  0.00000000000E+00  0.00000000000E+00  0.39999999673E+01  0.40000000000E+01  0.51109989000E-03 0. -1.
     -623   -1    0    0    0    0  0.00000000000E+00  0.00000000000E+00  0.12525980253E-10  0.17130000000E+03  0.17130000000E+03 0. -1.
       11    1    1    2    0    0  0.28599522270E+00  0.69205338481E-01 -0.16317623601E+00  0.33646603321E+00  0.51109989000E-03 0. -1.
     -623    1    1    2    0    0 -0.18026118748E+01 -0.31506202848E+00  0.28137020932E+01  0.17133287949E+03  0.17130000000E+03 0. -1.
      622    1    1    2    0    0  0.15166166521E+01  0.24585669000E+00  0.13494741102E+01  0.36306544803E+01  0.30000000000E+01 0. -1.
</event>
<event>
 5   0  0.7495800E-05  0.9118800E+02  0.7818608E-02  0.1180000E+00
       11   -1    0    0    0    0  0.00000000000E+00  0.00000000000E+00  0.39999999673E+01  0.40000000000E+01  0.51109989000E-03 0. -1.
     -623   -1    0    0    0    0  0.00000000000E+00  0.00000000000E+00  0.12525980253E-10  0.17130000000E+03  0.17130000000E+03 0. -1.
       11    1    1    2    0    0  0.11382175314E+00  0.42584697287E+00  0.87981069150E-01  0.44949078472E+00  0.51109989000E-03 0. -1.
     -623    1    1    2    0    0 -0.10321112131E+01 -0.13385706102E+01  0.25960828303E+01  0.17132800901E+03  0.17130000000E+03 0. -1.
      622    1    1    2    0    0  0.91828945992E+00  0.91272363736E+00  0.13159360679E+01  0.35225002066E+01  0.30000000000E+01 0. -1.
</event>
<event>
 5   0  0.7495800E-05  0.9118800E+02  0.7818608E-02  0.1180000E+00
       11   -1    0    0    0    0  0.00000000000E+00  0.00000000000E+00  0.39999999673E+01  0.40000000000E+01  0.51109989000E-03 0. -1.
     -623   -1    0    0    0    0  0.00000000000E+00  0.00000000000E+00  0.12525980253E-10  0.17130000000E+03  0.17130000000E+03 0. -1.
       11    1    1    2    0    0 -0.11921394760E+00 -0.71499133540E+00  0.59692457963E+00  0.93901213516E+00  0.51109989000E-03 0. -1.
     -623    1    1    2    0    0  0.27424560215E+00  0.64814156175E+00  0.37017133873E+01  0.17134143685E+03  0.17130000000E+03 0. -1.
      622    1    1    2    0    0 -0.15503165455E+00  0.66849773644E-01 -0.29863799955E+00  0.30195510198E+01  0.30000000000E+01 0.  1.
</event>
<event>
 5   0  0.7495800E-05  0.9118800E+02  0.7818608E-02  0.1180000E+00
       11   -1    0    0    0    0  0.00000000000E+00  0.00000000000E+00  0.39999999673E+01  0.40000000000E+01  0.51109989000E-03 0. -1.
     -623   -1    0    0    0    0  0.00000000000E+00  0.00000000000E+00  0.12525980253E-10  0.17130000000E+03  0.17130000000E+03 0.  1.
       11    1    1    2    0    0  0.42284585152E-01 -0.12448887871E+00 -0.18159688505E+00  0.22419446234E+00  0.51109989000E-03 0. -1.
     -623    1    1    2    0    0  0.68131323627E+00  0.57960980497E+00  0.20808516976E+01  0.17131497331E+03  0.17130000000E+03 0.  1.
      622    1    1    2    0    0 -0.72359782142E+00 -0.45512092626E+00  0.21007451548E+01  0.37608322311E+01  0.30000000000E+01 0. -1.
</event>
<event>
 5   0  0.7495800E-05  0.9118800E+02  0.7818608E-02  0.1180000E+00
       11   -1    0    0    0    0  0.00000000000E+00  0.00000000000E+00  0.39999999673E+01  0.40000000000E+01  0.51109989000E-03 0.  1.
     -623   -1    0    0    0    0  0.00000000000E+00  0.00000000000E+00  0.12525980253E-10  0.17130000000E+03  0.17130000000E+03 0.  1.
       11    1    1    2    0    0 -0.29601519422E+00 -0.39304441415E+00  0.35342363696E+00  0.60581963907E+00  0.51109989000E-03 0.  1.
     -623    1    1    2    0    0  0.79727776602E+00  0.13021717655E+01  0.25190057090E+01  0.17132532414E+03  0.17130000000E+03 0.  1.
      622    1    1    2    0    0 -0.50126257180E+00 -0.90912735140E+00  0.11275706214E+01  0.33688562173E+01  0.30000000000E+01 0.  1.
</event>
<event>
 5   0  0.7495800E-05  0.9118800E+02  0.7818608E-02  0.1180000E+00
       11   -1    0    0    0    0  0.00000000000E+00  0.00000000000E+00  0.39999999673E+01  0.40000000000E+01  0.51109989000E-03 0. -1.
     -623   -1    0    0    0    0  0.00000000000E+00  0.00000000000E+00  0.12525980253E-10  0.17130000000E+03  0.17130000000E+03 0.  1.
       11    1    1    2    0    0 -0.17590568034E+00 -0.44023340673E-01 -0.18673462844E+00  0.26029011810E+00  0.51109989000E-03 0. -1.
     -623    1    1    2    0    0 -0.16516865964E-01 -0.53473834313E+00  0.20619883073E+01  0.17131324530E+03  0.17130000000E+03 0.  1.
      622    1    1    2    0    0  0.19242254630E+00  0.57876168380E+00  0.21247462885E+01  0.37264645864E+01  0.30000000000E+01 0. -1.
</event>
<event>
 5   0  0.7495800E-05  0.9118800E+02  0.7818608E-02  0.1180000E+00
       11   -1    0    0    0    0  0.00000000000E+00  0.00000000000E+00  0.39999999673E+01  0.40000000000E+01  0.51109989000E-03 0. -1.
     -623   -1    0    0    0    0  0.00000000000E+00  0.00000000000E+00  0.12525980253E-10  0.17130000000E+03  0.17130000000E+03 0. -1.
       11    1    1    2    0    0  0.28084918332E+00  0.47653562428E-01  0.11480042560E+00  0.30712623582E+00  0.51109989000E-03 0. -1.
     -623    1    1    2    0    0 -0.58865386446E-01  0.27147323719E+00  0.17837634637E+01  0.17130951221E+03  0.17130000000E+03 0. -1.
      622    1    1    2    0    0 -0.22198379688E+00 -0.31912679962E+00  0.21014360781E+01  0.36833615503E+01  0.30000000000E+01 0. -1.
</event>
<event>
 5   0  0.7495800E-05  0.9118800E+02  0.7818608E-02  0.1180000E+00
       11   -1    0    0    0    0  0.00000000000E+00  0.00000000000E+00  0.39999999673E+01  0.40000000000E+01  0.51109989000E-03 0.  1.
     -623   -1    0    0    0    0  0.00000000000E+00  0.00000000000E+00  0.12525980253E-10  0.17130000000E+03  0.17130000000E+03 0.  1.
       11    1    1    2    0    0 -0.35019440212E+00  0.46061360266E-01  0.20869433872E-01  0.35382702367E+00  0.51109989000E-03 0.  1.
     -623    1    1    2    0    0 -0.99704430933E-01  0.15550015824E+00  0.19874279986E+01  0.17131162830E+03  0.17130000000E+03 0.  1.
      622    1    1    2    0    0  0.44989883306E+00 -0.20156151850E+00  0.19917025349E+01  0.36345446748E+01  0.30000000000E+01 0.  1.
</event>
<event>
 5   0  0.7495800E-05  0.9118800E+02  0.7818608E-02  0.1180000E+00
       11   -1    0    0    0    0  0.00000000000E+00  0.00000000000E+00  0.39999999673E+01  0.40000000000E+01  0.51109989000E-03 0.  1.
     -623   -1    0    0    0    0  0.00000000000E+00  0.00000000000E+00  0.12525980253E-10  0.17130000000E+03  0.17130000000E+03 0.  1.
       11    1    1    2    0    0 -0.60079017982E+00 -0.52752337960E-02 -0.25665740744E+00  0.65333755003E+00  0.51109989000E-03 0.  1.
     -623    1    1    2    0    0 -0.71108298643E-01 -0.19246661822E+00  0.30191509190E+01  0.17132672696E+03  0.17130000000E+03 0.  1.
      622    1    1    2    0    0  0.67189847847E+00  0.19774185201E+00  0.12375064558E+01  0.33199354864E+01  0.30000000000E+01 0.  1.
</event>
<event>
 5   0  0.7495800E-05  0.9118800E+02  0.7818608E-02  0.1180000E+00
       11   -1    0    0    0    0  0.00000000000E+00  0.00000000000E+00  0.39999999673E+01  0.40000000000E+01  0.51109989000E-03 0. -1.
     -623   -1    0    0    0    0  0.00000000000E+00  0.00000000000E+00  0.12525980253E-10  0.17130000000E+03  0.17130000000E+03 0.  1.
       11    1    1    2    0    0 -0.31025869402E-01 -0.25915639049E+00  0.36980737217E+00  0.45263936311E+00  0.51109989000E-03 0. -1.
     -623    1    1    2    0    0  0.36091281320E+00  0.87340735363E+00  0.18967519962E+01  0.17131310740E+03  0.17130000000E+03 0.  1.
      622    1    1    2    0    0 -0.32988694379E+00 -0.61425096314E+00  0.17334405990E+01  0.35342532382E+01  0.30000000000E+01 0. -1.
</event>
<event>
 5   0  0.7495800E-05  0.9118800E+02  0.7818608E-02  0.1180000E+00
       11   -1    0    0    0    0  0.00000000000E+00  0.00000000000E+00  0.39999999673E+01  0.40000000000E+01  0.51109989000E-03 0. -1.
     -623   -1    0    0    0    0  0.00000000000E+00  0.00000000000E+00  0.12525980253E-10  0.17130000000E+03  0.17130000000E+03 0. -1.
       11    1    1    2    0    0  0.71392818955E-01  0.10565061458E+00 -0.15481686906E-01  0.12844816391E+00  0.51109989000E-03 0. -1.
     -623    1    1    2    0    0 -0.40068651898E+00 -0.12765760957E+00  0.16034376256E+01  0.17130802041E+03  0.17130000000E+03 0. -1.
      622    1    1    2    0    0  0.32929370003E+00  0.22006994991E-01  0.24120440286E+01  0.38635314215E+01  0.30000000000E+01 0. -1.
</event>
<event>
 5   0  0.7495800E-05  0.9118800E+02  0.7818608E-02  0.1180000E+00
       11   -1    0    0    0    0  0.00000000000E+00  0.00000000000E+00  0.39999999673E+01  0.40000000000E+01  0.51109989000E-03 0.  1.
     -623   -1    0    0    0    0  0.00000000000E+00  0.00000000000E+00  0.12525980253E-10  0.17130000000E+03  0.17130000000E+03 0. -1.
       11    1    1    2    0    0  0.10654908056E+00 -0.59182849202E-01  0.18028425496E+00  0.21761891006E+00  0.51109989000E-03 0.  1.
     -623    1    1    2    0    0 -0.40152351180E+00  0.43583517515E+00  0.15803632545E+01  0.17130831481E+03  0.17130000000E+03 0. -1.
      622    1    1    2    0    0  0.29497443123E+00 -0.37665232595E+00  0.22393524579E+01  0.37740662846E+01  0.30000000000E+01 0.  1.
</event>
<event>
 5   0  0.7495800E-05  0.9118800E+02  0.7818608E-02  0.1180000E+00
       11   -1    0    0    0    0  0.00000000000E+00  0.00000000000E+00  0.39999999673E+01  0.40000000000E+01  0.51109989000E-03 0. -1.
     -623   -1    0    0    0    0  0.00000000000E+00  0.00000000000E+00  0.12525980253E-10  0.17130000000E+03  0.17130000000E+03 0.  1.
       11    1    1    2    0    0 -0.17782379709E+00 -0.25356103960E-01 -0.69293821358E-01  0.19252565991E+00  0.51109989000E-03 0. -1.
     -623    1    1    2    0    0  0.22179410238E+00  0.35768188694E+00  0.17646396526E+01  0.17130960592E+03  0.17130000000E+03 0.  1.
      622    1    1    2    0    0 -0.43970305287E-01 -0.33232578298E+00  0.23046541361E+01  0.37978684154E+01  0.30000000000E+01 0. -1.
</event>
<event>
 5   0  0.7495800E-05  0.9118800E+02  0.7818608E-02  0.1180000E+00
       11   -1    0    0    0    0  0.00000000000E+00  0.00000000000E+00  0.39999999673E+01  0.40000000000E+01  0.51109989000E-03 0.  1.
     -623   -1    0    0    0    0  0.00000000000E+00  0.00000000000E+00  0.12525980253E-10  0.17130000000E+03  0.17130000000E+03 0. -1.
       11    1    1    2    0    0 -0.13596949931E-01 -0.38151848757E+00  0.44538140268E+00  0.58660556465E+00  0.51109989000E-03 0.  1.
     -623    1    1    2    0    0 -0.14778308539E+01  0.57189381020E-01  0.33059284540E+01  0.17133828065E+03  0.17130000000E+03 0.  1.
      622    1    1    2    0    0  0.14914278038E+01  0.32432910655E+00  0.24869011070E+00  0.33751137810E+01  0.30000000000E+01 0.  0.
</event>
<event>
 5   0  0.7495800E-05  0.9118800E+02  0.7818608E-02  0.1180000E+00
       11   -1    0    0    0    0  0.00000000000E+00  0.00000000000E+00  0.39999999673E+01  0.40000000000E+01  0.51109989000E-03 0. -1.
     -623   -1    0    0    0    0  0.00000000000E+00  0.00000000000E+00  0.12525980253E-10  0.17130000000E+03  0.17130000000E+03 0.  1.
       11    1    1    2    0    0  0.13826836827E+00  0.37118018856E+00 -0.44825645607E+00  0.59818641381E+00  0.51109989000E-03 0. -1.
     -623    1    1    2    0    0 -0.13918012961E+01 -0.83276295187E+00  0.37734235659E+01  0.17134923207E+03  0.17130000000E+03 0.  1.
      622    1    1    2    0    0  0.12535329279E+01  0.46158276330E+00  0.67483285754E+00  0.33525815179E+01  0.30000000000E+01 0. -1.
</event>
<event>
 5   0  0.7495800E-05  0.9118800E+02  0.7818608E-02  0.1180000E+00
       11   -1    0    0    0    0  0.00000000000E+00  0.00000000000E+00  0.39999999673E+01  0.40000000000E+01  0.51109989000E-03 0. -1.
     -623   -1    0    0    0    0  0.00000000000E+00  0.00000000000E+00  0.12525980253E-10  0.17130000000E+03  0.17130000000E+03 0.  1.
       11    1    1    2    0    0 -0.16359539903E+00 -0.54995043134E+00  0.55771250443E+00  0.80015775341E+00  0.51109989000E-03 0. -1.
     -623    1    1    2    0    0 -0.47748610487E+00  0.25143171787E-01  0.28086230290E+01  0.17132369068E+03  0.17130000000E+03 0.  1.
      622    1    1    2    0    0  0.64108150390E+00  0.52480725955E+00  0.63366443391E+00  0.31761515658E+01  0.30000000000E+01 0. -1.
</event>
<event>
 5   0  0.7495800E-05  0.9118800E+02  0.7818608E-02  0.1180000E+00
       11   -1    0    0    0    0  0.00000000000E+00  0.00000000000E+00  0.39999999673E+01  0.40000000000E+01  0.51109989000E-03 0. -1.
     -623   -1    0    0    0    0  0.00000000000E+00  0.00000000000E+00  0.12525980253E-10  0.17130000000E+03  0.17130000000E+03 0.  1.
       11    1    1    2    0    0  0.32499096955E-01 -0.29941567438E-01 -0.14450239092E+00  0.15110887124E+00  0.51109989000E-03 0. -1.
     -623    1    1    2    0    0 -0.16656153160E+00 -0.62460910391E-01  0.17533199708E+01  0.17130906507E+03  0.17130000000E+03 0.  1.
      622    1    1    2    0    0  0.13406243465E+00  0.92402477829E-01  0.23911823875E+01  0.38398260591E+01  0.30000000000E+01 0. -1.
</event>
<event>
 5   0  0.7495800E-05  0.9118800E+02  0.7818608E-02  0.1180000E+00
       11   -1    0    0    0    0  0.00000000000E+00  0.00000000000E+00  0.39999999673E+01  0.40000000000E+01  0.51109989000E-03 0. -1.
     -623   -1    0    0    0    0  0.00000000000E+00  0.00000000000E+00  0.12525980253E-10  0.17130000000E+03  0.17130000000E+03 0.  1.
       11    1    1    2    0    0 -0.49654335144E+00 -0.21489677464E-01  0.46680360304E+00  0.68185260220E+00  0.51109989000E-03 0. -1.
     -623    1    1    2    0    0  0.96721795256E+00  0.10331473504E+01  0.27727967843E+01  0.17132828519E+03  0.17130000000E+03 0.  1.
      622    1    1    2    0    0 -0.47067460112E+00 -0.10116576729E+01  0.76039958007E+00  0.32898622082E+01  0.30000000000E+01 0. -1.
</event>
<event>
 5   0  0.7495800E-05  0.9118800E+02  0.7818608E-02  0.1180000E+00
       11   -1    0    0    0    0  0.00000000000E+00  0.00000000000E+00  0.39999999673E+01  0.40000000000E+01  0.51109989000E-03 0. -1.
     -623   -1    0    0    0    0  0.00000000000E+00  0.00000000000E+00  0.12525980253E-10  0.17130000000E+03  0.17130000000E+03 0.  1.
       11    1    1    2    0    0  0.10554508028E-01 -0.13181751647E+00  0.50530628424E+00  0.52232361368E+00  0.51109989000E-03 0. -1.
     -623    1    1    2    0    0 -0.13525250907E+00  0.51712479996E+00  0.18039954493E+01  0.17131033276E+03  0.17130000000E+03 0.  1.
      622    1    1    2    0    0  0.12469800105E+00 -0.38530728349E+00  0.16906982338E+01  0.34673436247E+01  0.30000000000E+01 0. -1.
</event>
<event>
 5   0  0.7495800E-05  0.9118800E+02  0.7818608E-02  0.1180000E+00
       11   -1    0    0    0    0  0.00000000000E+00  0.00000000000E+00  0.39999999673E+01  0.40000000000E+01  0.51109989000E-03 0.  1.
     -623   -1    0    0    0    0  0.00000000000E+00  0.00000000000E+00  0.12525980253E-10  0.17130000000E+03  0.17130000000E+03 0. -1.
       11    1    1    2    0    0  0.20367107700E+00 -0.49509280401E+00  0.22068221087E+00  0.57905068138E+00  0.51109989000E-03 0.  1.
     -623    1    1    2    0    0 -0.58758207756E+00  0.59103865916E+00  0.22190730048E+01  0.17131639987E+03  0.17130000000E+03 0. -1.
      622    1    1    2    0    0  0.38391100056E+00 -0.95945855153E-01  0.15602447517E+01  0.34045494487E+01  0.30000000000E+01 0.  1.
</event>
<event>
 5   0  0.7495800E-05  0.9118800E+02  0.7818608E-02  0.1180000E+00
       11   -1    0    0    0    0  0.00000000000E+00  0.00000000000E+00  0.39999999673E+01  0.40000000000E+01  0.51109989000E-03 0.  1.
     -623   -1    0    0    0    0  0.00000000000E+00  0.00000000000E+00  0.12525980253E-10  0.17130000000E+03  0.17130000000E+03 0.  1.
       11    1    1    2    0    0 -0.21010293487E+00  0.58474337168E+00 -0.34905592083E+00  0.71267689106E+00  0.51109989000E-03 0.  1.
     -623    1    1    2    0    0  0.12935141778E+01 -0.10488004772E+01  0.41609013198E+01  0.17135861887E+03  0.17130000000E+03 0.  1.
      622    1    1    2    0    0 -0.10834112429E+01  0.46405710550E+00  0.18815456842E+00  0.32287042386E+01  0.30000000000E+01 0.  0.
</event>
<event>
 5   0  0.7495800E-05  0.9118800E+02  0.7818608E-02  0.1180000E+00
       11   -1    0    0    0    0  0.00000000000E+00  0.00000000000E+00  0.39999999673E+01  0.40000000000E+01  0.51109989000E-03 0. -1.
     -623   -1    0    0    0    0  0.00000000000E+00  0.00000000000E+00  0.12525980253E-10  0.17130000000E+03  0.17130000000E+03 0.  1.
       11    1    1    2    0    0 -0.14737585327E+00 -0.10099934028E-01 -0.11541400020E-01  0.14817258833E+00  0.51109989000E-03 0. -1.
     -623    1    1    2    0    0  0.42815847496E+00 -0.65338434301E-01  0.16265026203E+01  0.17130826921E+03  0.17130000000E+03 0.  1.
      622    1    1    2    0    0 -0.28078262168E+00  0.75438368330E-01  0.23850387471E+01  0.38435582021E+01  0.30000000000E+01 0. -1.
</event>
<event>
 5   0  0.7495800E-05  0.9118800E+02  0.7818608E-02  0.1180000E+00
       11   -1    0    0    0    0  0.00000000000E+00  0.00000000000E+00  0.39999999673E+01  0.40000000000E+01  0.51109989000E-03 0.  1.
     -623   -1    0    0    0    0  0.00000000000E+00  0.00000000000E+00  0.12525980253E-10  0.17130000000E+03  0.17130000000E+03 0. -1.
       11    1    1    2    0    0 -0.32313294813E+00 -0.18872067487E+00  0.42677727153E+00  0.56759976745E+00  0.51109989000E-03 0.  1.
     -623    1    1    2    0    0 -0.41833091600E+00 -0.25304801959E+00  0.21816402479E+01  0.17131458954E+03  0.17130000000E+03 0. -1.
      622    1    1    2    0    0  0.74146386414E+00  0.44176869445E+00  0.13915824480E+01  0.34178106956E+01  0.30000000000E+01 0.  1.
</event>
<event>
 5   0  0.7495800E-05  0.9118800E+02  0.7818608E-02  0.1180000E+00
       11   -1    0    0    0    0  0.00000000000E+00  0.00000000000E+00  0.39999999673E+01  0.40000000000E+01  0.51109989000E-03 0.  1.
     -623   -1    0    0    0    0  0.00000000000E+00  0.00000000000E+00  0.12525980253E-10  0.17130000000E+03  0.17130000000E+03 0. -1.
       11    1    1    2    0    0 -0.38896794753E-01 -0.13886093493E+00 -0.78948944276E-01  0.16440351856E+00  0.51109989000E-03 0.  1.
     -623    1    1    2    0    0 -0.26590747005E+00  0.23956111353E+00  0.17253742884E+01  0.17130906284E+03  0.17130000000E+03 0. -1.
      622    1    1    2    0    0  0.30480426480E+00 -0.10070017860E+00  0.23535746232E+01  0.38265336367E+01  0.30000000000E+01 0.  1.
</event>
<event>
 5   0  0.7495800E-05  0.9118800E+02  0.7818608E-02  0.1180000E+00
       11   -1    0    0    0    0  0.00000000000E+00  0.00000000000E+00  0.39999999673E+01  0.40000000000E+01  0.51109989000E-03 0.  1.
     -623   -1    0    0    0    0  0.00000000000E+00  0.00000000000E+00  0.12525980253E-10  0.17130000000E+03  0.17130000000E+03 0. -1.
       11    1    1    2    0    0 -0.81205166948E-01  0.28550032810E+00  0.82002460688E-01  0.30794379563E+00  0.51109989000E-03 0.  1.
     -623    1    1    2    0    0 -0.69336440581E+00 -0.14750378435E+01  0.23559405338E+01  0.17132395322E+03  0.17130000000E+03 0. -1.
      622    1    1    2    0    0  0.77456957276E+00  0.11895375154E+01  0.15620569729E+01  0.36681029852E+01  0.30000000000E+01 0.  1.
</event>
<event>
 5   0  0.7495800E-05  0.9118800E+02  0.7818608E-02  0.1180000E+00
       11   -1    0    0    0    0  0.00000000000E+00  0.00000000000E+00  0.39999999673E+01  0.40000000000E+01  0.51109989000E-03 0.  1.
     -623   -1    0    0    0    0  0.00000000000E+00  0.00000000000E+00  0.12525980253E-10  0.17130000000E+03  0.17130000000E+03 0.  1.
       11    1    1    2    0    0 -0.15872690534E-01  0.13998576239E+00  0.13475712037E+00  0.19495563262E+00  0.51109989000E-03 0.  1.
     -623    1    1    2    0    0  0.30746331980E+00 -0.53344758772E+00  0.15906045435E+01  0.17130849110E+03  0.17130000000E+03 0.  1.
      622    1    1    2    0    0 -0.29159062927E+00  0.39346182533E+00  0.22746383035E+01  0.37965532677E+01  0.30000000000E+01 0.  1.
</event>
<event>
 5   0  0.7495800E-05  0.9118800E+02  0.7818608E-02  0.1180000E+00
       11   -1    0    0    0    0  0.00000000000E+00  0.00000000000E+00  0.39999999673E+01  0.40000000000E+01  0.51109989000E-03 0. -1.
     -623   -1    0    0    0    0  0.00000000000E+00  0.00000000000E+00  0.12525980253E-10  0.17130000000E+03  0.17130000000E+03 0. -1.
       11    1    1    2    0    0  0.13024778246E-01 -0.53663609915E-01  0.58927148488E-01  0.80759506733E-01  0.51109989000E-03 0. -1.
     -623    1    1    2    0    0  0.39835426731E+00  0.24185833212E+00  0.14709775524E+01  0.17130694953E+03  0.17130000000E+03 0. -1.
      622    1    1    2    0    0 -0.41137904555E+00 -0.18819472221E+00  0.24700952665E+01  0.39122909654E+01  0.30000000000E+01 0. -1.
</event>
<event>
 5   0  0.7495800E-05  0.9118800E+02  0.7818608E-02  0.1180000E+00
       11   -1    0    0    0    0  0.00000000000E+00  0.00000000000E+00  0.39999999673E+01  0.40000000000E+01  0.51109989000E-03 0. -1.
     -623   -1    0    0    0    0  0.00000000000E+00  0.00000000000E+00  0.12525980253E-10  0.17130000000E+03  0.17130000000E+03 0. -1.
       11    1    1    2    0    0 -0.12155714859E+00  0.21749565172E+00  0.14151937890E+00  0.28654579864E+00  0.51109989000E-03 0. -1.
     -623    1    1    2    0    0  0.96718157025E+00  0.57632436322E-01  0.18831542333E+01  0.17131309066E+03  0.17130000000E+03 0. -1.
      622    1    1    2    0    0 -0.84562442166E+00 -0.27512808804E+00  0.19753263551E+01  0.37003635411E+01  0.30000000000E+01 0. -1.
</event>
<event>
 5   0  0.7495800E-05  0.9118800E+02  0.7818608E-02  0.1180000E+00
       11   -1    0    0    0    0  0.00000000000E+00  0.00000000000E+00  0.39999999673E+01  0.40000000000E+01  0.51109989000E-03 0.  1.
     -623   -1    0    0    0    0  0.00000000000E+00  0.00000000000E+00  0.12525980253E-10  0.17130000000E+03  0.17130000000E+03 0. -1.
       11    1    1    2    0    0 -0.43675545055E+00 -0.27071614427E+00 -0.22399864374E+00  0.56055169964E+00  0.51109989000E-03 0.  1.
     -623    1    1    2    0    0 -0.45214043945E+00  0.43278335851E-01  0.28755174531E+01  0.17132473524E+03  0.17130000000E+03 0. -1.
      622    1    1    2    0    0  0.88889589000E+00  0.22743780842E+00  0.13484811580E+01  0.34147130616E+01  0.30000000000E+01 0.  1.
</event>
<event>
 5   0  0.7495800E-05  0.9118800E+02  0.7818608E-02  0.1180000E+00
       11   -1    0    0    0    0  0.00000000000E+00  0.00000000000E+00  0.39999999673E+01  0.40000000000E+01  0.51109989000E-03 0.  1.
     -623   -1    0    0    0    0  0.00000000000E+00  0.00000000000E+00  0.12525980253E-10  0.17130000000E+03  0.17130000000E+03 0. -1.
       11    1    1    2    0    0  0.19460312694E+00  0.13887543105E+00 -0.45705447013E+00  0.51580598315E+00  0.51109989000E-03 0.  1.
     -623    1    1    2    0    0 -0.84811336603E+00 -0.11890129993E+01  0.32965411112E+01  0.17133794160E+03  0.17130000000E+03 0. -1.
      622    1    1    2    0    0  0.65351023909E+00  0.10501375683E+01  0.11605133262E+01  0.34462524175E+01  0.30000000000E+01 0.  0.
</event>
<event>
 5   0  0.7495800E-05  0.9118800E+02  0.7818608E-02  0.1180000E+00
       11   -1    0    0    0    0  0.00000000000E+00  0.00000000000E+00  0.39999999673E+01  0.40000000000E+01  0.51109989000E-03 0.  1.
     -623   -1    0    0    0    0  0.00000000000E+00  0.00000000000E+00  0.12525980253E-10  0.17130000000E+03  0.17130000000E+03 0.  1.
       11    1    1    2    0    0 -0.28856147472E+00  0.24421813638E+00 -0.34614344538E+00  0.51256781876E+00  0.51109989000E-03 0.  1.
     -623    1    1    2    0    0  0.58568310154E+00 -0.13405958388E+00  0.26393745080E+01  0.17132138598E+03  0.17130000000E+03 0.  1.
      622    1    1    2    0    0 -0.29712162682E+00 -0.11015855250E+00  0.17067689047E+01  0.34660462002E+01  0.30000000000E+01 0.  1.
</event>
<event>
 5   0  0.7495800E-05  0.9118800E+02  0.7818608E-02  0.1180000E+00
       11   -1    0    0    0    0  0.00000000000E+00  0.00000000000E+00  0.39999999673E+01  0.40000000000E+01  0.51109989000E-03 0.  1.
     -623   -1    0    0    0    0  0.00000000000E+00  0.00000000000E+00  0.12525980253E-10  0.17130000000E+03  0.17130000000E+03 0. -1.
       11    1    1    2    0    0 -0.50510975831E+00  0.98898305035E-01  0.50111911023E-01  0.51713461257E+00  0.51109989000E-03 0.  1.
     -623    1    1    2    0    0  0.12086281587E+01 -0.51619413717E+00  0.24311741273E+01  0.17132229232E+03  0.17130000000E+03 0. -1.
      622    1    1    2    0    0 -0.70351840034E+00  0.41729583213E+00  0.15187139291E+01  0.34605730666E+01  0.30000000000E+01 0.  1.
</event>
<event>
 5   0  0.7495800E-05  0.9118800E+02  0.7818608E-02  0.1180000E+00
       11   -1    0    0    0    0  0.00000000000E+00  0.00000000000E+00  0.39999999673E+01  0.40000000000E+01  0.51109989000E-03 0.  1.
     -623   -1    0    0    0    0  0.00000000000E+00  0.00000000000E+00  0.12525980253E-10  0.17130000000E+03  0.17130000000E+03 0.  1.
       11    1    1    2    0    0  0.11746630517E+00  0.10762414362E+00  0.44813328620E-01  0.16549859451E+00  0.51109989000E-03 0.  1.
     -623    1    1    2    0    0  0.36403260433E-01  0.58088225843E-01  0.15896745159E+01  0.17130738970E+03  0.17130000000E+03 0.  1.
      622    1    1    2    0    0 -0.15386956560E+00 -0.16571236947E+00  0.23655121228E+01  0.38271117094E+01  0.30000000000E+01 0.  1.
</event>
<event>
 5   0  0.7495800E-05  0.9118800E+02  0.7818608E-02  0.1180000E+00
       11   -1    0    0    0    0  0.00000000000E+00  0.00000000000E+00  0.39999999673E+01  0.40000000000E+01  0.51109989000E-03 0. -1.
     -623   -1    0    0    0    0  0.00000000000E+00  0.00000000000E+00  0.12525980253E-10  0.17130000000E+03  0.17130000000E+03 0. -1.
       11    1    1    2    0    0  0.20925840551E+00 -0.72464778656E+00  0.34510582260E+00  0.82945873005E+00  0.51109989000E-03 0. -1.
     -623    1    1    2    0    0 -0.47789021438E+00  0.26638317288E-01  0.30962244911E+01  0.17132864820E+03  0.17130000000E+03 0. -1.
      622    1    1    2    0    0  0.26863180887E+00  0.69800946927E+00  0.55866965363E+00  0.31418930679E+01  0.30000000000E+01 0.  1.
</event>
<event>
 5   0  0.7495800E-05  0.9118800E+02  0.7818608E-02  0.1180000E+00
       11   -1    0    0    0    0  0.00000000000E+00  0.00000000000E+00  0.39999999673E+01  0.40000000000E+01  0.51109989000E-03 0.  1.
     -623   -1    0    0    0    0  0.00000000000E+00  0.00000000000E+00  0.12525980253E-10  0.17130000000E+03  0.17130000000E+03 0.  1.
       11    1    1    2    0    0  0.16173127726E+00 -0.10952543117E+00 -0.29615912530E-01  0.19756059732E+00  0.51109989000E-03 0.  1.
     -623    1    1    2    0    0 -0.13348650597E+01  0.93482816720E+00  0.22317920394E+01  0.17132228887E+03  0.17130000000E+03 0.  1.
      622    1    1    2    0    0  0.11731337824E+01 -0.82530273603E+00  0.17978238405E+01  0.37801505313E+01  0.30000000000E+01 0.  1.
</event>
<event>
 5   0  0.7495800E-05  0.9118800E+02  0.7818608E-02  0.1180000E+00
       11   -1    0    0    0    0  0.00000000000E+00  0.00000000000E+00  0.39999999673E+01  0.40000000000E+01  0.51109989000E-03 0. -1.
     -623   -1    0    0    0    0  0.00000000000E+00  0.00000000000E+00  0.12525980253E-10  0.17130000000E+03  0.17130000000E+03 0.  1.
       11    1    1    2    0    0 -0.17241336114E-01 -0.76463596738E-01 -0.52737850179E-01  0.94474797495E-01  0.51109989000E-03 0. -1.
     -623    1    1    2    0    0 -0.27307006387E+00 -0.63367146968E+00  0.16886775677E+01  0.17130971291E+03  0.17130000000E+03 0.  1.
      622    1    1    2    0    0  0.29031139998E+00  0.71013506642E+00  0.23640602498E+01  0.38958122884E+01  0.30000000000E+01 0. -1.
</event>
<event>
 5   0  0.7495800E-05  0.9118800E+02  0.7818608E-02  0.1180000E+00
       11   -1    0    0    0    0  0.00000000000E+00  0.00000000000E+00  0.39999999673E+01  0.40000000000E+01  0.51109989000E-03 0. -1.
     -623   -1    0    0    0    0  0.00000000000E+00  0.00000000000E+00  0.12525980253E-10  0.17130000000E+03  0.17130000000E+03 0. -1.
       11    1    1    2    0    0 -0.28828696985E+00  0.55051610634E-01  0.14662254531E+00  0.32808305173E+00  0.51109989000E-03 0. -1.
     -623    1    1    2    0    0  0.13114310863E+00  0.75676295499E+00  0.19280011819E+01  0.17131257128E+03  0.17130000000E+03 0.  1.
      622    1    1    2    0    0  0.15714386122E+00 -0.81181456563E+00  0.19253762401E+01  0.36593456721E+01  0.30000000000E+01 0. -1.
</event>
<event>
 5   0  0.7495800E-05  0.9118800E+02  0.7818608E-02  0.1180000E+00
       11   -1    0    0    0    0  0.00000000000E+00  0.00000000000E+00  0.39999999673E+01  0.40000000000E+01  0.51109989000E-03 0. -1.
     -623   -1    0    0    0    0  0.00000000000E+00  0.00000000000E+00  0.12525980253E-10  0.17130000000E+03  0.17130000000E+03 0. -1.
       11    1    1    2    0    0  0.30817686448E+00 -0.57448433966E+00  0.38309799295E+00  0.75615446156E+00  0.51109989000E-03 0. -1.
     -623    1    1    2    0    0  0.20686200632E+00  0.11575945894E+00  0.26618941060E+01  0.17132084483E+03  0.17130000000E+03 0. -1.
      622    1    1    2    0    0 -0.51503887080E+00  0.45872488071E+00  0.95500786844E+00  0.32230007110E+01  0.30000000000E+01 0.  0.
</event>
<event>
 5   0  0.7495800E-05  0.9118800E+02  0.7818608E-02  0.1180000E+00
       11   -1    0    0    0    0  0.00000000000E+00  0.00000000000E+00  0.39999999673E+01  0.40000000000E+01  0.51109989000E-03 0. -1.
     -623   -1    0    0    0    0  0.00000000000E+00  0.00000000000E+00  0.12525980253E-10  0.17130000000E+03  0.17130000000E+03 0.  1.
       11    1    1    2    0    0 -0.68021850475E-01 -0.43642734446E-01  0.53123411437E-01  0.96716174850E-01  0.51109989000E-03 0. -1.
     -623    1    1    2    0    0 -0.22502601491E+00 -0.16886757777E-02  0.14777013561E+01  0.17130652130E+03  0.17130000000E+03 0.  1.
      622    1    1    2    0    0  0.29304786538E+00  0.45331410223E-01  0.24691751999E+01  0.38967625224E+01  0.30000000000E+01 0. -1.
</event>
<event>
 5   0  0.7495800E-05  0.9118800E+02  0.7818608E-02  0.1180000E+00
       11   -1    0    0    0    0  0.00000000000E+00  0.00000000000E+00  0.39999999673E+01  0.40000000000E+01  0.51109989000E-03 0. -1.
     -623   -1    0    0    0    0  0.00000000000E+00  0.00000000000E+00  0.12525980253E-10  0.17130000000E+03  0.17130000000E+03 0. -1.
       11    1    1    2    0    0  0.75846510475E-01  0.12425493500E+00  0.10837281121E-01  0.14597838850E+00  0.51109989000E-03 0. -1.
     -623    1    1    2    0    0 -0.16487807617E+00 -0.65276064293E-01  0.15839645031E+01  0.17130741487E+03  0.17130000000E+03 0. -1.
      622    1    1    2    0    0  0.89031565698E-01 -0.58978870709E-01  0.24051981832E+01  0.38466067419E+01  0.30000000000E+01 0. -1.
</event>
<event>
 5   0  0.7495800E-05  0.9118800E+02  0.7818608E-02  0.1180000E+00
       11   -1    0    0    0    0  0.00000000000E+00  0.00000000000E+00  0.39999999673E+01  0.40000000000E+01  0.51109989000E-03 0.  1.
     -623   -1    0    0    0    0  0.00000000000E+00  0.00000000000E+00  0.12525980253E-10  0.17130000000E+03  0.17130000000E+03 0. -1.
       11    1    1    2    0    0 -0.12671200805E+00 -0.12900337800E+00 -0.34902628610E-02  0.18085974587E+00  0.51109989000E-03 0.  1.
     -623    1    1    2    0    0  0.75045323099E+00  0.11244566122E+00  0.17415981213E+01  0.17131053379E+03  0.17130000000E+03 0. -1.
      622    1    1    2    0    0 -0.62374122294E+00  0.16557716778E-01  0.22618921089E+01  0.38086064621E+01  0.30000000000E+01 0.  1.
</event>
<event>
 5   0  0.7495800E-05  0.9118800E+02  0.7818608E-02  0.1180000E+00
       11   -1    0    0    0    0  0.00000000000E+00  0.00000000000E+00  0.39999999673E+01  0.40000000000E+01  0.51109989000E-03 0.  1.
     -623   -1    0    0    0    0  0.00000000000E+00  0.00000000000E+00  0.12525980253E-10  0.17130000000E+03  0.17130000000E+03 0. -1.
       11    1    1    2    0    0  0.63557882350E-01  0.31044075204E+00  0.63924506559E-01  0.32326408508E+00  0.51109989000E-03 0.  1.
     -623    1    1    2    0    0 -0.49352820660E+00 -0.38780871724E+00  0.18760608491E+01  0.17131142277E+03  0.17130000000E+03 0.  1.
      622    1    1    2    0    0  0.42997032425E+00  0.77367965195E-01  0.20600146117E+01  0.36653131492E+01  0.30000000000E+01 0.  1.
</event>
<event>
 5   0  0.7495800E-05  0.9118800E+02  0.7818608E-02  0.1180000E+00
       11   -1    0    0    0    0  0.00000000000E+00  0.00000000000E+00  0.39999999673E+01  0.40000000000E+01  0.51109989000E-03 0. -1.
     -623   -1    0    0    0    0  0.00000000000E+00  0.00000000000E+00  0.12525980253E-10  0.17130000000E+03  0.17130000000E+03 0.  1.
       11    1    1    2    0    0 -0.30075087440E-01  0.23989543635E-01 -0.13407686363E+00  0.13948790510E+00  0.51109989000E-03 0. -1.
     -623    1    1    2    0    0 -0.17739931102E+00  0.71104720391E+00  0.18468531598E+01  0.17131152304E+03  0.17130000000E+03 0.  1.
      622    1    1    2    0    0  0.20747439846E+00 -0.73503674754E+00  0.22872236712E+01  0.38489890580E+01  0.30000000000E+01 0. -1.
</event>
<event>
 5   0  0.7495800E-05  0.9118800E+02  0.7818608E-02  0.1180000E+00
       11   -1    0    0    0    0  0.00000000000E+00  0.00000000000E+00  0.39999999673E+01  0.40000000000E+01  0.51109989000E-03 0. -1.
     -623   -1    0    0    0    0  0.00000000000E+00  0.00000000000E+00  0.12525980253E-10  0.17130000000E+03  0.17130000000E+03 0. -1.
       11    1    1    2    0    0  0.14145195120E+00 -0.33708172188E+00  0.38509193707E+00  0.53096968176E+00  0.51109989000E-03 0. -1.
     -623    1    1    2    0    0 -0.40703507875E+00  0.28981111521E-01  0.19449169841E+01  0.17131152681E+03  0.17130000000E+03 0. -1.
      622    1    1    2    0    0  0.26558312755E+00  0.30810061036E+00  0.16699910462E+01  0.34575035037E+01  0.30000000000E+01 0. -1.
</event>
<event>
 5   0  0.7495800E-05  0.9118800E+02  0.7818608E-02  0.1180000E+00
       11   -1    0    0    0    0  0.00000000000E+00  0.00000000000E+00  0.39999999673E+01  0.40000000000E+01  0.51109989000E-03 0. -1.
     -623   -1    0    0    0    0  0.00000000000E+00  0.00000000000E+00  0.12525980253E-10  0.17130000000E+03  0.17130000000E+03 0.  1.
       11    1    1    2    0    0  0.21085634650E+00  0.42761078096E-01 -0.28575957625E-01  0.21703860310E+00  0.51109989000E-03 0. -1.
     -623    1    1    2    0    0 -0.28129832425E+00  0.21881466279E+00  0.17555523387E+01  0.17130936627E+03  0.17130000000E+03 0.  1.
      622    1    1    2    0    0  0.70441977756E-01 -0.26157574089E+00  0.22730235863E+01  0.37735951246E+01  0.30000000000E+01 0. -1.
</event>
<event>
 5   0  0.7495800E-05  0.9118800E+02  0.7818608E-02  0.1180000E+00
       11   -1    0    0    0    0  0.00000000000E+00  0.00000000000E+00  0.39999999673E+01  0.40000000000E+01  0.51109989000E-03 0.  1.
     -623   -1    0    0    0    0  0.00000000000E+00  0.00000000000E+00  0.12525980253E-10  0.17130000000E+03  0.17130000000E+03 0. -1.
       11    1    1    2    0    0  0.55764655638E-01 -0.76855697473E-01  0.91999697195E-02  0.95401235414E-01  0.51109989000E-03 0.  1.
     -623    1    1    2    0    0 -0.88985972094E+00 -0.36549600702E+00  0.16955874821E+01  0.17131109262E+03  0.17130000000E+03 0. -1.
      622    1    1    2    0    0  0.83409506530E+00  0.44235170449E+00  0.22952125156E+01  0.38935061449E+01  0.30000000000E+01 0.  1.
</event>
<event>
 5   0  0.7495800E-05  0.9118800E+02  0.7818608E-02  0.1180000E+00
       11   -1    0    0    0    0  0.00000000000E+00  0.00000000000E+00  0.39999999673E+01  0.40000000000E+01  0.51109989000E-03 0.  1.
     -623   -1    0    0    0    0  0.00000000000E+00  0.00000000000E+00  0.12525980253E-10  0.17130000000E+03  0.17130000000E+03 0.  1.
       11    1    1    2    0    0 -0.96220879674E-01 -0.58645922198E+00  0.17721800486E+00  0.62016075271E+00  0.51109989000E-03 0.  1.
     -623    1    1    2    0    0  0.65432141545E-02 -0.59884155277E+00  0.29078511747E+01  0.17132572560E+03  0.17130000000E+03 0.  1.
      622    1    1    2    0    0  0.89677665520E-01  0.11853007747E+01  0.91493078784E+00  0.33541136470E+01  0.30000000000E+01 0.  1.
</event>
<event>
 5   0  0.7495800E-05  0.9118800E+02  0.7818608E-02  0.1180000E+00
       11   -1    0    0    0    0  0.00000000000E+00  0.00000000000E+00  0.39999999673E+01  0.40000000000E+01  0.51109989000E-03 0.  1.
     -623   -1    0    0    0    0  0.00000000000E+00  0.00000000000E+00  0.12525980253E-10  0.17130000000E+03  0.17130000000E+03 0.  1.
       11    1    1    2    0    0 -0.66578084759E+00  0.32873377030E+00 -0.40134297419E+00  0.84404174832E+00  0.51109989000E-03 0.  1.
     -623    1    1    2    0    0  0.93337291068E+00 -0.86442939720E+00  0.38531649859E+01  0.17134805311E+03  0.17130000000E+03 0. -1.
      622    1    1    2    0    0 -0.26759206309E+00  0.53569562690E+00  0.54817795560E+00  0.31079051446E+01  0.30000000000E+01 0.  1.
</event>
<event>
 5   0  0.7495800E-05  0.9118800E+02  0.7818608E-02  0.1180000E+00
       11   -1    0    0    0    0  0.00000000000E+00  0.00000000000E+00  0.39999999673E+01  0.40000000000E+01  0.51109989000E-03 0. -1.
     -623   -1    0    0    0    0  0.00000000000E+00  0.00000000000E+00  0.12525980253E-10  0.17130000000E+03  0.17130000000E+03 0. -1.
       11    1    1    2    0    0 -0.50908725002E+00  0.54786682203E-01  0.24847696436E-01  0.51262957183E+00  0.51109989000E-03 0. -1.
     -623    1    1    2    0    0  0.17715228705E+00 -0.54530340300E+00  0.23339124949E+01  0.17131685815E+03  0.17130000000E+03 0. -1.
      622    1    1    2    0    0  0.33193496297E+00  0.49051672080E+00  0.16412397760E+01  0.34705122785E+01  0.30000000000E+01 0. -1.
</event>
<event>
 5   0  0.7495800E-05  0.9118800E+02  0.7818608E-02  0.1180000E+00
       11   -1    0    0    0    0  0.00000000000E+00  0.00000000000E+00  0.39999999673E+01  0.40000000000E+01  0.51109989000E-03 0. -1.
     -623   -1    0    0    0    0  0.00000000000E+00  0.00000000000E+00  0.12525980253E-10  0.17130000000E+03  0.17130000000E+03 0. -1.
       11    1    1    2    0    0  0.74251829553E-01 -0.23584660333E+00  0.25477132123E-01  0.24856850158E+00  0.51109989000E-03 0. -1.
     -623    1    1    2    0    0  0.30046610292E-01  0.15841672343E+01  0.22189415598E+01  0.17132169796E+03  0.17130000000E+03 0. -1.
      622    1    1    2    0    0 -0.10429843985E+00 -0.13483206309E+01  0.17555812754E+01  0.37297335432E+01  0.30000000000E+01 0. -1.
</event>
<event>
 5   0  0.7495800E-05  0.9118800E+02  0.7818608E-02  0.1180000E+00
       11   -1    0    0    0    0  0.00000000000E+00  0.00000000000E+00  0.39999999673E+01  0.40000000000E+01  0.51109989000E-03 0.  1.
     -623   -1    0    0    0    0  0.00000000000E+00  0.00000000000E+00  0.12525980253E-10  0.17130000000E+03  0.17130000000E+03 0.  1.
       11    1    1    2    0    0 -0.46214680245E+00 -0.26314898503E-01  0.35381488085E-01  0.46424589585E+00  0.51109989000E-03 0.  1.
     -623    1    1    2    0    0  0.77964039128E+00 -0.93192731171E+00  0.24382425122E+01  0.17132166049E+03  0.17130000000E+03 0.  1.
      622    1    1    2    0    0 -0.31749358884E+00  0.95824221022E+00  0.15263759671E+01  0.35140936108E+01  0.30000000000E+01 0.  1.
</event>
<event>
 5   0  0.7495800E-05  0.9118800E+02  0.7818608E-02  0.1180000E+00
       11   -1    0    0    0    0  0.00000000000E+00  0.00000000000E+00  0.39999999673E+01  0.40000000000E+01  0.51109989000E-03 0. -1.
     -623   -1    0    0    0    0  0.00000000000E+00  0.00000000000E+00  0.12525980253E-10  0.17130000000E+03  0.17130000000E+03 0.  1.
       11    1    1    2    0    0 -0.27722543935E-01  0.33620136710E-01  0.39596802896E-01  0.58881415212E-01  0.51109989000E-03 0. -1.
     -623    1    1    2    0    0 -0.23834686222E+00  0.14782032756E+00  0.14346200298E+01  0.17130623688E+03  0.17130000000E+03 0.  1.
      622    1    1    2    0    0  0.26606940616E+00 -0.18144046427E+00  0.25257831346E+01  0.39348817027E+01  0.30000000000E+01 0. -1.
</event>
<event>
 5   0  0.7495800E-05  0.9118800E+02  0.7818608E-02  0.1180000E+00
       11   -1    0    0    0    0  0.00000000000E+00  0.00000000000E+00  0.39999999673E+01  0.40000000000E+01  0.51109989000E-03 0. -1.
     -623   -1    0    0    0    0  0.00000000000E+00  0.00000000000E+00  0.12525980253E-10  0.17130000000E+03  0.17130000000E+03 0.  1.
       11    1    1    2    0    0 -0.55251096808E-02  0.63152763449E+00 -0.22318921812E-02  0.63155595360E+00  0.51109989000E-03 0. -1.
     -623    1    1    2    0    0  0.36081309763E+00 -0.71883950693E+00  0.25630960666E+01  0.17132106227E+03  0.17130000000E+03 0.  1.
      622    1    1    2    0    0 -0.35528798795E+00  0.87311872436E-01  0.14391357930E+01  0.33473817751E+01  0.30000000000E+01 0. -1.
</event>
<event>
 5   0  0.7495800E-05  0.9118800E+02  0.7818608E-02  0.1180000E+00
       11   -1    0    0    0    0  0.00000000000E+00  0.00000000000E+00  0.39999999673E+01  0.40000000000E+01  0.51109989000E-03 0. -1.
     -623   -1    0    0    0    0  0.00000000000E+00  0.00000000000E+00  0.12525980253E-10  0.17130000000E+03  0.17130000000E+03 0. -1.
       11    1    1    2    0    0  0.62474542291E+00 -0.21429876218E+00 -0.26362204506E+00  0.71114530637E+00  0.51109989000E-03 0. -1.
     -623    1    1    2    0    0 -0.62448219184E+00 -0.16942329606E+00  0.30454125128E+01  0.17132829077E+03  0.17130000000E+03 0. -1.
      622    1    1    2    0    0 -0.26323106143E-03  0.38372205824E+00  0.12182094996E+01  0.32605639194E+01  0.30000000000E+01 0. -1.
</event>
<event>
 5   0  0.7495800E-05  0.9118800E+02  0.7818608E-02  0.1180000E+00
       11   -1    0    0    0    0  0.00000000000E+00  0.00000000000E+00  0.39999999673E+01  0.40000000000E+01  0.51109989000E-03 0.  1.
     -623   -1    0    0    0    0  0.00000000000E+00  0.00000000000E+00  0.12525980253E-10  0.17130000000E+03  0.17130000000E+03 0.  1.
       11    1    1    2    0    0  0.78451407920E-01  0.10326933437E+00 -0.11359887325E+00  0.17240691416E+00  0.51109989000E-03 0.  1.
     -623    1    1    2    0    0  0.54835229017E+00 -0.54320835376E+00  0.18838958141E+01  0.17131209773E+03  0.17130000000E+03 0.  1.
      622    1    1    2    0    0 -0.62680369809E+00  0.43993901939E+00  0.22297030265E+01  0.38154953549E+01  0.30000000000E+01 0.  1.
</event>
<event>
 5   0  0.7495800E-05  0.9118800E+02  0.7818608E-02  0.1180000E+00
       11   -1    0    0    0    0  0.00000000000E+00  0.00000000000E+00  0.39999999673E+01  0.40000000000E+01  0.51109989000E-03 0. -1.
     -623   -1    0    0    0    0  0.00000000000E+00  0.00000000000E+00  0.12525980253E-10  0.17130000000E+03  0.17130000000E+03 0. -1.
       11    1    1    2    0    0  0.51431615327E-01  0.29379379392E+00  0.50909137200E+00  0.59002905917E+00  0.51109989000E-03 0. -1.
     -623    1    1    2    0    0  0.93984414553E-01 -0.86115096666E+00  0.20111770711E+01  0.17131399606E+03  0.17130000000E+03 0. -1.
      622    1    1    2    0    0 -0.14541602988E+00  0.56735717273E+00  0.14797315242E+01  0.33959748773E+01  0.30000000000E+01 0. -1.
</event>
<event>
 5   0  0.7495800E-05  0.9118800E+02  0.7818608E-02  0.1180000E+00
       11   -1    0    0    0    0  0.00000000000E+00  0.00000000000E+00  0.39999999673E+01  0.40000000000E+01  0.51109989000E-03 0.  1.
     -623   -1    0    0    0    0  0.00000000000E+00  0.00000000000E+00  0.12525980253E-10  0.17130000000E+03  0.17130000000E+03 0. -1.
       11    1    1    2    0    0 -0.93233542040E-01  0.28035380076E+00  0.65035611939E-02  0.29552208799E+00  0.51109989000E-03 0.  1.
     -623    1    1    2    0    0 -0.43637254131E+00 -0.80375713540E+00  0.19769878795E+01  0.17131384920E+03  0.17130000000E+03 0. -1.
      622    1    1    2    0    0  0.52960608335E+00  0.52340333464E+00  0.20165085267E+01  0.36906287123E+01  0.30000000000E+01 0.  0.
</event>
<event>
 5   0  0.7495800E-05  0.9118800E+02  0.7818608E-02  0.1180000E+00
       11   -1    0    0    0    0  0.00000000000E+00  0.00000000000E+00  0.39999999673E+01  0.40000000000E+01  0.51109989000E-03 0.  1.
     -623   -1    0    0    0    0  0.00000000000E+00  0.00000000000E+00  0.12525980253E-10  0.17130000000E+03  0.17130000000E+03 0. -1.
       11    1    1    2    0    0 -0.16705519410E+00  0.29477684550E+00  0.18257361552E+00  0.38488207651E+00  0.51109989000E-03 0.  1.
     -623    1    1    2    0    0  0.32374274309E+00 -0.22710819393E+00  0.18258444436E+01  0.17131018678E+03  0.17130000000E+03 0. -1.
      622    1    1    2    0    0 -0.15668754899E+00 -0.67668651566E-01  0.19915819083E+01  0.36049311411E+01  0.30000000000E+01 0.  1.
</event>
<event>
 5   0  0.7495800E-05  0.9118800E+02  0.7818608E-02  0.1180000E+00
       11   -1    0    0    0    0  0.00000000000E+00  0.00000000000E+00  0.39999999673E+01  0.40000000000E+01  0.51109989000E-03 0.  1.
     -623   -1    0    0    0    0  0.00000000000E+00  0.00000000000E+00  0.12525980253E-10  0.17130000000E+03  0.17130000000E+03 0.  1.
       11    1    1    2    0    0 -0.16685310673E+00  0.31652303958E-01 -0.10185897214E+00  0.19803368148E+00  0.51109989000E-03 0.  1.
     -623    1    1    2    0    0 -0.12724485646E+01  0.65211417842E+00  0.24471396152E+01  0.17132344519E+03  0.17130000000E+03 0.  1.
      622    1    1    2    0    0  0.14393016713E+01 -0.68376648238E+00  0.16547193243E+01  0.37785211321E+01  0.30000000000E+01 0.  1.
</event>
<event>
 5   0  0.7495800E-05  0.9118800E+02  0.7818608E-02  0.1180000E+00
       11   -1    0    0    0    0  0.00000000000E+00  0.00000000000E+00  0.39999999673E+01  0.40000000000E+01  0.51109989000E-03 0. -1.
     -623   -1    0    0    0    0  0.00000000000E+00  0.00000000000E+00  0.12525980253E-10  0.17130000000E+03  0.17130000000E+03 0.  1.
       11    1    1    2    0    0  0.31683672433E+00 -0.19866478904E+00 -0.28741590203E+00  0.47165810737E+00  0.51109989000E-03 0. -1.
     -623    1    1    2    0    0  0.71246329681E-01  0.56487864748E+00  0.25483230271E+01  0.17131989994E+03  0.17130000000E+03 0.  1.
      622    1    1    2    0    0 -0.38808305401E+00 -0.36621385844E+00  0.17390928423E+01  0.35084419563E+01  0.30000000000E+01 0. -1.
</event>
<event>
 5   0  0.7495800E-05  0.9118800E+02  0.7818608E-02  0.1180000E+00
       11   -1    0    0    0    0  0.00000000000E+00  0.00000000000E+00  0.39999999673E+01  0.40000000000E+01  0.51109989000E-03 0.  1.
     -623   -1    0    0    0    0  0.00000000000E+00  0.00000000000E+00  0.12525980253E-10  0.17130000000E+03  0.17130000000E+03 0. -1.
       11    1    1    2    0    0  0.47750056254E-01 -0.35204927856E-01  0.16494624311E-01  0.61577501330E-01  0.51109989000E-03 0.  1.
     -623    1    1    2    0    0 -0.29762564801E+00 -0.40813783971E+00  0.14945266460E+01  0.17130726420E+03  0.17130000000E+03 0. -1.
      622    1    1    2    0    0  0.24987559175E+00  0.44334276756E+00  0.24889786971E+01  0.39311582995E+01  0.30000000000E+01 0.  1.
</event>
<event>
 5   0  0.7495800E-05  0.9118800E+02  0.7818608E-02  0.1180000E+00
       11   -1    0    0    0    0  0.00000000000E+00  0.00000000000E+00  0.39999999673E+01  0.40000000000E+01  0.51109989000E-03 0.  1.
     -623   -1    0    0    0    0  0.00000000000E+00  0.00000000000E+00  0.12525980253E-10  0.17130000000E+03  0.17130000000E+03 0. -1.
       11    1    1    2    0    0 -0.11071897179E+00  0.14883705207E-02  0.67801382766E-01  0.12983911078E+00  0.51109989000E-03 0.  1.
     -623    1    1    2    0    0  0.41862732849E+00 -0.20902081835E+00  0.15274814240E+01  0.17130744916E+03  0.17130000000E+03 0. -1.
      622    1    1    2    0    0 -0.30790835671E+00  0.20753244783E+00  0.24047171606E+01  0.38627117282E+01  0.30000000000E+01 0.  1.
</event>
<event>
 5   0  0.7495800E-05  0.9118800E+02  0.7818608E-02  0.1180000E+00
       11   -1    0    0    0    0  0.00000000000E+00  0.00000000000E+00  0.39999999673E+01  0.40000000000E+01  0.51109989000E-03 0. -1.
     -623   -1    0    0    0    0  0.00000000000E+00  0.00000000000E+00  0.12525980253E-10  0.17130000000E+03  0.17130000000E+03 0.  1.
       11    1    1    2    0    0 -0.21880483355E+00 -0.11779232103E+00  0.17914658382E+00  0.30634024514E+00  0.51109989000E-03 0. -1.
     -623    1    1    2    0    0 -0.27736924529E+00 -0.61355027191E+00  0.18775517435E+01  0.17131161250E+03  0.17130000000E+03 0.  1.
      622    1    1    2    0    0  0.49617407884E+00  0.73134259294E+00  0.19433016401E+01  0.36820472524E+01  0.30000000000E+01 0. -1.
</event>
<event>
 5   0  0.7495800E-05  0.9118800E+02  0.7818608E-02  0.1180000E+00
       11   -1    0    0    0    0  0.00000000000E+00  0.00000000000E+00  0.39999999673E+01  0.40000000000E+01  0.51109989000E-03 0.  1.
     -623   -1    0    0    0    0  0.00000000000E+00  0.00000000000E+00  0.12525980253E-10  0.17130000000E+03  0.17130000000E+03 0. -1.
       11    1    1    2    0    0  0.67994050071E+00  0.28327864028E+00  0.44649058762E+00  0.86134776867E+00  0.51109989000E-03 0.  1.
     -623    1    1    2    0    0 -0.65775713007E-01 -0.29291096289E+00  0.29983629067E+01  0.17132650205E+03  0.17130000000E+03 0. -1.
      622    1    1    2    0    0 -0.61416478770E+00  0.96323226050E-02  0.55514647302E+00  0.31121501851E+01  0.30000000000E+01 0.  0.
</event>
<event>
 5   0  0.7495800E-05  0.9118800E+02  0.7818608E-02  0.1180000E+00
       11   -1    0    0    0    0  0.00000000000E+00  0.00000000000E+00  0.39999999673E+01  0.40000000000E+01  0.51109989000E-03 0. -1.
     -623   -1    0    0    0    0  0.00000000000E+00  0.00000000000E+00  0.12525980253E-10  0.17130000000E+03  0.17130000000E+03 0.  1.
       11    1    1    2    0    0 -0.21945342614E+00  0.20687624134E+00  0.72102371731E+00  0.78155808973E+00  0.51109989000E-03 0. -1.
     -623    1    1    2    0    0  0.62763060031E+00 -0.31382406222E-01  0.22500544917E+01  0.17131592935E+03  0.17130000000E+03 0. -1.
      622    1    1    2    0    0 -0.40817717418E+00 -0.17549383512E+00  0.10289217584E+01  0.32025125568E+01  0.30000000000E+01 0. -1.
</event>
<event>
 5   0  0.7495800E-05  0.9118800E+02  0.7818608E-02  0.1180000E+00
       11   -1    0    0    0    0  0.00000000000E+00  0.00000000000E+00  0.39999999673E+01  0.40000000000E+01  0.51109989000E-03 0.  1.
     -623   -1    0    0    0    0  0.00000000000E+00  0.00000000000E+00  0.12525980253E-10  0.17130000000E+03  0.17130000000E+03 0.  1.
       11    1    1    2    0    0 -0.52120247942E+00 -0.56231409178E-01  0.68478210726E-05  0.52422729536E+00  0.51109989000E-03 0.  1.
     -623    1    1    2    0    0  0.69411025887E+00  0.15037066035E+01  0.31642192023E+01  0.17133722656E+03  0.17130000000E+03 0. -1.
      622    1    1    2    0    0 -0.17290777945E+00 -0.14474751943E+01  0.83577391725E+00  0.34385461432E+01  0.30000000000E+01 0.  1.
</event>
<event>
 5   0  0.7495800E-05  0.9118800E+02  0.7818608E-02  0.1180000E+00
       11   -1    0    0    0    0  0.00000000000E+00  0.00000000000E+00  0.39999999673E+01  0.40000000000E+01  0.51109989000E-03 0. -1.
     -623   -1    0    0    0    0  0.00000000000E+00  0.00000000000E+00  0.12525980253E-10  0.17130000000E+03  0.17130000000E+03 0. -1.
       11    1    1    2    0    0  0.23759611608E+00  0.13946740022E+00  0.55233257943E-01  0.28098762268E+00  0.51109989000E-03 0. -1.
     -623    1    1    2    0    0 -0.11163838519E+01 -0.12490319791E+00  0.19577615678E+01  0.17131487018E+03  0.17130000000E+03 0. -1.
      622    1    1    2    0    0  0.87878773580E+00 -0.14564202307E-01  0.19870051417E+01  0.37041421994E+01  0.30000000000E+01 0. -1.
</event>
<event>
 5   0  0.7495800E-05  0.9118800E+02  0.7818608E-02  0.1180000E+00
       11   -1    0    0    0    0  0.00000000000E+00  0.00000000000E+00  0.39999999673E+01  0.40000000000E+01  0.51109989000E-03 0. -1.
     -623   -1    0    0    0    0  0.00000000000E+00  0.00000000000E+00  0.12525980253E-10  0.17130000000E+03  0.17130000000E+03 0.  1.
       11    1    1    2    0    0  0.24922738216E+00 -0.47248342805E-01 -0.36664077836E+00  0.44583900176E+00  0.51109989000E-03 0. -1.
     -623    1    1    2    0    0  0.54801899522E+00  0.39599116309E+00  0.27196982611E+01  0.17132292285E+03  0.17130000000E+03 0.  1.
      622    1    1    2    0    0 -0.79724637738E+00 -0.34874282029E+00  0.16469424847E+01  0.35312381524E+01  0.30000000000E+01 0. -1.
</event>
<event>
 5   0  0.7495800E-05  0.9118800E+02  0.7818608E-02  0.1180000E+00
       11   -1    0    0    0    0  0.00000000000E+00  0.00000000000E+00  0.39999999673E+01  0.40000000000E+01  0.51109989000E-03 0. -1.
     -623   -1    0    0    0    0  0.00000000000E+00  0.00000000000E+00  0.12525980253E-10  0.17130000000E+03  0.17130000000E+03 0.  1.
       11    1    1    2    0    0  0.15234033330E-01 -0.28842095829E+00 -0.14614452891E+00  0.32369307918E+00  0.51109989000E-03 0. -1.
     -623    1    1    2    0    0  0.85888876614E+00 -0.79890351472E+00  0.25985673482E+01  0.17132372424E+03  0.17130000000E+03 0. -1.
      622    1    1    2    0    0 -0.87412279947E+00  0.10873244730E+01  0.15475771481E+01  0.36525826763E+01  0.30000000000E+01 0. -1.
</event>
<event>
 5   0  0.7495800E-05  0.9118800E+02  0.7818608E-02  0.1180000E+00
       11   -1    0    0    0    0  0.00000000000E+00  0.00000000000E+00  0.39999999673E+01  0.40000000000E+01  0.51109989000E-03 0. -1.
     -623   -1    0    0    0    0  0.00000000000E+00  0.00000000000E+00  0.12525980253E-10  0.17130000000E+03  0.17130000000E+03 0.  1.
       11    1    1    2    0    0  0.81008291486E-01  0.31868995501E-01 -0.29192773325E-01  0.91817511398E-01  0.51109989000E-03 0. -1.
     -623    1    1    2    0    0 -0.42960076085E+00 -0.11436257057E+00  0.15623258579E+01  0.17130770122E+03  0.17130000000E+03 0.  1.
      622    1    1    2    0    0  0.34859246937E+00  0.82493575070E-01  0.24668668828E+01  0.39004812674E+01  0.30000000000E+01 0. -1.
</event>
<event>
 5   0  0.7495800E-05  0.9118800E+02  0.7818608E-02  0.1180000E+00
       11   -1    0    0    0    0  0.00000000000E+00  0.00000000000E+00  0.39999999673E+01  0.40000000000E+01  0.51109989000E-03 0.  1.
     -623   -1    0    0    0    0  0.00000000000E+00  0.00000000000E+00  0.12525980253E-10  0.17130000000E+03  0.17130000000E+03 0. -1.
       11    1    1    2    0    0 -0.85413772072E-01 -0.21091263412E+00  0.13983339759E+00  0.26708293093E+00  0.51109989000E-03 0.  1.
     -623    1    1    2    0    0  0.66717942034E+00 -0.34466572981E+00  0.18097970978E+01  0.17131120596E+03  0.17130000000E+03 0. -1.
      622    1    1    2    0    0 -0.58176564827E+00  0.55557836393E+00  0.20503694720E+01  0.37217111064E+01  0.30000000000E+01 0.  1.
</event>
<event>
 5   0  0.7495800E-05  0.9118800E+02  0.7818608E-02  0.1180000E+00
       11   -1    0    0    0    0  0.00000000000E+00  0.00000000000E+00  0.39999999673E+01  0.40000000000E+01  0.51109989000E-03 0. -1.
     -623   -1    0    0    0    0  0.00000000000E+00  0.00000000000E+00  0.12525980253E-10  0.17130000000E+03  0.17130000000E+03 0. -1.
       11    1    1    2    0    0 -0.44114519273E+00 -0.39750094072E+00  0.61170591638E+00  0.85252593409E+00  0.51109989000E-03 0. -1.
     -623    1    1    2    0    0  0.11403501451E+01  0.38194285421E+00  0.29014083850E+01  0.17132879049E+03  0.17130000000E+03 0. -1.
      622    1    1    2    0    0 -0.69920495240E+00  0.15558086513E-01  0.48688566597E+00  0.31186835799E+01  0.30000000000E+01 0. -1.
</event>
<event>
 5   0  0.7495800E-05  0.9118800E+02  0.7818608E-02  0.1180000E+00
       11   -1    0    0    0    0  0.00000000000E+00  0.00000000000E+00  0.39999999673E+01  0.40000000000E+01  0.51109989000E-03 0.  1.
     -623   -1    0    0    0    0  0.00000000000E+00  0.00000000000E+00  0.12525980253E-10  0.17130000000E+03  0.17130000000E+03 0. -1.
       11    1    1    2    0    0  0.91554265203E-01  0.46016112311E-01  0.91787513289E-01  0.13756771019E+00  0.51109989000E-03 0.  1.
     -623    1    1    2    0    0  0.18339969445E+00  0.50468899766E+00  0.15677742446E+01  0.17130801576E+03  0.17130000000E+03 0.  1.
      622    1    1    2    0    0 -0.27495395965E+00 -0.55070510997E+00  0.23404382094E+01  0.38544165331E+01  0.30000000000E+01 0.  1.
</event>
<event>
 5   0  0.7495800E-05  0.9118800E+02  0.7818608E-02  0.1180000E+00
       11   -1    0    0    0    0  0.00000000000E+00  0.00000000000E+00  0.39999999673E+01  0.40000000000E+01  0.51109989000E-03 0. -1.
     -623   -1    0    0    0    0  0.00000000000E+00  0.00000000000E+00  0.12525980253E-10  0.17130000000E+03  0.17130000000E+03 0.  1.
       11    1    1    2    0    0  0.11269470880E+00 -0.42806551601E-01 -0.59806338835E-01  0.13457175647E+00  0.51109989000E-03 0. -1.
     -623    1    1    2    0    0  0.80984723808E+00 -0.55540357632E-01  0.18257901882E+01  0.17131165298E+03  0.17130000000E+03 0.  1.
      622    1    1    2    0    0 -0.92254194688E+00  0.98346909233E-01  0.22340161180E+01  0.38537752625E+01  0.30000000000E+01 0. -1.
</event>
<event>
 5   0  0.7495800E-05  0.9118800E+02  0.7818608E-02  0.1180000E+00
       11   -1    0    0    0    0  0.00000000000E+00  0.00000000000E+00  0.39999999673E+01  0.40000000000E+01  0.51109989000E-03 0. -1.
     -623   -1    0    0    0    0  0.00000000000E+00  0.00000000000E+00  0.12525980253E-10  0.17130000000E+03  0.17130000000E+03 0.  1.
       11    1    1    2    0    0 -0.45740843096E-01  0.25171245842E+00  0.29924849975E+00  0.39370206029E+00  0.51109989000E-03 0. -1.
     -623    1    1    2    0    0  0.43462082786E+00 -0.87577104491E+00  0.18645696005E+01  0.17131293731E+03  0.17130000000E+03 0.  1.
      622    1    1    2    0    0 -0.38887998477E+00  0.62405858649E+00  0.18361818671E+01  0.35933606291E+01  0.30000000000E+01 0. -1.
</event>
<event>
 5   0  0.7495800E-05  0.9118800E+02  0.7818608E-02  0.1180000E+00
       11   -1    0    0    0    0  0.00000000000E+00  0.00000000000E+00  0.39999999673E+01  0.40000000000E+01  0.51109989000E-03 0.  1.
     -623   -1    0    0    0    0  0.00000000000E+00  0.00000000000E+00  0.12525980253E-10  0.17130000000E+03  0.17130000000E+03 0. -1.
       11    1    1    2    0    0 -0.78329322985E-01 -0.77799446328E-02 -0.23546892723E+00  0.24827784293E+00  0.51109989000E-03 0.  1.
     -623    1    1    2    0    0 -0.13679210488E+01 -0.73884614694E+00  0.27492954035E+01  0.17132911523E+03  0.17130000000E+03 0.  1.
      622    1    1    2    0    0  0.14462503718E+01  0.74662609157E+00  0.14861734911E+01  0.37226069231E+01  0.30000000000E+01 0.  1.
</event>
<event>
 5   0  0.7495800E-05  0.9118800E+02  0.7818608E-02  0.1180000E+00
       11   -1    0    0    0    0  0.00000000000E+00  0.00000000000E+00  0.39999999673E+01  0.40000000000E+01  0.51109989000E-03 0. -1.
     -623   -1    0    0    0    0  0.00000000000E+00  0.00000000000E+00  0.12525980253E-10  0.17130000000E+03  0.17130000000E+03 0. -1.
       11    1    1    2    0    0  0.11330012672E-01  0.31193441728E+00 -0.55451164655E-01  0.31702766876E+00  0.51109989000E-03 0. -1.
     -623    1    1    2    0    0 -0.14172582227E+00 -0.26105487819E+00  0.19431670722E+01  0.17131127848E+03  0.17130000000E+03 0. -1.
      622    1    1    2    0    0  0.13039580960E+00 -0.50879539092E-01  0.21122840599E+01  0.36716938522E+01  0.30000000000E+01 0. -1.
</event>
<event>
 5   0  0.7495800E-05  0.9118800E+02  0.7818608E-02  0.1180000E+00
       11   -1    0    0    0    0  0.00000000000E+00  0.00000000000E+00  0.39999999673E+01  0.40000000000E+01  0.51109989000E-03 0.  1.
     -623   -1    0    0    0    0  0.00000000000E+00  0.00000000000E+00  0.12525980253E-10  0.17130000000E+03  0.17130000000E+03 0. -1.
       11    1    1    2    0    0 -0.29307394495E+00 -0.11484146190E+00 -0.18063887284E+00  0.36292087593E+00  0.51109989000E-03 0.  1.
     -623    1    1    2    0    0 -0.48387366432E+00  0.17430637780E+00  0.23091135807E+01  0.17131633466E+03  0.17130000000E+03 0. -1.
      622    1    1    2    0    0  0.77694760927E+00 -0.59464915907E-01  0.18715252595E+01  0.36207444622E+01  0.30000000000E+01 0.  1.
</event>
<event>
 5   0  0.7495800E-05  0.9118800E+02  0.7818608E-02  0.1180000E+00
       11   -1    0    0    0    0  0.00000000000E+00  0.00000000000E+00  0.39999999673E+01  0.40000000000E+01  0.51109989000E-03 0.  1.
     -623   -1    0    0    0    0  0.00000000000E+00  0.00000000000E+00  0.12525980253E-10  0.17130000000E+03  0.17130000000E+03 0. -1.
       11    1    1    2    0    0 -0.18874466158E+00  0.20930654717E+00  0.22311620836E-01  0.28272220926E+00  0.51109989000E-03 0.  1.
     -623    1    1    2    0    0  0.29672448770E+00 -0.17877942759E+00  0.18022406406E+01  0.17130983065E+03  0.17130000000E+03 0. -1.
      622    1    1    2    0    0 -0.10797982612E+00 -0.30527119580E-01  0.21754477059E+01  0.37074471364E+01  0.30000000000E+01 0.  1.
</event>
<event>
 5   0  0.7495800E-05  0.9118800E+02  0.7818608E-02  0.1180000E+00
       11   -1    0    0    0    0  0.00000000000E+00  0.00000000000E+00  0.39999999673E+01  0.40000000000E+01  0.51109989000E-03 0.  1.
     -623   -1    0    0    0    0  0.00000000000E+00  0.00000000000E+00  0.12525980253E-10  0.17130000000E+03  0.17130000000E+03 0. -1.
       11    1    1    2    0    0  0.51474079312E+00  0.69351615040E+00  0.10419086461E+00  0.86993030322E+00  0.51109989000E-03 0.  1.
     -623    1    1    2    0    0 -0.21316117877E+00 -0.43921376577E-01  0.39401868262E+01  0.17134544768E+03  0.17130000000E+03 0.  1.
      622    1    1    2    0    0 -0.30157961435E+00 -0.64959477382E+00 -0.44377723413E-01  0.30846220216E+01  0.30000000000E+01 0.  0.
</event>
<event>
 5   0  0.7495800E-05  0.9118800E+02  0.7818608E-02  0.1180000E+00
       11   -1    0    0    0    0  0.00000000000E+00  0.00000000000E+00  0.39999999673E+01  0.40000000000E+01  0.51109989000E-03 0. -1.
     -623   -1    0    0    0    0  0.00000000000E+00  0.00000000000E+00  0.12525980253E-10  0.17130000000E+03  0.17130000000E+03 0.  1.
       11    1    1    2    0    0 -0.34551431577E+00 -0.60092743653E-01  0.54317024140E-01  0.35488291108E+00  0.51109989000E-03 0. -1.
     -623    1    1    2    0    0 -0.72234492468E-01 -0.27240771103E-01  0.19395205702E+01  0.17131099702E+03  0.17130000000E+03 0.  1.
      622    1    1    2    0    0  0.41774880824E+00  0.87333514756E-01  0.20061623731E+01  0.36341200691E+01  0.30000000000E+01 0. -1.
</event>
<event>
 5   0  0.7495800E-05  0.9118800E+02  0.7818608E-02  0.1180000E+00
       11   -1    0    0    0    0  0.00000000000E+00  0.00000000000E+00  0.39999999673E+01  0.40000000000E+01  0.51109989000E-03 0.  1.
     -623   -1    0    0    0    0  0.00000000000E+00  0.00000000000E+00  0.12525980253E-10  0.17130000000E+03  0.17130000000E+03 0.  1.
       11    1    1    2    0    0 -0.17888493351E+00  0.14255710062E+00  0.18686359437E-01  0.22950334992E+00  0.51109989000E-03 0.  1.
     -623    1    1    2    0    0  0.34222107999E+00  0.13350320586E+00  0.17352966658E+01  0.17130918304E+03  0.17130000000E+03 0.  1.
      622    1    1    2    0    0 -0.16333614648E+00 -0.27606030648E+00  0.22460169422E+01  0.37613136128E+01  0.30000000000E+01 0.  0.
</event>
<event>
 5   0  0.7495800E-05  0.9118800E+02  0.7818608E-02  0.1180000E+00
       11   -1    0    0    0    0  0.00000000000E+00  0.00000000000E+00  0.39999999673E+01  0.40000000000E+01  0.51109989000E-03 0. -1.
     -623   -1    0    0    0    0  0.00000000000E+00  0.00000000000E+00  0.12525980253E-10  0.17130000000E+03  0.17130000000E+03 0. -1.
       11    1    1    2    0    0  0.10155563017E+00 -0.10551882069E+00  0.23382845842E+00  0.27590537640E+00  0.51109989000E-03 0. -1.
     -623    1    1    2    0    0  0.15345212915E-01 -0.87415772693E-01  0.15836612518E+01  0.17130734328E+03  0.17130000000E+03 0. -1.
      622    1    1    2    0    0 -0.11690084308E+00  0.19293459338E+00  0.21825102571E+01  0.37167513486E+01  0.30000000000E+01 0. -1.
</event>
<event>
 5   0  0.7495800E-05  0.9118800E+02  0.7818608E-02  0.1180000E+00
       11   -1    0    0    0    0  0.00000000000E+00  0.00000000000E+00  0.39999999673E+01  0.40000000000E+01  0.51109989000E-03 0. -1.
     -623   -1    0    0    0    0  0.00000000000E+00  0.00000000000E+00  0.12525980253E-10  0.17130000000E+03  0.17130000000E+03 0.  1.
       11    1    1    2    0    0 -0.13154738989E+00 -0.40587114757E+00 -0.23730161208E+00  0.48820940234E+00  0.51109989000E-03 0. -1.
     -623    1    1    2    0    0  0.11585458093E+01  0.76771217988E-01  0.28307123935E+01  0.17132732139E+03  0.17130000000E+03 0.  1.
      622    1    1    2    0    0 -0.10269984195E+01  0.32909992959E+00  0.14065891859E+01  0.34844692071E+01  0.30000000000E+01 0. -1.
</event>
<event>
 5   0  0.7495800E-05  0.9118800E+02  0.7818608E-02  0.1180000E+00
       11   -1    0    0    0    0  0.00000000000E+00  0.00000000000E+00  0.39999999673E+01  0.40000000000E+01  0.51109989000E-03 0.  1.
     -623   -1    0    0    0    0  0.00000000000E+00  0.00000000000E+00  0.12525980253E-10  0.17130000000E+03  0.17130000000E+03 0. -1.
       11    1    1    2    0    0  0.24409476699E+00 -0.32132981544E+00 -0.19131921086E+00  0.44658527431E+00  0.51109989000E-03 0.  1.
     -623    1    1    2    0    0 -0.10209727169E+01  0.43997821225E+00  0.25018981131E+01  0.17132187677E+03  0.17130000000E+03 0. -1.
      622    1    1    2    0    0  0.77687794989E+00 -0.11864839681E+00  0.16894210652E+01  0.35315379548E+01  0.30000000000E+01 0.  1.
</event>
<event>
 5   0  0.7495800E-05  0.9118800E+02  0.7818608E-02  0.1180000E+00
       11   -1    0    0    0    0  0.00000000000E+00  0.00000000000E+00  0.39999999673E+01  0.40000000000E+01  0.51109989000E-03 0. -1.
     -623   -1    0    0    0    0  0.00000000000E+00  0.00000000000E+00  0.12525980253E-10  0.17130000000E+03  0.17130000000E+03 0. -1.
       11    1    1    2    0    0 -0.11878388370E+00 -0.46713719832E-01  0.30091935997E-01  0.13113950009E+00  0.51109989000E-03 0. -1.
     -623    1    1    2    0    0  0.73494964266E+00  0.33706694018E+00  0.16399495416E+01  0.17130975804E+03  0.17130000000E+03 0. -1.
      622    1    1    2    0    0 -0.61616575896E+00 -0.29035322035E+00  0.23299584897E+01  0.38591024603E+01  0.30000000000E+01 0.  0.
</event>
<event>
 5   0  0.7495800E-05  0.9118800E+02  0.7818608E-02  0.1180000E+00
       11   -1    0    0    0    0  0.00000000000E+00  0.00000000000E+00  0.39999999673E+01  0.40000000000E+01  0.51109989000E-03 0.  1.
     -623   -1    0    0    0    0  0.00000000000E+00  0.00000000000E+00  0.12525980253E-10  0.17130000000E+03  0.17130000000E+03 0. -1.
       11    1    1    2    0    0  0.78486918583E-01 -0.36890727343E+00  0.57695452033E+00  0.68929641848E+00  0.51109989000E-03 0.  1.
     -623    1    1    2    0    0  0.53029852287E+00  0.95388733393E+00  0.23661087428E+01  0.17131981668E+03  0.17130000000E+03 0. -1.
      622    1    1    2    0    0 -0.60878544146E+00 -0.58498006050E+00  0.10569367042E+01  0.32908868989E+01  0.30000000000E+01 0. -1.
</event>
<event>
 5   0  0.7495800E-05  0.9118800E+02  0.7818608E-02  0.1180000E+00
       11   -1    0    0    0    0  0.00000000000E+00  0.00000000000E+00  0.39999999673E+01  0.40000000000E+01  0.51109989000E-03 0.  1.
     -623   -1    0    0    0    0  0.00000000000E+00  0.00000000000E+00  0.12525980253E-10  0.17130000000E+03  0.17130000000E+03 0.  1.
       11    1    1    2    0    0 -0.81380965875E-01  0.24542796282E+00 -0.24758409036E-01  0.25975177878E+00  0.51109989000E-03 0.  1.
     -623    1    1    2    0    0  0.27660797616E+00  0.17416382181E+01  0.31786380704E+01  0.17133856412E+03  0.17130000000E+03 0.  1.
      622    1    1    2    0    0 -0.19522701028E+00 -0.19870661809E+01  0.84612030597E+00  0.37016840985E+01  0.30000000000E+01 0.  1.
</event>
<event>
 5   0  0.7495800E-05  0.9118800E+02  0.7818608E-02  0.1180000E+00
       11   -1    0    0    0    0  0.00000000000E+00  0.00000000000E+00  0.39999999673E+01  0.40000000000E+01  0.51109989000E-03 0. -1.
     -623   -1    0    0    0    0  0.00000000000E+00  0.00000000000E+00  0.12525980253E-10  0.17130000000E+03  0.17130000000E+03 0.  1.
       11    1    1    2    0    0  0.10318472439E+00 -0.95502480744E-01  0.88089635380E-01  0.16591520804E+00  0.51109989000E-03 0. -1.
     -623    1    1    2    0    0 -0.39622992086E+00  0.32347206190E+00  0.15663496272E+01  0.17130792475E+03  0.17130000000E+03 0.  1.
      622    1    1    2    0    0  0.29304519647E+00 -0.22796958116E+00  0.23455607048E+01  0.38261600381E+01  0.30000000000E+01 0. -1.
</event>
<event>
 5   0  0.7495800E-05  0.9118800E+02  0.7818608E-02  0.1180000E+00
       11   -1    0    0    0    0  0.00000000000E+00  0.00000000000E+00  0.39999999673E+01  0.40000000000E+01  0.51109989000E-03 0.  1.
     -623   -1    0    0    0    0  0.00000000000E+00  0.00000000000E+00  0.12525980253E-10  0.17130000000E+03  0.17130000000E+03 0.  1.
       11    1    1    2    0    0 -0.11565822932E+00  0.36028345238E+00  0.23095798161E+00  0.44330896964E+00  0.51109989000E-03 0.  1.
     -623    1    1    2    0    0 -0.10981647836E+01 -0.85631580352E-01  0.23690658420E+01  0.17131992228E+03  0.17130000000E+03 0.  1.
      622    1    1    2    0    0  0.12138230129E+01 -0.27465187203E+00  0.13999761438E+01  0.35367687457E+01  0.30000000000E+01 0.  0.
</event>
<event>
 5   0  0.7495800E-05  0.9118800E+02  0.7818608E-02  0.1180000E+00
       11   -1    0    0    0    0  0.00000000000E+00  0.00000000000E+00  0.39999999673E+01  0.40000000000E+01  0.51109989000E-03 0.  1.
     -623   -1    0    0    0    0  0.00000000000E+00  0.00000000000E+00  0.12525980253E-10  0.17130000000E+03  0.17130000000E+03 0. -1.
       11    1    1    2    0    0  0.12792916878E+00 -0.95440352411E-01  0.72912359793E-01  0.17547423323E+00  0.51109989000E-03 0.  1.
     -623    1    1    2    0    0 -0.23723210271E+00  0.87361920374E+00  0.17075802606E+01  0.17131090251E+03  0.17130000000E+03 0. -1.
      622    1    1    2    0    0  0.10930293394E+00 -0.77817885133E+00  0.22195073470E+01  0.38136232534E+01  0.30000000000E+01 0.  1.
</event>
<event>
 5   0  0.7495800E-05  0.9118800E+02  0.7818608E-02  0.1180000E+00
       11   -1    0    0    0    0  0.00000000000E+00  0.00000000000E+00  0.39999999673E+01  0.40000000000E+01  0.51109989000E-03 0. -1.
     -623   -1    0    0    0    0  0.00000000000E+00  0.00000000000E+00  0.12525980253E-10  0.17130000000E+03  0.17130000000E+03 0. -1.
       11    1    1    2    0    0  0.52565659153E-01  0.19946146163E-01 -0.43001066173E-01  0.70783827136E-01  0.51109989000E-03 0. -1.
     -623    1    1    2    0    0 -0.57045489568E-01  0.79125822622E+00  0.16547968994E+01  0.17130982954E+03  0.17130000000E+03 0. -1.
      622    1    1    2    0    0  0.44798304157E-02 -0.81120437238E+00  0.23882041341E+01  0.39193866343E+01  0.30000000000E+01 0. -1.
</event>
<event>
 5   0  0.7495800E-05  0.9118800E+02  0.7818608E-02  0.1180000E+00
       11   -1    0    0    0    0  0.00000000000E+00  0.00000000000E+00  0.39999999673E+01  0.40000000000E+01  0.51109989000E-03 0.  1.
     -623   -1    0    0    0    0  0.00000000000E+00  0.00000000000E+00  0.12525980253E-10  0.17130000000E+03  0.17130000000E+03 0.  1.
       11    1    1    2    0    0 -0.22504280217E+00  0.18894235260E+00  0.34931887101E+00  0.45647279248E+00  0.51109989000E-03 0.  1.
     -623    1    1    2    0    0  0.22987313736E+00 -0.51106197590E+00  0.18126247885E+01  0.17131050649E+03  0.17130000000E+03 0.  1.
      622    1    1    2    0    0 -0.48303351907E-02  0.32211962329E+00  0.18380563078E+01  0.35330207153E+01  0.30000000000E+01 0.  1.
</event>
<event>
 5   0  0.7495800E-05  0.9118800E+02  0.7818608E-02  0.1180000E+00
       11   -1    0    0    0    0  0.00000000000E+00  0.00000000000E+00  0.39999999673E+01  0.40000000000E+01  0.51109989000E-03 0. -1.
     -623   -1    0    0    0    0  0.00000000000E+00  0.00000000000E+00  0.12525980253E-10  0.17130000000E+03  0.17130000000E+03 0. -1.
       11    1    1    2    0    0 -0.57868390276E+00  0.17084619003E+00  0.94652455431E-01  0.61075594840E+00  0.51109989000E-03 0. -1.
     -623    1    1    2    0    0  0.51505170038E+00 -0.22699736587E+00  0.23681920920E+01  0.17131729376E+03  0.17130000000E+03 0. -1.
      622    1    1    2    0    0  0.63632202383E-01  0.56151175836E-01  0.15371554199E+01  0.33719502957E+01  0.30000000000E+01 0. -1.
</event>
<event>
 5   0  0.7495800E-05  0.9118800E+02  0.7818608E-02  0.1180000E+00
       11   -1    0    0    0    0  0.00000000000E+00  0.00000000000E+00  0.39999999673E+01  0.40000000000E+01  0.51109989000E-03 0.  1.
     -623   -1    0    0    0    0  0.00000000000E+00  0.00000000000E+00  0.12525980253E-10  0.17130000000E+03  0.17130000000E+03 0.  1.
       11    1    1    2    0    0 -0.12963767465E+00  0.14214828200E+00  0.10961913735E+00  0.22142420207E+00  0.51109989000E-03 0.  1.
     -623    1    1    2    0    0 -0.12190663488E+00 -0.14098499331E+00  0.16197459047E+01  0.17130775906E+03  0.17130000000E+03 0.  1.
      622    1    1    2    0    0  0.25154430953E+00 -0.11632886957E-02  0.22706349254E+01  0.37708167361E+01  0.30000000000E+01 0.  1.
</event>
<event>
 5   0  0.7495800E-05  0.9118800E+02  0.7818608E-02  0.1180000E+00
       11   -1    0    0    0    0  0.00000000000E+00  0.00000000000E+00  0.39999999673E+01  0.40000000000E+01  0.51109989000E-03 0.  1.
     -623   -1    0    0    0    0  0.00000000000E+00  0.00000000000E+00  0.12525980253E-10  0.17130000000E+03  0.17130000000E+03 0. -1.
       11    1    1    2    0    0  0.12687431062E+00  0.58272753119E+00  0.38557051667E+00  0.71016431258E+00  0.51109989000E-03 0.  1.
     -623    1    1    2    0    0 -0.78418463120E+00 -0.82835615723E+00  0.25265132265E+01  0.17132242815E+03  0.17130000000E+03 0. -1.
      622    1    1    2    0    0  0.65731032058E+00  0.24562862604E+00  0.10879162241E+01  0.32674075335E+01  0.30000000000E+01 0.  1.
</event>
<event>
 5   0  0.7495800E-05  0.9118800E+02  0.7818608E-02  0.1180000E+00
       11   -1    0    0    0    0  0.00000000000E+00  0.00000000000E+00  0.39999999673E+01  0.40000000000E+01  0.51109989000E-03 0.  1.
     -623   -1    0    0    0    0  0.00000000000E+00  0.00000000000E+00  0.12525980253E-10  0.17130000000E+03  0.17130000000E+03 0.  1.
       11    1    1    2    0    0 -0.56942324850E-01  0.21946273736E-01 -0.49513428621E-01  0.78586946288E-01  0.51109989000E-03 0.  1.
     -623    1    1    2    0    0 -0.36133090155E-01 -0.36499549046E+00  0.15610750133E+01  0.17130750562E+03  0.17130000000E+03 0.  1.
      622    1    1    2    0    0  0.93075415005E-01  0.34304921672E+00  0.24884383827E+01  0.39139074315E+01  0.30000000000E+01 0.  1.
</event>
<event>
 5   0  0.7495800E-05  0.9118800E+02  0.7818608E-02  0.1180000E+00
       11   -1    0    0    0    0  0.00000000000E+00  0.00000000000E+00  0.39999999673E+01  0.40000000000E+01  0.51109989000E-03 0. -1.
     -623   -1    0    0    0    0  0.00000000000E+00  0.00000000000E+00  0.12525980253E-10  0.17130000000E+03  0.17130000000E+03 0. -1.
       11    1    1    2    0    0  0.11782186614E+00  0.12637085591E+00  0.59148425966E-01  0.18262087197E+00  0.51109989000E-03 0. -1.
     -623    1    1    2    0    0  0.17051143841E+00 -0.44760889602E+00  0.16340108910E+01  0.17130846278E+03  0.17130000000E+03 0. -1.
      622    1    1    2    0    0 -0.28833330455E+00  0.32123804011E+00  0.23068406504E+01  0.38089163497E+01  0.30000000000E+01 0. -1.
</event>
<event>
 5   0  0.7495800E-05  0.9118800E+02  0.7818608E-02  0.1180000E+00
       11   -1    0    0    0    0  0.00000000000E+00  0.00000000000E+00  0.39999999673E+01  0.40000000000E+01  0.51109989000E-03 0.  1.
     -623   -1    0    0    0    0  0.00000000000E+00  0.00000000000E+00  0.12525980253E-10  0.17130000000E+03  0.17130000000E+03 0.  1.
       11    1    1    2    0    0  0.42754859504E-01  0.22113349087E-02 -0.77371280205E-01  0.88427621459E-01  0.51109989000E-03 0.  1.
     -623    1    1    2    0    0 -0.31888224304E+00  0.22496516231E+00  0.16054746205E+01  0.17130796784E+03  0.17130000000E+03 0.  1.
      622    1    1    2    0    0  0.27612738354E+00 -0.22717649722E+00  0.24718966270E+01  0.39036045429E+01  0.30000000000E+01 0.  1.
</event>
<event>
 5   0  0.7495800E-05  0.9118800E+02  0.7818608E-02  0.1180000E+00
       11   -1    0    0    0    0  0.00000000000E+00  0.00000000000E+00  0.39999999673E+01  0.40000000000E+01  0.51109989000E-03 0. -1.
     -623   -1    0    0    0    0  0.00000000000E+00  0.00000000000E+00  0.12525980253E-10  0.17130000000E+03  0.17130000000E+03 0. -1.
       11    1    1    2    0    0  0.56317419898E-01  0.90823144647E-01 -0.63208255790E-01  0.12416134749E+00  0.51109989000E-03 0. -1.
     -623    1    1    2    0    0 -0.63827740436E-01  0.51122724020E+00  0.16992381303E+01  0.17130920243E+03  0.17130000000E+03 0. -1.
      622    1    1    2    0    0  0.75103205379E-02 -0.60205038485E+00  0.23639700928E+01  0.38666362217E+01  0.30000000000E+01 0. -1.
</event>
<event>
 5   0  0.7495800E-05  0.9118800E+02  0.7818608E-02  0.1180000E+00
       11   -1    0    0    0    0  0.00000000000E+00  0.00000000000E+00  0.39999999673E+01  0.40000000000E+01  0.51109989000E-03 0.  1.
     -623   -1    0    0    0    0  0.00000000000E+00  0.00000000000E+00  0.12525980253E-10  0.17130000000E+03  0.17130000000E+03 0.  1.
       11    1    1    2    0    0  0.48931598485E-01  0.27739157571E+00 -0.16688826086E+00  0.32740241361E+00  0.51109989000E-03 0.  1.
     -623    1    1    2    0    0  0.11267327142E+01 -0.33890417797E+00  0.24510814379E+01  0.17132157536E+03  0.17130000000E+03 0.  1.
      622    1    1    2    0    0 -0.11756643127E+01  0.61512602259E-01  0.17158067903E+01  0.36510222292E+01  0.30000000000E+01 0.  0.
</event>
<event>
 5   0  0.7495800E-05  0.9118800E+02  0.7818608E-02  0.1180000E+00
       11   -1    0    0    0    0  0.00000000000E+00  0.00000000000E+00  0.39999999673E+01  0.40000000000E+01  0.51109989000E-03 0.  1.
     -623   -1    0    0    0    0  0.00000000000E+00  0.00000000000E+00  0.12525980253E-10  0.17130000000E+03  0.17130000000E+03 0.  1.
       11    1    1    2    0    0  0.56339949390E-01  0.10050149008E+00  0.34834663966E-02  0.11526983632E+00  0.51109989000E-03 0.  1.
     -623    1    1    2    0    0  0.48010254782E+00 -0.23744440956E+00  0.16049150766E+01  0.17130835540E+03  0.17130000000E+03 0.  1.
      622    1    1    2    0    0 -0.53644249721E+00  0.13694291948E+00  0.23916014244E+01  0.38763747612E+01  0.30000000000E+01 0.  1.
</event>
<event>
 5   0  0.7495800E-05  0.9118800E+02  0.7818608E-02  0.1180000E+00
       11   -1    0    0    0    0  0.00000000000E+00  0.00000000000E+00  0.39999999673E+01  0.40000000000E+01  0.51109989000E-03 0.  1.
     -623   -1    0    0    0    0  0.00000000000E+00  0.00000000000E+00  0.12525980253E-10  0.17130000000E+03  0.17130000000E+03 0.  1.
       11    1    1    2    0    0 -0.19254035918E+00 -0.25671122463E+00 -0.18184139937E+00  0.36883464928E+00  0.51109989000E-03 0.  1.
     -623    1    1    2    0    0 -0.61486085612E+00 -0.53026476221E+00  0.25186776221E+01  0.17132043944E+03  0.17130000000E+03 0.  1.
      622    1    1    2    0    0  0.80740121529E+00  0.78697598683E+00  0.16631637446E+01  0.36107259059E+01  0.30000000000E+01 0.  0.
</event>
<event>
 5   0  0.7495800E-05  0.9118800E+02  0.7818608E-02  0.1180000E+00
       11   -1    0    0    0    0  0.00000000000E+00  0.00000000000E+00  0.39999999673E+01  0.40000000000E+01  0.51109989000E-03 0. -1.
     -623   -1    0    0    0    0  0.00000000000E+00  0.00000000000E+00  0.12525980253E-10  0.17130000000E+03  0.17130000000E+03 0.  1.
       11    1    1    2    0    0 -0.30188307023E+00  0.64444256871E-01  0.18789017890E+00  0.36137159667E+00  0.51109989000E-03 0. -1.
     -623    1    1    2    0    0 -0.74536549896E+00  0.26024904871E-01  0.20708458394E+01  0.17131414025E+03  0.17130000000E+03 0.  1.
      622    1    1    2    0    0  0.10472485692E+01 -0.90469161742E-01  0.17412639491E+01  0.36244881536E+01  0.30000000000E+01 0. -1.
</event>
<event>
 5   0  0.7495800E-05  0.9118800E+02  0.7818608E-02  0.1180000E+00
       11   -1    0    0    0    0  0.00000000000E+00  0.00000000000E+00  0.39999999673E+01  0.40000000000E+01  0.51109989000E-03 0.  1.
     -623   -1    0    0    0    0  0.00000000000E+00  0.00000000000E+00  0.12525980253E-10  0.17130000000E+03  0.17130000000E+03 0.  1.
       11    1    1    2    0    0 -0.27091753651E+00 -0.38335983120E+00 -0.26976970766E-01  0.47020111648E+00  0.51109989000E-03 0.  1.
     -623    1    1    2    0    0  0.50398997899E+00 -0.39439122318E+00  0.23916537280E+01  0.17131789036E+03  0.17130000000E+03 0.  1.
      622    1    1    2    0    0 -0.23307244248E+00  0.77775105438E+00  0.16353232101E+01  0.35119085221E+01  0.30000000000E+01 0.  1.
</event>
<event>
 5   0  0.7495800E-05  0.9118800E+02  0.7818608E-02  0.1180000E+00
       11   -1    0    0    0    0  0.00000000000E+00  0.00000000000E+00  0.39999999673E+01  0.40000000000E+01  0.51109989000E-03 0. -1.
     -623   -1    0    0    0    0  0.00000000000E+00  0.00000000000E+00  0.12525980253E-10  0.17130000000E+03  0.17130000000E+03 0.  1.
       11    1    1    2    0    0  0.21538970381E+00 -0.43968912241E+00  0.34564120533E+00  0.59932241149E+00  0.51109989000E-03 0. -1.
     -623    1    1    2    0    0 -0.31974214082E+00  0.13400062604E+01  0.23924780221E+01  0.17132224550E+03  0.17130000000E+03 0.  1.
      622    1    1    2    0    0  0.10435243701E+00 -0.90031713795E+00  0.12618807399E+01  0.33784320893E+01  0.30000000000E+01 0.  0.
</event>
<event>
 5   0  0.7495800E-05  0.9118800E+02  0.7818608E-02  0.1180000E+00
       11   -1    0    0    0    0  0.00000000000E+00  0.00000000000E+00  0.39999999673E+01  0.40000000000E+01  0.51109989000E-03 0.  1.
     -623   -1    0    0    0    0  0.00000000000E+00  0.00000000000E+00  0.12525980253E-10  0.17130000000E+03  0.17130000000E+03 0.  1.
       11    1    1    2    0    0 -0.47828418420E+00 -0.10383427177E+00 -0.57952401185E-01  0.49284486289E+00  0.51109989000E-03 0.  1.
     -623    1    1    2    0    0  0.12766143530E+01 -0.23250356780E-02  0.24790707065E+01  0.17132269418E+03  0.17130000000E+03 0.  1.
      622    1    1    2    0    0 -0.79833016880E+00  0.10615930745E+00  0.15788816621E+01  0.34844609569E+01  0.30000000000E+01 0.  0.
</event>
<event>
 5   0  0.7495800E-05  0.9118800E+02  0.7818608E-02  0.1180000E+00
       11   -1    0    0    0    0  0.00000000000E+00  0.00000000000E+00  0.39999999673E+01  0.40000000000E+01  0.51109989000E-03 0.  1.
     -623   -1    0    0    0    0  0.00000000000E+00  0.00000000000E+00  0.12525980253E-10  0.17130000000E+03  0.17130000000E+03 0.  1.
       11    1    1    2    0    0 -0.79071873228E-02  0.24774189476E+00  0.24517332801E-01  0.24907816215E+00  0.51109989000E-03 0.  1.
     -623    1    1    2    0    0 -0.33194633617E+00  0.30354324153E+00  0.18373146141E+01  0.17131044350E+03  0.17130000000E+03 0.  1.
      622    1    1    2    0    0  0.33985352349E+00 -0.55128513628E+00  0.21381680205E+01  0.37404783387E+01  0.30000000000E+01 0.  1.
</event>
<event>
 5   0  0.7495800E-05  0.9118800E+02  0.7818608E-02  0.1180000E+00
       11   -1    0    0    0    0  0.00000000000E+00  0.00000000000E+00  0.39999999673E+01  0.40000000000E+01  0.51109989000E-03 0. -1.
     -623   -1    0    0    0    0  0.00000000000E+00  0.00000000000E+00  0.12525980253E-10  0.17130000000E+03  0.17130000000E+03 0. -1.
       11    1    1    2    0    0 -0.20131066418E+00  0.26893032139E+00 -0.20900905305E+00  0.39564447015E+00  0.51109989000E-03 0. -1.
     -623    1    1    2    0    0  0.18052107061E+00 -0.63702042696E+00  0.22757385778E+01  0.17131639551E+03  0.17130000000E+03 0. -1.
      622    1    1    2    0    0  0.20789593573E-01  0.36809010556E+00  0.19332704426E+01  0.35879600245E+01  0.30000000000E+01 0. -1.
</event>
<event>
 5   0  0.7495800E-05  0.9118800E+02  0.7818608E-02  0.1180000E+00
       11   -1    0    0    0    0  0.00000000000E+00  0.00000000000E+00  0.39999999673E+01  0.40000000000E+01  0.51109989000E-03 0. -1.
     -623   -1    0    0    0    0  0.00000000000E+00  0.00000000000E+00  0.12525980253E-10  0.17130000000E+03  0.17130000000E+03 0. -1.
       11    1    1    2    0    0 -0.25074673442E+00  0.62682657438E-01  0.19973662092E+00  0.32664662760E+00  0.51109989000E-03 0. -1.
     -623    1    1    2    0    0  0.39399475357E+00 -0.13016449734E+00  0.17019968513E+01  0.17130895764E+03  0.17130000000E+03 0. -1.
      622    1    1    2    0    0 -0.14324801915E+00  0.67481839906E-01  0.20982664952E+01  0.36643957317E+01  0.30000000000E+01 0. -1.
</event>
<event>
 5   0  0.7495800E-05  0.9118800E+02  0.7818608E-02  0.1180000E+00
       11   -1    0    0    0    0  0.00000000000E+00  0.00000000000E+00  0.39999999673E+01  0.40000000000E+01  0.51109989000E-03 0. -1.
     -623   -1    0    0    0    0  0.00000000000E+00  0.00000000000E+00  0.12525980253E-10  0.17130000000E+03  0.17130000000E+03 0.  1.
       11    1    1    2    0    0  0.20355474503E+00  0.21003710912E+00  0.91088970404E-01  0.30634552907E+00  0.51109989000E-03 0. -1.
     -623    1    1    2    0    0 -0.70380197022E+00  0.86352738216E+00  0.21440568354E+01  0.17131703942E+03  0.17130000000E+03 0.  1.
      622    1    1    2    0    0  0.50024722520E+00 -0.10735644913E+01  0.17648541616E+01  0.36766150485E+01  0.30000000000E+01 0. -1.
</event>
<event>
 5   0  0.7495800E-05  0.9118800E+02  0.7818608E-02  0.1180000E+00
       11   -1    0    0    0    0  0.00000000000E+00  0.00000000000E+00  0.39999999673E+01  0.40000000000E+01  0.51109989000E-03 0.  1.
     -623   -1    0    0    0    0  0.00000000000E+00  0.00000000000E+00  0.12525980253E-10  0.17130000000E+03  0.17130000000E+03 0. -1.
       11    1    1    2    0    0 -0.27273026911E+00 -0.19708084439E+00  0.31698791637E+00  0.46228158005E+00  0.51109989000E-03 0.  1.
     -623    1    1    2    0    0  0.12869630482E+01 -0.10230577648E+01  0.27990516292E+01  0.17133075501E+03  0.17130000000E+03 0.  1.
      622    1    1    2    0    0 -0.10142327791E+01  0.12201386092E+01  0.88396042177E+00  0.35069634134E+01  0.30000000000E+01 0.  1.
</event>
<event>
 5   0  0.7495800E-05  0.9118800E+02  0.7818608E-02  0.1180000E+00
       11   -1    0    0    0    0  0.00000000000E+00  0.00000000000E+00  0.39999999673E+01  0.40000000000E+01  0.51109989000E-03 0. -1.
     -623   -1    0    0    0    0  0.00000000000E+00  0.00000000000E+00  0.12525980253E-10  0.17130000000E+03  0.17130000000E+03 0. -1.
       11    1    1    2    0    0 -0.12347176166E+00  0.12925035014E+00 -0.23836689189E+00  0.29794288934E+00  0.51109989000E-03 0. -1.
     -623    1    1    2    0    0 -0.42333219004E+00 -0.96462997104E+00  0.23501376481E+01  0.17131935929E+03  0.17130000000E+03 0. -1.
      622    1    1    2    0    0  0.54680395170E+00  0.83537962090E+00  0.18882292111E+01  0.36826978190E+01  0.30000000000E+01 0.  0.
</event>
<event>
 5   0  0.7495800E-05  0.9118800E+02  0.7818608E-02  0.1180000E+00
       11   -1    0    0    0    0  0.00000000000E+00  0.00000000000E+00  0.39999999673E+01  0.40000000000E+01  0.51109989000E-03 0.  1.
     -623   -1    0    0    0    0  0.00000000000E+00  0.00000000000E+00  0.12525980253E-10  0.17130000000E+03  0.17130000000E+03 0. -1.
       11    1    1    2    0    0  0.18813024325E+00  0.20070629676E+00 -0.43293400433E-01  0.27847905797E+00  0.51109989000E-03 0.  1.
     -623    1    1    2    0    0 -0.25658687817E+00  0.20540594242E+00  0.18986342872E+01  0.17131083690E+03  0.17130000000E+03 0. -1.
      622    1    1    2    0    0  0.68456634919E-01 -0.40611223917E+00  0.21446590806E+01  0.37106840385E+01  0.30000000000E+01 0.  1.
</event>
<event>
 5   0  0.7495800E-05  0.9118800E+02  0.7818608E-02  0.1180000E+00
       11   -1    0    0    0    0  0.00000000000E+00  0.00000000000E+00  0.39999999673E+01  0.40000000000E+01  0.51109989000E-03 0.  1.
     -623   -1    0    0    0    0  0.00000000000E+00  0.00000000000E+00  0.12525980253E-10  0.17130000000E+03  0.17130000000E+03 0.  1.
       11    1    1    2    0    0  0.40659323723E+00 -0.83400086324E-01  0.17921342221E+00  0.45209661233E+00  0.51109989000E-03 0.  1.
     -623    1    1    2    0    0 -0.58932946796E+00  0.75824897715E+00  0.20918217242E+01  0.17131546331E+03  0.17130000000E+03 0.  1.
      622    1    1    2    0    0  0.18273623074E+00 -0.67484889083E+00  0.17289648210E+01  0.35324400784E+01  0.30000000000E+01 0.  1.
</event>
<event>
 5   0  0.7495800E-05  0.9118800E+02  0.7818608E-02  0.1180000E+00
       11   -1    0    0    0    0  0.00000000000E+00  0.00000000000E+00  0.39999999673E+01  0.40000000000E+01  0.51109989000E-03 0. -1.
     -623   -1    0    0    0    0  0.00000000000E+00  0.00000000000E+00  0.12525980253E-10  0.17130000000E+03  0.17130000000E+03 0. -1.
       11    1    1    2    0    0  0.12707243448E+00  0.22729206475E+00  0.12950773877E+00  0.29082916279E+00  0.51109989000E-03 0. -1.
     -623    1    1    2    0    0 -0.31575288394E+00 -0.50593207428E-01  0.17199248750E+01  0.17130893264E+03  0.17130000000E+03 0. -1.
      622    1    1    2    0    0  0.18868044946E+00 -0.17669885732E+00  0.21505673536E+01  0.37002382005E+01  0.30000000000E+01 0. -1.
</event>
<event>
 5   0  0.7495800E-05  0.9118800E+02  0.7818608E-02  0.1180000E+00
       11   -1    0    0    0    0  0.00000000000E+00  0.00000000000E+00  0.39999999673E+01  0.40000000000E+01  0.51109989000E-03 0. -1.
     -623   -1    0    0    0    0  0.00000000000E+00  0.00000000000E+00  0.12525980253E-10  0.17130000000E+03  0.17130000000E+03 0.  1.
       11    1    1    2    0    0  0.88481840192E-01  0.16376479410E+00 -0.91621772821E-01  0.20746747771E+00  0.51109989000E-03 0. -1.
     -623    1    1    2    0    0  0.43979058970E+00 -0.24805034213E+00  0.18520549576E+01  0.17131075580E+03  0.17130000000E+03 0.  1.
      622    1    1    2    0    0 -0.52827242989E+00  0.84285548031E-01  0.22395667826E+01  0.37817767236E+01  0.30000000000E+01 0. -1.
</event>
<event>
 5   0  0.7495800E-05  0.9118800E+02  0.7818608E-02  0.1180000E+00
       11   -1    0    0    0    0  0.00000000000E+00  0.00000000000E+00  0.39999999673E+01  0.40000000000E+01  0.51109989000E-03 0.  1.
     -623   -1    0    0    0    0  0.00000000000E+00  0.00000000000E+00  0.12525980253E-10  0.17130000000E+03  0.17130000000E+03 0. -1.
       11    1    1    2    0    0 -0.21392993253E+00  0.38100313258E+00  0.97836425912E-01  0.44777408425E+00  0.51109989000E-03 0.  1.
     -623    1    1    2    0    0 -0.48411264542E+00 -0.77581882560E+00  0.22120021439E+01  0.17131672193E+03  0.17130000000E+03 0. -1.
      622    1    1    2    0    0  0.69804257796E+00  0.39481569302E+00  0.16901613976E+01  0.35355039842E+01  0.30000000000E+01 0.  0.
</event>
<event>
 5   0  0.7495800E-05  0.9118800E+02  0.7818608E-02  0.1180000E+00
       11   -1    0    0    0    0  0.00000000000E+00  0.00000000000E+00  0.39999999673E+01  0.40000000000E+01  0.51109989000E-03 0.  1.
     -623   -1    0    0    0    0  0.00000000000E+00  0.00000000000E+00  0.12525980253E-10  0.17130000000E+03  0.17130000000E+03 0.  1.
       11    1    1    2    0    0  0.19813321441E+00  0.66685701582E-01  0.16718550769E+00  0.26768453197E+00  0.51109989000E-03 0.  1.
     -623    1    1    2    0    0  0.14106459394E+01 -0.14450262271E+01  0.39573456069E+01  0.17135760446E+03  0.17130000000E+03 0. -1.
      622    1    1    2    0    0 -0.16087791538E+01  0.13783405255E+01 -0.12453114723E+00  0.36747110059E+01  0.30000000000E+01 0.  1.
</event>
<event>
 5   0  0.7495800E-05  0.9118800E+02  0.7818608E-02  0.1180000E+00
       11   -1    0    0    0    0  0.00000000000E+00  0.00000000000E+00  0.39999999673E+01  0.40000000000E+01  0.51109989000E-03 0.  1.
     -623   -1    0    0    0    0  0.00000000000E+00  0.00000000000E+00  0.12525980253E-10  0.17130000000E+03  0.17130000000E+03 0. -1.
       11    1    1    2    0    0 -0.83177267101E-02 -0.20774026542E+00  0.67705810747E-01  0.21865392859E+00  0.51109989000E-03 0.  1.
     -623    1    1    2    0    0 -0.15095686827E+01  0.79461686193E+00  0.23627959948E+01  0.17132478810E+03  0.17130000000E+03 0. -1.
      622    1    1    2    0    0  0.15178864094E+01 -0.58687659651E+00  0.15694981618E+01  0.37565579686E+01  0.30000000000E+01 0.  1.
</event>
<event>
 5   0  0.7495800E-05  0.9118800E+02  0.7818608E-02  0.1180000E+00
       11   -1    0    0    0    0  0.00000000000E+00  0.00000000000E+00  0.39999999673E+01  0.40000000000E+01  0.51109989000E-03 0. -1.
     -623   -1    0    0    0    0  0.00000000000E+00  0.00000000000E+00  0.12525980253E-10  0.17130000000E+03  0.17130000000E+03 0.  1.
       11    1    1    2    0    0  0.54782510324E+00  0.18341593258E+00  0.16561235607E+00  0.60098374501E+00  0.51109989000E-03 0. -1.
     -623    1    1    2    0    0 -0.10118590624E+01  0.31317724598E+00  0.24373653031E+01  0.17132061373E+03  0.17130000000E+03 0.  1.
      622    1    1    2    0    0  0.46403395918E+00 -0.49659317856E+00  0.13970223082E+01  0.33784025263E+01  0.30000000000E+01 0. -1.
</event>
<event>
 5   0  0.7495800E-05  0.9118800E+02  0.7818608E-02  0.1180000E+00
       11   -1    0    0    0    0  0.00000000000E+00  0.00000000000E+00  0.39999999673E+01  0.40000000000E+01  0.51109989000E-03 0.  1.
     -623   -1    0    0    0    0  0.00000000000E+00  0.00000000000E+00  0.12525980253E-10  0.17130000000E+03  0.17130000000E+03 0. -1.
       11    1    1    2    0    0 -0.11353361327E+00  0.34350674150E+00  0.35041355548E-01  0.36347616238E+00  0.51109989000E-03 0.  1.
     -623    1    1    2    0    0 -0.11099169909E+00 -0.27909998363E+00  0.19431263967E+01  0.17131128380E+03  0.17130000000E+03 0. -1.
      622    1    1    2    0    0  0.22452531236E+00 -0.64406757877E-01  0.20218322152E+01  0.36252400407E+01  0.30000000000E+01 0.  1.
</event>
<event>
 5   0  0.7495800E-05  0.9118800E+02  0.7818608E-02  0.1180000E+00
       11   -1    0    0    0    0  0.00000000000E+00  0.00000000000E+00  0.39999999673E+01  0.40000000000E+01  0.51109989000E-03 0.  1.
     -623   -1    0    0    0    0  0.00000000000E+00  0.00000000000E+00  0.12525980253E-10  0.17130000000E+03  0.17130000000E+03 0. -1.
       11    1    1    2    0    0  0.26050077314E+00  0.27211089892E+00  0.25376696228E+00  0.45420581952E+00  0.51109989000E-03 0.  1.
     -623    1    1    2    0    0 -0.79358682292E+00 -0.12529553229E+01  0.22715984080E+01  0.17132148095E+03  0.17130000000E+03 0.  1.
      622    1    1    2    0    0  0.53308604978E+00  0.98084442403E+00  0.14746345970E+01  0.35243132261E+01  0.30000000000E+01 0.  1.
</event>
<event>
 5   0  0.7495800E-05  0.9118800E+02  0.7818608E-02  0.1180000E+00
       11   -1    0    0    0    0  0.00000000000E+00  0.00000000000E+00  0.39999999673E+01  0.40000000000E+01  0.51109989000E-03 0. -1.
     -623   -1    0    0    0    0  0.00000000000E+00  0.00000000000E+00  0.12525980253E-10  0.17130000000E+03  0.17130000000E+03 0. -1.
       11    1    1    2    0    0 -0.69726958607E-01  0.38058944839E+00 -0.11352540678E+00  0.40323498880E+00  0.51109989000E-03 0. -1.
     -623    1    1    2    0    0  0.15956394913E+00 -0.16665879101E+01  0.26759897965E+01  0.17132908071E+03  0.17130000000E+03 0. -1.
      622    1    1    2    0    0 -0.89836990525E-01  0.12859984617E+01  0.14375355776E+01  0.35676843001E+01  0.30000000000E+01 0.  0.
</event>
<event>
 5   0  0.7495800E-05  0.9118800E+02  0.7818608E-02  0.1180000E+00
       11   -1    0    0    0    0  0.00000000000E+00  0.00000000000E+00  0.39999999673E+01  0.40000000000E+01  0.51109989000E-03 0. -1.
     -623   -1    0    0    0    0  0.00000000000E+00  0.00000000000E+00  0.12525980253E-10  0.17130000000E+03  0.17130000000E+03 0. -1.
       11    1    1    2    0    0  0.50774497246E+00 -0.34999904001E+00  0.11591648816E+00  0.62748799074E+00  0.51109989000E-03 0. -1.
     -623    1    1    2    0    0 -0.49358332069E-01  0.41669717339E+00  0.24567390054E+01  0.17131812992E+03  0.17130000000E+03 0. -1.
      622    1    1    2    0    0 -0.45838664039E+00 -0.66698133381E-01  0.14273444739E+01  0.33543820892E+01  0.30000000000E+01 0. -1.
</event>
<event>
 5   0  0.7495800E-05  0.9118800E+02  0.7818608E-02  0.1180000E+00
       11   -1    0    0    0    0  0.00000000000E+00  0.00000000000E+00  0.39999999673E+01  0.40000000000E+01  0.51109989000E-03 0. -1.
     -623   -1    0    0    0    0  0.00000000000E+00  0.00000000000E+00  0.12525980253E-10  0.17130000000E+03  0.17130000000E+03 0.  1.
       11    1    1    2    0    0 -0.46171794046E-01 -0.26135147261E-01  0.23653990484E-02  0.53110609331E-01  0.51109989000E-03 0. -1.
     -623    1    1    2    0    0  0.19889649609E-01  0.34786678468E+00  0.14635412620E+01  0.17130660629E+03  0.17130000000E+03 0.  1.
      622    1    1    2    0    0  0.26282144437E-01 -0.32173163742E+00  0.25340933063E+01  0.39402830968E+01  0.30000000000E+01 0. -1.
</event>
<event>
 5   0  0.7495800E-05  0.9118800E+02  0.7818608E-02  0.1180000E+00
       11   -1    0    0    0    0  0.00000000000E+00  0.00000000000E+00  0.39999999673E+01  0.40000000000E+01  0.51109989000E-03 0. -1.
     -623   -1    0    0    0    0  0.00000000000E+00  0.00000000000E+00  0.12525980253E-10  0.17130000000E+03  0.17130000000E+03 0. -1.
       11    1    1    2    0    0  0.37597871650E+00  0.18568107717E+00  0.26590519009E-01  0.42017231536E+00  0.51109989000E-03 0. -1.
     -623    1    1    2    0    0 -0.90085126363E+00 -0.11819298072E+00  0.21230245641E+01  0.17131556478E+03  0.17130000000E+03 0. -1.
      622    1    1    2    0    0  0.52487254713E+00 -0.67488096450E-01  0.18503848842E+01  0.35642629047E+01  0.30000000000E+01 0. -1.
</event>
<event>
 5   0  0.7495800E-05  0.9118800E+02  0.7818608E-02  0.1180000E+00
       11   -1    0    0    0    0  0.00000000000E+00  0.00000000000E+00  0.39999999673E+01  0.40000000000E+01  0.51109989000E-03 0. -1.
     -623   -1    0    0    0    0  0.00000000000E+00  0.00000000000E+00  0.12525980253E-10  0.17130000000E+03  0.17130000000E+03 0. -1.
       11    1    1    2    0    0 -0.19010482630E+00 -0.77697805999E-01  0.93806508930E-01  0.22578023913E+00  0.51109989000E-03 0. -1.
     -623    1    1    2    0    0  0.35787216635E+00  0.20371569687E+00  0.16395177507E+01  0.17130834069E+03  0.17130000000E+03 0. -1.
      622    1    1    2    0    0 -0.16776734005E+00 -0.12601789087E+00  0.22666757077E+01  0.37658790678E+01  0.30000000000E+01 0. -1.
</event>
<event>
 5   0  0.7495800E-05  0.9118800E+02  0.7818608E-02  0.1180000E+00
       11   -1    0    0    0    0  0.00000000000E+00  0.00000000000E+00  0.39999999673E+01  0.40000000000E+01  0.51109989000E-03 0.  1.
     -623   -1    0    0    0    0  0.00000000000E+00  0.00000000000E+00  0.12525980253E-10  0.17130000000E+03  0.17130000000E+03 0. -1.
       11    1    1    2    0    0 -0.34780206320E+00  0.10502939131E+00  0.13603679862E+00  0.38794808932E+00  0.51109989000E-03 0.  1.
     -623    1    1    2    0    0 -0.82086051540E-01 -0.11319723574E+00  0.19186790160E+01  0.17131080200E+03  0.17130000000E+03 0. -1.
      622    1    1    2    0    0  0.42988811474E+00  0.81678444258E-02  0.19452841528E+01  0.36012499135E+01  0.30000000000E+01 0.  1.
</event>
<event>
 5   0  0.7495800E-05  0.9118800E+02  0.7818608E-02  0.1180000E+00
       11   -1    0    0    0    0  0.00000000000E+00  0.00000000000E+00  0.39999999673E+01  0.40000000000E+01  0.51109989000E-03 0. -1.
     -623   -1    0    0    0    0  0.00000000000E+00  0.00000000000E+00  0.12525980253E-10  0.17130000000E+03  0.17130000000E+03 0. -1.
       11    1    1    2    0    0  0.10877766740E+00  0.65440797824E+00  0.47707780208E+00  0.81712047666E+00  0.51109989000E-03 0. -1.
     -623    1    1    2    0    0  0.76517647558E+00 -0.64197322648E+00  0.31114037735E+01  0.17133116604E+03  0.17130000000E+03 0.  1.
      622    1    1    2    0    0 -0.87395414298E+00 -0.12434751761E-01  0.41151839181E+00  0.31517134790E+01  0.30000000000E+01 0. -1.
</event>
<event>
 5   0  0.7495800E-05  0.9118800E+02  0.7818608E-02  0.1180000E+00
       11   -1    0    0    0    0  0.00000000000E+00  0.00000000000E+00  0.39999999673E+01  0.40000000000E+01  0.51109989000E-03 0. -1.
     -623   -1    0    0    0    0  0.00000000000E+00  0.00000000000E+00  0.12525980253E-10  0.17130000000E+03  0.17130000000E+03 0. -1.
       11    1    1    2    0    0  0.23780236935E+00 -0.29779789142E-01  0.65110419567E-01  0.24834739916E+00  0.51109989000E-03 0. -1.
     -623    1    1    2    0    0 -0.47641435109E+00  0.66482705191E-01  0.17105808625E+01  0.17130921597E+03  0.17130000000E+03 0. -1.
      622    1    1    2    0    0  0.23861198174E+00 -0.36702916049E-01  0.22243086853E+01  0.37424366273E+01  0.30000000000E+01 0. -1.
</event>
<event>
 5   0  0.7495800E-05  0.9118800E+02  0.7818608E-02  0.1180000E+00
       11   -1    0    0    0    0  0.00000000000E+00  0.00000000000E+00  0.39999999673E+01  0.40000000000E+01  0.51109989000E-03 0. -1.
     -623   -1    0    0    0    0  0.00000000000E+00  0.00000000000E+00  0.12525980253E-10  0.17130000000E+03  0.17130000000E+03 0. -1.
       11    1    1    2    0    0  0.16293127893E+00 -0.75273097441E-01 -0.15386857848E+00  0.23640736350E+00  0.51109989000E-03 0. -1.
     -623    1    1    2    0    0 -0.21093359884E+00 -0.49645880315E+00  0.19759272594E+01  0.17131224490E+03  0.17130000000E+03 0. -1.
      622    1    1    2    0    0  0.48002319907E-01  0.57173190059E+00  0.21779412865E+01  0.37513477360E+01  0.30000000000E+01 0. -1.
</event>
<event>
 5   0  0.7495800E-05  0.9118800E+02  0.7818608E-02  0.1180000E+00
       11   -1    0    0    0    0  0.00000000000E+00  0.00000000000E+00  0.39999999673E+01  0.40000000000E+01  0.51109989000E-03 0.  1.
     -623   -1    0    0    0    0  0.00000000000E+00  0.00000000000E+00  0.12525980253E-10  0.17130000000E+03  0.17130000000E+03 0. -1.
       11    1    1    2    0    0  0.25644986966E+00  0.12730862236E+00  0.36784516140E+00  0.46613768885E+00  0.51109989000E-03 0.  1.
     -623    1    1    2    0    0 -0.60552836882E+00  0.50685491023E+00  0.19368446169E+01  0.17131276932E+03  0.17130000000E+03 0. -1.
      622    1    1    2    0    0  0.34907849916E+00 -0.63416353260E+00  0.16953101891E+01  0.35210929868E+01  0.30000000000E+01 0.  1.
</event>
<event>
 5   0  0.7495800E-05  0.9118800E+02  0.7818608E-02  0.1180000E+00
       11   -1    0    0    0    0  0.00000000000E+00  0.00000000000E+00  0.39999999673E+01  0.40000000000E+01  0.51109989000E-03 0. -1.
     -623   -1    0    0    0    0  0.00000000000E+00  0.00000000000E+00  0.12525980253E-10  0.17130000000E+03  0.17130000000E+03 0.  1.
       11    1    1    2    0    0 -0.89537115224E-01  0.13354037078E+00 -0.18752442838E+00  0.24701335611E+00  0.51109989000E-03 0. -1.
     -623    1    1    2    0    0 -0.70824332626E-01  0.15562349231E+00  0.19763028994E+01  0.17131148534E+03  0.17130000000E+03 0.  1.
      622    1    1    2    0    0  0.16036144785E+00 -0.28916386309E+00  0.22112214963E+01  0.37415013082E+01  0.30000000000E+01 0. -1.
</event>
<event>
 5   0  0.7495800E-05  0.9118800E+02  0.7818608E-02  0.1180000E+00
       11   -1    0    0    0    0  0.00000000000E+00  0.00000000000E+00  0.39999999673E+01  0.40000000000E+01  0.51109989000E-03 0.  1.
     -623   -1    0    0    0    0  0.00000000000E+00  0.00000000000E+00  0.12525980253E-10  0.17130000000E+03  0.17130000000E+03 0. -1.
       11    1    1    2    0    0  0.50840412781E+00 -0.23599842483E+00  0.19375354829E+00  0.59305203177E+00  0.51109989000E-03 0.  1.
     -623    1    1    2    0    0  0.51059801519E+00 -0.13366393085E+00  0.26725994431E+01  0.17132166052E+03  0.17130000000E+03 0. -1.
      622    1    1    2    0    0 -0.10190021430E+01  0.36966235567E+00  0.11336469759E+01  0.33852874458E+01  0.30000000000E+01 0.  1.
</event>
<event>
 5   0  0.7495800E-05  0.9118800E+02  0.7818608E-02  0.1180000E+00
       11   -1    0    0    0    0  0.00000000000E+00  0.00000000000E+00  0.39999999673E+01  0.40000000000E+01  0.51109989000E-03 0.  1.
     -623   -1    0    0    0    0  0.00000000000E+00  0.00000000000E+00  0.12525980253E-10  0.17130000000E+03  0.17130000000E+03 0. -1.
       11    1    1    2    0    0 -0.88804491690E-02  0.68500377404E-01 -0.29840648284E-01  0.75245528737E-01  0.51109989000E-03 0.  1.
     -623    1    1    2    0    0 -0.35402984295E+00 -0.35958153383E+00  0.15547423941E+01  0.17130779860E+03  0.17130000000E+03 0. -1.
      622    1    1    2    0    0  0.36291029212E+00  0.29108115643E+00  0.24750982216E+01  0.39169558749E+01  0.30000000000E+01 0.  1.
</event>
<event>
 5   0  0.7495800E-05  0.9118800E+02  0.7818608E-02  0.1180000E+00
       11   -1    0    0    0    0  0.00000000000E+00  0.00000000000E+00  0.39999999673E+01  0.40000000000E+01  0.51109989000E-03 0.  1.
     -623   -1    0    0    0    0  0.00000000000E+00  0.00000000000E+00  0.12525980253E-10  0.17130000000E+03  0.17130000000E+03 0.  1.
       11    1    1    2    0    0  0.95278598202E-01  0.73974622319E-01  0.24062145250E-01  0.12300204909E+00  0.51109989000E-03 0.  1.
     -623    1    1    2    0    0 -0.52897681115E+00  0.29881043942E+00  0.16015496557E+01  0.17130856390E+03  0.17130000000E+03 0.  1.
      622    1    1    2    0    0  0.43369821295E+00 -0.37278506174E+00  0.23743881664E+01  0.38684340510E+01  0.30000000000E+01 0.  1.
</event>
<event>
 5   0  0.7495800E-05  0.9118800E+02  0.7818608E-02  0.1180000E+00
       11   -1    0    0    0    0  0.00000000000E+00  0.00000000000E+00  0.39999999673E+01  0.40000000000E+01  0.51109989000E-03 0. -1.
     -623   -1    0    0    0    0  0.00000000000E+00  0.00000000000E+00  0.12525980253E-10  0.17130000000E+03  0.17130000000E+03 0.  1.
       11    1    1    2    0    0  0.57834122891E+00 -0.12244198388E+00 -0.88216758293E-01  0.59770651171E+00  0.51109989000E-03 0. -1.
     -623    1    1    2    0    0  0.14992881867E+00  0.13033144064E+01  0.34728415886E+01  0.17134022218E+03  0.17130000000E+03 0.  1.
      622    1    1    2    0    0 -0.72827004758E+00 -0.11808724225E+01  0.61537513707E+00  0.33620713109E+01  0.30000000000E+01 0.  0.
</event>
<event>
 5   0  0.7495800E-05  0.9118800E+02  0.7818608E-02  0.1180000E+00
       11   -1    0    0    0    0  0.00000000000E+00  0.00000000000E+00  0.39999999673E+01  0.40000000000E+01  0.51109989000E-03 0. -1.
     -623   -1    0    0    0    0  0.00000000000E+00  0.00000000000E+00  0.12525980253E-10  0.17130000000E+03  0.17130000000E+03 0. -1.
       11    1    1    2    0    0 -0.66692367679E-01  0.42451405541E-01  0.11310419739E+00  0.13799570438E+00  0.51109989000E-03 0. -1.
     -623    1    1    2    0    0  0.12054632789E+00 -0.11482483762E+00  0.14665935248E+01  0.17130635894E+03  0.17130000000E+03 0. -1.
      622    1    1    2    0    0 -0.53853960215E-01  0.72373432079E-01  0.24203022452E+01  0.38556453572E+01  0.30000000000E+01 0. -1.
</event>
<event>
 5   0  0.7495800E-05  0.9118800E+02  0.7818608E-02  0.1180000E+00
       11   -1    0    0    0    0  0.00000000000E+00  0.00000000000E+00  0.39999999673E+01  0.40000000000E+01  0.51109989000E-03 0. -1.
     -623   -1    0    0    0    0  0.00000000000E+00  0.00000000000E+00  0.12525980253E-10  0.17130000000E+03  0.17130000000E+03 0.  1.
       11    1    1    2    0    0 -0.88888358264E-02  0.52594924928E+00  0.36494694037E+00  0.64022508130E+00  0.51109989000E-03 0. -1.
     -623    1    1    2    0    0 -0.49185326722E+00 -0.12158100661E+01  0.24473050286E+01  0.17132250119E+03  0.17130000000E+03 0.  1.
      622    1    1    2    0    0  0.50074210305E+00  0.68986081682E+00  0.11877479984E+01  0.33372737239E+01  0.30000000000E+01 0.  1.
</event>
<event>
 5   0  0.7495800E-05  0.9118800E+02  0.7818608E-02  0.1180000E+00
       11   -1    0    0    0    0  0.00000000000E+00  0.00000000000E+00  0.39999999673E+01  0.40000000000E+01  0.51109989000E-03 0. -1.
     -623   -1    0    0    0    0  0.00000000000E+00  0.00000000000E+00  0.12525980253E-10  0.17130000000E+03  0.17130000000E+03 0. -1.
       11    1    1    2    0    0  0.28055720287E+00 -0.28759429954E+00  0.28928749236E+00  0.49508619418E+00  0.51109989000E-03 0. -1.
     -623    1    1    2    0    0 -0.17526949695E+00  0.62727326190E+00  0.19582950290E+01  0.17131243128E+03  0.17130000000E+03 0. -1.
      622    1    1    2    0    0 -0.10528770592E+00 -0.33967896236E+00  0.17524174460E+01  0.34924825273E+01  0.30000000000E+01 0. -1.
</event>
<event>
 5   0  0.7495800E-05  0.9118800E+02  0.7818608E-02  0.1180000E+00
       11   -1    0    0    0    0  0.00000000000E+00  0.00000000000E+00  0.39999999673E+01  0.40000000000E+01  0.51109989000E-03 0.  1.
     -623   -1    0    0    0    0  0.00000000000E+00  0.00000000000E+00  0.12525980253E-10  0.17130000000E+03  0.17130000000E+03 0. -1.
       11    1    1    2    0    0 -0.64442047474E-01 -0.30666780194E-01 -0.87373695511E-01  0.11281689936E+00  0.51109989000E-03 0.  1.
     -623    1    1    2    0    0  0.43419207253E+00  0.30546534069E+00  0.16732238213E+01  0.17130899425E+03  0.17130000000E+03 0. -1.
      622    1    1    2    0    0 -0.36975002505E+00 -0.27479856049E+00  0.24141498416E+01  0.38781888540E+01  0.30000000000E+01 0.  1.
</event>
<event>
 5   0  0.7495800E-05  0.9118800E+02  0.7818608E-02  0.1180000E+00
       11   -1    0    0    0    0  0.00000000000E+00  0.00000000000E+00  0.39999999673E+01  0.40000000000E+01  0.51109989000E-03 0. -1.
     -623   -1    0    0    0    0  0.00000000000E+00  0.00000000000E+00  0.12525980253E-10  0.17130000000E+03  0.17130000000E+03 0.  1.
       11    1    1    2    0    0  0.48253424468E+00  0.56752052503E-01  0.18970203638E+00  0.52158145728E+00  0.51109989000E-03 0. -1.
     -623    1    1    2    0    0  0.33278106661E-01  0.12813514539E+00  0.21659986492E+01  0.17131374456E+03  0.17130000000E+03 0.  1.
      622    1    1    2    0    0 -0.51581235134E+00 -0.18488719789E+00  0.16442992818E+01  0.34646739797E+01  0.30000000000E+01 0. -1.
</event>
<event>
 5   0  0.7495800E-05  0.9118800E+02  0.7818608E-02  0.1180000E+00
       11   -1    0    0    0    0  0.00000000000E+00  0.00000000000E+00  0.39999999673E+01  0.40000000000E+01  0.51109989000E-03 0.  1.
     -623   -1    0    0    0    0  0.00000000000E+00  0.00000000000E+00  0.12525980253E-10  0.17130000000E+03  0.17130000000E+03 0.  1.
       11    1    1    2    0    0  0.18077152836E+00  0.36414294590E+00  0.28523974652E-01  0.40754424161E+00  0.51109989000E-03 0.  1.
     -623    1    1    2    0    0 -0.10709836319E+00 -0.46889809638E+00  0.20224067579E+01  0.17131261327E+03  0.17130000000E+03 0.  1.
      622    1    1    2    0    0 -0.73673165166E-01  0.10475515048E+00  0.19490692348E+01  0.35798424908E+01  0.30000000000E+01 0.  1.
</event>
<event>
 5   0  0.7495800E-05  0.9118800E+02  0.7818608E-02  0.1180000E+00
       11   -1    0    0    0    0  0.00000000000E+00  0.00000000000E+00  0.39999999673E+01  0.40000000000E+01  0.51109989000E-03 0.  1.
     -623   -1    0    0    0    0  0.00000000000E+00  0.00000000000E+00  0.12525980253E-10  0.17130000000E+03  0.17130000000E+03 0.  1.
       11    1    1    2    0    0  0.13016513098E+00 -0.67750031350E-01  0.31299785676E+00  0.34568909099E+00  0.51109989000E-03 0.  1.
     -623    1    1    2    0    0 -0.81262769764E-02 -0.10038502941E+00  0.16243871378E+01  0.17130773122E+03  0.17130000000E+03 0.  1.
      622    1    1    2    0    0 -0.12203885401E+00  0.16813506076E+00  0.20626149728E+01  0.36465796860E+01  0.30000000000E+01 0.  1.
</event>
<event>
 5   0  0.7495800E-05  0.9118800E+02  0.7818608E-02  0.1180000E+00
       11   -1    0    0    0    0  0.00000000000E+00  0.00000000000E+00  0.39999999673E+01  0.40000000000E+01  0.51109989000E-03 0.  1.
     -623   -1    0    0    0    0  0.00000000000E+00  0.00000000000E+00  0.12525980253E-10  0.17130000000E+03  0.17130000000E+03 0. -1.
       11    1    1    2    0    0  0.14823574909E+00 -0.41459632832E+00  0.10594500623E+00  0.45286704266E+00  0.51109989000E-03 0.  1.
     -623    1    1    2    0    0 -0.63619732150E+00  0.89653008517E+00  0.21648893178E+01  0.17131720655E+03  0.17130000000E+03 0. -1.
      622    1    1    2    0    0  0.48796157241E+00 -0.48193375686E+00  0.17291656433E+01  0.35299264106E+01  0.30000000000E+01 0.  1.
</event>
<event>
 5   0  0.7495800E-05  0.9118800E+02  0.7818608E-02  0.1180000E+00
       11   -1    0    0    0    0  0.00000000000E+00  0.00000000000E+00  0.39999999673E+01  0.40000000000E+01  0.51109989000E-03 0.  1.
     -623   -1    0    0    0    0  0.00000000000E+00  0.00000000000E+00  0.12525980253E-10  0.17130000000E+03  0.17130000000E+03 0. -1.
       11    1    1    2    0    0  0.68519527455E-01 -0.73488053136E-01 -0.53783528060E-01  0.11396643676E+00  0.51109989000E-03 0.  1.
     -623    1    1    2    0    0 -0.31220549549E+00  0.81525990876E+00  0.17285523395E+01  0.17131094540E+03  0.17130000000E+03 0. -1.
      622    1    1    2    0    0  0.24368596804E+00 -0.74177185562E+00  0.23252311559E+01  0.38750881622E+01  0.30000000000E+01 0.  1.
</event>
<event>
 5   0  0.7495800E-05  0.9118800E+02  0.7818608E-02  0.1180000E+00
       11   -1    0    0    0    0  0.00000000000E+00  0.00000000000E+00  0.39999999673E+01  0.40000000000E+01  0.51109989000E-03 0.  1.
     -623   -1    0    0    0    0  0.00000000000E+00  0.00000000000E+00  0.12525980253E-10  0.17130000000E+03  0.17130000000E+03 0. -1.
       11    1    1    2    0    0  0.17861717205E+00  0.15965193888E+00 -0.15543946659E+00  0.28557752842E+00  0.51109989000E-03 0.  1.
     -623    1    1    2    0    0  0.84417496110E+00  0.25361664650E+00  0.22982978869E+01  0.17131768480E+03  0.17130000000E+03 0. -1.
      622    1    1    2    0    0 -0.10227921332E+01 -0.41326858538E+00  0.18571415471E+01  0.36967376695E+01  0.30000000000E+01 0.  1.
</event>
<event>
 5   0  0.7495800E-05  0.9118800E+02  0.7818608E-02  0.1180000E+00
       11   -1    0    0    0    0  0.00000000000E+00  0.00000000000E+00  0.39999999673E+01  0.40000000000E+01  0.51109989000E-03 0. -1.
     -623   -1    0    0    0    0  0.00000000000E+00  0.00000000000E+00  0.12525980253E-10  0.17130000000E+03  0.17130000000E+03 0. -1.
       11    1    1    2    0    0  0.31178103695E+00 -0.33949008539E-02  0.47342091472E+00  0.56687438120E+00  0.51109989000E-03 0. -1.
     -623    1    1    2    0    0 -0.30417973042E+00  0.54680858142E-01  0.18800602525E+01  0.17131059553E+03  0.17130000000E+03 0. -1.
      622    1    1    2    0    0 -0.76013065267E-02 -0.51285957289E-01  0.16465188001E+01  0.34225300858E+01  0.30000000000E+01 0. -1.
</event>
<event>
 5   0  0.7495800E-05  0.9118800E+02  0.7818608E-02  0.1180000E+00
       11   -1    0    0    0    0  0.00000000000E+00  0.00000000000E+00  0.39999999673E+01  0.40000000000E+01  0.51109989000E-03 0.  1.
     -623   -1    0    0    0    0  0.00000000000E+00  0.00000000000E+00  0.12525980253E-10  0.17130000000E+03  0.17130000000E+03 0. -1.
       11    1    1    2    0    0  0.12841365432E+00  0.23397805961E+00  0.17365490493E+00  0.31842124022E+00  0.51109989000E-03 0.  1.
     -623    1    1    2    0    0 -0.22242463669E+00 -0.68476114963E-01  0.17160326476E+01  0.17130875322E+03  0.17130000000E+03 0. -1.
      622    1    1    2    0    0  0.94010982365E-01 -0.16550194464E+00  0.21103124148E+01  0.36728255399E+01  0.30000000000E+01 0.  1.
</event>
<event>
 5   0  0.7495800E-05  0.9118800E+02  0.7818608E-02  0.1180000E+00
       11   -1    0    0    0    0  0.00000000000E+00  0.00000000000E+00  0.39999999673E+01  0.40000000000E+01  0.51109989000E-03 0.  1.
     -623   -1    0    0    0    0  0.00000000000E+00  0.00000000000E+00  0.12525980253E-10  0.17130000000E+03  0.17130000000E+03 0. -1.
       11    1    1    2    0    0 -0.21628123226E+00  0.16413203676E+00 -0.29817595639E+00  0.40326921418E+00  0.51109989000E-03 0.  1.
     -623    1    1    2    0    0  0.99402363980E+00 -0.90136632707E+00  0.26858771585E+01  0.17132630995E+03  0.17130000000E+03 0. -1.
      622    1    1    2    0    0 -0.77774240754E+00  0.73723429031E+00  0.16122987653E+01  0.35704208379E+01  0.30000000000E+01 0.  1.
</event>
<event>
 5   0  0.7495800E-05  0.9118800E+02  0.7818608E-02  0.1180000E+00
       11   -1    0    0    0    0  0.00000000000E+00  0.00000000000E+00  0.39999999673E+01  0.40000000000E+01  0.51109989000E-03 0.  1.
     -623   -1    0    0    0    0  0.00000000000E+00  0.00000000000E+00  0.12525980253E-10  0.17130000000E+03  0.17130000000E+03 0. -1.
       11    1    1    2    0    0  0.15215963495E+00  0.65387075456E-01 -0.18697121073E+00  0.24977293490E+00  0.51109989000E-03 0.  1.
     -623    1    1    2    0    0 -0.17031201294E+00  0.33299764879E-01  0.19576887613E+01  0.17131127418E+03  0.17130000000E+03 0. -1.
      622    1    1    2    0    0  0.18152377993E-01 -0.98686840336E-01  0.22292824168E+01  0.37389528875E+01  0.30000000000E+01 0.  1.
</event>
<event>
 5   0  0.7495800E-05  0.9118800E+02  0.7818608E-02  0.1180000E+00
       11   -1    0    0    0    0  0.00000000000E+00  0.00000000000E+00  0.39999999673E+01  0.40000000000E+01  0.51109989000E-03 0. -1.
     -623   -1    0    0    0    0  0.00000000000E+00  0.00000000000E+00  0.12525980253E-10  0.17130000000E+03  0.17130000000E+03 0.  1.
       11    1    1    2    0    0 -0.17478431230E+00 -0.87709517761E-01  0.25410303485E-01  0.19720157220E+00  0.51109989000E-03 0. -1.
     -623    1    1    2    0    0  0.21074043514E+00 -0.48177427610E+00  0.17243413999E+01  0.17130948564E+03  0.17130000000E+03 0.  1.
      622    1    1    2    0    0 -0.35956122841E-01  0.56948379386E+00  0.22502482640E+01  0.37933127849E+01  0.30000000000E+01 0. -1.
</event>
<event>
 5   0  0.7495800E-05  0.9118800E+02  0.7818608E-02  0.1180000E+00
       11   -1    0    0    0    0  0.00000000000E+00  0.00000000000E+00  0.39999999673E+01  0.40000000000E+01  0.51109989000E-03 0. -1.
     -623   -1    0    0    0    0  0.00000000000E+00  0.00000000000E+00  0.12525980253E-10  0.17130000000E+03  0.17130000000E+03 0.  1.
       11    1    1    2    0    0  0.64686467427E-01  0.21887388699E+00 -0.14213084259E+00  0.26887088930E+00  0.51109989000E-03 0. -1.
     -623    1    1    2    0    0 -0.16449093477E+01 -0.89238460371E+00  0.28302614654E+01  0.17133359991E+03  0.17130000000E+03 0.  1.
      622    1    1    2    0    0  0.15802228803E+01  0.67351071673E+00  0.13118693446E+01  0.36975292040E+01  0.30000000000E+01 0.  0.
</event>
<event>
 5   0  0.7495800E-05  0.9118800E+02  0.7818608E-02  0.1180000E+00
       11   -1    0    0    0    0  0.00000000000E+00  0.00000000000E+00  0.39999999673E+01  0.40000000000E+01  0.51109989000E-03 0. -1.
     -623   -1    0    0    0    0  0.00000000000E+00  0.00000000000E+00  0.12525980253E-10  0.17130000000E+03  0.17130000000E+03 0.  1.
       11    1    1    2    0    0 -0.18056140685E+00 -0.20399279797E+00  0.25584980549E+00  0.37373100950E+00  0.51109989000E-03 0. -1.
     -623    1    1    2    0    0 -0.58235175644E+00  0.86281521658E+00  0.20046205964E+01  0.17131489161E+03  0.17130000000E+03 0.  1.
      622    1    1    2    0    0  0.76291316328E+00 -0.65882241861E+00  0.17395295655E+01  0.36113773803E+01  0.30000000000E+01 0. -1.
</event>
<event>
 5   0  0.7495800E-05  0.9118800E+02  0.7818608E-02  0.1180000E+00
       11   -1    0    0    0    0  0.00000000000E+00  0.00000000000E+00  0.39999999673E+01  0.40000000000E+01  0.51109989000E-03 0. -1.
     -623   -1    0    0    0    0  0.00000000000E+00  0.00000000000E+00  0.12525980253E-10  0.17130000000E+03  0.17130000000E+03 0. -1.
       11    1    1    2    0    0 -0.47888191718E+00  0.17835224701E+00  0.15393371162E+00  0.53369772663E+00  0.51109989000E-03 0. -1.
     -623    1    1    2    0    0 -0.21334406915E-01 -0.12191213090E+00  0.22143401000E+01  0.17131435614E+03  0.17130000000E+03 0. -1.
      622    1    1    2    0    0  0.50021632409E+00 -0.56440116107E-01  0.16317261557E+01  0.34519461330E+01  0.30000000000E+01 0. -1.
</event>
<event>
 5   0  0.7495800E-05  0.9118800E+02  0.7818608E-02  0.1180000E+00
       11   -1    0    0    0    0  0.00000000000E+00  0.00000000000E+00  0.39999999673E+01  0.40000000000E+01  0.51109989000E-03 0. -1.
     -623   -1    0    0    0    0  0.00000000000E+00  0.00000000000E+00  0.12525980253E-10  0.17130000000E+03  0.17130000000E+03 0. -1.
       11    1    1    2    0    0 -0.15128191687E+00  0.50502868264E+00 -0.18349509924E-01  0.52751981422E+00  0.51109989000E-03 0. -1.
     -623    1    1    2    0    0 -0.10184541226E+01 -0.27564015270E+00  0.28120929555E+01  0.17132632925E+03  0.17130000000E+03 0. -1.
      622    1    1    2    0    0  0.11697360395E+01 -0.22938852993E+00  0.12062565218E+01  0.34461509393E+01  0.30000000000E+01 0. -1.
</event>
<event>
 5   0  0.7495800E-05  0.9118800E+02  0.7818608E-02  0.1180000E+00
       11   -1    0    0    0    0  0.00000000000E+00  0.00000000000E+00  0.39999999673E+01  0.40000000000E+01  0.51109989000E-03 0.  1.
     -623   -1    0    0    0    0  0.00000000000E+00  0.00000000000E+00  0.12525980253E-10  0.17130000000E+03  0.17130000000E+03 0.  1.
       11    1    1    2    0    0 -0.47451177550E+00 -0.33276747496E+00  0.13963674597E+00  0.59614956138E+00  0.51109989000E-03 0.  1.
     -623    1    1    2    0    0  0.33208747866E+00  0.74224825853E-01  0.23142035331E+01  0.17131596928E+03  0.17130000000E+03 0.  1.
      622    1    1    2    0    0  0.14242429684E+00  0.25854264911E+00  0.15461596883E+01  0.33878811614E+01  0.30000000000E+01 0.  1.
</event>
<event>
 5   0  0.7495800E-05  0.9118800E+02  0.7818608E-02  0.1180000E+00
       11   -1    0    0    0    0  0.00000000000E+00  0.00000000000E+00  0.39999999673E+01  0.40000000000E+01  0.51109989000E-03 0. -1.
     -623   -1    0    0    0    0  0.00000000000E+00  0.00000000000E+00  0.12525980253E-10  0.17130000000E+03  0.17130000000E+03 0. -1.
       11    1    1    2    0    0 -0.15044297325E-01 -0.10907688047E+00 -0.54290344563E-01  0.12276725732E+00  0.51109989000E-03 0. -1.
     -623    1    1    2    0    0  0.56228052924E+00  0.14496929776E+01  0.21097713930E+01  0.17132004817E+03  0.17130000000E+03 0. -1.
      622    1    1    2    0    0 -0.54723623191E+00 -0.13406160972E+01  0.19445189189E+01  0.38571845742E+01  0.30000000000E+01 0. -1.
</event>
<event>
 5   0  0.7495800E-05  0.9118800E+02  0.7818608E-02  0.1180000E+00
       11   -1    0    0    0    0  0.00000000000E+00  0.00000000000E+00  0.39999999673E+01  0.40000000000E+01  0.51109989000E-03 0. -1.
     -623   -1    0    0    0    0  0.00000000000E+00  0.00000000000E+00  0.12525980253E-10  0.17130000000E+03  0.17130000000E+03 0. -1.
       11    1    1    2    0    0 -0.21944960109E+00 -0.24765802249E+00  0.22278149653E+00  0.39890409868E+00  0.51109989000E-03 0. -1.
     -623    1    1    2    0    0 -0.13201733586E+01  0.12892299852E+00  0.25915525308E+01  0.17132473734E+03  0.17130000000E+03 0. -1.
      622    1    1    2    0    0  0.15396229597E+01  0.11873502397E+00  0.11856659401E+01  0.35763585650E+01  0.30000000000E+01 0.  0.
</event>
<event>
 5   0  0.7495800E-05  0.9118800E+02  0.7818608E-02  0.1180000E+00
       11   -1    0    0    0    0  0.00000000000E+00  0.00000000000E+00  0.39999999673E+01  0.40000000000E+01  0.51109989000E-03 0.  1.
     -623   -1    0    0    0    0  0.00000000000E+00  0.00000000000E+00  0.12525980253E-10  0.17130000000E+03  0.17130000000E+03 0.  1.
       11    1    1    2    0    0 -0.56306859798E-01 -0.11229995833E+00 -0.39129567215E-01  0.13157935762E+00  0.51109989000E-03 0.  1.
     -623    1    1    2    0    0 -0.20244540047E+00  0.41232817877E+00  0.16428686381E+01  0.17130849371E+03  0.17130000000E+03 0.  1.
      622    1    1    2    0    0  0.25875226026E+00 -0.30002822045E+00  0.23962608965E+01  0.38599269358E+01  0.30000000000E+01 0.  1.
</event>
<event>
 5   0  0.7495800E-05  0.9118800E+02  0.7818608E-02  0.1180000E+00
       11   -1    0    0    0    0  0.00000000000E+00  0.00000000000E+00  0.39999999673E+01  0.40000000000E+01  0.51109989000E-03 0.  1.
     -623   -1    0    0    0    0  0.00000000000E+00  0.00000000000E+00  0.12525980253E-10  0.17130000000E+03  0.17130000000E+03 0. -1.
       11    1    1    2    0    0  0.44177909793E+00 -0.16779014834E+00  0.69522298515E+00  0.84062926761E+00  0.51109989000E-03 0.  1.
     -623    1    1    2    0    0 -0.10383993587E+01 -0.41973232387E+00  0.30012424456E+01  0.17132995040E+03  0.17130000000E+03 0. -1.
      622    1    1    2    0    0  0.59662026075E+00  0.58752247221E+00  0.30353453659E+00  0.31294203306E+01  0.30000000000E+01 0.  0.
</event>
<event>
 5   0  0.7495800E-05  0.9118800E+02  0.7818608E-02  0.1180000E+00
       11   -1    0    0    0    0  0.00000000000E+00  0.00000000000E+00  0.39999999673E+01  0.40000000000E+01  0.51109989000E-03 0.  1.
     -623   -1    0    0    0    0  0.00000000000E+00  0.00000000000E+00  0.12525980253E-10  0.17130000000E+03  0.17130000000E+03 0.  1.
       11    1    1    2    0    0 -0.11727215330E+00  0.33301746661E+00 -0.41579869082E+00  0.54547429226E+00  0.51109989000E-03 0.  1.
     -623    1    1    2    0    0  0.89603367841E+00 -0.85005530145E+00  0.30587663448E+01  0.17133175865E+03  0.17130000000E+03 0.  1.
      622    1    1    2    0    0 -0.77876152512E+00  0.51703783483E+00  0.13570323134E+01  0.34227670583E+01  0.30000000000E+01 0.  1.
</event>
<event>
 5   0  0.7495800E-05  0.9118800E+02  0.7818608E-02  0.1180000E+00
       11   -1    0    0    0    0  0.00000000000E+00  0.00000000000E+00  0.39999999673E+01  0.40000000000E+01  0.51109989000E-03 0.  1.
     -623   -1    0    0    0    0  0.00000000000E+00  0.00000000000E+00  0.12525980253E-10  0.17130000000E+03  0.17130000000E+03 0.  1.
       11    1    1    2    0    0 -0.13351592826E+00  0.13616218381E+00  0.77052528053E-01  0.20567935409E+00  0.51109989000E-03 0.  1.
     -623    1    1    2    0    0 -0.45971486444E+00 -0.60271807660E-01  0.16933752464E+01  0.17130899711E+03  0.17130000000E+03 0.  1.
      622    1    1    2    0    0  0.59323079270E+00 -0.75890376151E-01  0.22295721929E+01  0.37853235378E+01  0.30000000000E+01 0.  1.
</event>
<event>
 5   0  0.7495800E-05  0.9118800E+02  0.7818608E-02  0.1180000E+00
       11   -1    0    0    0    0  0.00000000000E+00  0.00000000000E+00  0.39999999673E+01  0.40000000000E+01  0.51109989000E-03 0. -1.
     -623   -1    0    0    0    0  0.00000000000E+00  0.00000000000E+00  0.12525980253E-10  0.17130000000E+03  0.17130000000E+03 0.  1.
       11    1    1    2    0    0  0.54365993551E-01  0.80982798267E-01 -0.11698235948E+00  0.15231220740E+00  0.51109989000E-03 0. -1.
     -623    1    1    2    0    0 -0.14005299927E+00  0.16833496736E+01  0.25435008736E+01  0.17132720939E+03  0.17130000000E+03 0.  1.
      622    1    1    2    0    0  0.85687005716E-01 -0.17643324719E+01  0.15734814533E+01  0.38204784017E+01  0.30000000000E+01 0.  0.
</event>
<event>
 5   0  0.7495800E-05  0.9118800E+02  0.7818608E-02  0.1180000E+00
       11   -1    0    0    0    0  0.00000000000E+00  0.00000000000E+00  0.39999999673E+01  0.40000000000E+01  0.51109989000E-03 0.  1.
     -623   -1    0    0    0    0  0.00000000000E+00  0.00000000000E+00  0.12525980253E-10  0.17130000000E+03  0.17130000000E+03 0.  1.
       11    1    1    2    0    0 -0.38180629013E+00 -0.16948544809E+00 -0.40118348240E+00  0.57918028978E+00  0.51109989000E-03 0.  1.
     -623    1    1    2    0    0  0.10811736719E+01  0.65187318910E+00  0.30742742636E+01  0.17133223584E+03  0.17130000000E+03 0.  1.
      622    1    1    2    0    0 -0.69936738181E+00 -0.48238774101E+00  0.13269091862E+01  0.33885838717E+01  0.30000000000E+01 0.  1.
</event>
<event>
 5   0  0.7495800E-05  0.9118800E+02  0.7818608E-02  0.1180000E+00
       11   -1    0    0    0    0  0.00000000000E+00  0.00000000000E+00  0.39999999673E+01  0.40000000000E+01  0.51109989000E-03 0.  1.
     -623   -1    0    0    0    0  0.00000000000E+00  0.00000000000E+00  0.12525980253E-10  0.17130000000E+03  0.17130000000E+03 0. -1.
       11    1    1    2    0    0  0.11679500346E+00  0.11246107943E+00  0.69542747698E-01  0.17642285056E+00  0.51109989000E-03 0.  1.
     -623    1    1    2    0    0 -0.35094549705E+00 -0.44598488728E+00  0.16090847153E+01  0.17130849722E+03  0.17130000000E+03 0. -1.
      622    1    1    2    0    0  0.23415049359E+00  0.33352380785E+00  0.23213725043E+01  0.38150799320E+01  0.30000000000E+01 0.  1.
</event>
<event>
 5   0  0.7495800E-05  0.9118800E+02  0.7818608E-02  0.1180000E+00
       11   -1    0    0    0    0  0.00000000000E+00  0.00000000000E+00  0.39999999673E+01  0.40000000000E+01  0.51109989000E-03 0.  1.
     -623   -1    0    0    0    0  0.00000000000E+00  0.00000000000E+00  0.12525980253E-10  0.17130000000E+03  0.17130000000E+03 0.  1.
       11    1    1    2    0    0  0.54428394546E-01  0.48077768907E-01 -0.12257849832E-02  0.72633916098E-01  0.51109989000E-03 0.  1.
     -623    1    1    2    0    0 -0.19922060394E-01  0.23785997473E+00  0.14934666622E+01  0.17130667651E+03  0.17130000000E+03 0.  1.
      622    1    1    2    0    0 -0.34506334152E-01 -0.28593774364E+00  0.25077590901E+01  0.39206895738E+01  0.30000000000E+01 0.  1.
</event>
<event>
 5   0  0.7495800E-05  0.9118800E+02  0.7818608E-02  0.1180000E+00
       11   -1    0    0    0    0  0.00000000000E+00  0.00000000000E+00  0.39999999673E+01  0.40000000000E+01  0.51109989000E-03 0.  1.
     -623   -1    0    0    0    0  0.00000000000E+00  0.00000000000E+00  0.12525980253E-10  0.17130000000E+03  0.17130000000E+03 0.  1.
       11    1    1    2    0    0  0.46542142529E+00 -0.71590985100E-01  0.42068257148E+00  0.63143998878E+00  0.51109989000E-03 0.  1.
     -623    1    1    2    0    0 -0.94148851870E+00 -0.32031825386E+00  0.22187997277E+01  0.17131725563E+03  0.17130000000E+03 0.  1.
      622    1    1    2    0    0  0.47606709340E+00  0.39190923896E+00  0.13605176682E+01  0.33513043811E+01  0.30000000000E+01 0.  1.
</event>
<event>
 5   0  0.7495800E-05  0.9118800E+02  0.7818608E-02  0.1180000E+00
       11   -1    0    0    0    0  0.00000000000E+00  0.00000000000E+00  0.39999999673E+01  0.40000000000E+01  0.51109989000E-03 0. -1.
     -623   -1    0    0    0    0  0.00000000000E+00  0.00000000000E+00  0.12525980253E-10  0.17130000000E+03  0.17130000000E+03 0. -1.
       11    1    1    2    0    0 -0.24788790757E-01  0.13509947301E+00  0.17261573151E-01  0.13843617622E+00  0.51109989000E-03 0. -1.
     -623    1    1    2    0    0  0.58922619418E-01 -0.17422785745E+00  0.15634057904E+01  0.17130723296E+03  0.17130000000E+03 0. -1.
      622    1    1    2    0    0 -0.34133828660E-01  0.39128384440E-01  0.24193326039E+01  0.38543308624E+01  0.30000000000E+01 0. -1.
</event>
<event>
 5   0  0.7495800E-05  0.9118800E+02  0.7818608E-02  0.1180000E+00
       11   -1    0    0    0    0  0.00000000000E+00  0.00000000000E+00  0.39999999673E+01  0.40000000000E+01  0.51109989000E-03 0.  1.
     -623   -1    0    0    0    0  0.00000000000E+00  0.00000000000E+00  0.12525980253E-10  0.17130000000E+03  0.17130000000E+03 0.  1.
       11    1    1    2    0    0 -0.44324333581E-01  0.24586174666E+00 -0.12091662710E+00  0.27754952162E+00  0.51109989000E-03 0.  1.
     -623    1    1    2    0    0  0.14187775179E+00  0.19491316486E+00  0.19840562223E+01  0.17131165926E+03  0.17130000000E+03 0.  1.
      622    1    1    2    0    0 -0.97553418208E-01 -0.44077491152E+00  0.21368603722E+01  0.37107912151E+01  0.30000000000E+01 0.  1.
</event>
<event>
 5   0  0.7495800E-05  0.9118800E+02  0.7818608E-02  0.1180000E+00
       11   -1    0    0    0    0  0.00000000000E+00  0.00000000000E+00  0.39999999673E+01  0.40000000000E+01  0.51109989000E-03 0.  1.
     -623   -1    0    0    0    0  0.00000000000E+00  0.00000000000E+00  0.12525980253E-10  0.17130000000E+03  0.17130000000E+03 0. -1.
       11    1    1    2    0    0  0.18917913040E+00  0.10429505431E+00 -0.28063865293E-01  0.21783949021E+00  0.51109989000E-03 0.  1.
     -623    1    1    2    0    0  0.44540780391E+00 -0.33548899499E-01  0.18329422240E+01  0.17131038845E+03  0.17130000000E+03 0. -1.
      622    1    1    2    0    0 -0.63458693432E+00 -0.70746154813E-01  0.21951216086E+01  0.37717720599E+01  0.30000000000E+01 0.  1.
</event>
<event>
 5   0  0.7495800E-05  0.9118800E+02  0.7818608E-02  0.1180000E+00
       11   -1    0    0    0    0  0.00000000000E+00  0.00000000000E+00  0.39999999673E+01  0.40000000000E+01  0.51109989000E-03 0. -1.
     -623   -1    0    0    0    0  0.00000000000E+00  0.00000000000E+00  0.12525980253E-10  0.17130000000E+03  0.17130000000E+03 0. -1.
       11    1    1    2    0    0 -0.24386240222E+00  0.19937979780E+00 -0.63747165399E-01  0.32138005119E+00  0.51109989000E-03 0. -1.
     -623    1    1    2    0    0 -0.37837411400E+00 -0.62664099862E+00  0.20999443148E+01  0.17131443492E+03  0.17130000000E+03 0. -1.
      622    1    1    2    0    0  0.62223651622E+00  0.42726120082E+00  0.19638028180E+01  0.36641850286E+01  0.30000000000E+01 0. -1.
</event>
<event>
 5   0  0.7495800E-05  0.9118800E+02  0.7818608E-02  0.1180000E+00
       11   -1    0    0    0    0  0.00000000000E+00  0.00000000000E+00  0.39999999673E+01  0.40000000000E+01  0.51109989000E-03 0. -1.
     -623   -1    0    0    0    0  0.00000000000E+00  0.00000000000E+00  0.12525980253E-10  0.17130000000E+03  0.17130000000E+03 0. -1.
       11    1    1    2    0    0  0.22713153273E-01 -0.93037008405E-01  0.10612913421E+00  0.14295253273E+00  0.51109989000E-03 0. -1.
     -623    1    1    2    0    0  0.27974487361E+00  0.11505609470E+00  0.14996700069E+01  0.17130683146E+03  0.17130000000E+03 0. -1.
      622    1    1    2    0    0 -0.30245802688E+00 -0.22019086296E-01  0.23942008262E+01  0.38502160062E+01  0.30000000000E+01 0. -1.
</event>
<event>
 5   0  0.7495800E-05  0.9118800E+02  0.7818608E-02  0.1180000E+00
       11   -1    0    0    0    0  0.00000000000E+00  0.00000000000E+00  0.39999999673E+01  0.40000000000E+01  0.51109989000E-03 0.  1.
     -623   -1    0    0    0    0  0.00000000000E+00  0.00000000000E+00  0.12525980253E-10  0.17130000000E+03  0.17130000000E+03 0. -1.
       11    1    1    2    0    0 -0.62572631763E-01 -0.15107289917E+00  0.18726572939E-04  0.16351946881E+00  0.51109989000E-03 0.  1.
     -623    1    1    2    0    0  0.14310315332E+00 -0.11762778205E+00  0.16379682019E+01  0.17130793109E+03  0.17130000000E+03 0. -1.
      622    1    1    2    0    0 -0.80530521555E-01  0.26870068121E+00  0.23620130389E+01  0.38285494403E+01  0.30000000000E+01 0.  1.
</event>
<event>
 5   0  0.7495800E-05  0.9118800E+02  0.7818608E-02  0.1180000E+00
       11   -1    0    0    0    0  0.00000000000E+00  0.00000000000E+00  0.39999999673E+01  0.40000000000E+01  0.51109989000E-03 0. -1.
     -623   -1    0    0    0    0  0.00000000000E+00  0.00000000000E+00  0.12525980253E-10  0.17130000000E+03  0.17130000000E+03 0. -1.
       11    1    1    2    0    0  0.16082209875E+00 -0.52015549282E-01 -0.11836480796E+00  0.20634886430E+00  0.51109989000E-03 0. -1.
     -623    1    1    2    0    0 -0.55357612420E+00 -0.17368467486E-01  0.18489289813E+01  0.17131087323E+03  0.17130000000E+03 0. -1.
      622    1    1    2    0    0  0.39275402545E+00  0.69384016768E-01  0.22694357940E+01  0.37827779064E+01  0.30000000000E+01 0. -1.
</event>
<event>
 5   0  0.7495800E-05  0.9118800E+02  0.7818608E-02  0.1180000E+00
       11   -1    0    0    0    0  0.00000000000E+00  0.00000000000E+00  0.39999999673E+01  0.40000000000E+01  0.51109989000E-03 0.  1.
     -623   -1    0    0    0    0  0.00000000000E+00  0.00000000000E+00  0.12525980253E-10  0.17130000000E+03  0.17130000000E+03 0. -1.
       11    1    1    2    0    0  0.28596570597E+00  0.22528818807E+00 -0.35865436624E-01  0.36581107616E+00  0.51109989000E-03 0.  1.
     -623    1    1    2    0    0 -0.32766029000E+00 -0.69111031231E+00  0.20645806107E+01  0.17131414853E+03  0.17130000000E+03 0. -1.
      622    1    1    2    0    0  0.41694584026E-01  0.46582212424E+00  0.19712847933E+01  0.36200403901E+01  0.30000000000E+01 0.  1.
</event>
<event>
 5   0  0.7495800E-05  0.9118800E+02  0.7818608E-02  0.1180000E+00
       11   -1    0    0    0    0  0.00000000000E+00  0.00000000000E+00  0.39999999673E+01  0.40000000000E+01  0.51109989000E-03 0.  1.
     -623   -1    0    0    0    0  0.00000000000E+00  0.00000000000E+00  0.12525980253E-10  0.17130000000E+03  0.17130000000E+03 0. -1.
       11    1    1    2    0    0 -0.12882130909E-01 -0.28939150952E-01 -0.13675389089E-01  0.34506539154E-01  0.51109989000E-03 0.  1.
     -623    1    1    2    0    0  0.66752707726E+00  0.60356245322E+00  0.15868581440E+01  0.17130971367E+03  0.17130000000E+03 0. -1.
      622    1    1    2    0    0 -0.65464494636E+00 -0.57462330227E+00  0.24268172125E+01  0.39557797876E+01  0.30000000000E+01 0.  1.
</event>
<event>
 5   0  0.7495800E-05  0.9118800E+02  0.7818608E-02  0.1180000E+00
       11   -1    0    0    0    0  0.00000000000E+00  0.00000000000E+00  0.39999999673E+01  0.40000000000E+01  0.51109989000E-03 0. -1.
     -623   -1    0    0    0    0  0.00000000000E+00  0.00000000000E+00  0.12525980253E-10  0.17130000000E+03  0.17130000000E+03 0.  1.
       11    1    1    2    0    0 -0.51821722899E+00 -0.31670395965E+00  0.38163557746E+00  0.71728409273E+00  0.51109989000E-03 0. -1.
     -623    1    1    2    0    0  0.61292884989E+00  0.20294796629E+00  0.23369730825E+01  0.17131715709E+03  0.17130000000E+03 0.  1.
      622    1    1    2    0    0 -0.94711620900E-01  0.11375599335E+00  0.12813913074E+01  0.32655588189E+01  0.30000000000E+01 0. -1.
</event>
<event>
 5   0  0.7495800E-05  0.9118800E+02  0.7818608E-02  0.1180000E+00
       11   -1    0    0    0    0  0.00000000000E+00  0.00000000000E+00  0.39999999673E+01  0.40000000000E+01  0.51109989000E-03 0.  1.
     -623   -1    0    0    0    0  0.00000000000E+00  0.00000000000E+00  0.12525980253E-10  0.17130000000E+03  0.17130000000E+03 0.  1.
       11    1    1    2    0    0 -0.29978092291E+00 -0.48428935413E+00  0.96694607619E-01  0.57771523143E+00  0.51109989000E-03 0.  1.
     -623    1    1    2    0    0  0.37348708627E+00 -0.30977859039E+00  0.25083045244E+01  0.17131905045E+03  0.17130000000E+03 0.  1.
      622    1    1    2    0    0 -0.73706163363E-01  0.79406794452E+00  0.13950008353E+01  0.34032343189E+01  0.30000000000E+01 0.  1.
</event>
<event>
 5   0  0.7495800E-05  0.9118800E+02  0.7818608E-02  0.1180000E+00
       11   -1    0    0    0    0  0.00000000000E+00  0.00000000000E+00  0.39999999673E+01  0.40000000000E+01  0.51109989000E-03 0. -1.
     -623   -1    0    0    0    0  0.00000000000E+00  0.00000000000E+00  0.12525980253E-10  0.17130000000E+03  0.17130000000E+03 0.  1.
       11    1    1    2    0    0  0.35478258148E+00 -0.21474104834E+00 -0.14740035663E+00  0.44012671394E+00  0.51109989000E-03 0. -1.
     -623    1    1    2    0    0 -0.12154230854E+01 -0.46297348389E-01  0.25031936053E+01  0.17132260614E+03  0.17130000000E+03 0.  1.
      622    1    1    2    0    0  0.86064050397E+00  0.26103839673E+00  0.16442067187E+01  0.35372671451E+01  0.30000000000E+01 0.  0.
</event>
<event>
 5   0  0.7495800E-05  0.9118800E+02  0.7818608E-02  0.1180000E+00
       11   -1    0    0    0    0  0.00000000000E+00  0.00000000000E+00  0.39999999673E+01  0.40000000000E+01  0.51109989000E-03 0.  1.
     -623   -1    0    0    0    0  0.00000000000E+00  0.00000000000E+00  0.12525980253E-10  0.17130000000E+03  0.17130000000E+03 0. -1.
       11    1    1    2    0    0 -0.26683786530E-02  0.16671396092E+00 -0.17499792760E-01  0.16765192805E+00  0.51109989000E-03 0.  1.
     -623    1    1    2    0    0 -0.14075546661E+01  0.30140683377E+00  0.21939325251E+01  0.17132009630E+03  0.17130000000E+03 0. -1.
      622    1    1    2    0    0  0.14102230448E+01 -0.46812079469E+00  0.18235672350E+01  0.38122517722E+01  0.30000000000E+01 0.  1.
</event>
<event>
 5   0  0.7495800E-05  0.9118800E+02  0.7818608E-02  0.1180000E+00
       11   -1    0    0    0    0  0.00000000000E+00  0.00000000000E+00  0.39999999673E+01  0.40000000000E+01  0.51109989000E-03 0. -1.
     -623   -1    0    0    0    0  0.00000000000E+00  0.00000000000E+00  0.12525980253E-10  0.17130000000E+03  0.17130000000E+03 0. -1.
       11    1    1    2    0    0  0.16661921206E+00  0.19697166253E+00 -0.17324870563E+00  0.31076546284E+00  0.51109989000E-03 0. -1.
     -623    1    1    2    0    0  0.47810011198E+00 -0.45367632449E+00  0.21686342996E+01  0.17131499461E+03  0.17130000000E+03 0. -1.
      622    1    1    2    0    0 -0.64471932404E+00  0.25670466196E+00  0.20046143734E+01  0.36742399318E+01  0.30000000000E+01 0. -1.
</event>
<event>
 5   0  0.7495800E-05  0.9118800E+02  0.7818608E-02  0.1180000E+00
       11   -1    0    0    0    0  0.00000000000E+00  0.00000000000E+00  0.39999999673E+01  0.40000000000E+01  0.51109989000E-03 0.  1.
     -623   -1    0    0    0    0  0.00000000000E+00  0.00000000000E+00  0.12525980253E-10  0.17130000000E+03  0.17130000000E+03 0. -1.
       11    1    1    2    0    0  0.73544842633E-01 -0.21480707980E+00  0.20362871409E+00  0.30498498297E+00  0.51109989000E-03 0.  1.
     -623    1    1    2    0    0 -0.94961273921E+00  0.28995141224E+00  0.18508622798E+01  0.17131287613E+03  0.17130000000E+03 0. -1.
      622    1    1    2    0    0  0.87606789658E+00 -0.75144332437E-01  0.19455089734E+01  0.36821388887E+01  0.30000000000E+01 0.  0.
</event>
<event>
 5   0  0.7495800E-05  0.9118800E+02  0.7818608E-02  0.1180000E+00
       11   -1    0    0    0    0  0.00000000000E+00  0.00000000000E+00  0.39999999673E+01  0.40000000000E+01  0.51109989000E-03 0. -1.
     -623   -1    0    0    0    0  0.00000000000E+00  0.00000000000E+00  0.12525980253E-10  0.17130000000E+03  0.17130000000E+03 0. -1.
       11    1    1    2    0    0 -0.16653345769E+00 -0.38289015028E+00 -0.84867455839E-01  0.42607629128E+00  0.51109989000E-03 0. -1.
     -623    1    1    2    0    0  0.52011063553E+00  0.74542949896E+00  0.22424154273E+01  0.17131708790E+03  0.17130000000E+03 0. -1.
      622    1    1    2    0    0 -0.35357717784E+00 -0.36253934868E+00  0.18424519959E+01  0.35568358069E+01  0.30000000000E+01 0. -1.
</event>
<event>
 5   0  0.7495800E-05  0.9118800E+02  0.7818608E-02  0.1180000E+00
       11   -1    0    0    0    0  0.00000000000E+00  0.00000000000E+00  0.39999999673E+01  0.40000000000E+01  0.51109989000E-03 0.  1.
     -623   -1    0    0    0    0  0.00000000000E+00  0.00000000000E+00  0.12525980253E-10  0.17130000000E+03  0.17130000000E+03 0.  1.
       11    1    1    2    0    0  0.12095494590E+00  0.46189535811E+00  0.14153081078E+00  0.49800467107E+00  0.51109989000E-03 0.  1.
     -623    1    1    2    0    0 -0.28614056327E+00 -0.91913324237E-01  0.21247322923E+01  0.17131344025E+03  0.17130000000E+03 0.  1.
      622    1    1    2    0    0  0.16518561737E+00 -0.36998203388E+00  0.17337368643E+01  0.34885550745E+01  0.30000000000E+01 0.  1.
</event>
<event>
 5   0  0.7495800E-05  0.9118800E+02  0.7818608E-02  0.1180000E+00
       11   -1    0    0    0    0  0.00000000000E+00  0.00000000000E+00  0.39999999673E+01  0.40000000000E+01  0.51109989000E-03 0.  1.
     -623   -1    0    0    0    0  0.00000000000E+00  0.00000000000E+00  0.12525980253E-10  0.17130000000E+03  0.17130000000E+03 0. -1.
       11    1    1    2    0    0 -0.20703710058E-01 -0.23421787625E+00  0.43220277140E+00  0.49202251370E+00  0.51109989000E-03 0.  1.
     -623    1    1    2    0    0  0.13324363356E+00  0.28429527939E+00  0.17721092339E+01  0.17130945376E+03  0.17130000000E+03 0. -1.
      622    1    1    2    0    0 -0.11253992351E+00 -0.50077403145E-01  0.17956879621E+01  0.34985237226E+01  0.30000000000E+01 0.  1.
</event>
<event>
 5   0  0.7495800E-05  0.9118800E+02  0.7818608E-02  0.1180000E+00
       11   -1    0    0    0    0  0.00000000000E+00  0.00000000000E+00  0.39999999673E+01  0.40000000000E+01  0.51109989000E-03 0. -1.
     -623   -1    0    0    0    0  0.00000000000E+00  0.00000000000E+00  0.12525980253E-10  0.17130000000E+03  0.17130000000E+03 0.  1.
       11    1    1    2    0    0 -0.59963358545E-01 -0.77183320962E-01 -0.20970691741E+00  0.23136577498E+00  0.51109989000E-03 0. -1.
     -623    1    1    2    0    0  0.13158577474E+01 -0.43112400432E-01  0.23518865124E+01  0.17132120333E+03  0.17130000000E+03 0.  1.
      622    1    1    2    0    0 -0.12558943889E+01  0.12029572139E+00  0.18578203724E+01  0.37474308950E+01  0.30000000000E+01 0. -1.
</event>
<event>
 5   0  0.7495800E-05  0.9118800E+02  0.7818608E-02  0.1180000E+00
       11   -1    0    0    0    0  0.00000000000E+00  0.00000000000E+00  0.39999999673E+01  0.40000000000E+01  0.51109989000E-03 0. -1.
     -623   -1    0    0    0    0  0.00000000000E+00  0.00000000000E+00  0.12525980253E-10  0.17130000000E+03  0.17130000000E+03 0.  1.
       11    1    1    2    0    0  0.64914376785E+00  0.68360245030E-01  0.19986679953E+00  0.68264760545E+00  0.51109989000E-03 0. -1.
     -623    1    1    2    0    0 -0.12424786652E+01  0.14278742802E+00  0.25968413223E+01  0.17132424734E+03  0.17130000000E+03 0. -1.
      622    1    1    2    0    0  0.59333489739E+00 -0.21114767305E+00  0.12032918455E+01  0.32931050554E+01  0.30000000000E+01 0. -1.
</event>
<event>
 5   0  0.7495800E-05  0.9118800E+02  0.7818608E-02  0.1180000E+00
       11   -1    0    0    0    0  0.00000000000E+00  0.00000000000E+00  0.39999999673E+01  0.40000000000E+01  0.51109989000E-03 0. -1.
     -623   -1    0    0    0    0  0.00000000000E+00  0.00000000000E+00  0.12525980253E-10  0.17130000000E+03  0.17130000000E+03 0.  1.
       11    1    1    2    0    0  0.59591804380E-02 -0.64423971414E-01  0.23460894328E-01  0.68823213433E-01  0.51109989000E-03 0. -1.
     -623    1    1    2    0    0  0.28638104736E+00  0.34482260381E+00  0.14794866401E+01  0.17130697533E+03  0.17130000000E+03 0.  1.
      622    1    1    2    0    0 -0.29234022780E+00 -0.28039863240E+00  0.24970524330E+01  0.39242014544E+01  0.30000000000E+01 0. -1.
</event>
<event>
 5   0  0.7495800E-05  0.9118800E+02  0.7818608E-02  0.1180000E+00
       11   -1    0    0    0    0  0.00000000000E+00  0.00000000000E+00  0.39999999673E+01  0.40000000000E+01  0.51109989000E-03 0. -1.
     -623   -1    0    0    0    0  0.00000000000E+00  0.00000000000E+00  0.12525980253E-10  0.17130000000E+03  0.17130000000E+03 0.  1.
       11    1    1    2    0    0 -0.11029004127E+00  0.42659339545E+00  0.14872119258E+00  0.46504201164E+00  0.51109989000E-03 0. -1.
     -623    1    1    2    0    0  0.32429481999E+00  0.12960051485E+00  0.21057302849E+01  0.17131329798E+03  0.17130000000E+03 0.  1.
      622    1    1    2    0    0 -0.21400477872E+00 -0.55619391030E+00  0.17455484899E+01  0.35216600122E+01  0.30000000000E+01 0.  0.
</event>
<event>
 5   0  0.7495800E-05  0.9118800E+02  0.7818608E-02  0.1180000E+00
       11   -1    0    0    0    0  0.00000000000E+00  0.00000000000E+00  0.39999999673E+01  0.40000000000E+01  0.51109989000E-03 0.  1.
     -623   -1    0    0    0    0  0.00000000000E+00  0.00000000000E+00  0.12525980253E-10  0.17130000000E+03  0.17130000000E+03 0. -1.
       11    1    1    2    0    0  0.40589815114E+00 -0.96628279895E-01 -0.10387824247E+00  0.42997823672E+00  0.51109989000E-03 0.  1.
     -623    1    1    2    0    0 -0.21645519043E+00  0.22306787268E+00  0.22092374391E+01  0.17131452753E+03  0.17130000000E+03 0. -1.
      622    1    1    2    0    0 -0.18944296071E+00 -0.12643959279E+00  0.18946407707E+01  0.35554942351E+01  0.30000000000E+01 0.  1.
</event>
<event>
 5   0  0.7495800E-05  0.9118800E+02  0.7818608E-02  0.1180000E+00
       11   -1    0    0    0    0  0.00000000000E+00  0.00000000000E+00  0.39999999673E+01  0.40000000000E+01  0.51109989000E-03 0.  1.
     -623   -1    0    0    0    0  0.00000000000E+00  0.00000000000E+00  0.12525980253E-10  0.17130000000E+03  0.17130000000E+03 0.  1.
       11    1    1    2    0    0  0.32336711975E-01  0.12984026786E+00  0.40762374486E+00  0.42902393487E+00  0.51109989000E-03 0.  1.
     -623    1    1    2    0    0  0.24200481089E+00 -0.38117551592E+00  0.17086533969E+01  0.17130911639E+03  0.17130000000E+03 0.  1.
      622    1    1    2    0    0 -0.27434152287E+00  0.25133524805E+00  0.18837228256E+01  0.35618596774E+01  0.30000000000E+01 0.  1.
</event>
<event>
 5   0  0.7495800E-05  0.9118800E+02  0.7818608E-02  0.1180000E+00
       11   -1    0    0    0    0  0.00000000000E+00  0.00000000000E+00  0.39999999673E+01  0.40000000000E+01  0.51109989000E-03 0.  1.
     -623   -1    0    0    0    0  0.00000000000E+00  0.00000000000E+00  0.12525980253E-10  0.17130000000E+03  0.17130000000E+03 0. -1.
       11    1    1    2    0    0  0.40773756300E-01  0.81523727071E-01  0.63250570568E-02  0.91372232370E-01  0.51109989000E-03 0.  1.
     -623    1    1    2    0    0 -0.15773841360E+00 -0.53900702891E+00  0.15456647953E+01  0.17130789383E+03  0.17130000000E+03 0. -1.
      622    1    1    2    0    0  0.11696465730E+00  0.45748330183E+00  0.24480101150E+01  0.39007339342E+01  0.30000000000E+01 0.  1.
</event>
<event>
 5   0  0.7495800E-05  0.9118800E+02  0.7818608E-02  0.1180000E+00
       11   -1    0    0    0    0  0.00000000000E+00  0.00000000000E+00  0.39999999673E+01  0.40000000000E+01  0.51109989000E-03 0. -1.
     -623   -1    0    0    0    0  0.00000000000E+00  0.00000000000E+00  0.12525980253E-10  0.17130000000E+03  0.17130000000E+03 0.  1.
       11    1    1    2    0    0  0.24336393294E+00  0.11900710798E+00 -0.11484751510E+00  0.29424294138E+00  0.51109989000E-03 0. -1.
     -623    1    1    2    0    0 -0.14482344812E+01  0.73101090933E+00  0.25791710054E+01  0.17132709617E+03  0.17130000000E+03 0.  1.
      622    1    1    2    0    0  0.12048705483E+01 -0.85001801731E+00  0.15356764770E+01  0.36786608854E+01  0.30000000000E+01 0. -1.
</event>
<event>
 5   0  0.7495800E-05  0.9118800E+02  0.7818608E-02  0.1180000E+00
       11   -1    0    0    0    0  0.00000000000E+00  0.00000000000E+00  0.39999999673E+01  0.40000000000E+01  0.51109989000E-03 0. -1.
     -623   -1    0    0    0    0  0.00000000000E+00  0.00000000000E+00  0.12525980253E-10  0.17130000000E+03  0.17130000000E+03 0. -1.
       11    1    1    2    0    0  0.14579484756E+00  0.42075612086E-01  0.80134431013E-01  0.17160502022E+00  0.51109989000E-03 0. -1.
     -623    1    1    2    0    0  0.14105134122E+00 -0.27197507627E-01  0.15707037402E+01  0.17130726122E+03  0.17130000000E+03 0. -1.
      622    1    1    2    0    0 -0.28684618878E+00 -0.14878104458E-01  0.23491617962E+01  0.38211337635E+01  0.30000000000E+01 0. -1.
</event>
<event>
 5   0  0.7495800E-05  0.9118800E+02  0.7818608E-02  0.1180000E+00
       11   -1    0    0    0    0  0.00000000000E+00  0.00000000000E+00  0.39999999673E+01  0.40000000000E+01  0.51109989000E-03 0. -1.
     -623   -1    0    0    0    0  0.00000000000E+00  0.00000000000E+00  0.12525980253E-10  0.17130000000E+03  0.17130000000E+03 0.  1.
       11    1    1    2    0    0  0.60532833020E+00  0.93359209022E-01  0.44353023544E-01  0.61408939184E+00  0.51109989000E-03 0. -1.
     -623    1    1    2    0    0 -0.37747313390E+00  0.83997561865E+00  0.27843210684E+01  0.17132510175E+03  0.17130000000E+03 0.  1.
      622    1    1    2    0    0 -0.22785519630E+00 -0.93333482767E+00  0.11713258754E+01  0.33608088606E+01  0.30000000000E+01 0. -1.
</event>
<event>
 5   0  0.7495800E-05  0.9118800E+02  0.7818608E-02  0.1180000E+00
       11   -1    0    0    0    0  0.00000000000E+00  0.00000000000E+00  0.39999999673E+01  0.40000000000E+01  0.51109989000E-03 0. -1.
     -623   -1    0    0    0    0  0.00000000000E+00  0.00000000000E+00  0.12525980253E-10  0.17130000000E+03  0.17130000000E+03 0.  1.
       11    1    1    2    0    0  0.12542913704E+00 -0.32178851246E+00  0.12840305170E+00  0.36846698641E+00  0.51109989000E-03 0. -1.
     -623    1    1    2    0    0 -0.14895265841E+00  0.68593101674E+00  0.18791835009E+01  0.17131174513E+03  0.17130000000E+03 0.  1.
      622    1    1    2    0    0  0.23523521367E-01 -0.36414250429E+00  0.19924134148E+01  0.36197878853E+01  0.30000000000E+01 0. -1.
</event>
<event>
 5   0  0.7495800E-05  0.9118800E+02  0.7818608E-02  0.1180000E+00
       11   -1    0    0    0    0  0.00000000000E+00  0.00000000000E+00  0.39999999673E+01  0.40000000000E+01  0.51109989000E-03 0.  1.
     -623   -1    0    0    0    0  0.00000000000E+00  0.00000000000E+00  0.12525980253E-10  0.17130000000E+03  0.17130000000E+03 0.  1.
       11    1    1    2    0    0  0.22331755283E+00 -0.72995013413E-01  0.82455489785E-02  0.23508988001E+00  0.51109989000E-03 0.  1.
     -623    1    1    2    0    0  0.15074918410E+00  0.26079749300E+00  0.17717415540E+01  0.17130942709E+03  0.17130000000E+03 0.  1.
      622    1    1    2    0    0 -0.37406673692E+00 -0.18780247959E+00  0.22200128644E+01  0.37554830333E+01  0.30000000000E+01 0.  1.
</event>
<event>
 5   0  0.7495800E-05  0.9118800E+02  0.7818608E-02  0.1180000E+00
       11   -1    0    0    0    0  0.00000000000E+00  0.00000000000E+00  0.39999999673E+01  0.40000000000E+01  0.51109989000E-03 0. -1.
     -623   -1    0    0    0    0  0.00000000000E+00  0.00000000000E+00  0.12525980253E-10  0.17130000000E+03  0.17130000000E+03 0. -1.
       11    1    1    2    0    0 -0.82918319417E-01  0.12333065978E-01  0.71867987094E-01  0.11042110760E+00  0.51109989000E-03 0. -1.
     -623    1    1    2    0    0  0.57728871758E+00  0.26994201628E+00  0.15318207873E+01  0.17130803427E+03  0.17130000000E+03 0. -1.
      622    1    1    2    0    0 -0.49437039817E+00 -0.28227508226E+00  0.23963111929E+01  0.38815446212E+01  0.30000000000E+01 0. -1.
</event>
<event>
 5   0  0.7495800E-05  0.9118800E+02  0.7818608E-02  0.1180000E+00
       11   -1    0    0    0    0  0.00000000000E+00  0.00000000000E+00  0.39999999673E+01  0.40000000000E+01  0.51109989000E-03 0. -1.
     -623   -1    0    0    0    0  0.00000000000E+00  0.00000000000E+00  0.12525980253E-10  0.17130000000E+03  0.17130000000E+03 0. -1.
       11    1    1    2    0    0 -0.75134805834E-01 -0.20907630819E+00  0.14593463636E+00  0.26581068640E+00  0.51109989000E-03 0. -1.
     -623    1    1    2    0    0  0.19048731257E+00  0.13429411576E+01  0.19778672244E+01  0.17131678766E+03  0.17130000000E+03 0. -1.
      622    1    1    2    0    0 -0.11535250674E+00 -0.11338648494E+01  0.18761981066E+01  0.37174016507E+01  0.30000000000E+01 0. -1.
</event>
<event>
 5   0  0.7495800E-05  0.9118800E+02  0.7818608E-02  0.1180000E+00
       11   -1    0    0    0    0  0.00000000000E+00  0.00000000000E+00  0.39999999673E+01  0.40000000000E+01  0.51109989000E-03 0.  1.
     -623   -1    0    0    0    0  0.00000000000E+00  0.00000000000E+00  0.12525980253E-10  0.17130000000E+03  0.17130000000E+03 0. -1.
       11    1    1    2    0    0 -0.81248188926E-01 -0.14633525753E+00 -0.15043538688E+00  0.22504742311E+00  0.51109989000E-03 0.  1.
     -623    1    1    2    0    0  0.14592366049E+00  0.63488811840E+00  0.19332671493E+01  0.17131214755E+03  0.17130000000E+03 0. -1.
      622    1    1    2    0    0 -0.64675471561E-01 -0.48855286087E+00  0.22171682049E+01  0.37628050260E+01  0.30000000000E+01 0.  1.
</event>
<event>
 5   0  0.7495800E-05  0.9118800E+02  0.7818608E-02  0.1180000E+00
       11   -1    0    0    0    0  0.00000000000E+00  0.00000000000E+00  0.39999999673E+01  0.40000000000E+01  0.51109989000E-03 0.  1.
     -623   -1    0    0    0    0  0.00000000000E+00  0.00000000000E+00  0.12525980253E-10  0.17130000000E+03  0.17130000000E+03 0. -1.
       11    1    1    2    0    0 -0.33864336609E+00 -0.13108897724E+00  0.54246251454E+00  0.65278594520E+00  0.51109989000E-03 0.  1.
     -623    1    1    2    0    0  0.83202961700E+00  0.71234103432E+00  0.22319321872E+01  0.17131804115E+03  0.17130000000E+03 0.  1.
      622    1    1    2    0    0 -0.49338625090E+00 -0.58125205708E+00  0.12256052656E+01  0.33291729023E+01  0.30000000000E+01 0.  1.
</event>
<event>
 5   0  0.7495800E-05  0.9118800E+02  0.7818608E-02  0.1180000E+00
       11   -1    0    0    0    0  0.00000000000E+00  0.00000000000E+00  0.39999999673E+01  0.40000000000E+01  0.51109989000E-03 0. -1.
     -623   -1    0    0    0    0  0.00000000000E+00  0.00000000000E+00  0.12525980253E-10  0.17130000000E+03  0.17130000000E+03 0. -1.
       11    1    1    2    0    0  0.15987221482E+00 -0.19444523364E+00  0.25039995450E+00  0.35506122345E+00  0.51109989000E-03 0. -1.
     -623    1    1    2    0    0 -0.64487194180E+00 -0.59319267388E-01  0.17721470503E+01  0.17131039047E+03  0.17130000000E+03 0. -1.
      622    1    1    2    0    0  0.48499972698E+00  0.25376450103E+00  0.19774529625E+01  0.36345483043E+01  0.30000000000E+01 0. -1.
</event>
<event>
 5   0  0.7495800E-05  0.9118800E+02  0.7818608E-02  0.1180000E+00
       11   -1    0    0    0    0  0.00000000000E+00  0.00000000000E+00  0.39999999673E+01  0.40000000000E+01  0.51109989000E-03 0. -1.
     -623   -1    0    0    0    0  0.00000000000E+00  0.00000000000E+00  0.12525980253E-10  0.17130000000E+03  0.17130000000E+03 0.  1.
       11    1    1    2    0    0  0.14673357781E+00  0.12690060475E+00 -0.30928974044E-01  0.19644686050E+00  0.51109989000E-03 0. -1.
     -623    1    1    2    0    0 -0.81877528737E+00  0.32377579388E+00  0.18587184015E+01  0.17131234648E+03  0.17130000000E+03 0.  1.
      622    1    1    2    0    0  0.67204170956E+00 -0.45067639863E+00  0.21722105399E+01  0.37912066556E+01  0.30000000000E+01 0. -1.
</event>
<event>
 5   0  0.7495800E-05  0.9118800E+02  0.7818608E-02  0.1180000E+00
       11   -1    0    0    0    0  0.00000000000E+00  0.00000000000E+00  0.39999999673E+01  0.40000000000E+01  0.51109989000E-03 0.  1.
     -623   -1    0    0    0    0  0.00000000000E+00  0.00000000000E+00  0.12525980253E-10  0.17130000000E+03  0.17130000000E+03 0. -1.
       11    1    1    2    0    0 -0.42502044424E+00 -0.20327493633E+00  0.59826022838E-01  0.47491314153E+00  0.51109989000E-03 0.  1.
     -623    1    1    2    0    0  0.40212173748E+00 -0.59804335700E-01  0.21347612923E+01  0.17131378370E+03  0.17130000000E+03 0. -1.
      622    1    1    2    0    0  0.22898706764E-01  0.26307927203E+00  0.18054126523E+01  0.35113031625E+01  0.30000000000E+01 0.  1.
</event>
<event>
 5   0  0.7495800E-05  0.9118800E+02  0.7818608E-02  0.1180000E+00
       11   -1    0    0    0    0  0.00000000000E+00  0.00000000000E+00  0.39999999673E+01  0.40000000000E+01  0.51109989000E-03 0. -1.
     -623   -1    0    0    0    0  0.00000000000E+00  0.00000000000E+00  0.12525980253E-10  0.17130000000E+03  0.17130000000E+03 0. -1.
       11    1    1    2    0    0 -0.19282937928E+00 -0.41525769130E+00 -0.60857248831E-01  0.46187226118E+00  0.51109989000E-03 0. -1.
     -623    1    1    2    0    0 -0.52328381963E+00  0.18175074487E+01  0.31909873696E+01  0.17134015746E+03  0.17130000000E+03 0.  1.
      622    1    1    2    0    0  0.71611319891E+00 -0.14022497574E+01  0.86986984658E+00  0.34979702751E+01  0.30000000000E+01 0.  0.
</event>
<event>
 5   0  0.7495800E-05  0.9118800E+02  0.7818608E-02  0.1180000E+00
       11   -1    0    0    0    0  0.00000000000E+00  0.00000000000E+00  0.39999999673E+01  0.40000000000E+01  0.51109989000E-03 0. -1.
     -623   -1    0    0    0    0  0.00000000000E+00  0.00000000000E+00  0.12525980253E-10  0.17130000000E+03  0.17130000000E+03 0.  1.
       11    1    1    2    0    0  0.25186697332E+00  0.11626813137E+00  0.12918300049E+00  0.30601267859E+00  0.51109989000E-03 0. -1.
     -623    1    1    2    0    0 -0.68788953270E+00  0.12228383084E+00  0.17926414144E+01  0.17131080441E+03  0.17130000000E+03 0.  1.
      622    1    1    2    0    0  0.43602255938E+00 -0.23855196221E+00  0.20781755525E+01  0.36831829085E+01  0.30000000000E+01 0. -1.
</event>
<event>
 5   0  0.7495800E-05  0.9118800E+02  0.7818608E-02  0.1180000E+00
       11   -1    0    0    0    0  0.00000000000E+00  0.00000000000E+00  0.39999999673E+01  0.40000000000E+01  0.51109989000E-03 0. -1.
     -623   -1    0    0    0    0  0.00000000000E+00  0.00000000000E+00  0.12525980253E-10  0.17130000000E+03  0.17130000000E+03 0.  1.
       11    1    1    2    0    0  0.13081752717E-01  0.27610068266E+00  0.12294950007E+00  0.30252199921E+00  0.51109989000E-03 0. -1.
     -623    1    1    2    0    0 -0.11523623655E+00 -0.99704088924E+00  0.18659737648E+01  0.17131310291E+03  0.17130000000E+03 0.  1.
      622    1    1    2    0    0  0.10215448383E+00  0.72094020658E+00  0.20110767025E+01  0.36843750926E+01  0.30000000000E+01 0. -1.
</event>
<event>
 5   0  0.7495800E-05  0.9118800E+02  0.7818608E-02  0.1180000E+00
       11   -1    0    0    0    0  0.00000000000E+00  0.00000000000E+00  0.39999999673E+01  0.40000000000E+01  0.51109989000E-03 0. -1.
     -623   -1    0    0    0    0  0.00000000000E+00  0.00000000000E+00  0.12525980253E-10  0.17130000000E+03  0.17130000000E+03 0.  1.
       11    1    1    2    0    0 -0.99353379662E-01 -0.19110799419E+00 -0.14443838048E+00  0.25933774594E+00  0.51109989000E-03 0. -1.
     -623    1    1    2    0    0 -0.52951671679E-01 -0.23640037372E+00  0.19764563630E+01  0.17131157307E+03  0.17130000000E+03 0.  1.
      622    1    1    2    0    0  0.15230505134E+00  0.42750836791E+00  0.21679819848E+01  0.37290891810E+01  0.30000000000E+01 0.  0.
</event>
<event>
 5   0  0.7495800E-05  0.9118800E+02  0.7818608E-02  0.1180000E+00
       11   -1    0    0    0    0  0.00000000000E+00  0.00000000000E+00  0.39999999673E+01  0.40000000000E+01  0.51109989000E-03 0.  1.
     -623   -1    0    0    0    0  0.00000000000E+00  0.00000000000E+00  0.12525980253E-10  0.17130000000E+03  0.17130000000E+03 0. -1.
       11    1    1    2    0    0 -0.52311942802E-01 -0.14839947614E+00 -0.30419695444E+00  0.34248356485E+00  0.51109989000E-03 0.  1.
     -623    1    1    2    0    0  0.10498044151E+01  0.45768839855E+00  0.25373260972E+01  0.17132261845E+03  0.17130000000E+03 0. -1.
      622    1    1    2    0    0 -0.99749247229E+00 -0.30928892241E+00  0.17668708246E+01  0.36348979877E+01  0.30000000000E+01 0.  0.
</event>
<event>
 5   0  0.7495800E-05  0.9118800E+02  0.7818608E-02  0.1180000E+00
       11   -1    0    0    0    0  0.00000000000E+00  0.00000000000E+00  0.39999999673E+01  0.40000000000E+01  0.51109989000E-03 0. -1.
     -623   -1    0    0    0    0  0.00000000000E+00  0.00000000000E+00  0.12525980253E-10  0.17130000000E+03  0.17130000000E+03 0. -1.
       11    1    1    2    0    0  0.27164671108E+00  0.22302917050E+00  0.55000983266E+00  0.65272124508E+00  0.51109989000E-03 0. -1.
     -623    1    1    2    0    0 -0.52223162685E+00  0.43380669363E+00  0.21818181310E+01  0.17131523938E+03  0.17130000000E+03 0. -1.
      622    1    1    2    0    0  0.25058491577E+00 -0.65683586413E+00  0.12681720037E+01  0.33320393730E+01  0.30000000000E+01 0. -1.
</event>
<event>
 5   0  0.7495800E-05  0.9118800E+02  0.7818608E-02  0.1180000E+00
       11   -1    0    0    0    0  0.00000000000E+00  0.00000000000E+00  0.39999999673E+01  0.40000000000E+01  0.51109989000E-03 0. -1.
     -623   -1    0    0    0    0  0.00000000000E+00  0.00000000000E+00  0.12525980253E-10  0.17130000000E+03  0.17130000000E+03 0. -1.
       11    1    1    2    0    0 -0.16356843453E+00 -0.35788591974E-01  0.28880804084E-01  0.16991120668E+00  0.51109989000E-03 0. -1.
     -623    1    1    2    0    0 -0.45414034737E+00  0.41660852801E+00  0.17197937121E+01  0.17130974139E+03  0.17130000000E+03 0. -1.
      622    1    1    2    0    0  0.61770878190E+00 -0.38081993604E+00  0.22513254512E+01  0.38203473992E+01  0.30000000000E+01 0. -1.
</event>
<event>
 5   0  0.7495800E-05  0.9118800E+02  0.7818608E-02  0.1180000E+00
       11   -1    0    0    0    0  0.00000000000E+00  0.00000000000E+00  0.39999999673E+01  0.40000000000E+01  0.51109989000E-03 0. -1.
     -623   -1    0    0    0    0  0.00000000000E+00  0.00000000000E+00  0.12525980253E-10  0.17130000000E+03  0.17130000000E+03 0.  1.
       11    1    1    2    0    0  0.31466825006E+00  0.12677806091E+00 -0.36733867659E-01  0.34123074683E+00  0.51109989000E-03 0. -1.
     -623    1    1    2    0    0 -0.89112042667E+00 -0.12782850767E+00  0.20499148143E+01  0.17131463039E+03  0.17130000000E+03 0.  1.
      622    1    1    2    0    0  0.57645217660E+00  0.10504467582E-02  0.19868190207E+01  0.36441388608E+01  0.30000000000E+01 0. -1.
</event>
<event>
 5   0  0.7495800E-05  0.9118800E+02  0.7818608E-02  0.1180000E+00
       11   -1    0    0    0    0  0.00000000000E+00  0.00000000000E+00  0.39999999673E+01  0.40000000000E+01  0.51109989000E-03 0. -1.
     -623   -1    0    0    0    0  0.00000000000E+00  0.00000000000E+00  0.12525980253E-10  0.17130000000E+03  0.17130000000E+03 0. -1.
       11    1    1    2    0    0 -0.57143670224E-01 -0.59482248675E-01  0.60462875216E-01  0.10227197787E+00  0.51109989000E-03 0. -1.
     -623    1    1    2    0    0  0.10329313606E+01  0.13829688608E+01  0.21176827380E+01  0.17132178533E+03  0.17130000000E+03 0. -1.
      622    1    1    2    0    0 -0.97578769035E+00 -0.13234866121E+01  0.18218543542E+01  0.38759426875E+01  0.30000000000E+01 0.  0.
</event>
<event>
 5   0  0.7495800E-05  0.9118800E+02  0.7818608E-02  0.1180000E+00
       11   -1    0    0    0    0  0.00000000000E+00  0.00000000000E+00  0.39999999673E+01  0.40000000000E+01  0.51109989000E-03 0. -1.
     -623   -1    0    0    0    0  0.00000000000E+00  0.00000000000E+00  0.12525980253E-10  0.17130000000E+03  0.17130000000E+03 0. -1.
       11    1    1    2    0    0 -0.10240104880E+00 -0.34203441380E-01 -0.15195480559E+00  0.18640379385E+00  0.51109989000E-03 0. -1.
     -623    1    1    2    0    0  0.12463453783E+00  0.11752571967E+01  0.21247092920E+01  0.17131725293E+03  0.17130000000E+03 0. -1.
      622    1    1    2    0    0 -0.22233489032E-01 -0.11410537553E+01  0.20272454810E+01  0.37963432722E+01  0.30000000000E+01 0. -1.
</event>
<event>
 5   0  0.7495800E-05  0.9118800E+02  0.7818608E-02  0.1180000E+00
       11   -1    0    0    0    0  0.00000000000E+00  0.00000000000E+00  0.39999999673E+01  0.40000000000E+01  0.51109989000E-03 0. -1.
     -623   -1    0    0    0    0  0.00000000000E+00  0.00000000000E+00  0.12525980253E-10  0.17130000000E+03  0.17130000000E+03 0. -1.
       11    1    1    2    0    0  0.31651473324E+00  0.29780999029E+00  0.24997385618E-01  0.43531310247E+00  0.51109989000E-03 0. -1.
     -623    1    1    2    0    0 -0.53062606655E+00 -0.36007443924E-01  0.21056029681E+01  0.17131376601E+03  0.17130000000E+03 0. -1.
      622    1    1    2    0    0  0.21411133332E+00 -0.26180254637E+00  0.18693996136E+01  0.35509208879E+01  0.30000000000E+01 0. -1.
</event>
<event>
 5   0  0.7495800E-05  0.9118800E+02  0.7818608E-02  0.1180000E+00
       11   -1    0    0    0    0  0.00000000000E+00  0.00000000000E+00  0.39999999673E+01  0.40000000000E+01  0.51109989000E-03 0. -1.
     -623   -1    0    0    0    0  0.00000000000E+00  0.00000000000E+00  0.12525980253E-10  0.17130000000E+03  0.17130000000E+03 0. -1.
       11    1    1    2    0    0 -0.94938205021E-01 -0.32983692402E+00  0.31086952232E-01  0.34463360115E+00  0.51109989000E-03 0. -1.
     -623    1    1    2    0    0  0.64083402949E+00  0.30050641261E+00  0.19766927084E+01  0.17131286667E+03  0.17130000000E+03 0. -1.
      622    1    1    2    0    0 -0.54589582447E+00  0.29330511412E-01  0.19922203067E+01  0.36424997296E+01  0.30000000000E+01 0. -1.
</event>
<event>
 5   0  0.7495800E-05  0.9118800E+02  0.7818608E-02  0.1180000E+00
       11   -1    0    0    0    0  0.00000000000E+00  0.00000000000E+00  0.39999999673E+01  0.40000000000E+01  0.51109989000E-03 0. -1.
     -623   -1    0    0    0    0  0.00000000000E+00  0.00000000000E+00  0.12525980253E-10  0.17130000000E+03  0.17130000000E+03 0.  1.
       11    1    1    2    0    0  0.10157732762E+00 -0.88474361206E-01 -0.78766444547E-02  0.13493690684E+00  0.51109989000E-03 0. -1.
     -623    1    1    2    0    0  0.73840698145E+00 -0.18540639376E+00  0.17549505247E+01  0.17131068114E+03  0.17130000000E+03 0.  1.
      622    1    1    2    0    0 -0.83998430907E+00  0.27388075497E+00  0.22529260871E+01  0.38543819558E+01  0.30000000000E+01 0. -1.
</event>
<event>
 5   0  0.7495800E-05  0.9118800E+02  0.7818608E-02  0.1180000E+00
       11   -1    0    0    0    0  0.00000000000E+00  0.00000000000E+00  0.39999999673E+01  0.40000000000E+01  0.51109989000E-03 0.  1.
     -623   -1    0    0    0    0  0.00000000000E+00  0.00000000000E+00  0.12525980253E-10  0.17130000000E+03  0.17130000000E+03 0. -1.
       11    1    1    2    0    0  0.28560146201E-01  0.34592960416E-01 -0.22881098561E+00  0.23316750035E+00  0.51109989000E-03 0.  1.
     -623    1    1    2    0    0  0.55759823990E+00  0.41407327531E+00  0.20988157344E+01  0.17131426502E+03  0.17130000000E+03 0. -1.
      622    1    1    2    0    0 -0.58615838611E+00 -0.44866623573E+00  0.21299952186E+01  0.37525674778E+01  0.30000000000E+01 0.  1.
</event>
<event>
 5   0  0.7495800E-05  0.9118800E+02  0.7818608E-02  0.1180000E+00
       11   -1    0    0    0    0  0.00000000000E+00  0.00000000000E+00  0.39999999673E+01  0.40000000000E+01  0.51109989000E-03 0.  1.
     -623   -1    0    0    0    0  0.00000000000E+00  0.00000000000E+00  0.12525980253E-10  0.17130000000E+03  0.17130000000E+03 0. -1.
       11    1    1    2    0    0 -0.16243044686E+00  0.15820266930E+00  0.25366463209E+00  0.34023189362E+00  0.51109989000E-03 0.  1.
     -623    1    1    2    0    0 -0.28403894084E+00 -0.12973193329E+00  0.17143502494E+01  0.17130886289E+03  0.17130000000E+03 0. -1.
      622    1    1    2    0    0  0.44646938770E+00 -0.28470736005E-01  0.20319850858E+01  0.36509052146E+01  0.30000000000E+01 0.  1.
</event>
<event>
 5   0  0.7495800E-05  0.9118800E+02  0.7818608E-02  0.1180000E+00
       11   -1    0    0    0    0  0.00000000000E+00  0.00000000000E+00  0.39999999673E+01  0.40000000000E+01  0.51109989000E-03 0.  1.
     -623   -1    0    0    0    0  0.00000000000E+00  0.00000000000E+00  0.12525980253E-10  0.17130000000E+03  0.17130000000E+03 0.  1.
       11    1    1    2    0    0 -0.98464318405E-01 -0.10752907998E+00 -0.33687076761E+00  0.36706933995E+00  0.51109989000E-03 0.  1.
     -623    1    1    2    0    0 -0.10401056974E+01  0.69398535943E+00  0.28009198087E+01  0.17132746011E+03  0.17130000000E+03 0.  1.
      622    1    1    2    0    0  0.11385700158E+01 -0.58645627945E+00  0.15359509262E+01  0.36054705513E+01  0.30000000000E+01 0.  0.
</event>
<event>
 5   0  0.7495800E-05  0.9118800E+02  0.7818608E-02  0.1180000E+00
       11   -1    0    0    0    0  0.00000000000E+00  0.00000000000E+00  0.39999999673E+01  0.40000000000E+01  0.51109989000E-03 0.  1.
     -623   -1    0    0    0    0  0.00000000000E+00  0.00000000000E+00  0.12525980253E-10  0.17130000000E+03  0.17130000000E+03 0. -1.
       11    1    1    2    0    0  0.28240795737E+00 -0.20219916297E+00  0.44716532103E-01  0.35019792312E+00  0.51109989000E-03 0.  1.
     -623    1    1    2    0    0 -0.23928047489E-01  0.30377625545E+00  0.19147054932E+01  0.17131097148E+03  0.17130000000E+03 0. -1.
      622    1    1    2    0    0 -0.25847990988E+00 -0.10157709248E+00  0.20405779420E+01  0.36388305961E+01  0.30000000000E+01 0.  1.
</event>
<event>
 5   0  0.7495800E-05  0.9118800E+02  0.7818608E-02  0.1180000E+00
       11   -1    0    0    0    0  0.00000000000E+00  0.00000000000E+00  0.39999999673E+01  0.40000000000E+01  0.51109989000E-03 0. -1.
     -623   -1    0    0    0    0  0.00000000000E+00  0.00000000000E+00  0.12525980253E-10  0.17130000000E+03  0.17130000000E+03 0. -1.
       11    1    1    2    0    0  0.11692270282E+00 -0.77630355542E-01 -0.10014255042E+00  0.17241282482E+00  0.51109989000E-03 0. -1.
     -623    1    1    2    0    0 -0.64918973992E-02  0.69625391814E+00  0.18263131421E+01  0.17131115034E+03  0.17130000000E+03 0. -1.
      622    1    1    2    0    0 -0.11043080542E+00 -0.61862356259E+00  0.22738293757E+01  0.38164368336E+01  0.30000000000E+01 0. -1.
</event>
<event>
 5   0  0.7495800E-05  0.9118800E+02  0.7818608E-02  0.1180000E+00
       11   -1    0    0    0    0  0.00000000000E+00  0.00000000000E+00  0.39999999673E+01  0.40000000000E+01  0.51109989000E-03 0. -1.
     -623   -1    0    0    0    0  0.00000000000E+00  0.00000000000E+00  0.12525980253E-10  0.17130000000E+03  0.17130000000E+03 0. -1.
       11    1    1    2    0    0 -0.57410748762E-01  0.89032263231E-01 -0.18168003717E+00  0.21031080595E+00  0.51109989000E-03 0. -1.
     -623    1    1    2    0    0  0.28964905990E+00 -0.30480937203E+00  0.19063636602E+01  0.17131112348E+03  0.17130000000E+03 0. -1.
      622    1    1    2    0    0 -0.23223831113E+00  0.21577710879E+00  0.22753163444E+01  0.37785657148E+01  0.30000000000E+01 0. -1.
</event>
<event>
 5   0  0.7495800E-05  0.9118800E+02  0.7818608E-02  0.1180000E+00
       11   -1    0    0    0    0  0.00000000000E+00  0.00000000000E+00  0.39999999673E+01  0.40000000000E+01  0.51109989000E-03 0.  1.
     -623   -1    0    0    0    0  0.00000000000E+00  0.00000000000E+00  0.12525980253E-10  0.17130000000E+03  0.17130000000E+03 0. -1.
       11    1    1    2    0    0 -0.75010341053E-01  0.18935696637E-01  0.20582252688E+00  0.21988243602E+00  0.51109989000E-03 0.  1.
     -623    1    1    2    0    0  0.11223044393E+00 -0.74817671245E+00  0.16297000460E+01  0.17130942264E+03  0.17130000000E+03 0. -1.
      622    1    1    2    0    0 -0.37220102872E-01  0.72924101581E+00  0.21644773945E+01  0.37706949209E+01  0.30000000000E+01 0.  1.
</event>
<event>
 5   0  0.7495800E-05  0.9118800E+02  0.7818608E-02  0.1180000E+00
       11   -1    0    0    0    0  0.00000000000E+00  0.00000000000E+00  0.39999999673E+01  0.40000000000E+01  0.51109989000E-03 0.  1.
     -623   -1    0    0    0    0  0.00000000000E+00  0.00000000000E+00  0.12525980253E-10  0.17130000000E+03  0.17130000000E+03 0. -1.
       11    1    1    2    0    0 -0.15659949183E-01  0.80949933036E-02 -0.59578098596E-02  0.18615038179E-01  0.51109989000E-03 0.  1.
     -623    1    1    2    0    0 -0.14424963613E+00 -0.35782970756E-01  0.14023250257E+01  0.17130580435E+03  0.17130000000E+03 0. -1.
      622    1    1    2    0    0  0.15990958531E+00  0.27687977452E-01  0.26036327515E+01  0.39755806122E+01  0.30000000000E+01 0.  1.
</event>
<event>
 5   0  0.7495800E-05  0.9118800E+02  0.7818608E-02  0.1180000E+00
       11   -1    0    0    0    0  0.00000000000E+00  0.00000000000E+00  0.39999999673E+01  0.40000000000E+01  0.51109989000E-03 0.  1.
     -623   -1    0    0    0    0  0.00000000000E+00  0.00000000000E+00  0.12525980253E-10  0.17130000000E+03  0.17130000000E+03 0. -1.
       11    1    1    2    0    0 -0.83302660400E-01  0.23058604192E+00 -0.93504835296E-01  0.26239792568E+00  0.51109989000E-03 0.  1.
     -623    1    1    2    0    0 -0.35051588941E+00  0.58101223077E-01  0.19457374359E+01  0.17131141857E+03  0.17130000000E+03 0. -1.
      622    1    1    2    0    0  0.43381854981E+00 -0.28868726499E+00  0.21477673668E+01  0.37261835077E+01  0.30000000000E+01 0.  1.
</event>
<event>
 5   0  0.7495800E-05  0.9118800E+02  0.7818608E-02  0.1180000E+00
       11   -1    0    0    0    0  0.00000000000E+00  0.00000000000E+00  0.39999999673E+01  0.40000000000E+01  0.51109989000E-03 0.  1.
     -623   -1    0    0    0    0  0.00000000000E+00  0.00000000000E+00  0.12525980253E-10  0.17130000000E+03  0.17130000000E+03 0.  1.
       11    1    1    2    0    0 -0.45965327470E-01  0.30435522955E+00  0.11643078988E+00  0.32909163943E+00  0.51109989000E-03 0.  1.
     -623    1    1    2    0    0 -0.12568019719E+00 -0.12318931032E+01  0.20219614139E+01  0.17131640810E+03  0.17130000000E+03 0.  1.
      622    1    1    2    0    0  0.17164552466E+00  0.92753787366E+00  0.18616077636E+01  0.36545002611E+01  0.30000000000E+01 0.  0.
</event>
<event>
 5   0  0.7495800E-05  0.9118800E+02  0.7818608E-02  0.1180000E+00
       11   -1    0    0    0    0  0.00000000000E+00  0.00000000000E+00  0.39999999673E+01  0.40000000000E+01  0.51109989000E-03 0. -1.
     -623   -1    0    0    0    0  0.00000000000E+00  0.00000000000E+00  0.12525980253E-10  0.17130000000E+03  0.17130000000E+03 0. -1.
       11    1    1    2    0    0  0.15699316219E-01 -0.79703794908E-01 -0.16589532069E+00  0.18471784456E+00  0.51109989000E-03 0. -1.
     -623    1    1    2    0    0 -0.30008358717E+00  0.51710740525E+00  0.18861769618E+01  0.17131142727E+03  0.17130000000E+03 0. -1.
      622    1    1    2    0    0  0.28438427095E+00 -0.43740361034E+00  0.22797183262E+01  0.38038548841E+01  0.30000000000E+01 0. -1.
</event>
<event>
 5   0  0.7495800E-05  0.9118800E+02  0.7818608E-02  0.1180000E+00
       11   -1    0    0    0    0  0.00000000000E+00  0.00000000000E+00  0.39999999673E+01  0.40000000000E+01  0.51109989000E-03 0. -1.
     -623   -1    0    0    0    0  0.00000000000E+00  0.00000000000E+00  0.12525980253E-10  0.17130000000E+03  0.17130000000E+03 0. -1.
       11    1    1    2    0    0  0.24768760982E-01 -0.70266727560E+00  0.32406696115E+00  0.77419277202E+00  0.51109989000E-03 0. -1.
     -623    1    1    2    0    0  0.61013377520E+00  0.15117619874E+01  0.33864022653E+01  0.17134122507E+03  0.17130000000E+03 0.  1.
      622    1    1    2    0    0 -0.63490253619E+00 -0.80909471183E+00  0.28953074090E+00  0.31845821599E+01  0.30000000000E+01 0. -1.
</event>
<event>
 5   0  0.7495800E-05  0.9118800E+02  0.7818608E-02  0.1180000E+00
       11   -1    0    0    0    0  0.00000000000E+00  0.00000000000E+00  0.39999999673E+01  0.40000000000E+01  0.51109989000E-03 0. -1.
     -623   -1    0    0    0    0  0.00000000000E+00  0.00000000000E+00  0.12525980253E-10  0.17130000000E+03  0.17130000000E+03 0.  1.
       11    1    1    2    0    0 -0.30210280264E+00 -0.71772124588E-01 -0.67888543202E-01  0.31784659312E+00  0.51109989000E-03 0. -1.
     -623    1    1    2    0    0  0.13786313091E+00 -0.33345402998E+00  0.19994380383E+01  0.17131204847E+03  0.17130000000E+03 0.  1.
      622    1    1    2    0    0  0.16423967173E+00  0.40522615457E+00  0.20684504723E+01  0.36701049389E+01  0.30000000000E+01 0. -1.
</event>
<event>
 5   0  0.7495800E-05  0.9118800E+02  0.7818608E-02  0.1180000E+00
       11   -1    0    0    0    0  0.00000000000E+00  0.00000000000E+00  0.39999999673E+01  0.40000000000E+01  0.51109989000E-03 0. -1.
     -623   -1    0    0    0    0  0.00000000000E+00  0.00000000000E+00  0.12525980253E-10  0.17130000000E+03  0.17130000000E+03 0. -1.
       11    1    1    2    0    0  0.12465697755E+00  0.40470496723E+00 -0.21179547300E+00  0.47347973152E+00  0.51109989000E-03 0. -1.
     -623    1    1    2    0    0 -0.46470641629E+00  0.42709060492E-01  0.24827777535E+01  0.17131862701E+03  0.17130000000E+03 0. -1.
      622    1    1    2    0    0  0.34004943874E+00 -0.44741402772E+00  0.17290176869E+01  0.35078932559E+01  0.30000000000E+01 0. -1.
</event>
<event>
 5   0  0.7495800E-05  0.9118800E+02  0.7818608E-02  0.1180000E+00
       11   -1    0    0    0    0  0.00000000000E+00  0.00000000000E+00  0.39999999673E+01  0.40000000000E+01  0.51109989000E-03 0. -1.
     -623   -1    0    0    0    0  0.00000000000E+00  0.00000000000E+00  0.12525980253E-10  0.17130000000E+03  0.17130000000E+03 0. -1.
       11    1    1    2    0    0  0.57076845981E+00  0.18335570656E+00 -0.31579244679E+00  0.67758474047E+00  0.51109989000E-03 0. -1.
     -623    1    1    2    0    0 -0.48554113709E+00  0.81171726213E+00  0.34225727932E+01  0.17133679885E+03  0.17130000000E+03 0. -1.
      622    1    1    2    0    0 -0.85227322725E-01 -0.99507296869E+00  0.89321962091E+00  0.32856164111E+01  0.30000000000E+01 0. -1.
</event>
<event>
 5   0  0.7495800E-05  0.9118800E+02  0.7818608E-02  0.1180000E+00
       11   -1    0    0    0    0  0.00000000000E+00  0.00000000000E+00  0.39999999673E+01  0.40000000000E+01  0.51109989000E-03 0. -1.
     -623   -1    0    0    0    0  0.00000000000E+00  0.00000000000E+00  0.12525980253E-10  0.17130000000E+03  0.17130000000E+03 0.  1.
       11    1    1    2    0    0 -0.30370103569E+00 -0.48112076020E+00 -0.21169036640E+00  0.60706225169E+00  0.51109989000E-03 0. -1.
     -623    1    1    2    0    0  0.19063838562E+00  0.13814967345E+01  0.52646410216E+01  0.17138655525E+03  0.17130000000E+03 0. -1.
      622    1    1    2    0    0  0.11306265007E+00 -0.90037597426E+00 -0.10529506878E+01  0.33063824958E+01  0.30000000000E+01 0.  0.
</event>
<event>
 5   0  0.7495800E-05  0.9118800E+02  0.7818608E-02  0.1180000E+00
       11   -1    0    0    0    0  0.00000000000E+00  0.00000000000E+00  0.39999999673E+01  0.40000000000E+01  0.51109989000E-03 0.  1.
     -623   -1    0    0    0    0  0.00000000000E+00  0.00000000000E+00  0.12525980253E-10  0.17130000000E+03  0.17130000000E+03 0.  1.
       11    1    1    2    0    0 -0.29551861717E+00 -0.18801149920E+00  0.46305697721E-01  0.35330448029E+00  0.51109989000E-03 0.  1.
     -623    1    1    2    0    0 -0.21726885582E+00 -0.12077444181E+00  0.19903865828E+01  0.17131174341E+03  0.17130000000E+03 0.  1.
      622    1    1    2    0    0  0.51278747299E+00  0.30878594101E+00  0.19633076868E+01  0.36349521074E+01  0.30000000000E+01 0.  1.
</event>
<event>
 5   0  0.7495800E-05  0.9118800E+02  0.7818608E-02  0.1180000E+00
       11   -1    0    0    0    0  0.00000000000E+00  0.00000000000E+00  0.39999999673E+01  0.40000000000E+01  0.51109989000E-03 0. -1.
     -623   -1    0    0    0    0  0.00000000000E+00  0.00000000000E+00  0.12525980253E-10  0.17130000000E+03  0.17130000000E+03 0.  1.
       11    1    1    2    0    0  0.64828073632E+00  0.22972992746E+00  0.90730309345E-01  0.69374058763E+00  0.51109989000E-03 0. -1.
     -623    1    1    2    0    0 -0.52212882887E-01 -0.76498865989E+00  0.28499805449E+01  0.17132542229E+03  0.17130000000E+03 0.  1.
      622    1    1    2    0    0 -0.59606785344E+00  0.53525873243E+00  0.10592891131E+01  0.32808371221E+01  0.30000000000E+01 0. -1.
</event>
<event>
 5   0  0.7495800E-05  0.9118800E+02  0.7818608E-02  0.1180000E+00
       11   -1    0    0    0    0  0.00000000000E+00  0.00000000000E+00  0.39999999673E+01  0.40000000000E+01  0.51109989000E-03 0.  1.
     -623   -1    0    0    0    0  0.00000000000E+00  0.00000000000E+00  0.12525980253E-10  0.17130000000E+03  0.17130000000E+03 0.  1.
       11    1    1    2    0    0 -0.38383374106E-01  0.23750621497E+00  0.22280352123E-01  0.24161779915E+00  0.51109989000E-03 0.  1.
     -623    1    1    2    0    0 -0.31213043720E+00 -0.41307573622E+00  0.17646565881E+01  0.17130987149E+03  0.17130000000E+03 0.  1.
      622    1    1    2    0    0  0.35051381131E+00  0.17556952125E+00  0.22130630272E+01  0.37485107111E+01  0.30000000000E+01 0.  1.
</event>
<event>
 5   0  0.7495800E-05  0.9118800E+02  0.7818608E-02  0.1180000E+00
       11   -1    0    0    0    0  0.00000000000E+00  0.00000000000E+00  0.39999999673E+01  0.40000000000E+01  0.51109989000E-03 0. -1.
     -623   -1    0    0    0    0  0.00000000000E+00  0.00000000000E+00  0.12525980253E-10  0.17130000000E+03  0.17130000000E+03 0.  1.
       11    1    1    2    0    0 -0.14625443745E+00  0.19991837477E+00 -0.27019470937E+00  0.36655580644E+00  0.51109989000E-03 0. -1.
     -623    1    1    2    0    0  0.72590437709E+00  0.32628118304E+00  0.24120896017E+01  0.17131883018E+03  0.17130000000E+03 0.  1.
      622    1    1    2    0    0 -0.57964993965E+00 -0.52619955781E+00  0.18581050750E+01  0.36146140177E+01  0.30000000000E+01 0.  0.
</event>
<event>
 5   0  0.7495800E-05  0.9118800E+02  0.7818608E-02  0.1180000E+00
       11   -1    0    0    0    0  0.00000000000E+00  0.00000000000E+00  0.39999999673E+01  0.40000000000E+01  0.51109989000E-03 0. -1.
     -623   -1    0    0    0    0  0.00000000000E+00  0.00000000000E+00  0.12525980253E-10  0.17130000000E+03  0.17130000000E+03 0.  1.
       11    1    1    2    0    0 -0.20091394296E+00  0.20417275443E+00  0.89951383977E-01  0.30024063487E+00  0.51109989000E-03 0. -1.
     -623    1    1    2    0    0  0.13626856140E+00 -0.87476831737E+00  0.18749446599E+01  0.17131254830E+03  0.17130000000E+03 0.  1.
      622    1    1    2    0    0  0.64645381558E-01  0.67059556294E+00  0.20351039235E+01  0.36872110617E+01  0.30000000000E+01 0. -1.
</event>
<event>
 5   0  0.7495800E-05  0.9118800E+02  0.7818608E-02  0.1180000E+00
       11   -1    0    0    0    0  0.00000000000E+00  0.00000000000E+00  0.39999999673E+01  0.40000000000E+01  0.51109989000E-03 0. -1.
     -623   -1    0    0    0    0  0.00000000000E+00  0.00000000000E+00  0.12525980253E-10  0.17130000000E+03  0.17130000000E+03 0. -1.
       11    1    1    2    0    0  0.26439698269E+00 -0.12821926260E+00  0.39632220852E-02  0.29387397318E+00  0.51109989000E-03 0. -1.
     -623    1    1    2    0    0 -0.48624839161E+00  0.58364479705E+00  0.19012330558E+01  0.17131223472E+03  0.17130000000E+03 0. -1.
      622    1    1    2    0    0  0.22185140891E+00 -0.45542553445E+00  0.20948036895E+01  0.36938913036E+01  0.30000000000E+01 0. -1.
</event>
<event>
 5   0  0.7495800E-05  0.9118800E+02  0.7818608E-02  0.1180000E+00
       11   -1    0    0    0    0  0.00000000000E+00  0.00000000000E+00  0.39999999673E+01  0.40000000000E+01  0.51109989000E-03 0. -1.
     -623   -1    0    0    0    0  0.00000000000E+00  0.00000000000E+00  0.12525980253E-10  0.17130000000E+03  0.17130000000E+03 0.  1.
       11    1    1    2    0    0 -0.32868327510E+00 -0.36977360102E-01 -0.18032186845E+00  0.37671774308E+00  0.51109989000E-03 0. -1.
     -623    1    1    2    0    0  0.20734191421E-01  0.54120015090E-01  0.21976404919E+01  0.17131410620E+03  0.17130000000E+03 0.  1.
      622    1    1    2    0    0  0.30794908368E+00 -0.17142654988E-01  0.19826813439E+01  0.36091760584E+01  0.30000000000E+01 0. -1.
</event>
<event>
 5   0  0.7495800E-05  0.9118800E+02  0.7818608E-02  0.1180000E+00
       11   -1    0    0    0    0  0.00000000000E+00  0.00000000000E+00  0.39999999673E+01  0.40000000000E+01  0.51109989000E-03 0. -1.
     -623   -1    0    0    0    0  0.00000000000E+00  0.00000000000E+00  0.12525980253E-10  0.17130000000E+03  0.17130000000E+03 0.  1.
       11    1    1    2    0    0 -0.41321700307E-02 -0.17942928296E-01 -0.36832888630E-01  0.41181869954E-01  0.51109989000E-03 0. -1.
     -623    1    1    2    0    0  0.30496554798E+00  0.20544830893E-01  0.14816645639E+01  0.17130668042E+03  0.17130000000E+03 0.  1.
      622    1    1    2    0    0 -0.30083337795E+00 -0.26019025972E-02  0.25551682921E+01  0.39521377117E+01  0.30000000000E+01 0. -1.
</event>
<event>
 5   0  0.7495800E-05  0.9118800E+02  0.7818608E-02  0.1180000E+00
       11   -1    0    0    0    0  0.00000000000E+00  0.00000000000E+00  0.39999999673E+01  0.40000000000E+01  0.51109989000E-03 0. -1.
     -623   -1    0    0    0    0  0.00000000000E+00  0.00000000000E+00  0.12525980253E-10  0.17130000000E+03  0.17130000000E+03 0.  1.
       11    1    1    2    0    0 -0.14144380970E+00 -0.17641669151E+00 -0.80417884121E-03  0.22611967688E+00  0.51109989000E-03 0. -1.
     -623    1    1    2    0    0  0.56950289880E+00  0.24227234212E+00  0.17698260018E+01  0.17131026039E+03  0.17130000000E+03 0.  1.
      622    1    1    2    0    0 -0.42805908910E+00 -0.65855650615E-01  0.22309781444E+01  0.37636199371E+01  0.30000000000E+01 0. -1.
</event>
<event>
 5   0  0.7495800E-05  0.9118800E+02  0.7818608E-02  0.1180000E+00
       11   -1    0    0    0    0  0.00000000000E+00  0.00000000000E+00  0.39999999673E+01  0.40000000000E+01  0.51109989000E-03 0.  1.
     -623   -1    0    0    0    0  0.00000000000E+00  0.00000000000E+00  0.12525980253E-10  0.17130000000E+03  0.17130000000E+03 0.  1.
       11    1    1    2    0    0  0.11975317329E+00 -0.93135546996E-01  0.67045625398E-02  0.15185606674E+00  0.51109989000E-03 0.  1.
     -623    1    1    2    0    0  0.25393034426E+00 -0.18629496493E-01  0.16278867850E+01  0.17130792405E+03  0.17130000000E+03 0.  1.
      622    1    1    2    0    0 -0.37368351755E+00  0.11176504349E+00  0.23654086199E+01  0.38402198811E+01  0.30000000000E+01 0.  1.
</event>
<event>
 5   0  0.7495800E-05  0.9118800E+02  0.7818608E-02  0.1180000E+00
       11   -1    0    0    0    0  0.00000000000E+00  0.00000000000E+00  0.39999999673E+01  0.40000000000E+01  0.51109989000E-03 0. -1.
     -623   -1    0    0    0    0  0.00000000000E+00  0.00000000000E+00  0.12525980253E-10  0.17130000000E+03  0.17130000000E+03 0.  1.
       11    1    1    2    0    0  0.16429986198E+00  0.12526929213E+00  0.17941285141E+00  0.27363492590E+00  0.51109989000E-03 0. -1.
     -623    1    1    2    0    0  0.11481833210E-01 -0.14238614413E-01  0.16332143961E+01  0.17130778652E+03  0.17130000000E+03 0.  1.
      622    1    1    2    0    0 -0.17578169519E+00 -0.11103067772E+00  0.21873727199E+01  0.37185785499E+01  0.30000000000E+01 0. -1.
</event>
<event>
 5   0  0.7495800E-05  0.9118800E+02  0.7818608E-02  0.1180000E+00
       11   -1    0    0    0    0  0.00000000000E+00  0.00000000000E+00  0.39999999673E+01  0.40000000000E+01  0.51109989000E-03 0.  1.
     -623   -1    0    0    0    0  0.00000000000E+00  0.00000000000E+00  0.12525980253E-10  0.17130000000E+03  0.17130000000E+03 0.  1.
       11    1    1    2    0    0  0.24212246687E-01  0.12611657463E+00  0.46220449847E-01  0.13648521712E+00  0.51109989000E-03 0.  1.
     -623    1    1    2    0    0 -0.23235430900E-01 -0.31147853471E+00  0.15378114726E+01  0.17130718731E+03  0.17130000000E+03 0.  1.
      622    1    1    2    0    0 -0.97681578765E-03  0.18536196008E+00  0.24159680449E+01  0.38563274763E+01  0.30000000000E+01 0.  1.
</event>
<event>
 5   0  0.7495800E-05  0.9118800E+02  0.7818608E-02  0.1180000E+00
       11   -1    0    0    0    0  0.00000000000E+00  0.00000000000E+00  0.39999999673E+01  0.40000000000E+01  0.51109989000E-03 0. -1.
     -623   -1    0    0    0    0  0.00000000000E+00  0.00000000000E+00  0.12525980253E-10  0.17130000000E+03  0.17130000000E+03 0.  1.
       11    1    1    2    0    0 -0.10989196691E+00  0.33366133377E-01  0.10445941715E+00  0.15524681736E+00  0.51109989000E-03 0. -1.
     -623    1    1    2    0    0  0.26639987519E+00 -0.51713183887E+00  0.15585434334E+01  0.17130807760E+03  0.17130000000E+03 0.  1.
      622    1    1    2    0    0 -0.15650790828E+00  0.48376570550E+00  0.23369971168E+01  0.38366755801E+01  0.30000000000E+01 0. -1.
</event>
<event>
 5   0  0.7495800E-05  0.9118800E+02  0.7818608E-02  0.1180000E+00
       11   -1    0    0    0    0  0.00000000000E+00  0.00000000000E+00  0.39999999673E+01  0.40000000000E+01  0.51109989000E-03 0.  1.
     -623   -1    0    0    0    0  0.00000000000E+00  0.00000000000E+00  0.12525980253E-10  0.17130000000E+03  0.17130000000E+03 0.  1.
       11    1    1    2    0    0  0.85227469694E-02  0.13476519418E-01 -0.38940066462E-01  0.42081394828E-01  0.51109989000E-03 0.  1.
     -623    1    1    2    0    0  0.25733501799E+00  0.32700705847E-01  0.14815822222E+01  0.17130660342E+03  0.17130000000E+03 0.  1.
      622    1    1    2    0    0 -0.26585776496E+00 -0.46177225265E-01  0.25573578117E+01  0.39513151816E+01  0.30000000000E+01 0.  1.
</event>
<event>
 5   0  0.7495800E-05  0.9118800E+02  0.7818608E-02  0.1180000E+00
       11   -1    0    0    0    0  0.00000000000E+00  0.00000000000E+00  0.39999999673E+01  0.40000000000E+01  0.51109989000E-03 0.  1.
     -623   -1    0    0    0    0  0.00000000000E+00  0.00000000000E+00  0.12525980253E-10  0.17130000000E+03  0.17130000000E+03 0.  1.
       11    1    1    2    0    0 -0.86879630513E-01 -0.12809003543E+00  0.99030837421E-02  0.15509177820E+00  0.51109989000E-03 0.  1.
     -623    1    1    2    0    0  0.30436430618E+00  0.29278127291E+00  0.16138602918E+01  0.17130812270E+03  0.17130000000E+03 0.  1.
      622    1    1    2    0    0 -0.21748467567E+00 -0.16469123748E+00  0.23762365918E+01  0.38367855202E+01  0.30000000000E+01 0.  1.
</event>
<event>
 5   0  0.7495800E-05  0.9118800E+02  0.7818608E-02  0.1180000E+00
       11   -1    0    0    0    0  0.00000000000E+00  0.00000000000E+00  0.39999999673E+01  0.40000000000E+01  0.51109989000E-03 0. -1.
     -623   -1    0    0    0    0  0.00000000000E+00  0.00000000000E+00  0.12525980253E-10  0.17130000000E+03  0.17130000000E+03 0. -1.
       11    1    1    2    0    0  0.11568468896E+00  0.25881294321E-01 -0.17616943745E+00  0.21234104776E+00  0.51109989000E-03 0. -1.
     -623    1    1    2    0    0 -0.32129362524E+00  0.45976880218E+00  0.19450789325E+01  0.17131196090E+03  0.17130000000E+03 0. -1.
      622    1    1    2    0    0  0.20560893628E+00 -0.48565009650E+00  0.22310904723E+01  0.37756980476E+01  0.30000000000E+01 0. -1.
</event>
<event>
 5   0  0.7495800E-05  0.9118800E+02  0.7818608E-02  0.1180000E+00
       11   -1    0    0    0    0  0.00000000000E+00  0.00000000000E+00  0.39999999673E+01  0.40000000000E+01  0.51109989000E-03 0.  1.
     -623   -1    0    0    0    0  0.00000000000E+00  0.00000000000E+00  0.12525980253E-10  0.17130000000E+03  0.17130000000E+03 0.  1.
       11    1    1    2    0    0 -0.27218083143E-01 -0.56453723596E+00  0.32015844542E+00  0.64957278748E+00  0.51109989000E-03 0.  1.
     -623    1    1    2    0    0  0.33645607688E+00  0.10581682637E+00  0.23342656024E+01  0.17131626658E+03  0.17130000000E+03 0.  1.
      622    1    1    2    0    0 -0.30923799373E+00  0.45872040960E+00  0.13455759195E+01  0.33341606299E+01  0.30000000000E+01 0.  1.
</event>
<event>
 5   0  0.7495800E-05  0.9118800E+02  0.7818608E-02  0.1180000E+00
       11   -1    0    0    0    0  0.00000000000E+00  0.00000000000E+00  0.39999999673E+01  0.40000000000E+01  0.51109989000E-03 0. -1.
     -623   -1    0    0    0    0  0.00000000000E+00  0.00000000000E+00  0.12525980253E-10  0.17130000000E+03  0.17130000000E+03 0. -1.
       11    1    1    2    0    0 -0.45741404082E-01 -0.16777696697E-01 -0.96705091205E-01  0.10828620891E+00  0.51109989000E-03 0. -1.
     -623    1    1    2    0    0  0.14085077993E+00  0.58129625631E+00  0.17000378557E+01  0.17130947981E+03  0.17130000000E+03 0. -1.
      622    1    1    2    0    0 -0.95109375843E-01 -0.56451855961E+00  0.23966672029E+01  0.38822339805E+01  0.30000000000E+01 0. -1.
</event>
<event>
 5   0  0.7495800E-05  0.9118800E+02  0.7818608E-02  0.1180000E+00
       11   -1    0    0    0    0  0.00000000000E+00  0.00000000000E+00  0.39999999673E+01  0.40000000000E+01  0.51109989000E-03 0. -1.
     -623   -1    0    0    0    0  0.00000000000E+00  0.00000000000E+00  0.12525980253E-10  0.17130000000E+03  0.17130000000E+03 0. -1.
       11    1    1    2    0    0 -0.32482946336E+00  0.63507087954E-01  0.11534804106E+00  0.35050358384E+00  0.51109989000E-03 0. -1.
     -623    1    1    2    0    0  0.13823992778E+00 -0.16286004999E+00  0.18348866595E+01  0.17130996014E+03  0.17130000000E+03 0. -1.
      622    1    1    2    0    0  0.18658953558E+00  0.99352962041E-01  0.20497652668E+01  0.36395362774E+01  0.30000000000E+01 0. -1.
</event>
<event>
 5   0  0.7495800E-05  0.9118800E+02  0.7818608E-02  0.1180000E+00
       11   -1    0    0    0    0  0.00000000000E+00  0.00000000000E+00  0.39999999673E+01  0.40000000000E+01  0.51109989000E-03 0. -1.
     -623   -1    0    0    0    0  0.00000000000E+00  0.00000000000E+00  0.12525980253E-10  0.17130000000E+03  0.17130000000E+03 0.  1.
       11    1    1    2    0    0 -0.47663708100E-01  0.17697714268E+00  0.10524519399E+00  0.21135172150E+00  0.51109989000E-03 0. -1.
     -623    1    1    2    0    0  0.95576794957E-01 -0.72900312291E+00  0.16645788863E+01  0.17130966524E+03  0.17130000000E+03 0.  1.
      622    1    1    2    0    0 -0.47913086857E-01  0.55202598023E+00  0.22301758870E+01  0.37789830423E+01  0.30000000000E+01 0. -1.
</event>
<event>
 5   0  0.7495800E-05  0.9118800E+02  0.7818608E-02  0.1180000E+00
       11   -1    0    0    0    0  0.00000000000E+00  0.00000000000E+00  0.39999999673E+01  0.40000000000E+01  0.51109989000E-03 0.  1.
     -623   -1    0    0    0    0  0.00000000000E+00  0.00000000000E+00  0.12525980253E-10  0.17130000000E+03  0.17130000000E+03 0. -1.
       11    1    1    2    0    0 -0.10710540418E+00  0.74686019218E-01 -0.20786161468E-03  0.13057516417E+00  0.51109989000E-03 0.  1.
     -623    1    1    2    0    0  0.54843893732E-02 -0.47761285548E-02  0.15708984944E+01  0.17130720293E+03  0.17130000000E+03 0. -1.
      622    1    1    2    0    0  0.10162101480E+00 -0.69909890664E-01  0.24293093345E+01  0.38622219080E+01  0.30000000000E+01 0.  1.
</event>
<event>
 5   0  0.7495800E-05  0.9118800E+02  0.7818608E-02  0.1180000E+00
       11   -1    0    0    0    0  0.00000000000E+00  0.00000000000E+00  0.39999999673E+01  0.40000000000E+01  0.51109989000E-03 0. -1.
     -623   -1    0    0    0    0  0.00000000000E+00  0.00000000000E+00  0.12525980253E-10  0.17130000000E+03  0.17130000000E+03 0.  1.
       11    1    1    2    0    0 -0.88000420917E-01  0.40135544201E+00  0.52067894069E+00  0.66327753272E+00  0.51109989000E-03 0. -1.
     -623    1    1    2    0    0 -0.75440990809E+00 -0.49188775612E+00  0.23419674782E+01  0.17131837584E+03  0.17130000000E+03 0.  1.
      622    1    1    2    0    0  0.84241032900E+00  0.90532314110E-01  0.11373535484E+01  0.33183466299E+01  0.30000000000E+01 0. -1.
</event>
<event>
 5   0  0.7495800E-05  0.9118800E+02  0.7818608E-02  0.1180000E+00
       11   -1    0    0    0    0  0.00000000000E+00  0.00000000000E+00  0.39999999673E+01  0.40000000000E+01  0.51109989000E-03 0.  1.
     -623   -1    0    0    0    0  0.00000000000E+00  0.00000000000E+00  0.12525980253E-10  0.17130000000E+03  0.17130000000E+03 0. -1.
       11    1    1    2    0    0  0.90677029430E-01 -0.30454019893E+00 -0.19706575107E+00  0.37390136119E+00  0.51109989000E-03 0.  1.
     -623    1    1    2    0    0 -0.10312451066E+00  0.47993458866E+00  0.21943509448E+01  0.17131475753E+03  0.17130000000E+03 0. -1.
      622    1    1    2    0    0  0.12447481227E-01 -0.17539438973E+00  0.20027147736E+01  0.36113411077E+01  0.30000000000E+01 0.  1.
</event>
<event>
 5   0  0.7495800E-05  0.9118800E+02  0.7818608E-02  0.1180000E+00
       11   -1    0    0    0    0  0.00000000000E+00  0.00000000000E+00  0.39999999673E+01  0.40000000000E+01  0.51109989000E-03 0.  1.
     -623   -1    0    0    0    0  0.00000000000E+00  0.00000000000E+00  0.12525980253E-10  0.17130000000E+03  0.17130000000E+03 0.  1.
       11    1    1    2    0    0  0.31948521708E+00  0.10345473887E+00 -0.30615537655E-01  0.33721100115E+00  0.51109989000E-03 0.  1.
     -623    1    1    2    0    0  0.92398737432E-01  0.48944562025E+00  0.20820175521E+01  0.17131337628E+03  0.17130000000E+03 0.  1.
      622    1    1    2    0    0 -0.41188395452E+00 -0.59290035912E+00  0.19485979529E+01  0.36494127213E+01  0.30000000000E+01 0.  1.
</event>
<event>
 5   0  0.7495800E-05  0.9118800E+02  0.7818608E-02  0.1180000E+00
       11   -1    0    0    0    0  0.00000000000E+00  0.00000000000E+00  0.39999999673E+01  0.40000000000E+01  0.51109989000E-03 0.  1.
     -623   -1    0    0    0    0  0.00000000000E+00  0.00000000000E+00  0.12525980253E-10  0.17130000000E+03  0.17130000000E+03 0. -1.
       11    1    1    2    0    0  0.85622068075E-01 -0.47698320766E+00  0.26998408684E-01  0.48535893339E+00  0.51109989000E-03 0.  1.
     -623    1    1    2    0    0 -0.68276970561E-01  0.95260468172E+00  0.22395455653E+01  0.17131730117E+03  0.17130000000E+03 0.  1.
      622    1    1    2    0    0 -0.17345097514E-01 -0.47562147406E+00  0.17334559934E+01  0.34973398920E+01  0.30000000000E+01 0.  1.
</event>
<event>
 5   0  0.7495800E-05  0.9118800E+02  0.7818608E-02  0.1180000E+00
       11   -1    0    0    0    0  0.00000000000E+00  0.00000000000E+00  0.39999999673E+01  0.40000000000E+01  0.51109989000E-03 0. -1.
     -623   -1    0    0    0    0  0.00000000000E+00  0.00000000000E+00  0.12525980253E-10  0.17130000000E+03  0.17130000000E+03 0.  1.
       11    1    1    2    0    0 -0.21523740722E+00 -0.16103203765E+00  0.13372988290E+00  0.30023724189E+00  0.51109989000E-03 0. -1.
     -623    1    1    2    0    0 -0.25370775346E+00 -0.88901921134E-01  0.17840462316E+01  0.17130950088E+03  0.17130000000E+03 0.  1.
      622    1    1    2    0    0  0.46894516068E+00  0.24993395878E+00  0.20822238529E+01  0.36902618770E+01  0.30000000000E+01 0. -1.
</event>
<event>
 5   0  0.7495800E-05  0.9118800E+02  0.7818608E-02  0.1180000E+00
       11   -1    0    0    0    0  0.00000000000E+00  0.00000000000E+00  0.39999999673E+01  0.40000000000E+01  0.51109989000E-03 0.  1.
     -623   -1    0    0    0    0  0.00000000000E+00  0.00000000000E+00  0.12525980253E-10  0.17130000000E+03  0.17130000000E+03 0.  1.
       11    1    1    2    0    0  0.38313622473E+00 -0.57001411559E-01  0.36607841706E+00  0.53296922639E+00  0.51109989000E-03 0.  1.
     -623    1    1    2    0    0 -0.66001771909E+00 -0.38448012037E+00  0.20042574222E+01  0.17131342766E+03  0.17130000000E+03 0.  1.
      622    1    1    2    0    0  0.27688149436E+00  0.44148153193E+00  0.16296641281E+01  0.34536031149E+01  0.30000000000E+01 0.  1.
</event>
<event>
 5   0  0.7495800E-05  0.9118800E+02  0.7818608E-02  0.1180000E+00
       11   -1    0    0    0    0  0.00000000000E+00  0.00000000000E+00  0.39999999673E+01  0.40000000000E+01  0.51109989000E-03 0. -1.
     -623   -1    0    0    0    0  0.00000000000E+00  0.00000000000E+00  0.12525980253E-10  0.17130000000E+03  0.17130000000E+03 0.  1.
       11    1    1    2    0    0 -0.31311630009E+00  0.17445806128E+00 -0.26978036839E+00  0.44861914908E+00  0.51109989000E-03 0. -1.
     -623    1    1    2    0    0 -0.26802889742E-01 -0.81580396397E+00  0.25561244211E+01  0.17132101455E+03  0.17130000000E+03 0.  1.
      622    1    1    2    0    0  0.33991918983E+00  0.64134590269E+00  0.17136559146E+01  0.35303663006E+01  0.30000000000E+01 0. -1.
</event>
<event>
 5   0  0.7495800E-05  0.9118800E+02  0.7818608E-02  0.1180000E+00
       11   -1    0    0    0    0  0.00000000000E+00  0.00000000000E+00  0.39999999673E+01  0.40000000000E+01  0.51109989000E-03 0.  1.
     -623   -1    0    0    0    0  0.00000000000E+00  0.00000000000E+00  0.12525980253E-10  0.17130000000E+03  0.17130000000E+03 0. -1.
       11    1    1    2    0    0  0.14899294882E-02 -0.51663837210E+00  0.63983863280E-01  0.52058776723E+00  0.51109989000E-03 0.  1.
     -623    1    1    2    0    0 -0.82970183134E-01  0.25268896965E+00  0.22248045401E+01  0.17131465346E+03  0.17130000000E+03 0. -1.
      622    1    1    2    0    0  0.81480253646E-01  0.26394940244E+00  0.17112115640E+01  0.34647587702E+01  0.30000000000E+01 0.  1.
</event>
<event>
 5   0  0.7495800E-05  0.9118800E+02  0.7818608E-02  0.1180000E+00
       11   -1    0    0    0    0  0.00000000000E+00  0.00000000000E+00  0.39999999673E+01  0.40000000000E+01  0.51109989000E-03 0.  1.
     -623   -1    0    0    0    0  0.00000000000E+00  0.00000000000E+00  0.12525980253E-10  0.17130000000E+03  0.17130000000E+03 0.  1.
       11    1    1    2    0    0 -0.40506083352E+00 -0.64766421524E-01  0.24331645891E+00  0.47694038266E+00  0.51109989000E-03 0.  1.
     -623    1    1    2    0    0 -0.14433820150E+00  0.61490182840E+00  0.21111449880E+01  0.17131417300E+03  0.17130000000E+03 0. -1.
      622    1    1    2    0    0  0.54939903503E+00 -0.55013540688E+00  0.16455385205E+01  0.35088866166E+01  0.30000000000E+01 0.  1.
</event>
<event>
 5   0  0.7495800E-05  0.9118800E+02  0.7818608E-02  0.1180000E+00
       11   -1    0    0    0    0  0.00000000000E+00  0.00000000000E+00  0.39999999673E+01  0.40000000000E+01  0.51109989000E-03 0.  1.
     -623   -1    0    0    0    0  0.00000000000E+00  0.00000000000E+00  0.12525980253E-10  0.17130000000E+03  0.17130000000E+03 0. -1.
       11    1    1    2    0    0  0.43215258638E+00 -0.31901079411E-01 -0.42902768011E+00  0.60978565767E+00  0.51109989000E-03 0.  1.
     -623    1    1    2    0    0 -0.35417551234E+00 -0.55960127013E+00  0.30334597710E+01  0.17132813684E+03  0.17130000000E+03 0. -1.
      622    1    1    2    0    0 -0.77977074040E-01  0.59150234955E+00  0.13955678765E+01  0.33620775053E+01  0.30000000000E+01 0.  1.
</event>
<event>
 5   0  0.7495800E-05  0.9118800E+02  0.7818608E-02  0.1180000E+00
       11   -1    0    0    0    0  0.00000000000E+00  0.00000000000E+00  0.39999999673E+01  0.40000000000E+01  0.51109989000E-03 0.  1.
     -623   -1    0    0    0    0  0.00000000000E+00  0.00000000000E+00  0.12525980253E-10  0.17130000000E+03  0.17130000000E+03 0.  1.
       11    1    1    2    0    0  0.57526900704E-01  0.62955258243E-01 -0.54385120092E-01  0.10114697896E+00  0.51109989000E-03 0.  1.
     -623    1    1    2    0    0 -0.10042013046E+00 -0.73565085387E-01  0.15760245875E+01  0.17130729509E+03  0.17130000000E+03 0.  1.
      622    1    1    2    0    0  0.42893229760E-01  0.10609827143E-01  0.24783605000E+01  0.38915579355E+01  0.30000000000E+01 0.  1.
</event>
<event>
 5   0  0.7495800E-05  0.9118800E+02  0.7818608E-02  0.1180000E+00
       11   -1    0    0    0    0  0.00000000000E+00  0.00000000000E+00  0.39999999673E+01  0.40000000000E+01  0.51109989000E-03 0.  1.
     -623   -1    0    0    0    0  0.00000000000E+00  0.00000000000E+00  0.12525980253E-10  0.17130000000E+03  0.17130000000E+03 0.  1.
       11    1    1    2    0    0  0.11699559441E+00 -0.10774970782E+00 -0.14976538626E+00  0.21846716181E+00  0.51109989000E-03 0.  1.
     -623    1    1    2    0    0  0.10728455993E+01  0.13855236539E+01  0.27283540781E+01  0.17133068782E+03  0.17130000000E+03 0.  1.
      622    1    1    2    0    0 -0.11898411937E+01 -0.12777739461E+01  0.14214112755E+01  0.37508450165E+01  0.30000000000E+01 0.  0.
</event>
<event>
 5   0  0.7495800E-05  0.9118800E+02  0.7818608E-02  0.1180000E+00
       11   -1    0    0    0    0  0.00000000000E+00  0.00000000000E+00  0.39999999673E+01  0.40000000000E+01  0.51109989000E-03 0. -1.
     -623   -1    0    0    0    0  0.00000000000E+00  0.00000000000E+00  0.12525980253E-10  0.17130000000E+03  0.17130000000E+03 0.  1.
       11    1    1    2    0    0 -0.26530044740E+00  0.39083253249E-01  0.31209338380E-01  0.26997428044E+00  0.51109989000E-03 0. -1.
     -623    1    1    2    0    0  0.29789317363E+00  0.83394580786E-01  0.17718205796E+01  0.17130944236E+03  0.17130000000E+03 0.  1.
      622    1    1    2    0    0 -0.32592726226E-01 -0.12247783404E+00  0.21969700494E+01  0.37205833553E+01  0.30000000000E+01 0. -1.
</event>
<event>
 5   0  0.7495800E-05  0.9118800E+02  0.7818608E-02  0.1180000E+00
       11   -1    0    0    0    0  0.00000000000E+00  0.00000000000E+00  0.39999999673E+01  0.40000000000E+01  0.51109989000E-03 0.  1.
     -623   -1    0    0    0    0  0.00000000000E+00  0.00000000000E+00  0.12525980253E-10  0.17130000000E+03  0.17130000000E+03 0. -1.
       11    1    1    2    0    0  0.10569784970E+00 -0.15133558499E+00 -0.84168076506E-01  0.20287686176E+00  0.51109989000E-03 0.  1.
     -623    1    1    2    0    0 -0.51219124910E+00 -0.28451687395E+00  0.18527186320E+01  0.17131102082E+03  0.17130000000E+03 0. -1.
      622    1    1    2    0    0  0.40649339940E+00  0.43585245894E+00  0.22314494118E+01  0.37861023134E+01  0.30000000000E+01 0.  0.
</event>
<event>
 5   0  0.7495800E-05  0.9118800E+02  0.7818608E-02  0.1180000E+00
       11   -1    0    0    0    0  0.00000000000E+00  0.00000000000E+00  0.39999999673E+01  0.40000000000E+01  0.51109989000E-03 0.  1.
     -623   -1    0    0    0    0  0.00000000000E+00  0.00000000000E+00  0.12525980253E-10  0.17130000000E+03  0.17130000000E+03 0. -1.
       11    1    1    2    0    0  0.25948453976E+00 -0.17593604064E+00  0.66791870055E-01  0.32054193469E+00  0.51109989000E-03 0.  1.
     -623    1    1    2    0    0 -0.56429122554E+00  0.27937987996E+00  0.18467865106E+01  0.17131111201E+03  0.17130000000E+03 0. -1.
      622    1    1    2    0    0  0.30480668579E+00 -0.10344383932E+00  0.20864215867E+01  0.36683460553E+01  0.30000000000E+01 0.  1.
</event>
<event>
 5   0  0.7495800E-05  0.9118800E+02  0.7818608E-02  0.1180000E+00
       11   -1    0    0    0    0  0.00000000000E+00  0.00000000000E+00  0.39999999673E+01  0.40000000000E+01  0.51109989000E-03 0.  1.
     -623   -1    0    0    0    0  0.00000000000E+00  0.00000000000E+00  0.12525980253E-10  0.17130000000E+03  0.17130000000E+03 0. -1.
       11    1    1    2    0    0 -0.37622330930E+00 -0.88893037407E-01 -0.79979865598E-01  0.39476954123E+00  0.51109989000E-03 0.  1.
     -623    1    1    2    0    0  0.69354379370E+00  0.60168367947E+00  0.22053544593E+01  0.17131665598E+03  0.17130000000E+03 0. -1.
      622    1    1    2    0    0 -0.31732048440E+00 -0.51279064206E+00  0.18746253736E+01  0.35885744835E+01  0.30000000000E+01 0.  1.
</event>
<event>
 5   0  0.7495800E-05  0.9118800E+02  0.7818608E-02  0.1180000E+00
       11   -1    0    0    0    0  0.00000000000E+00  0.00000000000E+00  0.39999999673E+01  0.40000000000E+01  0.51109989000E-03 0. -1.
     -623   -1    0    0    0    0  0.00000000000E+00  0.00000000000E+00  0.12525980253E-10  0.17130000000E+03  0.17130000000E+03 0.  1.
       11    1    1    2    0    0  0.63373795105E-01 -0.37135574248E-01 -0.54362330845E-01  0.91382782944E-01  0.51109989000E-03 0. -1.
     -623    1    1    2    0    0  0.63262528612E-01 -0.63713960886E-01  0.15653789885E+01  0.17130717578E+03  0.17130000000E+03 0.  1.
      622    1    1    2    0    0 -0.12663632372E+00  0.10084953513E+00  0.24889833097E+01  0.39014414392E+01  0.30000000000E+01 0. -1.
</event>
<event>
 5   0  0.7495800E-05  0.9118800E+02  0.7818608E-02  0.1180000E+00
       11   -1    0    0    0    0  0.00000000000E+00  0.00000000000E+00  0.39999999673E+01  0.40000000000E+01  0.51109989000E-03 0.  1.
     -623   -1    0    0    0    0  0.00000000000E+00  0.00000000000E+00  0.12525980253E-10  0.17130000000E+03  0.17130000000E+03 0. -1.
       11    1    1    2    0    0 -0.10116938485E+00 -0.10201039527E-01  0.14916398682E+00  0.18052551572E+00  0.51109989000E-03 0.  1.
     -623    1    1    2    0    0  0.46074877602E+00  0.69185074241E-01  0.15273011058E+01  0.17130744212E+03  0.17130000000E+03 0. -1.
      622    1    1    2    0    0 -0.35957939116E+00 -0.58984034714E-01  0.23235348747E+01  0.38120323673E+01  0.30000000000E+01 0.  1.
</event>
<event>
 5   0  0.7495800E-05  0.9118800E+02  0.7818608E-02  0.1180000E+00
       11   -1    0    0    0    0  0.00000000000E+00  0.00000000000E+00  0.39999999673E+01  0.40000000000E+01  0.51109989000E-03 0. -1.
     -623   -1    0    0    0    0  0.00000000000E+00  0.00000000000E+00  0.12525980253E-10  0.17130000000E+03  0.17130000000E+03 0.  1.
       11    1    1    2    0    0 -0.16337950063E+00 -0.54648821329E-01  0.11610353587E+00  0.20774900040E+00  0.51109989000E-03 0. -1.
     -623    1    1    2    0    0  0.12787970150E+01  0.12974511587E+01  0.23350427131E+01  0.17132559974E+03  0.17130000000E+03 0.  1.
      622    1    1    2    0    0 -0.11154175143E+01 -0.12428023374E+01  0.15488537184E+01  0.37666512610E+01  0.30000000000E+01 0.  0.
</event>
<event>
 5   0  0.7495800E-05  0.9118800E+02  0.7818608E-02  0.1180000E+00
       11   -1    0    0    0    0  0.00000000000E+00  0.00000000000E+00  0.39999999673E+01  0.40000000000E+01  0.51109989000E-03 0.  1.
     -623   -1    0    0    0    0  0.00000000000E+00  0.00000000000E+00  0.12525980253E-10  0.17130000000E+03  0.17130000000E+03 0. -1.
       11    1    1    2    0    0 -0.28312301206E+00  0.64338499506E-01 -0.38660364077E+00  0.48348807509E+00  0.51109989000E-03 0.  1.
     -623    1    1    2    0    0 -0.33159472420E+00 -0.36595727560E+00  0.27315056672E+01  0.17132248832E+03  0.17130000000E+03 0. -1.
      622    1    1    2    0    0  0.61471773626E+00  0.30161877609E+00  0.16550979409E+01  0.34940236083E+01  0.30000000000E+01 0.  1.
</event>
<event>
 5   0  0.7495800E-05  0.9118800E+02  0.7818608E-02  0.1180000E+00
       11   -1    0    0    0    0  0.00000000000E+00  0.00000000000E+00  0.39999999673E+01  0.40000000000E+01  0.51109989000E-03 0.  1.
     -623   -1    0    0    0    0  0.00000000000E+00  0.00000000000E+00  0.12525980253E-10  0.17130000000E+03  0.17130000000E+03 0.  1.
       11    1    1    2    0    0 -0.25657206747E+00  0.21801609396E-01 -0.22765069956E-01  0.25850153890E+00  0.51109989000E-03 0.  1.
     -623    1    1    2    0    0 -0.61432504960E-01  0.46021211855E+00  0.18818751856E+01  0.17131096586E+03  0.17130000000E+03 0.  1.
      622    1    1    2    0    0  0.31800457243E+00 -0.48201372795E+00  0.21408898517E+01  0.37305326026E+01  0.30000000000E+01 0.  1.
</event>
<event>
 5   0  0.7495800E-05  0.9118800E+02  0.7818608E-02  0.1180000E+00
       11   -1    0    0    0    0  0.00000000000E+00  0.00000000000E+00  0.39999999673E+01  0.40000000000E+01  0.51109989000E-03 0.  1.
     -623   -1    0    0    0    0  0.00000000000E+00  0.00000000000E+00  0.12525980253E-10  0.17130000000E+03  0.17130000000E+03 0. -1.
       11    1    1    2    0    0  0.11870452813E+00  0.12149477083E+00 -0.24993616707E+00  0.30219214611E+00  0.51109989000E-03 0.  1.
     -623    1    1    2    0    0 -0.14686993014E+01  0.29567838695E+00  0.26767502628E+01  0.17132746276E+03  0.17130000000E+03 0. -1.
      622    1    1    2    0    0  0.13499947732E+01 -0.41717315779E+00  0.15731858717E+01  0.36703450952E+01  0.30000000000E+01 0.  1.
</event>
<event>
 5   0  0.7495800E-05  0.9118800E+02  0.7818608E-02  0.1180000E+00
       11   -1    0    0    0    0  0.00000000000E+00  0.00000000000E+00  0.39999999673E+01  0.40000000000E+01  0.51109989000E-03 0. -1.
     -623   -1    0    0    0    0  0.00000000000E+00  0.00000000000E+00  0.12525980253E-10  0.17130000000E+03  0.17130000000E+03 0. -1.
       11    1    1    2    0    0  0.15871880548E+00  0.32014044196E+00  0.34244983164E+00  0.49492798486E+00  0.51109989000E-03 0. -1.
     -623    1    1    2    0    0  0.39975099617E-01 -0.73903475343E+00  0.19303312488E+01  0.17131247459E+03  0.17130000000E+03 0. -1.
      622    1    1    2    0    0 -0.19869390509E+00  0.41889431147E+00  0.17272188869E+01  0.34925974282E+01  0.30000000000E+01 0. -1.
</event>
<event>
 5   0  0.7495800E-05  0.9118800E+02  0.7818608E-02  0.1180000E+00
       11   -1    0    0    0    0  0.00000000000E+00  0.00000000000E+00  0.39999999673E+01  0.40000000000E+01  0.51109989000E-03 0.  1.
     -623   -1    0    0    0    0  0.00000000000E+00  0.00000000000E+00  0.12525980253E-10  0.17130000000E+03  0.17130000000E+03 0.  1.
       11    1    1    2    0    0  0.22133395740E+00  0.15428404451E+00  0.16830514167E+00  0.31799240404E+00  0.51109989000E-03 0.  1.
     -623    1    1    2    0    0  0.39372011902E-01  0.20077638996E+00  0.17590588086E+01  0.17130915372E+03  0.17130000000E+03 0.  1.
      622    1    1    2    0    0 -0.26070596930E+00 -0.35506043448E+00  0.20726360171E+01  0.36728538732E+01  0.30000000000E+01 0.  1.
</event>
<event>
 5   0  0.7495800E-05  0.9118800E+02  0.7818608E-02  0.1180000E+00
       11   -1    0    0    0    0  0.00000000000E+00  0.00000000000E+00  0.39999999673E+01  0.40000000000E+01  0.51109989000E-03 0.  1.
     -623   -1    0    0    0    0  0.00000000000E+00  0.00000000000E+00  0.12525980253E-10  0.17130000000E+03  0.17130000000E+03 0. -1.
       11    1    1    2    0    0  0.93165728292E-01  0.30021548421E+00 -0.43914403960E+00  0.54005271838E+00  0.51109989000E-03 0.  1.
     -623    1    1    2    0    0  0.10670611138E+01 -0.63869792731E+00  0.33173637260E+01  0.17133663198E+03  0.17130000000E+03 0.  1.
      622    1    1    2    0    0 -0.11602268421E+01  0.33848244310E+00  0.11217802810E+01  0.34233153066E+01  0.30000000000E+01 0. -1.
</event>
<event>
 5   0  0.7495800E-05  0.9118800E+02  0.7818608E-02  0.1180000E+00
       11   -1    0    0    0    0  0.00000000000E+00  0.00000000000E+00  0.39999999673E+01  0.40000000000E+01  0.51109989000E-03 0. -1.
     -623   -1    0    0    0    0  0.00000000000E+00  0.00000000000E+00  0.12525980253E-10  0.17130000000E+03  0.17130000000E+03 0.  1.
       11    1    1    2    0    0  0.12574927949E-01  0.35226960744E-01 -0.62734417505E-01  0.73040645798E-01  0.51109989000E-03 0. -1.
     -623    1    1    2    0    0  0.36637986514E+00 -0.36072391266E-01  0.15691610580E+01  0.17130758244E+03  0.17130000000E+03 0.  1.
      622    1    1    2    0    0 -0.37895479309E+00  0.84543052199E-03  0.24935733268E+01  0.39193769130E+01  0.30000000000E+01 0. -1.
</event>
<event>
 5   0  0.7495800E-05  0.9118800E+02  0.7818608E-02  0.1180000E+00
       11   -1    0    0    0    0  0.00000000000E+00  0.00000000000E+00  0.39999999673E+01  0.40000000000E+01  0.51109989000E-03 0. -1.
     -623   -1    0    0    0    0  0.00000000000E+00  0.00000000000E+00  0.12525980253E-10  0.17130000000E+03  0.17130000000E+03 0.  1.
       11    1    1    2    0    0 -0.59603482904E+00 -0.82766537355E-01 -0.12073426240E+00  0.61374656046E+00  0.51109989000E-03 0. -1.
     -623    1    1    2    0    0  0.92102802267E+00  0.86089814417E-01  0.26349881793E+01  0.17132276226E+03  0.17130000000E+03 0.  1.
      622    1    1    2    0    0 -0.32499319363E+00 -0.33232770623E-02  0.14857460505E+01  0.33634911843E+01  0.30000000000E+01 0. -1.
</event>
<event>
 5   0  0.7495800E-05  0.9118800E+02  0.7818608E-02  0.1180000E+00
       11   -1    0    0    0    0  0.00000000000E+00  0.00000000000E+00  0.39999999673E+01  0.40000000000E+01  0.51109989000E-03 0. -1.
     -623   -1    0    0    0    0  0.00000000000E+00  0.00000000000E+00  0.12525980253E-10  0.17130000000E+03  0.17130000000E+03 0. -1.
       11    1    1    2    0    0  0.57763284426E-01 -0.68628734268E+00  0.10638336827E+00  0.69688205316E+00  0.51109989000E-03 0. -1.
     -623    1    1    2    0    0 -0.95664949517E+00  0.11379666969E+01  0.30719278413E+01  0.17133399221E+03  0.17130000000E+03 0.  1.
      622    1    1    2    0    0  0.89888621075E+00 -0.45167935424E+00  0.82168875782E+00  0.32691257354E+01  0.30000000000E+01 0.  0.
</event>
<event>
 5   0  0.7495800E-05  0.9118800E+02  0.7818608E-02  0.1180000E+00
       11   -1    0    0    0    0  0.00000000000E+00  0.00000000000E+00  0.39999999673E+01  0.40000000000E+01  0.51109989000E-03 0.  1.
     -623   -1    0    0    0    0  0.00000000000E+00  0.00000000000E+00  0.12525980253E-10  0.17130000000E+03  0.17130000000E+03 0. -1.
       11    1    1    2    0    0 -0.69760140199E-01  0.54634650285E-01 -0.21350649540E+00  0.23116380982E+00  0.51109989000E-03 0.  1.
     -623    1    1    2    0    0 -0.13593380509E+00  0.45674444593E+00  0.20213432921E+01  0.17131258834E+03  0.17130000000E+03 0. -1.
      622    1    1    2    0    0  0.20569394529E+00 -0.51137909622E+00  0.21921631707E+01  0.37562478547E+01  0.30000000000E+01 0.  0.
</event>
<event>
 5   0  0.7495800E-05  0.9118800E+02  0.7818608E-02  0.1180000E+00
       11   -1    0    0    0    0  0.00000000000E+00  0.00000000000E+00  0.39999999673E+01  0.40000000000E+01  0.51109989000E-03 0.  1.
     -623   -1    0    0    0    0  0.00000000000E+00  0.00000000000E+00  0.12525980253E-10  0.17130000000E+03  0.17130000000E+03 0.  1.
       11    1    1    2    0    0  0.77783646711E-02 -0.94414823926E-01  0.42299049430E-01  0.10375033850E+00  0.51109989000E-03 0.  1.
     -623    1    1    2    0    0 -0.15352945290E+00  0.60764141929E+00  0.15425134565E+01  0.17130809131E+03  0.17130000000E+03 0.  1.
      622    1    1    2    0    0  0.14575108823E+00 -0.51322659537E+00  0.24151874614E+01  0.38881583548E+01  0.30000000000E+01 0.  1.
</event>
<event>
 5   0  0.7495800E-05  0.9118800E+02  0.7818608E-02  0.1180000E+00
       11   -1    0    0    0    0  0.00000000000E+00  0.00000000000E+00  0.39999999673E+01  0.40000000000E+01  0.51109989000E-03 0.  1.
     -623   -1    0    0    0    0  0.00000000000E+00  0.00000000000E+00  0.12525980253E-10  0.17130000000E+03  0.17130000000E+03 0. -1.
       11    1    1    2    0    0 -0.28978977884E-01 -0.25771410975E-01 -0.62517188560E-01  0.73570421172E-01  0.51109989000E-03 0.  1.
     -623    1    1    2    0    0  0.70019362455E-01  0.58200645015E+00  0.16050973558E+01  0.17130852276E+03  0.17130000000E+03 0. -1.
      622    1    1    2    0    0 -0.41040384572E-01 -0.55623503917E+00  0.24574198001E+01  0.39179068144E+01  0.30000000000E+01 0.  1.
</event>
<event>
 5   0  0.7495800E-05  0.9118800E+02  0.7818608E-02  0.1180000E+00
       11   -1    0    0    0    0  0.00000000000E+00  0.00000000000E+00  0.39999999673E+01  0.40000000000E+01  0.51109989000E-03 0. -1.
     -623   -1    0    0    0    0  0.00000000000E+00  0.00000000000E+00  0.12525980253E-10  0.17130000000E+03  0.17130000000E+03 0. -1.
       11    1    1    2    0    0 -0.22469918577E+00 -0.32388335593E+00  0.39336655579E+00  0.55689106724E+00  0.51109989000E-03 0. -1.
     -623    1    1    2    0    0  0.38467583427E+00  0.48728739982E+00  0.19579803909E+01  0.17131231454E+03  0.17130000000E+03 0. -1.
      622    1    1    2    0    0 -0.15997664850E+00 -0.16340404389E+00  0.16486530206E+01  0.34307943967E+01  0.30000000000E+01 0. -1.
</event>
<event>
 5   0  0.7495800E-05  0.9118800E+02  0.7818608E-02  0.1180000E+00
       11   -1    0    0    0    0  0.00000000000E+00  0.00000000000E+00  0.39999999673E+01  0.40000000000E+01  0.51109989000E-03 0. -1.
     -623   -1    0    0    0    0  0.00000000000E+00  0.00000000000E+00  0.12525980253E-10  0.17130000000E+03  0.17130000000E+03 0. -1.
       11    1    1    2    0    0 -0.69849561342E-01  0.26645634506E+00 -0.30181882246E+00  0.40862306329E+00  0.51109989000E-03 0. -1.
     -623    1    1    2    0    0  0.68575217160E+00 -0.26498172611E+00  0.24632070092E+01  0.17131928631E+03  0.17130000000E+03 0. -1.
      622    1    1    2    0    0 -0.61590261026E+00 -0.14746189457E-02  0.18386117806E+01  0.35720906315E+01  0.30000000000E+01 0. -1.
</event>
<event>
 5   0  0.7495800E-05  0.9118800E+02  0.7818608E-02  0.1180000E+00
       11   -1    0    0    0    0  0.00000000000E+00  0.00000000000E+00  0.39999999673E+01  0.40000000000E+01  0.51109989000E-03 0.  1.
     -623   -1    0    0    0    0  0.00000000000E+00  0.00000000000E+00  0.12525980253E-10  0.17130000000E+03  0.17130000000E+03 0.  1.
       11    1    1    2    0    0 -0.23013505969E-01  0.37652020843E-01 -0.18452879746E+00  0.18973253397E+00  0.51109989000E-03 0.  1.
     -623    1    1    2    0    0 -0.12502662156E-01  0.54828972102E+00  0.19297183187E+01  0.17131174680E+03  0.17130000000E+03 0.  1.
      622    1    1    2    0    0  0.35516168124E-01 -0.58594174187E+00  0.22548104462E+01  0.37985206688E+01  0.30000000000E+01 0.  1.
</event>
<event>
 5   0  0.7495800E-05  0.9118800E+02  0.7818608E-02  0.1180000E+00
       11   -1    0    0    0    0  0.00000000000E+00  0.00000000000E+00  0.39999999673E+01  0.40000000000E+01  0.51109989000E-03 0.  1.
     -623   -1    0    0    0    0  0.00000000000E+00  0.00000000000E+00  0.12525980253E-10  0.17130000000E+03  0.17130000000E+03 0.  1.
       11    1    1    2    0    0 -0.16046043265E+00  0.15922330609E+00  0.20803937450E+00  0.30721369470E+00  0.51109989000E-03 0.  1.
     -623    1    1    2    0    0  0.26151358087E+00 -0.14165055321E+00  0.16553174382E+01  0.17130825587E+03  0.17130000000E+03 0.  1.
      622    1    1    2    0    0 -0.10105314822E+00 -0.17572752877E-01  0.21366431547E+01  0.36845304329E+01  0.30000000000E+01 0.  1.
</event>
<event>
 5   0  0.7495800E-05  0.9118800E+02  0.7818608E-02  0.1180000E+00
       11   -1    0    0    0    0  0.00000000000E+00  0.00000000000E+00  0.39999999673E+01  0.40000000000E+01  0.51109989000E-03 0.  1.
     -623   -1    0    0    0    0  0.00000000000E+00  0.00000000000E+00  0.12525980253E-10  0.17130000000E+03  0.17130000000E+03 0. -1.
       11    1    1    2    0    0  0.87778249374E-01 -0.42257650065E+00  0.38770656610E+00  0.58016597848E+00  0.51109989000E-03 0.  1.
     -623    1    1    2    0    0  0.52100111691E+00  0.40446774882E+00  0.21202811212E+01  0.17131439119E+03  0.17130000000E+03 0. -1.
      622    1    1    2    0    0 -0.60877936629E+00  0.18108751829E-01  0.14920122801E+01  0.34054428328E+01  0.30000000000E+01 0.  1.
</event>
<event>
 5   0  0.7495800E-05  0.9118800E+02  0.7818608E-02  0.1180000E+00
       11   -1    0    0    0    0  0.00000000000E+00  0.00000000000E+00  0.39999999673E+01  0.40000000000E+01  0.51109989000E-03 0.  1.
     -623   -1    0    0    0    0  0.00000000000E+00  0.00000000000E+00  0.12525980253E-10  0.17130000000E+03  0.17130000000E+03 0.  1.
       11    1    1    2    0    0  0.28243793253E-01 -0.20789478973E-01 -0.21440569017E-01  0.41108071180E-01  0.51109989000E-03 0.  1.
     -623    1    1    2    0    0  0.74541705022E-01  0.81070149909E+00  0.15790141745E+01  0.17130921189E+03  0.17130000000E+03 0.  1.
      622    1    1    2    0    0 -0.10278549827E+00 -0.78991202011E+00  0.24424263618E+01  0.39496800366E+01  0.30000000000E+01 0.  1.
</event>
<event>
 5   0  0.7495800E-05  0.9118800E+02  0.7818608E-02  0.1180000E+00
       11   -1    0    0    0    0  0.00000000000E+00  0.00000000000E+00  0.39999999673E+01  0.40000000000E+01  0.51109989000E-03 0.  1.
     -623   -1    0    0    0    0  0.00000000000E+00  0.00000000000E+00  0.12525980253E-10  0.17130000000E+03  0.17130000000E+03 0.  1.
       11    1    1    2    0    0  0.32981464326E+00 -0.66593086438E+00  0.10299087116E+00  0.75023262780E+00  0.51109989000E-03 0.  1.
     -623    1    1    2    0    0  0.69683235079E+00  0.20463208951E+00  0.37674066035E+01  0.17134296251E+03  0.17130000000E+03 0.  1.
      622    1    1    2    0    0 -0.10266469940E+01  0.46129877487E+00  0.12960249269E+00  0.32068048609E+01  0.30000000000E+01 0.  1.
</event>
<event>
 5   0  0.7495800E-05  0.9118800E+02  0.7818608E-02  0.1180000E+00
       11   -1    0    0    0    0  0.00000000000E+00  0.00000000000E+00  0.39999999673E+01  0.40000000000E+01  0.51109989000E-03 0.  1.
     -623   -1    0    0    0    0  0.00000000000E+00  0.00000000000E+00  0.12525980253E-10  0.17130000000E+03  0.17130000000E+03 0. -1.
       11    1    1    2    0    0  0.15507086177E+00 -0.37612141328E-01  0.69839776545E+00  0.71639468546E+00  0.51109989000E-03 0.  1.
     -623    1    1    2    0    0 -0.24072070503E+00  0.26777211207E+00  0.20205219357E+01  0.17131229424E+03  0.17130000000E+03 0. -1.
      622    1    1    2    0    0  0.85649843254E-01 -0.23015997075E+00  0.12810802662E+01  0.32713110760E+01  0.30000000000E+01 0. -1.
</event>
<event>
 5   0  0.7495800E-05  0.9118800E+02  0.7818608E-02  0.1180000E+00
       11   -1    0    0    0    0  0.00000000000E+00  0.00000000000E+00  0.39999999673E+01  0.40000000000E+01  0.51109989000E-03 0.  1.
     -623   -1    0    0    0    0  0.00000000000E+00  0.00000000000E+00  0.12525980253E-10  0.17130000000E+03  0.17130000000E+03 0.  1.
       11    1    1    2    0    0 -0.22598726854E-01  0.76405140718E-01 -0.10072850037E+00  0.12843262822E+00  0.51109989000E-03 0.  1.
     -623    1    1    2    0    0  0.59927115141E+00  0.17886584226E+00  0.17527179687E+01  0.17131010811E+03  0.17130000000E+03 0.  1.
      622    1    1    2    0    0 -0.57667242456E+00 -0.25527098298E+00  0.23480104991E+01  0.38614592661E+01  0.30000000000E+01 0.  1.
</event>
<event>
 5   0  0.7495800E-05  0.9118800E+02  0.7818608E-02  0.1180000E+00
       11   -1    0    0    0    0  0.00000000000E+00  0.00000000000E+00  0.39999999673E+01  0.40000000000E+01  0.51109989000E-03 0.  1.
     -623   -1    0    0    0    0  0.00000000000E+00  0.00000000000E+00  0.12525980253E-10  0.17130000000E+03  0.17130000000E+03 0.  1.
       11    1    1    2    0    0 -0.49840398532E+00 -0.42584911403E+00  0.61802297636E+00  0.90094764611E+00  0.51109989000E-03 0.  1.
     -623    1    1    2    0    0  0.10004820069E+01  0.32959826037E+00  0.29781030889E+01  0.17132912390E+03  0.17130000000E+03 0. -1.
      622    1    1    2    0    0 -0.50207802163E+00  0.96250853667E-01  0.40387390208E+00  0.30699284512E+01  0.30000000000E+01 0.  0.
</event>
<event>
 5   0  0.7495800E-05  0.9118800E+02  0.7818608E-02  0.1180000E+00
       11   -1    0    0    0    0  0.00000000000E+00  0.00000000000E+00  0.39999999673E+01  0.40000000000E+01  0.51109989000E-03 0.  1.
     -623   -1    0    0    0    0  0.00000000000E+00  0.00000000000E+00  0.12525980253E-10  0.17130000000E+03  0.17130000000E+03 0. -1.
       11    1    1    2    0    0  0.14450421943E+00  0.58183643798E-01 -0.49071610925E-01  0.16332510541E+00  0.51109989000E-03 0.  1.
     -623    1    1    2    0    0  0.16221438021E+00  0.46757889401E+00  0.17522448088E+01  0.17130967663E+03  0.17130000000E+03 0. -1.
      622    1    1    2    0    0 -0.30671859964E+00 -0.52576253781E+00  0.22968267695E+01  0.38269982695E+01  0.30000000000E+01 0.  1.
</event>
<event>
 5   0  0.7495800E-05  0.9118800E+02  0.7818608E-02  0.1180000E+00
       11   -1    0    0    0    0  0.00000000000E+00  0.00000000000E+00  0.39999999673E+01  0.40000000000E+01  0.51109989000E-03 0.  1.
     -623   -1    0    0    0    0  0.00000000000E+00  0.00000000000E+00  0.12525980253E-10  0.17130000000E+03  0.17130000000E+03 0. -1.
       11    1    1    2    0    0 -0.19183584831E+00  0.28998131011E+00  0.42100206679E+00  0.54601570891E+00  0.51109989000E-03 0.  1.
     -623    1    1    2    0    0 -0.90950466259E-01 -0.74236853930E+00  0.19805010327E+01  0.17131308113E+03  0.17130000000E+03 0. -1.
      622    1    1    2    0    0  0.28278631456E+00  0.45238722920E+00  0.15984968679E+01  0.34409031578E+01  0.30000000000E+01 0.  1.
</event>
<event>
 5   0  0.7495800E-05  0.9118800E+02  0.7818608E-02  0.1180000E+00
       11   -1    0    0    0    0  0.00000000000E+00  0.00000000000E+00  0.39999999673E+01  0.40000000000E+01  0.51109989000E-03 0. -1.
     -623   -1    0    0    0    0  0.00000000000E+00  0.00000000000E+00  0.12525980253E-10  0.17130000000E+03  0.17130000000E+03 0.  1.
       11    1    1    2    0    0  0.21645041364E-01 -0.40625063484E-01 -0.11602612208E+00  0.12482478050E+00  0.51109989000E-03 0. -1.
     -623    1    1    2    0    0  0.41389617236E+00  0.18718939913E+00  0.17214091933E+01  0.17130925135E+03  0.17130000000E+03 0.  1.
      622    1    1    2    0    0 -0.43554121372E+00 -0.14656433565E+00  0.23946168961E+01  0.38659238653E+01  0.30000000000E+01 0. -1.
</event>
<event>
 5   0  0.7495800E-05  0.9118800E+02  0.7818608E-02  0.1180000E+00
       11   -1    0    0    0    0  0.00000000000E+00  0.00000000000E+00  0.39999999673E+01  0.40000000000E+01  0.51109989000E-03 0. -1.
     -623   -1    0    0    0    0  0.00000000000E+00  0.00000000000E+00  0.12525980253E-10  0.17130000000E+03  0.17130000000E+03 0.  1.
       11    1    1    2    0    0 -0.12866850191E+00 -0.44105639024E-01 -0.11628447022E+00  0.17895035628E+00  0.51109989000E-03 0. -1.
     -623    1    1    2    0    0  0.55974655851E-01  0.10661917252E+01  0.20103081363E+01  0.17131512262E+03  0.17130000000E+03 0.  1.
      622    1    1    2    0    0  0.72693846061E-01 -0.10220860862E+01  0.21059763013E+01  0.38059270282E+01  0.30000000000E+01 0.  0.
</event>
<event>
 5   0  0.7495800E-05  0.9118800E+02  0.7818608E-02  0.1180000E+00
       11   -1    0    0    0    0  0.00000000000E+00  0.00000000000E+00  0.39999999673E+01  0.40000000000E+01  0.51109989000E-03 0.  1.
     -623   -1    0    0    0    0  0.00000000000E+00  0.00000000000E+00  0.12525980253E-10  0.17130000000E+03  0.17130000000E+03 0. -1.
       11    1    1    2    0    0 -0.13562596598E-02 -0.18041119802E-01  0.11883499267E-01  0.21651794889E-01  0.51109989000E-03 0.  1.
     -623    1    1    2    0    0 -0.44843185959E+00 -0.14492914241E+00  0.14296394281E+01  0.17130661390E+03  0.17130000000E+03 0. -1.
      622    1    1    2    0    0  0.44978811925E+00  0.16297026221E+00  0.25584770400E+01  0.39717343092E+01  0.30000000000E+01 0.  1.
</event>
<event>
 5   0  0.7495800E-05  0.9118800E+02  0.7818608E-02  0.1180000E+00
       11   -1    0    0    0    0  0.00000000000E+00  0.00000000000E+00  0.39999999673E+01  0.40000000000E+01  0.51109989000E-03 0. -1.
     -623   -1    0    0    0    0  0.00000000000E+00  0.00000000000E+00  0.12525980253E-10  0.17130000000E+03  0.17130000000E+03 0.  1.
       11    1    1    2    0    0 -0.87373246877E-01 -0.12147140893E-01 -0.61152641732E-01  0.10733845590E+00  0.51109989000E-03 0. -1.
     -623    1    1    2    0    0 -0.27738857637E+00 -0.23312170804E+00  0.16329650624E+01  0.17130816637E+03  0.17130000000E+03 0.  1.
      622    1    1    2    0    0  0.36476182325E+00  0.24526884893E+00  0.24281875466E+01  0.38844951741E+01  0.30000000000E+01 0. -1.
</event>
<event>
 5   0  0.7495800E-05  0.9118800E+02  0.7818608E-02  0.1180000E+00
       11   -1    0    0    0    0  0.00000000000E+00  0.00000000000E+00  0.39999999673E+01  0.40000000000E+01  0.51109989000E-03 0.  1.
     -623   -1    0    0    0    0  0.00000000000E+00  0.00000000000E+00  0.12525980253E-10  0.17130000000E+03  0.17130000000E+03 0.  1.
       11    1    1    2    0    0 -0.43217526414E-01 -0.17052707433E+00  0.30766020277E+00  0.35440414679E+00  0.51109989000E-03 0.  1.
     -623    1    1    2    0    0  0.55204570977E+00  0.16819142845E+00  0.17016524398E+01  0.17130942375E+03  0.17130000000E+03 0.  1.
      622    1    1    2    0    0 -0.50882818335E+00  0.23356458839E-02  0.19906873248E+01  0.36361721082E+01  0.30000000000E+01 0.  1.
</event>
<event>
 5   0  0.7495800E-05  0.9118800E+02  0.7818608E-02  0.1180000E+00
       11   -1    0    0    0    0  0.00000000000E+00  0.00000000000E+00  0.39999999673E+01  0.40000000000E+01  0.51109989000E-03 0.  1.
     -623   -1    0    0    0    0  0.00000000000E+00  0.00000000000E+00  0.12525980253E-10  0.17130000000E+03  0.17130000000E+03 0.  1.
       11    1    1    2    0    0 -0.79224539903E-01  0.10807785895E+00  0.37233640304E-01  0.13908255286E+00  0.51109989000E-03 0.  1.
     -623    1    1    2    0    0  0.33293013174E+00  0.37645724771E-02  0.15601627514E+01  0.17130742822E+03  0.17130000000E+03 0.  1.
      622    1    1    2    0    0 -0.25370559184E+00 -0.11184243143E+00  0.24026035757E+01  0.38534892239E+01  0.30000000000E+01 0.  1.
</event>
<event>
 5   0  0.7495800E-05  0.9118800E+02  0.7818608E-02  0.1180000E+00
       11   -1    0    0    0    0  0.00000000000E+00  0.00000000000E+00  0.39999999673E+01  0.40000000000E+01  0.51109989000E-03 0.  1.
     -623   -1    0    0    0    0  0.00000000000E+00  0.00000000000E+00  0.12525980253E-10  0.17130000000E+03  0.17130000000E+03 0. -1.
       11    1    1    2    0    0  0.12771337985E+00  0.18712278096E+00  0.27819887722E+00  0.35877641932E+00  0.51109989000E-03 0.  1.
     -623    1    1    2    0    0 -0.84518746700E-01 -0.14895023624E+01  0.21682159618E+01  0.17132021749E+03  0.17130000000E+03 0. -1.
      622    1    1    2    0    0 -0.43194633153E-01  0.13023795815E+01  0.15535851283E+01  0.36210060897E+01  0.30000000000E+01 0.  1.
</event>
<event>
 5   0  0.7495800E-05  0.9118800E+02  0.7818608E-02  0.1180000E+00
       11   -1    0    0    0    0  0.00000000000E+00  0.00000000000E+00  0.39999999673E+01  0.40000000000E+01  0.51109989000E-03 0. -1.
     -623   -1    0    0    0    0  0.00000000000E+00  0.00000000000E+00  0.12525980253E-10  0.17130000000E+03  0.17130000000E+03 0. -1.
       11    1    1    2    0    0 -0.51810816955E+00 -0.22535434584E+00  0.22332905740E-01  0.56543759731E+00  0.51109989000E-03 0. -1.
     -623    1    1    2    0    0  0.48613479499E+00 -0.77682640589E-01  0.23694899487E+01  0.17131709443E+03  0.17130000000E+03 0. -1.
      622    1    1    2    0    0  0.31973374562E-01  0.30303698643E+00  0.16081771129E+01  0.34174679718E+01  0.30000000000E+01 0. -1.
</event>
<event>
 5   0  0.7495800E-05  0.9118800E+02  0.7818608E-02  0.1180000E+00
       11   -1    0    0    0    0  0.00000000000E+00  0.00000000000E+00  0.39999999673E+01  0.40000000000E+01  0.51109989000E-03 0. -1.
     -623   -1    0    0    0    0  0.00000000000E+00  0.00000000000E+00  0.12525980253E-10  0.17130000000E+03  0.17130000000E+03 0.  1.
       11    1    1    2    0    0 -0.23751223872E-01  0.82298076775E-01 -0.40135837706E-01  0.94595141354E-01  0.51109989000E-03 0. -1.
     -623    1    1    2    0    0  0.39790056500E+00 -0.41232228885E+00  0.16034881415E+01  0.17130846304E+03  0.17130000000E+03 0.  1.
      622    1    1    2    0    0 -0.37414934113E+00  0.33002421208E+00  0.24366476636E+01  0.38969418197E+01  0.30000000000E+01 0. -1.
</event>
<event>
 5   0  0.7495800E-05  0.9118800E+02  0.7818608E-02  0.1180000E+00
       11   -1    0    0    0    0  0.00000000000E+00  0.00000000000E+00  0.39999999673E+01  0.40000000000E+01  0.51109989000E-03 0.  1.
     -623   -1    0    0    0    0  0.00000000000E+00  0.00000000000E+00  0.12525980253E-10  0.17130000000E+03  0.17130000000E+03 0.  1.
       11    1    1    2    0    0 -0.15311808572E+00 -0.25137379854E+00  0.11471018593E+00  0.31589970362E+00  0.51109989000E-03 0.  1.
     -623    1    1    2    0    0 -0.14593281287E-01  0.11142077523E+00  0.17741281757E+01  0.17130922380E+03  0.17130000000E+03 0.  1.
      622    1    1    2    0    0  0.16771136701E+00  0.13995302331E+00  0.21111616058E+01  0.36748764982E+01  0.30000000000E+01 0.  1.
</event>
<event>
 5   0  0.7495800E-05  0.9118800E+02  0.7818608E-02  0.1180000E+00
       11   -1    0    0    0    0  0.00000000000E+00  0.00000000000E+00  0.39999999673E+01  0.40000000000E+01  0.51109989000E-03 0.  1.
     -623   -1    0    0    0    0  0.00000000000E+00  0.00000000000E+00  0.12525980253E-10  0.17130000000E+03  0.17130000000E+03 0. -1.
       11    1    1    2    0    0  0.18120121209E+00 -0.23543721846E-01  0.11735209262E+00  0.21716344298E+00  0.51109989000E-03 0.  1.
     -623    1    1    2    0    0 -0.51582300937E+00 -0.63035478545E+00  0.17168526947E+01  0.17131053967E+03  0.17130000000E+03 0. -1.
      622    1    1    2    0    0  0.33462179728E+00  0.65389850729E+00  0.21657951800E+01  0.37722968821E+01  0.30000000000E+01 0.  1.
</event>
<event>
 5   0  0.7495800E-05  0.9118800E+02  0.7818608E-02  0.1180000E+00
       11   -1    0    0    0    0  0.00000000000E+00  0.00000000000E+00  0.39999999673E+01  0.40000000000E+01  0.51109989000E-03 0.  1.
     -623   -1    0    0    0    0  0.00000000000E+00  0.00000000000E+00  0.12525980253E-10  0.17130000000E+03  0.17130000000E+03 0. -1.
       11    1    1    2    0    0 -0.91686970241E-01  0.74733736152E+00 -0.29670211877E+00  0.80929107306E+00  0.51109989000E-03 0.  1.
     -623    1    1    2    0    0  0.51463657226E+00 -0.83740880254E+00  0.34258267540E+01  0.17133707244E+03  0.17130000000E+03 0. -1.
      622    1    1    2    0    0 -0.42294960202E+00  0.90071441022E-01  0.87087533209E+00  0.31536364842E+01  0.30000000000E+01 0.  1.
</event>
<event>
 5   0  0.7495800E-05  0.9118800E+02  0.7818608E-02  0.1180000E+00
       11   -1    0    0    0    0  0.00000000000E+00  0.00000000000E+00  0.39999999673E+01  0.40000000000E+01  0.51109989000E-03 0.  1.
     -623   -1    0    0    0    0  0.00000000000E+00  0.00000000000E+00  0.12525980253E-10  0.17130000000E+03  0.17130000000E+03 0. -1.
       11    1    1    2    0    0 -0.33795975334E-03 -0.61199948136E-01  0.17037520865E-02  0.61226725052E-01  0.51109989000E-03 0.  1.
     -623    1    1    2    0    0  0.94393519981E+00  0.91270408505E+00  0.18111398851E+01  0.17131460612E+03  0.17130000000E+03 0. -1.
      622    1    1    2    0    0 -0.94359724006E+00 -0.85150413691E+00  0.21871563301E+01  0.39241671548E+01  0.30000000000E+01 0.  1.
</event>
<event>
 5   0  0.7495800E-05  0.9118800E+02  0.7818608E-02  0.1180000E+00
       11   -1    0    0    0    0  0.00000000000E+00  0.00000000000E+00  0.39999999673E+01  0.40000000000E+01  0.51109989000E-03 0. -1.
     -623   -1    0    0    0    0  0.00000000000E+00  0.00000000000E+00  0.12525980253E-10  0.17130000000E+03  0.17130000000E+03 0.  1.
       11    1    1    2    0    0 -0.25905198823E+00 -0.60709979429E+00  0.57396276024E+00  0.87470658177E+00  0.51109989000E-03 0. -1.
     -623    1    1    2    0    0  0.79745411174E+00  0.39526617377E+00  0.29119370801E+01  0.17132706017E+03  0.17130000000E+03 0. -1.
      622    1    1    2    0    0 -0.53840212351E+00  0.21183362052E+00  0.51410012702E+00  0.30982332498E+01  0.30000000000E+01 0. -1.
</event>
<event>
 5   0  0.7495800E-05  0.9118800E+02  0.7818608E-02  0.1180000E+00
       11   -1    0    0    0    0  0.00000000000E+00  0.00000000000E+00  0.39999999673E+01  0.40000000000E+01  0.51109989000E-03 0. -1.
     -623   -1    0    0    0    0  0.00000000000E+00  0.00000000000E+00  0.12525980253E-10  0.17130000000E+03  0.17130000000E+03 0.  1.
       11    1    1    2    0    0 -0.29675974620E-01 -0.57779743937E-01 -0.62704081916E-01  0.90284136986E-01  0.51109989000E-03 0. -1.
     -623    1    1    2    0    0 -0.32094339288E+00  0.28597746291E+00  0.16034279233E+01  0.17130804350E+03  0.17130000000E+03 0.  1.
      622    1    1    2    0    0  0.35061936750E+00 -0.22819771898E+00  0.24592761260E+01  0.39016723599E+01  0.30000000000E+01 0. -1.
</event>
<event>
 5   0  0.7495800E-05  0.9118800E+02  0.7818608E-02  0.1180000E+00
       11   -1    0    0    0    0  0.00000000000E+00  0.00000000000E+00  0.39999999673E+01  0.40000000000E+01  0.51109989000E-03 0. -1.
     -623   -1    0    0    0    0  0.00000000000E+00  0.00000000000E+00  0.12525980253E-10  0.17130000000E+03  0.17130000000E+03 0. -1.
       11    1    1    2    0    0  0.22562141142E+00  0.22269557482E+00  0.11720425427E+00  0.33798733523E+00  0.51109989000E-03 0. -1.
     -623    1    1    2    0    0  0.78105055107E+00 -0.17307952105E+00  0.20690995874E+01  0.17131436358E+03  0.17130000000E+03 0. -1.
      622    1    1    2    0    0 -0.10066719625E+01 -0.49616053763E-01  0.18136961257E+01  0.36476490825E+01  0.30000000000E+01 0.  0.
</event>
<event>
 5   0  0.7495800E-05  0.9118800E+02  0.7818608E-02  0.1180000E+00
       11   -1    0    0    0    0  0.00000000000E+00  0.00000000000E+00  0.39999999673E+01  0.40000000000E+01  0.51109989000E-03 0. -1.
     -623   -1    0    0    0    0  0.00000000000E+00  0.00000000000E+00  0.12525980253E-10  0.17130000000E+03  0.17130000000E+03 0.  1.
       11    1    1    2    0    0  0.13183461920E+00  0.23094037410E+00 -0.24961265966E-02  0.26593291462E+00  0.51109989000E-03 0. -1.
     -623    1    1    2    0    0 -0.45884279447E+00 -0.13126727178E+01  0.21247367225E+01  0.17131882019E+03  0.17130000000E+03 0.  1.
      622    1    1    2    0    0  0.32700817528E+00  0.10817323437E+01  0.18777593715E+01  0.37152468918E+01  0.30000000000E+01 0.  0.
</event>
<event>
 5   0  0.7495800E-05  0.9118800E+02  0.7818608E-02  0.1180000E+00
       11   -1    0    0    0    0  0.00000000000E+00  0.00000000000E+00  0.39999999673E+01  0.40000000000E+01  0.51109989000E-03 0. -1.
     -623   -1    0    0    0    0  0.00000000000E+00  0.00000000000E+00  0.12525980253E-10  0.17130000000E+03  0.17130000000E+03 0. -1.
       11    1    1    2    0    0  0.83220152449E-01 -0.14281618854E-01 -0.56545839708E-01  0.10162308607E+00  0.51109989000E-03 0. -1.
     -623    1    1    2    0    0  0.95962841311E-01 -0.18107213368E+00  0.15931305074E+01  0.17130753066E+03  0.17130000000E+03 0. -1.
      622    1    1    2    0    0 -0.17918299376E+00  0.19535375253E+00  0.24634152996E+01  0.38908462540E+01  0.30000000000E+01 0. -1.
</event>
<event>
 5   0  0.7495800E-05  0.9118800E+02  0.7818608E-02  0.1180000E+00
       11   -1    0    0    0    0  0.00000000000E+00  0.00000000000E+00  0.39999999673E+01  0.40000000000E+01  0.51109989000E-03 0. -1.
     -623   -1    0    0    0    0  0.00000000000E+00  0.00000000000E+00  0.12525980253E-10  0.17130000000E+03  0.17130000000E+03 0.  1.
       11    1    1    2    0    0  0.64727903479E-01  0.15655253502E+00 -0.60506572160E-01  0.17988803242E+00  0.51109989000E-03 0. -1.
     -623    1    1    2    0    0 -0.14891947179E+00  0.45666948044E-01  0.17198120111E+01  0.17130870385E+03  0.17130000000E+03 0.  1.
      622    1    1    2    0    0  0.84191568312E-01 -0.20221948307E+00  0.23406945284E+01  0.38114081145E+01  0.30000000000E+01 0. -1.
</event>
<event>
 5   0  0.7495800E-05  0.9118800E+02  0.7818608E-02  0.1180000E+00
       11   -1    0    0    0    0  0.00000000000E+00  0.00000000000E+00  0.39999999673E+01  0.40000000000E+01  0.51109989000E-03 0. -1.
     -623   -1    0    0    0    0  0.00000000000E+00  0.00000000000E+00  0.12525980253E-10  0.17130000000E+03  0.17130000000E+03 0.  1.
       11    1    1    2    0    0  0.24409602348E+00 -0.23842715693E+00  0.17957578147E+00  0.38558799301E+00  0.51109989000E-03 0. -1.
     -623    1    1    2    0    0  0.21197034040E+00  0.11127432143E+01  0.20964701071E+01  0.17131657338E+03  0.17130000000E+03 0.  1.
      622    1    1    2    0    0 -0.45606636387E+00 -0.87431605738E+00  0.17239540788E+01  0.35978386237E+01  0.30000000000E+01 0. -1.
</event>
<event>
 5   0  0.7495800E-05  0.9118800E+02  0.7818608E-02  0.1180000E+00
       11   -1    0    0    0    0  0.00000000000E+00  0.00000000000E+00  0.39999999673E+01  0.40000000000E+01  0.51109989000E-03 0. -1.
     -623   -1    0    0    0    0  0.00000000000E+00  0.00000000000E+00  0.12525980253E-10  0.17130000000E+03  0.17130000000E+03 0. -1.
       11    1    1    2    0    0  0.12331343596E+00 -0.57819391302E+00 -0.53049707575E-01  0.59357302603E+00  0.51109989000E-03 0. -1.
     -623    1    1    2    0    0 -0.41058642490E+00  0.31572318936E+00  0.25298598273E+01  0.17131946315E+03  0.17130000000E+03 0. -1.
      622    1    1    2    0    0  0.28727298894E+00  0.26247072366E+00  0.15231898476E+01  0.33869638266E+01  0.30000000000E+01 0. -1.
</event>
<event>
 5   0  0.7495800E-05  0.9118800E+02  0.7818608E-02  0.1180000E+00
       11   -1    0    0    0    0  0.00000000000E+00  0.00000000000E+00  0.39999999673E+01  0.40000000000E+01  0.51109989000E-03 0. -1.
     -623   -1    0    0    0    0  0.00000000000E+00  0.00000000000E+00  0.12525980253E-10  0.17130000000E+03  0.17130000000E+03 0.  1.
       11    1    1    2    0    0  0.97102311271E-01  0.48463396560E+00  0.22418020672E+00  0.54273010399E+00  0.51109989000E-03 0. -1.
     -623    1    1    2    0    0 -0.91167951460E+00  0.31274301796E+00  0.25494770007E+01  0.17132168223E+03  0.17130000000E+03 0.  1.
      622    1    1    2    0    0  0.81457720333E+00 -0.79737698356E+00  0.12263427600E+01  0.34355876701E+01  0.30000000000E+01 0. -1.
</event>
<event>
 5   0  0.7495800E-05  0.9118800E+02  0.7818608E-02  0.1180000E+00
       11   -1    0    0    0    0  0.00000000000E+00  0.00000000000E+00  0.39999999673E+01  0.40000000000E+01  0.51109989000E-03 0. -1.
     -623   -1    0    0    0    0  0.00000000000E+00  0.00000000000E+00  0.12525980253E-10  0.17130000000E+03  0.17130000000E+03 0. -1.
       11    1    1    2    0    0 -0.15394526525E+00  0.16187472442E+00 -0.70482797097E-01  0.23424486549E+00  0.51109989000E-03 0. -1.
     -623    1    1    2    0    0  0.25506779800E+00 -0.19265798522E+00  0.18132017894E+01  0.17130989428E+03  0.17130000000E+03 0. -1.
      622    1    1    2    0    0 -0.10112253275E+00  0.30783260794E-01  0.22572809751E+01  0.37558608569E+01  0.30000000000E+01 0. -1.
</event>
<event>
 5   0  0.7495800E-05  0.9118800E+02  0.7818608E-02  0.1180000E+00
       11   -1    0    0    0    0  0.00000000000E+00  0.00000000000E+00  0.39999999673E+01  0.40000000000E+01  0.51109989000E-03 0. -1.
     -623   -1    0    0    0    0  0.00000000000E+00  0.00000000000E+00  0.12525980253E-10  0.17130000000E+03  0.17130000000E+03 0.  1.
       11    1    1    2    0    0  0.58375692445E-01 -0.59970568890E+00  0.38671080741E+00  0.71596099374E+00  0.51109989000E-03 0. -1.
     -623    1    1    2    0    0  0.37399360056E+00  0.44869980905E+00  0.24058171754E+01  0.17131788920E+03  0.17130000000E+03 0.  1.
      622    1    1    2    0    0 -0.43236929300E+00  0.15100587985E+00  0.12074719845E+01  0.32661498090E+01  0.30000000000E+01 0. -1.
</event>
<event>
 5   0  0.7495800E-05  0.9118800E+02  0.7818608E-02  0.1180000E+00
       11   -1    0    0    0    0  0.00000000000E+00  0.00000000000E+00  0.39999999673E+01  0.40000000000E+01  0.51109989000E-03 0. -1.
     -623   -1    0    0    0    0  0.00000000000E+00  0.00000000000E+00  0.12525980253E-10  0.17130000000E+03  0.17130000000E+03 0. -1.
       11    1    1    2    0    0 -0.26526603749E+00  0.14432255871E+00  0.11983029794E+00  0.32489172523E+00  0.51109989000E-03 0. -1.
     -623    1    1    2    0    0  0.20010271254E+00 -0.42928379724E+00  0.17951945363E+01  0.17131006114E+03  0.17130000000E+03 0. -1.
      622    1    1    2    0    0  0.65163324952E-01  0.28496123854E+00  0.20849751331E+01  0.36650471310E+01  0.30000000000E+01 0. -1.
</event>
<event>
 5   0  0.7495800E-05  0.9118800E+02  0.7818608E-02  0.1180000E+00
       11   -1    0    0    0    0  0.00000000000E+00  0.00000000000E+00  0.39999999673E+01  0.40000000000E+01  0.51109989000E-03 0. -1.
     -623   -1    0    0    0    0  0.00000000000E+00  0.00000000000E+00  0.12525980253E-10  0.17130000000E+03  0.17130000000E+03 0. -1.
       11    1    1    2    0    0 -0.92359911390E-01  0.10901047078E+00 -0.15243606196E+00  0.20892738015E+00  0.51109989000E-03 0. -1.
     -623    1    1    2    0    0  0.23207578760E+00  0.53867252545E+00  0.19521137773E+01  0.17131212676E+03  0.17130000000E+03 0. -1.
      622    1    1    2    0    0 -0.13971587621E+00 -0.64768299623E+00  0.22003222520E+01  0.37789458586E+01  0.30000000000E+01 0. -1.
</event>
<event>
 5   0  0.7495800E-05  0.9118800E+02  0.7818608E-02  0.1180000E+00
       11   -1    0    0    0    0  0.00000000000E+00  0.00000000000E+00  0.39999999673E+01  0.40000000000E+01  0.51109989000E-03 0. -1.
     -623   -1    0    0    0    0  0.00000000000E+00  0.00000000000E+00  0.12525980253E-10  0.17130000000E+03  0.17130000000E+03 0. -1.
       11    1    1    2    0    0 -0.41176768327E-01 -0.33985762311E-01  0.49684987622E-01  0.72934336960E-01  0.51109989000E-03 0. -1.
     -623    1    1    2    0    0  0.54156360511E+00 -0.16263729779E+01  0.21498010316E+01  0.17132206520E+03  0.17130000000E+03 0. -1.
      622    1    1    2    0    0 -0.50038683679E+00  0.16603587402E+01  0.18005139481E+01  0.39050004622E+01  0.30000000000E+01 0. -1.
</event>
<event>
 5   0  0.7495800E-05  0.9118800E+02  0.7818608E-02  0.1180000E+00
       11   -1    0    0    0    0  0.00000000000E+00  0.00000000000E+00  0.39999999673E+01  0.40000000000E+01  0.51109989000E-03 0.  1.
     -623   -1    0    0    0    0  0.00000000000E+00  0.00000000000E+00  0.12525980253E-10  0.17130000000E+03  0.17130000000E+03 0. -1.
       11    1    1    2    0    0  0.41293637471E+00 -0.63370056868E-01 -0.40038398109E+00  0.57865344309E+00  0.51109989000E-03 0.  1.
     -623    1    1    2    0    0 -0.15416387945E+00  0.24739639957E+00  0.28374184295E+01  0.17132374592E+03  0.17130000000E+03 0. -1.
      622    1    1    2    0    0 -0.25877249526E+00 -0.18402634270E+00  0.15629655189E+01  0.33976006405E+01  0.30000000000E+01 0.  1.
</event>
<event>
 5   0  0.7495800E-05  0.9118800E+02  0.7818608E-02  0.1180000E+00
       11   -1    0    0    0    0  0.00000000000E+00  0.00000000000E+00  0.39999999673E+01  0.40000000000E+01  0.51109989000E-03 0.  1.
     -623   -1    0    0    0    0  0.00000000000E+00  0.00000000000E+00  0.12525980253E-10  0.17130000000E+03  0.17130000000E+03 0. -1.
       11    1    1    2    0    0 -0.20995600543E+00  0.14524864995E+00  0.50448100838E+00  0.56540255002E+00  0.51109989000E-03 0.  1.
     -623    1    1    2    0    0  0.68874213990E+00 -0.58702034398E+00  0.19866434811E+01  0.17131390986E+03  0.17130000000E+03 0. -1.
      622    1    1    2    0    0 -0.47878613447E+00  0.44177169403E+00  0.15088754778E+01  0.34206875917E+01  0.30000000000E+01 0.  1.
</event>
<event>
 5   0  0.7495800E-05  0.9118800E+02  0.7818608E-02  0.1180000E+00
       11   -1    0    0    0    0  0.00000000000E+00  0.00000000000E+00  0.39999999673E+01  0.40000000000E+01  0.51109989000E-03 0. -1.
     -623   -1    0    0    0    0  0.00000000000E+00  0.00000000000E+00  0.12525980253E-10  0.17130000000E+03  0.17130000000E+03 0.  1.
       11    1    1    2    0    0 -0.39079773493E+00  0.28486087913E+00  0.54505760441E+00  0.72866771812E+00  0.51109989000E-03 0. -1.
     -623    1    1    2    0    0  0.28383059590E+00 -0.78164848439E+00  0.23019978403E+01  0.17131748518E+03  0.17130000000E+03 0.  1.
      622    1    1    2    0    0  0.10696713903E+00  0.49678760526E+00  0.11529445226E+01  0.32538471024E+01  0.30000000000E+01 0. -1.
</event>
<event>
 5   0  0.7495800E-05  0.9118800E+02  0.7818608E-02  0.1180000E+00
       11   -1    0    0    0    0  0.00000000000E+00  0.00000000000E+00  0.39999999673E+01  0.40000000000E+01  0.51109989000E-03 0. -1.
     -623   -1    0    0    0    0  0.00000000000E+00  0.00000000000E+00  0.12525980253E-10  0.17130000000E+03  0.17130000000E+03 0.  1.
       11    1    1    2    0    0 -0.49373518663E-01  0.35019813510E+00 -0.93294487252E-01  0.36576030504E+00  0.51109989000E-03 0. -1.
     -623    1    1    2    0    0 -0.57696438203E+00 -0.10809012093E+01  0.23225332110E+01  0.17132012548E+03  0.17130000000E+03 0.  1.
      622    1    1    2    0    0  0.62633790070E+00  0.73070307416E+00  0.17707612436E+01  0.36141142110E+01  0.30000000000E+01 0.  0.
</event>
<event>
 5   0  0.7495800E-05  0.9118800E+02  0.7818608E-02  0.1180000E+00
       11   -1    0    0    0    0  0.00000000000E+00  0.00000000000E+00  0.39999999673E+01  0.40000000000E+01  0.51109989000E-03 0.  1.
     -623   -1    0    0    0    0  0.00000000000E+00  0.00000000000E+00  0.12525980253E-10  0.17130000000E+03  0.17130000000E+03 0. -1.
       11    1    1    2    0    0 -0.18825850543E+00  0.48080823889E+00 -0.36290748520E-01  0.51762448465E+00  0.51109989000E-03 0.  1.
     -623    1    1    2    0    0  0.29433275211E+00 -0.40765448505E+00  0.23049735202E+01  0.17131624475E+03  0.17130000000E+03 0. -1.
      622    1    1    2    0    0 -0.10607424667E+00 -0.73153753842E-01  0.17313171956E+01  0.34661307606E+01  0.30000000000E+01 0.  1.
</event>
<event>
 5   0  0.7495800E-05  0.9118800E+02  0.7818608E-02  0.1180000E+00
       11   -1    0    0    0    0  0.00000000000E+00  0.00000000000E+00  0.39999999673E+01  0.40000000000E+01  0.51109989000E-03 0. -1.
     -623   -1    0    0    0    0  0.00000000000E+00  0.00000000000E+00  0.12525980253E-10  0.17130000000E+03  0.17130000000E+03 0. -1.
       11    1    1    2    0    0 -0.64124291389E+00  0.23020025688E+00  0.42469323840E+00  0.80283824077E+00  0.51109989000E-03 0. -1.
     -623    1    1    2    0    0  0.97147708658E+00  0.53642151699E+00  0.29961211124E+01  0.17132979384E+03  0.17130000000E+03 0. -1.
      622    1    1    2    0    0 -0.33023417269E+00 -0.76662177387E+00  0.57918561655E+00  0.31673679185E+01  0.30000000000E+01 0. -1.
</event>
<event>
 5   0  0.7495800E-05  0.9118800E+02  0.7818608E-02  0.1180000E+00
       11   -1    0    0    0    0  0.00000000000E+00  0.00000000000E+00  0.39999999673E+01  0.40000000000E+01  0.51109989000E-03 0. -1.
     -623   -1    0    0    0    0  0.00000000000E+00  0.00000000000E+00  0.12525980253E-10  0.17130000000E+03  0.17130000000E+03 0.  1.
       11    1    1    2    0    0 -0.28796119647E+00  0.53028103131E-01 -0.18094476566E-01  0.29336206589E+00  0.51109989000E-03 0. -1.
     -623    1    1    2    0    0  0.15938117492E+01 -0.12947589976E+01  0.29142763726E+01  0.17133709360E+03  0.17130000000E+03 0.  1.
      622    1    1    2    0    0 -0.13058505527E+01  0.12417308945E+01  0.11038180713E+01  0.36695443334E+01  0.30000000000E+01 0.  0.
</event>
<event>
 5   0  0.7495800E-05  0.9118800E+02  0.7818608E-02  0.1180000E+00
       11   -1    0    0    0    0  0.00000000000E+00  0.00000000000E+00  0.39999999673E+01  0.40000000000E+01  0.51109989000E-03 0.  1.
     -623   -1    0    0    0    0  0.00000000000E+00  0.00000000000E+00  0.12525980253E-10  0.17130000000E+03  0.17130000000E+03 0.  1.
       11    1    1    2    0    0  0.17804923519E+00  0.93751547097E-01  0.16586861502E+00  0.26077488646E+00  0.51109989000E-03 0.  1.
     -623    1    1    2    0    0 -0.19945475405E+00  0.72048294283E+00  0.17756203993E+01  0.17131083359E+03  0.17130000000E+03 0.  1.
      622    1    1    2    0    0  0.21405518868E-01 -0.81423448993E+00  0.20585109531E+01  0.37283915225E+01  0.30000000000E+01 0.  1.
</event>
<event>
 5   0  0.7495800E-05  0.9118800E+02  0.7818608E-02  0.1180000E+00
       11   -1    0    0    0    0  0.00000000000E+00  0.00000000000E+00  0.39999999673E+01  0.40000000000E+01  0.51109989000E-03 0. -1.
     -623   -1    0    0    0    0  0.00000000000E+00  0.00000000000E+00  0.12525980253E-10  0.17130000000E+03  0.17130000000E+03 0.  1.
       11    1    1    2    0    0  0.26225380906E+00  0.81885494762E-01  0.15424242048E+00  0.31507662579E+00  0.51109989000E-03 0. -1.
     -623    1    1    2    0    0 -0.74829744049E+00  0.22827639865E+00  0.18053973717E+01  0.17131130003E+03  0.17130000000E+03 0.  1.
      622    1    1    2    0    0  0.48604363142E+00 -0.31016189342E+00  0.20403601752E+01  0.36736233417E+01  0.30000000000E+01 0. -1.
</event>
<event>
 5   0  0.7495800E-05  0.9118800E+02  0.7818608E-02  0.1180000E+00
       11   -1    0    0    0    0  0.00000000000E+00  0.00000000000E+00  0.39999999673E+01  0.40000000000E+01  0.51109989000E-03 0. -1.
     -623   -1    0    0    0    0  0.00000000000E+00  0.00000000000E+00  0.12525980253E-10  0.17130000000E+03  0.17130000000E+03 0.  1.
       11    1    1    2    0    0 -0.20602892176E+00 -0.78673467072E-01  0.20509344775E+00  0.30116609131E+00  0.51109989000E-03 0. -1.
     -623    1    1    2    0    0  0.46646766426E+00 -0.44581546885E+00  0.17297281124E+01  0.17130994806E+03  0.17130000000E+03 0.  1.
      622    1    1    2    0    0 -0.26043874250E+00  0.52448893592E+00  0.20651784072E+01  0.36888858530E+01  0.30000000000E+01 0. -1.
</event>
<event>
 5   0  0.7495800E-05  0.9118800E+02  0.7818608E-02  0.1180000E+00
       11   -1    0    0    0    0  0.00000000000E+00  0.00000000000E+00  0.39999999673E+01  0.40000000000E+01  0.51109989000E-03 0. -1.
     -623   -1    0    0    0    0  0.00000000000E+00  0.00000000000E+00  0.12525980253E-10  0.17130000000E+03  0.17130000000E+03 0. -1.
       11    1    1    2    0    0  0.32481685024E+00 -0.41563572947E+00 -0.43791320038E-02  0.52752107429E+00  0.51109989000E-03 0. -1.
     -623    1    1    2    0    0 -0.11972749129E+01  0.96154417777E+00  0.26595752707E+01  0.17132752661E+03  0.17130000000E+03 0. -1.
      622    1    1    2    0    0  0.87245806268E+00 -0.54590844831E+00  0.13448038286E+01  0.34449523135E+01  0.30000000000E+01 0. -1.
</event>
<event>
 5   0  0.7495800E-05  0.9118800E+02  0.7818608E-02  0.1180000E+00
       11   -1    0    0    0    0  0.00000000000E+00  0.00000000000E+00  0.39999999673E+01  0.40000000000E+01  0.51109989000E-03 0. -1.
     -623   -1    0    0    0    0  0.00000000000E+00  0.00000000000E+00  0.12525980253E-10  0.17130000000E+03  0.17130000000E+03 0. -1.
       11    1    1    2    0    0  0.91569094581E-01  0.82313186056E-02  0.33599203879E-01  0.97886778539E-01  0.51109989000E-03 0. -1.
     -623    1    1    2    0    0 -0.84215365386E+00  0.43915479896E-01  0.16029811023E+01  0.17130957562E+03  0.17130000000E+03 0. -1.
      622    1    1    2    0    0  0.75058455928E+00 -0.52146798501E-01  0.23634196611E+01  0.38925375995E+01  0.30000000000E+01 0.  0.
</event>
<event>
 5   0  0.7495800E-05  0.9118800E+02  0.7818608E-02  0.1180000E+00
       11   -1    0    0    0    0  0.00000000000E+00  0.00000000000E+00  0.39999999673E+01  0.40000000000E+01  0.51109989000E-03 0.  1.
     -623   -1    0    0    0    0  0.00000000000E+00  0.00000000000E+00  0.12525980253E-10  0.17130000000E+03  0.17130000000E+03 0.  1.
       11    1    1    2    0    0  0.21928254884E-01  0.31212749912E+00  0.13814415520E+00  0.34203580647E+00  0.51109989000E-03 0.  1.
     -623    1    1    2    0    0  0.54133338891E+00 -0.67293781597E+00  0.19022067080E+01  0.17131273822E+03  0.17130000000E+03 0.  1.
      622    1    1    2    0    0 -0.56326164380E+00  0.36081031685E+00  0.19596491041E+01  0.36452259704E+01  0.30000000000E+01 0.  0.
</event>
<event>
 5   0  0.7495800E-05  0.9118800E+02  0.7818608E-02  0.1180000E+00
       11   -1    0    0    0    0  0.00000000000E+00  0.00000000000E+00  0.39999999673E+01  0.40000000000E+01  0.51109989000E-03 0. -1.
     -623   -1    0    0    0    0  0.00000000000E+00  0.00000000000E+00  0.12525980253E-10  0.17130000000E+03  0.17130000000E+03 0. -1.
       11    1    1    2    0    0  0.12994508311E+00 -0.12716964957E-01 -0.17456045619E+00  0.21798866921E+00  0.51109989000E-03 0. -1.
     -623    1    1    2    0    0 -0.25940969065E+00 -0.28256814168E+00  0.19127566280E+01  0.17131110815E+03  0.17130000000E+03 0. -1.
      622    1    1    2    0    0  0.12946460755E+00  0.29528510664E+00  0.22618037955E+01  0.37709031794E+01  0.30000000000E+01 0. -1.
</event>
<event>
 5   0  0.7495800E-05  0.9118800E+02  0.7818608E-02  0.1180000E+00
       11   -1    0    0    0    0  0.00000000000E+00  0.00000000000E+00  0.39999999673E+01  0.40000000000E+01  0.51109989000E-03 0.  1.
     -623   -1    0    0    0    0  0.00000000000E+00  0.00000000000E+00  0.12525980253E-10  0.17130000000E+03  0.17130000000E+03 0.  1.
       11    1    1    2    0    0 -0.22082824714E+00 -0.16822764804E+00 -0.15189473556E+00  0.31644577452E+00  0.51109989000E-03 0.  1.
     -623    1    1    2    0    0  0.20897693436E+00 -0.48737298478E+00  0.21434159569E+01  0.17131423010E+03  0.17130000000E+03 0.  1.
      622    1    1    2    0    0  0.11851312777E-01  0.65560063282E+00  0.20084787460E+01  0.36693241226E+01  0.30000000000E+01 0.  0.
</event>
<event>
 5   0  0.7495800E-05  0.9118800E+02  0.7818608E-02  0.1180000E+00
       11   -1    0    0    0    0  0.00000000000E+00  0.00000000000E+00  0.39999999673E+01  0.40000000000E+01  0.51109989000E-03 0.  1.
     -623   -1    0    0    0    0  0.00000000000E+00  0.00000000000E+00  0.12525980253E-10  0.17130000000E+03  0.17130000000E+03 0. -1.
       11    1    1    2    0    0  0.40166481719E-01  0.13424471501E+00 -0.34677984360E-01  0.14435308650E+00  0.51109989000E-03 0.  1.
     -623    1    1    2    0    0  0.49217849887E+00  0.46377460241E-01  0.16937355844E+01  0.17130908654E+03  0.17130000000E+03 0. -1.
      622    1    1    2    0    0 -0.53234498059E+00 -0.18062217525E+00  0.23409423674E+01  0.38465603747E+01  0.30000000000E+01 0.  1.
</event>
<event>
 5   0  0.7495800E-05  0.9118800E+02  0.7818608E-02  0.1180000E+00
       11   -1    0    0    0    0  0.00000000000E+00  0.00000000000E+00  0.39999999673E+01  0.40000000000E+01  0.51109989000E-03 0.  1.
     -623   -1    0    0    0    0  0.00000000000E+00  0.00000000000E+00  0.12525980253E-10  0.17130000000E+03  0.17130000000E+03 0. -1.
       11    1    1    2    0    0 -0.12957414733E+00  0.12262565112E+00 -0.28619085101E-01  0.18068155197E+00  0.51109989000E-03 0.  1.
     -623    1    1    2    0    0  0.12125043300E+01 -0.87656975848E+00  0.21056938545E+01  0.17131947492E+03  0.17130000000E+03 0. -1.
      622    1    1    2    0    0 -0.10829301827E+01  0.75394410736E+00  0.19229251980E+01  0.37998435250E+01  0.30000000000E+01 0.  0.
</event>
<event>
 5   0  0.7495800E-05  0.9118800E+02  0.7818608E-02  0.1180000E+00
       11   -1    0    0    0    0  0.00000000000E+00  0.00000000000E+00  0.39999999673E+01  0.40000000000E+01  0.51109989000E-03 0. -1.
     -623   -1    0    0    0    0  0.00000000000E+00  0.00000000000E+00  0.12525980253E-10  0.17130000000E+03  0.17130000000E+03 0.  1.
       11    1    1    2    0    0 -0.76272884789E-01  0.19510257333E+00  0.14010588420E+00  0.25201683889E+00  0.51109989000E-03 0. -1.
     -623    1    1    2    0    0 -0.78712565090E-01  0.31224740739E+00  0.16916814113E+01  0.17130865559E+03  0.17130000000E+03 0.  1.
      622    1    1    2    0    0  0.15498544988E+00 -0.50734998071E+00  0.21682126718E+01  0.37393275710E+01  0.30000000000E+01 0. -1.
</event>
<event>
 5   0  0.7495800E-05  0.9118800E+02  0.7818608E-02  0.1180000E+00
       11   -1    0    0    0    0  0.00000000000E+00  0.00000000000E+00  0.39999999673E+01  0.40000000000E+01  0.51109989000E-03 0. -1.
     -623   -1    0    0    0    0  0.00000000000E+00  0.00000000000E+00  0.12525980253E-10  0.17130000000E+03  0.17130000000E+03 0. -1.
       11    1    1    2    0    0 -0.14352929674E+00 -0.67019024656E-01 -0.77869636624E-01  0.17651104843E+00  0.51109989000E-03 0. -1.
     -623    1    1    2    0    0  0.76867791589E+00 -0.27099835606E+00  0.18364325060E+01  0.17131178240E+03  0.17130000000E+03 0. -1.
      622    1    1    2    0    0 -0.62514861915E+00  0.33801738072E+00  0.22414370980E+01  0.38117065483E+01  0.30000000000E+01 0. -1.
</event>
<event>
 5   0  0.7495800E-05  0.9118800E+02  0.7818608E-02  0.1180000E+00
       11   -1    0    0    0    0  0.00000000000E+00  0.00000000000E+00  0.39999999673E+01  0.40000000000E+01  0.51109989000E-03 0. -1.
     -623   -1    0    0    0    0  0.00000000000E+00  0.00000000000E+00  0.12525980253E-10  0.17130000000E+03  0.17130000000E+03 0. -1.
       11    1    1    2    0    0  0.43288430042E+00  0.16508481025E+00  0.24311709369E+00  0.52320932196E+00  0.51109989000E-03 0. -1.
     -623    1    1    2    0    0 -0.39530159701E+00 -0.60030124444E+00  0.20839137672E+01  0.17131418307E+03  0.17130000000E+03 0. -1.
      622    1    1    2    0    0 -0.37582703412E-01  0.43521643419E+00  0.16729691065E+01  0.34626076063E+01  0.30000000000E+01 0.  0.
</event>
<event>
 5   0  0.7495800E-05  0.9118800E+02  0.7818608E-02  0.1180000E+00
       11   -1    0    0    0    0  0.00000000000E+00  0.00000000000E+00  0.39999999673E+01  0.40000000000E+01  0.51109989000E-03 0. -1.
     -623   -1    0    0    0    0  0.00000000000E+00  0.00000000000E+00  0.12525980253E-10  0.17130000000E+03  0.17130000000E+03 0. -1.
       11    1    1    2    0    0  0.36454589096E+00 -0.20553588502E+00  0.19872120388E-01  0.41896762289E+00  0.51109989000E-03 0. -1.
     -623    1    1    2    0    0 -0.68213826750E+00  0.81322017842E+00  0.21826843240E+01  0.17131719339E+03  0.17130000000E+03 0.  1.
      622    1    1    2    0    0  0.31759237655E+00 -0.60768429340E+00  0.17974435230E+01  0.35638389885E+01  0.30000000000E+01 0. -1.
</event>
<event>
 5   0  0.7495800E-05  0.9118800E+02  0.7818608E-02  0.1180000E+00
       11   -1    0    0    0    0  0.00000000000E+00  0.00000000000E+00  0.39999999673E+01  0.40000000000E+01  0.51109989000E-03 0.  1.
     -623   -1    0    0    0    0  0.00000000000E+00  0.00000000000E+00  0.12525980253E-10  0.17130000000E+03  0.17130000000E+03 0.  1.
       11    1    1    2    0    0 -0.21268596632E+00 -0.34675769140E+00 -0.11361341162E+00  0.42235587522E+00  0.51109989000E-03 0.  1.
     -623    1    1    2    0    0  0.17673542643E+01  0.35765494852E+00  0.30548443381E+01  0.17133672558E+03  0.17130000000E+03 0. -1.
      622    1    1    2    0    0 -0.15546682980E+01 -0.10897257120E-01  0.10587690408E+01  0.35409185459E+01  0.30000000000E+01 0.  0.
</event>
<event>
 5   0  0.7495800E-05  0.9118800E+02  0.7818608E-02  0.1180000E+00
       11   -1    0    0    0    0  0.00000000000E+00  0.00000000000E+00  0.39999999673E+01  0.40000000000E+01  0.51109989000E-03 0. -1.
     -623   -1    0    0    0    0  0.00000000000E+00  0.00000000000E+00  0.12525980253E-10  0.17130000000E+03  0.17130000000E+03 0.  1.
       11    1    1    2    0    0 -0.38525442445E+00 -0.41109034565E+00  0.29583529624E+00  0.63634505386E+00  0.51109989000E-03 0. -1.
     -623    1    1    2    0    0  0.87696974121E+00  0.74497478046E+00  0.23526329899E+01  0.17132001910E+03  0.17130000000E+03 0. -1.
      622    1    1    2    0    0 -0.49171531676E+00 -0.33388443481E+00  0.13515316812E+01  0.33436358435E+01  0.30000000000E+01 0. -1.
</event>
<event>
 5   0  0.7495800E-05  0.9118800E+02  0.7818608E-02  0.1180000E+00
       11   -1    0    0    0    0  0.00000000000E+00  0.00000000000E+00  0.39999999673E+01  0.40000000000E+01  0.51109989000E-03 0. -1.
     -623   -1    0    0    0    0  0.00000000000E+00  0.00000000000E+00  0.12525980253E-10  0.17130000000E+03  0.17130000000E+03 0. -1.
       11    1    1    2    0    0 -0.14948157233E+00  0.14968606384E+00  0.19695090875E+00  0.28903387319E+00  0.51109989000E-03 0. -1.
     -623    1    1    2    0    0  0.42602581135E+00 -0.25556490876E+00  0.16538495337E+01  0.17130870389E+03  0.17130000000E+03 0. -1.
      622    1    1    2    0    0 -0.27654423902E+00  0.10587884492E+00  0.21491995249E+01  0.37022622332E+01  0.30000000000E+01 0. -1.
</event>
<event>
 5   0  0.7495800E-05  0.9118800E+02  0.7818608E-02  0.1180000E+00
       11   -1    0    0    0    0  0.00000000000E+00  0.00000000000E+00  0.39999999673E+01  0.40000000000E+01  0.51109989000E-03 0. -1.
     -623   -1    0    0    0    0  0.00000000000E+00  0.00000000000E+00  0.12525980253E-10  0.17130000000E+03  0.17130000000E+03 0.  1.
       11    1    1    2    0    0 -0.21526141968E+00  0.20596959294E+00  0.17721695284E+00  0.34665121032E+00  0.51109989000E-03 0. -1.
     -623    1    1    2    0    0  0.77930666146E+00 -0.31019674415E+00  0.18401404256E+01  0.17131193671E+03  0.17130000000E+03 0.  1.
      622    1    1    2    0    0 -0.56404524177E+00  0.10422715121E+00  0.19826425889E+01  0.36414120845E+01  0.30000000000E+01 0. -1.
</event>
<event>
 5   0  0.7495800E-05  0.9118800E+02  0.7818608E-02  0.1180000E+00
       11   -1    0    0    0    0  0.00000000000E+00  0.00000000000E+00  0.39999999673E+01  0.40000000000E+01  0.51109989000E-03 0.  1.
     -623   -1    0    0    0    0  0.00000000000E+00  0.00000000000E+00  0.12525980253E-10  0.17130000000E+03  0.17130000000E+03 0.  1.
       11    1    1    2    0    0 -0.96609057799E-01 -0.16089480297E+00  0.10290725158E+00  0.21403413588E+00  0.51109989000E-03 0.  1.
     -623    1    1    2    0    0  0.62720903974E+00  0.10817777854E+01  0.18742219988E+01  0.17131481647E+03  0.17130000000E+03 0.  1.
      622    1    1    2    0    0 -0.53059998194E+00 -0.92088298248E+00  0.20228707170E+01  0.37711493932E+01  0.30000000000E+01 0.  1.
</event>
<event>
 5   0  0.7495800E-05  0.9118800E+02  0.7818608E-02  0.1180000E+00
       11   -1    0    0    0    0  0.00000000000E+00  0.00000000000E+00  0.39999999673E+01  0.40000000000E+01  0.51109989000E-03 0. -1.
     -623   -1    0    0    0    0  0.00000000000E+00  0.00000000000E+00  0.12525980253E-10  0.17130000000E+03  0.17130000000E+03 0. -1.
       11    1    1    2    0    0  0.10912763991E+00  0.16248530635E+00 -0.83569482654E-01  0.21282489570E+00  0.51109989000E-03 0. -1.
     -623    1    1    2    0    0  0.17455884900E+00 -0.19379213356E+00  0.18059111973E+01  0.17130971759E+03  0.17130000000E+03 0. -1.
      622    1    1    2    0    0 -0.28368648892E+00  0.31306827209E-01  0.22776582527E+01  0.37774575123E+01  0.30000000000E+01 0. -1.
</event>
<event>
 5   0  0.7495800E-05  0.9118800E+02  0.7818608E-02  0.1180000E+00
       11   -1    0    0    0    0  0.00000000000E+00  0.00000000000E+00  0.39999999673E+01  0.40000000000E+01  0.51109989000E-03 0.  1.
     -623   -1    0    0    0    0  0.00000000000E+00  0.00000000000E+00  0.12525980253E-10  0.17130000000E+03  0.17130000000E+03 0. -1.
       11    1    1    2    0    0  0.23072124563E+00 -0.24836270377E+00  0.10198841512E+00  0.35400314101E+00  0.51109989000E-03 0.  1.
     -623    1    1    2    0    0 -0.19816515429E+00 -0.21713153833E+00  0.18987383466E+01  0.17131077498E+03  0.17130000000E+03 0. -1.
      622    1    1    2    0    0 -0.32556091334E-01  0.46549424210E+00  0.19992732056E+01  0.36352218831E+01  0.30000000000E+01 0.  1.
</event>
<event>
 5   0  0.7495800E-05  0.9118800E+02  0.7818608E-02  0.1180000E+00
       11   -1    0    0    0    0  0.00000000000E+00  0.00000000000E+00  0.39999999673E+01  0.40000000000E+01  0.51109989000E-03 0. -1.
     -623   -1    0    0    0    0  0.00000000000E+00  0.00000000000E+00  0.12525980253E-10  0.17130000000E+03  0.17130000000E+03 0.  1.
       11    1    1    2    0    0 -0.27910430404E+00  0.24112096158E+00 -0.84674617931E-02  0.36893155162E+00  0.51109989000E-03 0. -1.
     -623    1    1    2    0    0 -0.19760160294E+00 -0.54602559357E+00  0.20676271870E+01  0.17131346203E+03  0.17130000000E+03 0.  1.
      622    1    1    2    0    0  0.47670590698E+00  0.30490463198E+00  0.19408402422E+01  0.36176064189E+01  0.30000000000E+01 0. -1.
</event>
<event>
 5   0  0.7495800E-05  0.9118800E+02  0.7818608E-02  0.1180000E+00
       11   -1    0    0    0    0  0.00000000000E+00  0.00000000000E+00  0.39999999673E+01  0.40000000000E+01  0.51109989000E-03 0.  1.
     -623   -1    0    0    0    0  0.00000000000E+00  0.00000000000E+00  0.12525980253E-10  0.17130000000E+03  0.17130000000E+03 0.  1.
       11    1    1    2    0    0 -0.10473825045E+00  0.26290278420E-01 -0.21597622603E+00  0.24146898616E+00  0.51109989000E-03 0.  1.
     -623    1    1    2    0    0 -0.57645873079E+00 -0.37202802230E+00  0.21099868262E+01  0.17131436821E+03  0.17130000000E+03 0.  1.
      622    1    1    2    0    0  0.68119698124E+00  0.34573774388E+00  0.21059893671E+01  0.37441628075E+01  0.30000000000E+01 0.  1.
</event>
<event>
 5   0  0.7495800E-05  0.9118800E+02  0.7818608E-02  0.1180000E+00
       11   -1    0    0    0    0  0.00000000000E+00  0.00000000000E+00  0.39999999673E+01  0.40000000000E+01  0.51109989000E-03 0.  1.
     -623   -1    0    0    0    0  0.00000000000E+00  0.00000000000E+00  0.12525980253E-10  0.17130000000E+03  0.17130000000E+03 0.  1.
       11    1    1    2    0    0  0.53338384942E+00 -0.13798919689E+00 -0.75281937712E-01  0.55606382785E+00  0.51109989000E-03 0.  1.
     -623    1    1    2    0    0 -0.90097165115E+00  0.56399110023E+00  0.25282310813E+01  0.17132195361E+03  0.17130000000E+03 0.  1.
      622    1    1    2    0    0  0.36758780174E+00 -0.42600190334E+00  0.15470508238E+01  0.34219825635E+01  0.30000000000E+01 0.  1.
</event>
<event>
 5   0  0.7495800E-05  0.9118800E+02  0.7818608E-02  0.1180000E+00
       11   -1    0    0    0    0  0.00000000000E+00  0.00000000000E+00  0.39999999673E+01  0.40000000000E+01  0.51109989000E-03 0. -1.
     -623   -1    0    0    0    0  0.00000000000E+00  0.00000000000E+00  0.12525980253E-10  0.17130000000E+03  0.17130000000E+03 0. -1.
       11    1    1    2    0    0 -0.26056011617E+00 -0.54148952238E-01 -0.90552865606E-01  0.28111166083E+00  0.51109989000E-03 0. -1.
     -623    1    1    2    0    0 -0.39811182290E+00  0.90214110493E-01  0.20161192355E+01  0.17131235031E+03  0.17130000000E+03 0. -1.
      622    1    1    2    0    0  0.65867193907E+00 -0.36065158255E-01  0.20744335975E+01  0.37065380302E+01  0.30000000000E+01 0.  0.
</event>
<event>
 5   0  0.7495800E-05  0.9118800E+02  0.7818608E-02  0.1180000E+00
       11   -1    0    0    0    0  0.00000000000E+00  0.00000000000E+00  0.39999999673E+01  0.40000000000E+01  0.51109989000E-03 0.  1.
     -623   -1    0    0    0    0  0.00000000000E+00  0.00000000000E+00  0.12525980253E-10  0.17130000000E+03  0.17130000000E+03 0. -1.
       11    1    1    2    0    0 -0.70601740055E-01  0.63078089792E-01 -0.10600922456E+00  0.14213257201E+00  0.51109989000E-03 0.  1.
     -623    1    1    2    0    0 -0.88165476403E+00  0.78404243784E+00  0.20735638438E+01  0.17131661246E+03  0.17130000000E+03 0.  1.
      622    1    1    2    0    0  0.95225650408E+00 -0.84712052763E+00  0.20324453481E+01  0.38412549683E+01  0.30000000000E+01 0.  1.
</event>
<event>
 5   0  0.7495800E-05  0.9118800E+02  0.7818608E-02  0.1180000E+00
       11   -1    0    0    0    0  0.00000000000E+00  0.00000000000E+00  0.39999999673E+01  0.40000000000E+01  0.51109989000E-03 0.  1.
     -623   -1    0    0    0    0  0.00000000000E+00  0.00000000000E+00  0.12525980253E-10  0.17130000000E+03  0.17130000000E+03 0.  1.
       11    1    1    2    0    0  0.45398045161E+00  0.15082499628E+00  0.61368036512E+00  0.77810685751E+00  0.51109989000E-03 0.  1.
     -623    1    1    2    0    0 -0.10089754471E+01 -0.34837303559E-01  0.24219350495E+01  0.17132009519E+03  0.17130000000E+03 0.  1.
      622    1    1    2    0    0  0.55499499549E+00 -0.11598769272E+00  0.96438455273E+00  0.32017979567E+01  0.30000000000E+01 0.  1.
</event>
<event>
 5   0  0.7495800E-05  0.9118800E+02  0.7818608E-02  0.1180000E+00
       11   -1    0    0    0    0  0.00000000000E+00  0.00000000000E+00  0.39999999673E+01  0.40000000000E+01  0.51109989000E-03 0.  1.
     -623   -1    0    0    0    0  0.00000000000E+00  0.00000000000E+00  0.12525980253E-10  0.17130000000E+03  0.17130000000E+03 0. -1.
       11    1    1    2    0    0  0.41061326087E+00  0.78068908729E-01  0.60700995395E-01  0.42235397071E+00  0.51109989000E-03 0.  1.
     -623    1    1    2    0    0  0.10276830593E+00 -0.95274385958E+00  0.23144220211E+01  0.17131831435E+03  0.17130000000E+03 0. -1.
      622    1    1    2    0    0 -0.51338156680E+00  0.87467495085E+00  0.16248769509E+01  0.35593316800E+01  0.30000000000E+01 0.  1.
</event>
<event>
 5   0  0.7495800E-05  0.9118800E+02  0.7818608E-02  0.1180000E+00
       11   -1    0    0    0    0  0.00000000000E+00  0.00000000000E+00  0.39999999673E+01  0.40000000000E+01  0.51109989000E-03 0.  1.
     -623   -1    0    0    0    0  0.00000000000E+00  0.00000000000E+00  0.12525980253E-10  0.17130000000E+03  0.17130000000E+03 0. -1.
       11    1    1    2    0    0 -0.65320187536E-01 -0.32732597980E+00 -0.40241912756E+00  0.52282926410E+00  0.51109989000E-03 0.  1.
     -623    1    1    2    0    0  0.52408983077E+00 -0.86167991449E+00  0.32948419028E+01  0.17133465250E+03  0.17130000000E+03 0. -1.
      622    1    1    2    0    0 -0.45876964323E+00  0.11890058943E+01  0.11075771922E+01  0.34425182409E+01  0.30000000000E+01 0.  1.
</event>
<event>
 5   0  0.7495800E-05  0.9118800E+02  0.7818608E-02  0.1180000E+00
       11   -1    0    0    0    0  0.00000000000E+00  0.00000000000E+00  0.39999999673E+01  0.40000000000E+01  0.51109989000E-03 0.  1.
     -623   -1    0    0    0    0  0.00000000000E+00  0.00000000000E+00  0.12525980253E-10  0.17130000000E+03  0.17130000000E+03 0.  1.
       11    1    1    2    0    0  0.66616980601E-01 -0.20368932240E+00  0.62936689867E-01  0.22335722580E+00  0.51109989000E-03 0.  1.
     -623    1    1    2    0    0 -0.16928203820E+00  0.18510022175E+00  0.16588717187E+01  0.17130821572E+03  0.17130000000E+03 0.  1.
      622    1    1    2    0    0  0.10266505760E+00  0.18589100652E-01  0.22781915588E+01  0.37684270521E+01  0.30000000000E+01 0.  1.
</event>
<event>
 5   0  0.7495800E-05  0.9118800E+02  0.7818608E-02  0.1180000E+00
       11   -1    0    0    0    0  0.00000000000E+00  0.00000000000E+00  0.39999999673E+01  0.40000000000E+01  0.51109989000E-03 0. -1.
     -623   -1    0    0    0    0  0.00000000000E+00  0.00000000000E+00  0.12525980253E-10  0.17130000000E+03  0.17130000000E+03 0. -1.
       11    1    1    2    0    0  0.44404935476E+00 -0.13249664325E+00  0.59987890774E-01  0.46726223707E+00  0.51109989000E-03 0. -1.
     -623    1    1    2    0    0  0.48032324581E+00 -0.30089956784E+00  0.24198531460E+01  0.17131802865E+03  0.17130000000E+03 0. -1.
      622    1    1    2    0    0 -0.92437260057E+00  0.43339621109E+00  0.15201589306E+01  0.35147091138E+01  0.30000000000E+01 0. -1.
</event>
<event>
 5   0  0.7495800E-05  0.9118800E+02  0.7818608E-02  0.1180000E+00
       11   -1    0    0    0    0  0.00000000000E+00  0.00000000000E+00  0.39999999673E+01  0.40000000000E+01  0.51109989000E-03 0. -1.
     -623   -1    0    0    0    0  0.00000000000E+00  0.00000000000E+00  0.12525980253E-10  0.17130000000E+03  0.17130000000E+03 0.  1.
       11    1    1    2    0    0 -0.38958476254E+00 -0.44449519101E+00  0.50079067460E+00  0.77468950104E+00  0.51109989000E-03 0. -1.
     -623    1    1    2    0    0  0.67724176648E+00  0.11795134111E+00  0.24545659353E+01  0.17131896411E+03  0.17130000000E+03 0.  1.
      622    1    1    2    0    0 -0.28765700394E+00  0.32654384990E+00  0.10446433575E+01  0.32063463915E+01  0.30000000000E+01 0. -1.
</event>
<event>
 5   0  0.7495800E-05  0.9118800E+02  0.7818608E-02  0.1180000E+00
       11   -1    0    0    0    0  0.00000000000E+00  0.00000000000E+00  0.39999999673E+01  0.40000000000E+01  0.51109989000E-03 0.  1.
     -623   -1    0    0    0    0  0.00000000000E+00  0.00000000000E+00  0.12525980253E-10  0.17130000000E+03  0.17130000000E+03 0. -1.
       11    1    1    2    0    0 -0.19954907026E+00  0.21235878612E-01 -0.28262392429E-02  0.20069639467E+00  0.51109989000E-03 0.  1.
     -623    1    1    2    0    0 -0.31420856959E-01 -0.31896413662E+00  0.17169702991E+01  0.17130890436E+03  0.17130000000E+03 0. -1.
      622    1    1    2    0    0  0.23096992722E+00  0.29772825800E+00  0.22858559075E+01  0.37903992472E+01  0.30000000000E+01 0.  1.
</event>
<event>
 5   0  0.7495800E-05  0.9118800E+02  0.7818608E-02  0.1180000E+00
       11   -1    0    0    0    0  0.00000000000E+00  0.00000000000E+00  0.39999999673E+01  0.40000000000E+01  0.51109989000E-03 0.  1.
     -623   -1    0    0    0    0  0.00000000000E+00  0.00000000000E+00  0.12525980253E-10  0.17130000000E+03  0.17130000000E+03 0. -1.
       11    1    1    2    0    0  0.30340730293E+00 -0.16034950603E+00  0.33312930868E+00  0.47827121289E+00  0.51109989000E-03 0.  1.
     -623    1    1    2    0    0 -0.28243141507E+00  0.50524614754E+00  0.18768992495E+01  0.17131125997E+03  0.17130000000E+03 0. -1.
      622    1    1    2    0    0 -0.20975887865E-01 -0.34489664151E+00  0.17899714092E+01  0.35104688187E+01  0.30000000000E+01 0.  1.
</event>
<event>
 5   0  0.7495800E-05  0.9118800E+02  0.7818608E-02  0.1180000E+00
       11   -1    0    0    0    0  0.00000000000E+00  0.00000000000E+00  0.39999999673E+01  0.40000000000E+01  0.51109989000E-03 0. -1.
     -623   -1    0    0    0    0  0.00000000000E+00  0.00000000000E+00  0.12525980253E-10  0.17130000000E+03  0.17130000000E+03 0.  1.
       11    1    1    2    0    0  0.15433910759E+00  0.13060894665E+00  0.48702572602E-01  0.20796985089E+00  0.51109989000E-03 0. -1.
     -623    1    1    2    0    0 -0.75702895910E-01  0.43130544527E+00  0.17178979877E+01  0.17130917351E+03  0.17130000000E+03 0.  1.
      622    1    1    2    0    0 -0.78636211676E-01 -0.56191439192E+00  0.22333994071E+01  0.37828566387E+01  0.30000000000E+01 0. -1.
</event>
<event>
 5   0  0.7495800E-05  0.9118800E+02  0.7818608E-02  0.1180000E+00
       11   -1    0    0    0    0  0.00000000000E+00  0.00000000000E+00  0.39999999673E+01  0.40000000000E+01  0.51109989000E-03 0. -1.
     -623   -1    0    0    0    0  0.00000000000E+00  0.00000000000E+00  0.12525980253E-10  0.17130000000E+03  0.17130000000E+03 0. -1.
       11    1    1    2    0    0 -0.12966131496E+00  0.13331461548E+00  0.20923788174E-01  0.18714408735E+00  0.51109989000E-03 0. -1.
     -623    1    1    2    0    0  0.17765364707E-01 -0.44099193073E+00  0.16628554492E+01  0.17130863924E+03  0.17130000000E+03 0. -1.
      622    1    1    2    0    0  0.11189595025E+00  0.30767731525E+00  0.23162207300E+01  0.38042166742E+01  0.30000000000E+01 0. -1.
</event>
<event>
 5   0  0.7495800E-05  0.9118800E+02  0.7818608E-02  0.1180000E+00
       11   -1    0    0    0    0  0.00000000000E+00  0.00000000000E+00  0.39999999673E+01  0.40000000000E+01  0.51109989000E-03 0. -1.
     -623   -1    0    0    0    0  0.00000000000E+00  0.00000000000E+00  0.12525980253E-10  0.17130000000E+03  0.17130000000E+03 0. -1.
       11    1    1    2    0    0  0.11875340136E+00 -0.17773394064E+00 -0.60394099684E-01  0.22212481286E+00  0.51109989000E-03 0. -1.
     -623    1    1    2    0    0 -0.50566777883E+00  0.31113119816E+00  0.18189167182E+01  0.17131068548E+03  0.17130000000E+03 0. -1.
      622    1    1    2    0    0  0.38691437747E+00 -0.13339725753E+00  0.22414773489E+01  0.37671897044E+01  0.30000000000E+01 0. -1.
</event>
<event>
 5   0  0.7495800E-05  0.9118800E+02  0.7818608E-02  0.1180000E+00
       11   -1    0    0    0    0  0.00000000000E+00  0.00000000000E+00  0.39999999673E+01  0.40000000000E+01  0.51109989000E-03 0.  1.
     -623   -1    0    0    0    0  0.00000000000E+00  0.00000000000E+00  0.12525980253E-10  0.17130000000E+03  0.17130000000E+03 0.  1.
       11    1    1    2    0    0  0.42757878198E-01 -0.74781052952E+00  0.59009042009E-01  0.75135288146E+00  0.51109989000E-03 0.  1.
     -623    1    1    2    0    0 -0.19246452268E+00  0.12428989216E+01  0.28929822852E+01  0.17132904362E+03  0.17130000000E+03 0.  1.
      622    1    1    2    0    0  0.14970664448E+00 -0.49508839208E+00  0.10480086401E+01  0.32196035012E+01  0.30000000000E+01 0.  1.
</event>
<event>
 5   0  0.7495800E-05  0.9118800E+02  0.7818608E-02  0.1180000E+00
       11   -1    0    0    0    0  0.00000000000E+00  0.00000000000E+00  0.39999999673E+01  0.40000000000E+01  0.51109989000E-03 0.  1.
     -623   -1    0    0    0    0  0.00000000000E+00  0.00000000000E+00  0.12525980253E-10  0.17130000000E+03  0.17130000000E+03 0. -1.
       11    1    1    2    0    0 -0.21784081832E+00  0.28345229969E+00  0.36254407622E+00  0.50915449202E+00  0.51109989000E-03 0.  1.
     -623    1    1    2    0    0 -0.14847808832E+00 -0.56793798721E+00  0.19382061882E+01  0.17131197052E+03  0.17130000000E+03 0. -1.
      622    1    1    2    0    0  0.36631890664E+00  0.28448568752E+00  0.16992497029E+01  0.34788749907E+01  0.30000000000E+01 0. -1.
</event>
<event>
 5   0  0.7495800E-05  0.9118800E+02  0.7818608E-02  0.1180000E+00
       11   -1    0    0    0    0  0.00000000000E+00  0.00000000000E+00  0.39999999673E+01  0.40000000000E+01  0.51109989000E-03 0.  1.
     -623   -1    0    0    0    0  0.00000000000E+00  0.00000000000E+00  0.12525980253E-10  0.17130000000E+03  0.17130000000E+03 0.  1.
       11    1    1    2    0    0  0.34190942909E-01 -0.54231637462E-01  0.10556992172E+00  0.12351259317E+00  0.51109989000E-03 0.  1.
     -623    1    1    2    0    0 -0.72768151382E+00  0.20172242439E+00  0.15584758266E+01  0.17130875360E+03  0.17130000000E+03 0.  1.
      622    1    1    2    0    0  0.69349057092E+00 -0.14749078693E+00  0.23359542191E+01  0.38677338091E+01  0.30000000000E+01 0.  1.
</event>
<event>
 5   0  0.7495800E-05  0.9118800E+02  0.7818608E-02  0.1180000E+00
       11   -1    0    0    0    0  0.00000000000E+00  0.00000000000E+00  0.39999999673E+01  0.40000000000E+01  0.51109989000E-03 0.  1.
     -623   -1    0    0    0    0  0.00000000000E+00  0.00000000000E+00  0.12525980253E-10  0.17130000000E+03  0.17130000000E+03 0. -1.
       11    1    1    2    0    0  0.11208424879E+00 -0.13428445191E+00 -0.23447433422E+00  0.29252977196E+00  0.51109989000E-03 0.  1.
     -623    1    1    2    0    0  0.11470605922E+01 -0.45336023599E+00  0.26113106834E+01  0.17132434219E+03  0.17130000000E+03 0. -1.
      622    1    1    2    0    0 -0.12591448410E+01  0.58764468790E+00  0.16231636182E+01  0.36831280376E+01  0.30000000000E+01 0.  0.
</event>
<event>
 5   0  0.7495800E-05  0.9118800E+02  0.7818608E-02  0.1180000E+00
       11   -1    0    0    0    0  0.00000000000E+00  0.00000000000E+00  0.39999999673E+01  0.40000000000E+01  0.51109989000E-03 0. -1.
     -623   -1    0    0    0    0  0.00000000000E+00  0.00000000000E+00  0.12525980253E-10  0.17130000000E+03  0.17130000000E+03 0. -1.
       11    1    1    2    0    0  0.31076427662E+00  0.68050327867E+00  0.25436913185E+00  0.79016647890E+00  0.51109989000E-03 0. -1.
     -623    1    1    2    0    0 -0.55335814999E+00 -0.90172761011E+00  0.27280618422E+01  0.17132498837E+03  0.17130000000E+03 0. -1.
      622    1    1    2    0    0  0.24259387337E+00  0.22122433143E+00  0.10175689933E+01  0.31848451530E+01  0.30000000000E+01 0. -1.
</event>
<event>
 5   0  0.7495800E-05  0.9118800E+02  0.7818608E-02  0.1180000E+00
       11   -1    0    0    0    0  0.00000000000E+00  0.00000000000E+00  0.39999999673E+01  0.40000000000E+01  0.51109989000E-03 0. -1.
     -623   -1    0    0    0    0  0.00000000000E+00  0.00000000000E+00  0.12525980253E-10  0.17130000000E+03  0.17130000000E+03 0.  1.
       11    1    1    2    0    0  0.22368074723E+00 -0.66718943019E-01  0.54493088635E+00  0.59281905009E+00  0.51109989000E-03 0. -1.
     -623    1    1    2    0    0 -0.47765204679E+00 -0.59186408303E+00  0.20348654688E+01  0.17131377391E+03  0.17130000000E+03 0.  1.
      622    1    1    2    0    0  0.25397129956E+00  0.65858302605E+00  0.14202036122E+01  0.33934070377E+01  0.30000000000E+01 0. -1.
</event>
<event>
 5   0  0.7495800E-05  0.9118800E+02  0.7818608E-02  0.1180000E+00
       11   -1    0    0    0    0  0.00000000000E+00  0.00000000000E+00  0.39999999673E+01  0.40000000000E+01  0.51109989000E-03 0. -1.
     -623   -1    0    0    0    0  0.00000000000E+00  0.00000000000E+00  0.12525980253E-10  0.17130000000E+03  0.17130000000E+03 0. -1.
       11    1    1    2    0    0  0.26333550383E+00 -0.56147354322E-01 -0.37609851500E+00  0.46254563794E+00  0.51109989000E-03 0. -1.
     -623    1    1    2    0    0  0.31654723487E-01  0.97302917578E+00  0.28262391368E+01  0.17132607920E+03  0.17130000000E+03 0. -1.
      622    1    1    2    0    0 -0.29499022732E+00 -0.91688182146E+00  0.15498593456E+01  0.35113751579E+01  0.30000000000E+01 0. -1.
</event>
<event>
 5   0  0.7495800E-05  0.9118800E+02  0.7818608E-02  0.1180000E+00
       11   -1    0    0    0    0  0.00000000000E+00  0.00000000000E+00  0.39999999673E+01  0.40000000000E+01  0.51109989000E-03 0. -1.
     -623   -1    0    0    0    0  0.00000000000E+00  0.00000000000E+00  0.12525980253E-10  0.17130000000E+03  0.17130000000E+03 0. -1.
       11    1    1    2    0    0  0.61153185281E-01 -0.11371327773E+00 -0.15500526412E+00  0.20173575471E+00  0.51109989000E-03 0. -1.
     -623    1    1    2    0    0 -0.44804118406E+00  0.43935657566E+00  0.19005875147E+01  0.17131169256E+03  0.17130000000E+03 0. -1.
      622    1    1    2    0    0  0.38688799878E+00 -0.32564329792E+00  0.22544177167E+01  0.37865716846E+01  0.30000000000E+01 0. -1.
</event>
<event>
 5   0  0.7495800E-05  0.9118800E+02  0.7818608E-02  0.1180000E+00
       11   -1    0    0    0    0  0.00000000000E+00  0.00000000000E+00  0.39999999673E+01  0.40000000000E+01  0.51109989000E-03 0.  1.
     -623   -1    0    0    0    0  0.00000000000E+00  0.00000000000E+00  0.12525980253E-10  0.17130000000E+03  0.17130000000E+03 0. -1.
       11    1    1    2    0    0 -0.20572685315E+00 -0.25944126734E+00  0.13883179013E+00  0.35903737477E+00  0.51109989000E-03 0.  1.
     -623    1    1    2    0    0  0.32869670865E+00 -0.30016590565E+00  0.18996535824E+01  0.17131111121E+03  0.17130000000E+03 0. -1.
      622    1    1    2    0    0 -0.12296985549E+00  0.55960717299E+00  0.19615145948E+01  0.36298514128E+01  0.30000000000E+01 0.  1.
</event>
<event>
 5   0  0.7495800E-05  0.9118800E+02  0.7818608E-02  0.1180000E+00
       11   -1    0    0    0    0  0.00000000000E+00  0.00000000000E+00  0.39999999673E+01  0.40000000000E+01  0.51109989000E-03 0.  1.
     -623   -1    0    0    0    0  0.00000000000E+00  0.00000000000E+00  0.12525980253E-10  0.17130000000E+03  0.17130000000E+03 0.  1.
       11    1    1    2    0    0 -0.22078009018E+00 -0.48685382236E+00  0.19721855489E+00  0.56979462281E+00  0.51109989000E-03 0.  1.
     -623    1    1    2    0    0  0.19776378070E+00  0.68175397522E+00  0.21833726209E+01  0.17131538464E+03  0.17130000000E+03 0.  1.
      622    1    1    2    0    0  0.23016309480E-01 -0.19490015286E+00  0.16194087916E+01  0.34148207353E+01  0.30000000000E+01 0.  1.
</event>
<event>
 5   0  0.7495800E-05  0.9118800E+02  0.7818608E-02  0.1180000E+00
       11   -1    0    0    0    0  0.00000000000E+00  0.00000000000E+00  0.39999999673E+01  0.40000000000E+01  0.51109989000E-03 0.  1.
     -623   -1    0    0    0    0  0.00000000000E+00  0.00000000000E+00  0.12525980253E-10  0.17130000000E+03  0.17130000000E+03 0. -1.
       11    1    1    2    0    0  0.17253632416E+00 -0.10629374811E-01  0.13089644896E+00  0.21683152062E+00  0.51109989000E-03 0.  1.
     -623    1    1    2    0    0 -0.23245679014E+00 -0.61776859801E+00  0.16684493025E+01  0.17130939670E+03  0.17130000000E+03 0. -1.
      622    1    1    2    0    0  0.59920465975E-01  0.62839797282E+00  0.22006542159E+01  0.37737717807E+01  0.30000000000E+01 0.  1.
</event>
<event>
 5   0  0.7495800E-05  0.9118800E+02  0.7818608E-02  0.1180000E+00
       11   -1    0    0    0    0  0.00000000000E+00  0.00000000000E+00  0.39999999673E+01  0.40000000000E+01  0.51109989000E-03 0.  1.
     -623   -1    0    0    0    0  0.00000000000E+00  0.00000000000E+00  0.12525980253E-10  0.17130000000E+03  0.17130000000E+03 0.  1.
       11    1    1    2    0    0 -0.19530302208E+00 -0.10687203394E-01  0.32012896380E+00  0.37515370375E+00  0.51109989000E-03 0.  1.
     -623    1    1    2    0    0  0.77723810568E+00 -0.71941602445E+00  0.19000173097E+01  0.17131381066E+03  0.17130000000E+03 0.  1.
      622    1    1    2    0    0 -0.58193508359E+00  0.73010322784E+00  0.17798536939E+01  0.36110356321E+01  0.30000000000E+01 0.  1.
</event>
<event>
 5   0  0.7495800E-05  0.9118800E+02  0.7818608E-02  0.1180000E+00
       11   -1    0    0    0    0  0.00000000000E+00  0.00000000000E+00  0.39999999673E+01  0.40000000000E+01  0.51109989000E-03 0. -1.
     -623   -1    0    0    0    0  0.00000000000E+00  0.00000000000E+00  0.12525980253E-10  0.17130000000E+03  0.17130000000E+03 0. -1.
       11    1    1    2    0    0  0.27528846727E+00  0.15854533421E+00  0.10768791488E-01  0.31786253524E+00  0.51109989000E-03 0. -1.
     -623    1    1    2    0    0 -0.13494555713E+00  0.81440352915E-01  0.18907601049E+01  0.17131050702E+03  0.17130000000E+03 0. -1.
      622    1    1    2    0    0 -0.14034291015E+00 -0.23998568712E+00  0.20984710710E+01  0.36716304414E+01  0.30000000000E+01 0. -1.
</event>
<event>
 5   0  0.7495800E-05  0.9118800E+02  0.7818608E-02  0.1180000E+00
       11   -1    0    0    0    0  0.00000000000E+00  0.00000000000E+00  0.39999999673E+01  0.40000000000E+01  0.51109989000E-03 0. -1.
     -623   -1    0    0    0    0  0.00000000000E+00  0.00000000000E+00  0.12525980253E-10  0.17130000000E+03  0.17130000000E+03 0.  1.
       11    1    1    2    0    0  0.55238158108E-02  0.65194525512E-02 -0.98009527873E-01  0.98382643676E-01  0.51109989000E-03 0. -1.
     -623    1    1    2    0    0  0.80320766533E+00  0.16805433800E+00  0.17630392141E+01  0.17131103786E+03  0.17130000000E+03 0.  1.
      622    1    1    2    0    0 -0.80873148114E+00 -0.17457379055E+00  0.23349702811E+01  0.38905794980E+01  0.30000000000E+01 0. -1.
</event>
<event>
 5   0  0.7495800E-05  0.9118800E+02  0.7818608E-02  0.1180000E+00
       11   -1    0    0    0    0  0.00000000000E+00  0.00000000000E+00  0.39999999673E+01  0.40000000000E+01  0.51109989000E-03 0. -1.
     -623   -1    0    0    0    0  0.00000000000E+00  0.00000000000E+00  0.12525980253E-10  0.17130000000E+03  0.17130000000E+03 0. -1.
       11    1    1    2    0    0  0.24551090243E+00  0.97297291499E-01  0.27743681488E+00  0.38303239239E+00  0.51109989000E-03 0. -1.
     -623    1    1    2    0    0 -0.66978275618E+00  0.58084103194E-01  0.17725549972E+01  0.17131048985E+03  0.17130000000E+03 0. -1.
      622    1    1    2    0    0  0.42427185375E+00 -0.15538139469E+00  0.19500081553E+01  0.36064777539E+01  0.30000000000E+01 0. -1.
</event>
<event>
 5   0  0.7495800E-05  0.9118800E+02  0.7818608E-02  0.1180000E+00
       11   -1    0    0    0    0  0.00000000000E+00  0.00000000000E+00  0.39999999673E+01  0.40000000000E+01  0.51109989000E-03 0. -1.
     -623   -1    0    0    0    0  0.00000000000E+00  0.00000000000E+00  0.12525980253E-10  0.17130000000E+03  0.17130000000E+03 0. -1.
       11    1    1    2    0    0  0.10928449962E+00  0.27947362443E+00  0.22770430534E-01  0.30094411830E+00  0.51109989000E-03 0. -1.
     -623    1    1    2    0    0  0.28281161836E+00 -0.27794757768E+00  0.18675667145E+01  0.17131063902E+03  0.17130000000E+03 0. -1.
      622    1    1    2    0    0 -0.39209611798E+00 -0.15260467453E-02  0.21096628223E+01  0.36884168580E+01  0.30000000000E+01 0. -1.
</event>
<event>
 5   0  0.7495800E-05  0.9118800E+02  0.7818608E-02  0.1180000E+00
       11   -1    0    0    0    0  0.00000000000E+00  0.00000000000E+00  0.39999999673E+01  0.40000000000E+01  0.51109989000E-03 0.  1.
     -623   -1    0    0    0    0  0.00000000000E+00  0.00000000000E+00  0.12525980253E-10  0.17130000000E+03  0.17130000000E+03 0. -1.
       11    1    1    2    0    0 -0.14044545995E+00 -0.26223875305E+00 -0.18627386953E+00  0.35098761590E+00  0.51109989000E-03 0.  1.
     -623    1    1    2    0    0 -0.15210647788E+00 -0.94176420480E+00  0.25673934376E+01  0.17132189459E+03  0.17130000000E+03 0. -1.
      622    1    1    2    0    0  0.29255193782E+00  0.12040029579E+01  0.16188803993E+01  0.36271177960E+01  0.30000000000E+01 0.  1.
</event>
<event>
 5   0  0.7495800E-05  0.9118800E+02  0.7818608E-02  0.1180000E+00
       11   -1    0    0    0    0  0.00000000000E+00  0.00000000000E+00  0.39999999673E+01  0.40000000000E+01  0.51109989000E-03 0. -1.
     -623   -1    0    0    0    0  0.00000000000E+00  0.00000000000E+00  0.12525980253E-10  0.17130000000E+03  0.17130000000E+03 0. -1.
       11    1    1    2    0    0  0.98110962275E-01  0.76538931562E-01  0.11208508343E+00  0.16747326985E+00  0.51109989000E-03 0. -1.
     -623    1    1    2    0    0 -0.37823978049E+00  0.27394072781E+00  0.15581475073E+01  0.17130772292E+03  0.17130000000E+03 0. -1.
      622    1    1    2    0    0  0.28012881821E+00 -0.35047965937E+00  0.23297673766E+01  0.38248038088E+01  0.30000000000E+01 0. -1.
</event>
<event>
 5   0  0.7495800E-05  0.9118800E+02  0.7818608E-02  0.1180000E+00
       11   -1    0    0    0    0  0.00000000000E+00  0.00000000000E+00  0.39999999673E+01  0.40000000000E+01  0.51109989000E-03 0.  1.
     -623   -1    0    0    0    0  0.00000000000E+00  0.00000000000E+00  0.12525980253E-10  0.17130000000E+03  0.17130000000E+03 0. -1.
       11    1    1    2    0    0 -0.92042298152E-01 -0.32938152724E+00  0.19525430940E+00  0.39381274953E+00  0.51109989000E-03 0.  1.
     -623    1    1    2    0    0  0.22016341899E+00  0.56768567749E+00  0.18420253969E+01  0.17131098563E+03  0.17130000000E+03 0. -1.
      622    1    1    2    0    0 -0.12812112084E+00 -0.23830415025E+00  0.19627202611E+01  0.35952016234E+01  0.30000000000E+01 0.  1.
</event>
<event>
 5   0  0.7495800E-05  0.9118800E+02  0.7818608E-02  0.1180000E+00
       11   -1    0    0    0    0  0.00000000000E+00  0.00000000000E+00  0.39999999673E+01  0.40000000000E+01  0.51109989000E-03 0.  1.
     -623   -1    0    0    0    0  0.00000000000E+00  0.00000000000E+00  0.12525980253E-10  0.17130000000E+03  0.17130000000E+03 0.  1.
       11    1    1    2    0    0 -0.60272106163E-01 -0.14094200693E+00  0.59599847662E-01  0.16446817067E+00  0.51109989000E-03 0.  1.
     -623    1    1    2    0    0  0.46134123716E+00  0.11677683772E+00  0.15978168303E+01  0.17130811274E+03  0.17130000000E+03 0.  1.
      622    1    1    2    0    0 -0.40106913099E+00  0.24165169215E-01  0.23425832894E+01  0.38274190874E+01  0.30000000000E+01 0.  1.
</event>
<event>
 5   0  0.7495800E-05  0.9118800E+02  0.7818608E-02  0.1180000E+00
       11   -1    0    0    0    0  0.00000000000E+00  0.00000000000E+00  0.39999999673E+01  0.40000000000E+01  0.51109989000E-03 0.  1.
     -623   -1    0    0    0    0  0.00000000000E+00  0.00000000000E+00  0.12525980253E-10  0.17130000000E+03  0.17130000000E+03 0.  1.
       11    1    1    2    0    0  0.23349806774E+00  0.16512121111E+00 -0.12208535508E+00  0.31095249983E+00  0.51109989000E-03 0.  1.
     -623    1    1    2    0    0 -0.72826309820E+00 -0.14898997292E+01  0.25701447332E+01  0.17132730609E+03  0.17130000000E+03 0.  1.
      622    1    1    2    0    0  0.49476503045E+00  0.13247785181E+01  0.15519405893E+01  0.36617414095E+01  0.30000000000E+01 0.  1.
</event>
<event>
 5   0  0.7495800E-05  0.9118800E+02  0.7818608E-02  0.1180000E+00
       11   -1    0    0    0    0  0.00000000000E+00  0.00000000000E+00  0.39999999673E+01  0.40000000000E+01  0.51109989000E-03 0.  1.
     -623   -1    0    0    0    0  0.00000000000E+00  0.00000000000E+00  0.12525980253E-10  0.17130000000E+03  0.17130000000E+03 0. -1.
       11    1    1    2    0    0  0.15582279832E+00 -0.30124160915E+00 -0.11218731741E+00  0.35723032762E+00  0.51109989000E-03 0.  1.
     -623    1    1    2    0    0  0.44834697428E+00 -0.70159891650E+00  0.24518031183E+01  0.17131956863E+03  0.17130000000E+03 0. -1.
      622    1    1    2    0    0 -0.60416977259E+00  0.10028405257E+01  0.16603841665E+01  0.36232010453E+01  0.30000000000E+01 0.  1.
</event>
<event>
 5   0  0.7495800E-05  0.9118800E+02  0.7818608E-02  0.1180000E+00
       11   -1    0    0    0    0  0.00000000000E+00  0.00000000000E+00  0.39999999673E+01  0.40000000000E+01  0.51109989000E-03 0. -1.
     -623   -1    0    0    0    0  0.00000000000E+00  0.00000000000E+00  0.12525980253E-10  0.17130000000E+03  0.17130000000E+03 0. -1.
       11    1    1    2    0    0  0.38021013897E-01 -0.23731766968E+00  0.93715477631E-01  0.25796923424E+00  0.51109989000E-03 0. -1.
     -623    1    1    2    0    0  0.39767968543E+00  0.52211263103E+00  0.17485641789E+01  0.17131018133E+03  0.17130000000E+03 0. -1.
      622    1    1    2    0    0 -0.43570069933E+00 -0.28479496134E+00  0.21577203108E+01  0.37318494355E+01  0.30000000000E+01 0. -1.
</event>
<event>
 5   0  0.7495800E-05  0.9118800E+02  0.7818608E-02  0.1180000E+00
       11   -1    0    0    0    0  0.00000000000E+00  0.00000000000E+00  0.39999999673E+01  0.40000000000E+01  0.51109989000E-03 0.  1.
     -623   -1    0    0    0    0  0.00000000000E+00  0.00000000000E+00  0.12525980253E-10  0.17130000000E+03  0.17130000000E+03 0. -1.
       11    1    1    2    0    0 -0.21271573908E+00 -0.38317375094E-01  0.74662890016E-02  0.21626884560E+00  0.51109989000E-03 0.  1.
     -623    1    1    2    0    0  0.52863605103E+00 -0.19294381079E+00  0.17364680053E+01  0.17130972536E+03  0.17130000000E+03 0. -1.
      622    1    1    2    0    0 -0.31592031195E+00  0.23126118589E+00  0.22560656731E+01  0.37740057897E+01  0.30000000000E+01 0.  1.
</event>
<event>
 5   0  0.7495800E-05  0.9118800E+02  0.7818608E-02  0.1180000E+00
       11   -1    0    0    0    0  0.00000000000E+00  0.00000000000E+00  0.39999999673E+01  0.40000000000E+01  0.51109989000E-03 0.  1.
     -623   -1    0    0    0    0  0.00000000000E+00  0.00000000000E+00  0.12525980253E-10  0.17130000000E+03  0.17130000000E+03 0.  1.
       11    1    1    2    0    0  0.17571237029E+00 -0.15554687328E+00  0.13213592544E+00  0.26931362920E+00  0.51109989000E-03 0.  1.
     -623    1    1    2    0    0 -0.83255125129E-01  0.54111447866E+00  0.17019258845E+01  0.17130932925E+03  0.17130000000E+03 0.  1.
      622    1    1    2    0    0 -0.92457245156E-01 -0.38556760538E+00  0.21659381574E+01  0.37213571210E+01  0.30000000000E+01 0.  1.
</event>
<event>
 5   0  0.7495800E-05  0.9118800E+02  0.7818608E-02  0.1180000E+00
       11   -1    0    0    0    0  0.00000000000E+00  0.00000000000E+00  0.39999999673E+01  0.40000000000E+01  0.51109989000E-03 0.  1.
     -623   -1    0    0    0    0  0.00000000000E+00  0.00000000000E+00  0.12525980253E-10  0.17130000000E+03  0.17130000000E+03 0.  1.
       11    1    1    2    0    0  0.39177766029E+00  0.36073233966E-01  0.28677511628E+00  0.48685854399E+00  0.51109989000E-03 0.  1.
     -623    1    1    2    0    0 -0.10424267696E-01 -0.90668597113E+00  0.21887822070E+01  0.17131638262E+03  0.17130000000E+03 0.  1.
      622    1    1    2    0    0 -0.38135339260E+00  0.87061273716E+00  0.15244426441E+01  0.34967588312E+01  0.30000000000E+01 0. -1.
</event>
<event>
 5   0  0.7495800E-05  0.9118800E+02  0.7818608E-02  0.1180000E+00
       11   -1    0    0    0    0  0.00000000000E+00  0.00000000000E+00  0.39999999673E+01  0.40000000000E+01  0.51109989000E-03 0.  1.
     -623   -1    0    0    0    0  0.00000000000E+00  0.00000000000E+00  0.12525980253E-10  0.17130000000E+03  0.17130000000E+03 0.  1.
       11    1    1    2    0    0  0.10942160327E+00  0.23205121219E+00 -0.56642223737E-01  0.26273457152E+00  0.51109989000E-03 0.  1.
     -623    1    1    2    0    0  0.76196031435E+00 -0.68617226699E+00  0.20858518785E+01  0.17131576750E+03  0.17130000000E+03 0.  1.
      622    1    1    2    0    0 -0.87138191762E+00  0.45412105480E+00  0.19707903126E+01  0.37214979289E+01  0.30000000000E+01 0.  1.
</event>
<event>
 5   0  0.7495800E-05  0.9118800E+02  0.7818608E-02  0.1180000E+00
       11   -1    0    0    0    0  0.00000000000E+00  0.00000000000E+00  0.39999999673E+01  0.40000000000E+01  0.51109989000E-03 0.  1.
     -623   -1    0    0    0    0  0.00000000000E+00  0.00000000000E+00  0.12525980253E-10  0.17130000000E+03  0.17130000000E+03 0.  1.
       11    1    1    2    0    0  0.26628838851E+00  0.47066839234E+00  0.15092287856E+00  0.56144119719E+00  0.51109989000E-03 0.  1.
     -623    1    1    2    0    0 -0.14805111141E+01 -0.89792993542E+00  0.28788408345E+01  0.17133293879E+03  0.17130000000E+03 0. -1.
      622    1    1    2    0    0  0.12142227256E+01  0.42726154308E+00  0.97023625429E+00  0.34056200085E+01  0.30000000000E+01 0.  1.
</event>
<event>
 5   0  0.7495800E-05  0.9118800E+02  0.7818608E-02  0.1180000E+00
       11   -1    0    0    0    0  0.00000000000E+00  0.00000000000E+00  0.39999999673E+01  0.40000000000E+01  0.51109989000E-03 0.  1.
     -623   -1    0    0    0    0  0.00000000000E+00  0.00000000000E+00  0.12525980253E-10  0.17130000000E+03  0.17130000000E+03 0. -1.
       11    1    1    2    0    0 -0.27946443784E+00  0.22459319581E+00  0.34278695344E-01  0.36016352647E+00  0.51109989000E-03 0.  1.
     -623    1    1    2    0    0 -0.52605369002E+00 -0.76580036084E+00  0.21803457673E+01  0.17131639469E+03  0.17130000000E+03 0. -1.
      622    1    1    2    0    0  0.80551812786E+00  0.54120716503E+00  0.17853755047E+01  0.36234417813E+01  0.30000000000E+01 0.  1.
</event>
<event>
 5   0  0.7495800E-05  0.9118800E+02  0.7818608E-02  0.1180000E+00
       11   -1    0    0    0    0  0.00000000000E+00  0.00000000000E+00  0.39999999673E+01  0.40000000000E+01  0.51109989000E-03 0. -1.
     -623   -1    0    0    0    0  0.00000000000E+00  0.00000000000E+00  0.12525980253E-10  0.17130000000E+03  0.17130000000E+03 0.  1.
       11    1    1    2    0    0  0.17293148564E-01 -0.71799422905E-01  0.62084660530E-01  0.96483036907E-01  0.51109989000E-03 0. -1.
     -623    1    1    2    0    0 -0.20568898451E+00  0.98142164003E+00  0.16377803094E+01  0.17131076388E+03  0.17130000000E+03 0.  1.
      622    1    1    2    0    0  0.18839583594E+00 -0.90962221713E+00  0.23001349974E+01  0.38927530843E+01  0.30000000000E+01 0. -1.
</event>
<event>
 5   0  0.7495800E-05  0.9118800E+02  0.7818608E-02  0.1180000E+00
       11   -1    0    0    0    0  0.00000000000E+00  0.00000000000E+00  0.39999999673E+01  0.40000000000E+01  0.51109989000E-03 0.  1.
     -623   -1    0    0    0    0  0.00000000000E+00  0.00000000000E+00  0.12525980253E-10  0.17130000000E+03  0.17130000000E+03 0.  1.
       11    1    1    2    0    0 -0.20731483421E+00 -0.53943794674E-01  0.17937212152E+00  0.27939934264E+00  0.51109989000E-03 0.  1.
     -623    1    1    2    0    0  0.45326726580E-01 -0.62404949815E+00  0.17513438816E+01  0.17131009514E+03  0.17130000000E+03 0.  1.
      622    1    1    2    0    0  0.16198810763E+00  0.67799329283E+00  0.20692839643E+01  0.37105055150E+01  0.30000000000E+01 0.  1.
</event>
<event>
 5   0  0.7495800E-05  0.9118800E+02  0.7818608E-02  0.1180000E+00
       11   -1    0    0    0    0  0.00000000000E+00  0.00000000000E+00  0.39999999673E+01  0.40000000000E+01  0.51109989000E-03 0. -1.
     -623   -1    0    0    0    0  0.00000000000E+00  0.00000000000E+00  0.12525980253E-10  0.17130000000E+03  0.17130000000E+03 0.  1.
       11    1    1    2    0    0 -0.18759628714E-01  0.22708271761E+00 -0.45182175129E-01  0.23229329409E+00  0.51109989000E-03 0. -1.
     -623    1    1    2    0    0 -0.46182227374E-01  0.44607842608E+00  0.18875004400E+01  0.17131098557E+03  0.17130000000E+03 0.  1.
      622    1    1    2    0    0  0.64941856089E-01 -0.67316114369E+00  0.21576817025E+01  0.37567211368E+01  0.30000000000E+01 0. -1.
</event>
<event>
 5   0  0.7495800E-05  0.9118800E+02  0.7818608E-02  0.1180000E+00
       11   -1    0    0    0    0  0.00000000000E+00  0.00000000000E+00  0.39999999673E+01  0.40000000000E+01  0.51109989000E-03 0.  1.
     -623   -1    0    0    0    0  0.00000000000E+00  0.00000000000E+00  0.12525980253E-10  0.17130000000E+03  0.17130000000E+03 0. -1.
       11    1    1    2    0    0 -0.63441520376E-01  0.10104786200E+00 -0.27047818737E-01  0.12234109140E+00  0.51109989000E-03 0.  1.
     -623    1    1    2    0    0  0.12156406008E+01  0.52110185408E+00  0.19792167737E+01  0.17131653927E+03  0.17130000000E+03 0. -1.
      622    1    1    2    0    0 -0.11521990804E+01 -0.62214971608E+00  0.20478310124E+01  0.38611196363E+01  0.30000000000E+01 0.  1.
</event>
<event>
 5   0  0.7495800E-05  0.9118800E+02  0.7818608E-02  0.1180000E+00
       11   -1    0    0    0    0  0.00000000000E+00  0.00000000000E+00  0.39999999673E+01  0.40000000000E+01  0.51109989000E-03 0. -1.
     -623   -1    0    0    0    0  0.00000000000E+00  0.00000000000E+00  0.12525980253E-10  0.17130000000E+03  0.17130000000E+03 0. -1.
       11    1    1    2    0    0  0.28193328241E-01  0.31934364169E-01 -0.16793844169E-02  0.42635066873E-01  0.51109989000E-03 0. -1.
     -623    1    1    2    0    0  0.26324713283E+00  0.21245668155E+00  0.14591837732E+01  0.17130654878E+03  0.17130000000E+03 0. -1.
      622    1    1    2    0    0 -0.29144046107E+00 -0.24439104572E+00  0.25424955786E+01  0.39508161553E+01  0.30000000000E+01 0. -1.
</event>
<event>
 5   0  0.7495800E-05  0.9118800E+02  0.7818608E-02  0.1180000E+00
       11   -1    0    0    0    0  0.00000000000E+00  0.00000000000E+00  0.39999999673E+01  0.40000000000E+01  0.51109989000E-03 0. -1.
     -623   -1    0    0    0    0  0.00000000000E+00  0.00000000000E+00  0.12525980253E-10  0.17130000000E+03  0.17130000000E+03 0.  1.
       11    1    1    2    0    0  0.11317863746E+00 -0.45549207133E+00  0.26191493018E+00  0.53747755572E+00  0.51109989000E-03 0. -1.
     -623    1    1    2    0    0  0.67282984683E+00  0.62160147999E+00  0.22464435692E+01  0.17131717835E+03  0.17130000000E+03 0.  1.
      622    1    1    2    0    0 -0.78600848429E+00 -0.16610940865E+00  0.14916414680E+01  0.34453440963E+01  0.30000000000E+01 0. -1.
</event>
<event>
 5   0  0.7495800E-05  0.9118800E+02  0.7818608E-02  0.1180000E+00
       11   -1    0    0    0    0  0.00000000000E+00  0.00000000000E+00  0.39999999673E+01  0.40000000000E+01  0.51109989000E-03 0.  1.
     -623   -1    0    0    0    0  0.00000000000E+00  0.00000000000E+00  0.12525980253E-10  0.17130000000E+03  0.17130000000E+03 0.  1.
       11    1    1    2    0    0 -0.47273805446E-02 -0.13318229171E-01 -0.54206817511E-01  0.56021099979E-01  0.51109989000E-03 0.  1.
     -623    1    1    2    0    0 -0.88499638941E+00 -0.21573426949E-01  0.16709468644E+01  0.17131043677E+03  0.17130000000E+03 0.  1.
      622    1    1    2    0    0  0.88972376995E+00  0.34891656121E-01  0.23832599205E+01  0.39335421268E+01  0.30000000000E+01 0.  1.
</event>
<event>
 5   0  0.7495800E-05  0.9118800E+02  0.7818608E-02  0.1180000E+00
       11   -1    0    0    0    0  0.00000000000E+00  0.00000000000E+00  0.39999999673E+01  0.40000000000E+01  0.51109989000E-03 0.  1.
     -623   -1    0    0    0    0  0.00000000000E+00  0.00000000000E+00  0.12525980253E-10  0.17130000000E+03  0.17130000000E+03 0. -1.
       11    1    1    2    0    0  0.17670036500E+00 -0.11212064271E+00  0.37837625179E-01  0.21266406516E+00  0.51109989000E-03 0.  1.
     -623    1    1    2    0    0 -0.46098566155E-01  0.16563362680E+00  0.16682848131E+01  0.17130820977E+03  0.17130000000E+03 0. -1.
      622    1    1    2    0    0 -0.13060179884E+00 -0.53512984089E-01  0.22938775290E+01  0.37791261672E+01  0.30000000000E+01 0.  1.
</event>
<event>
 5   0  0.7495800E-05  0.9118800E+02  0.7818608E-02  0.1180000E+00
       11   -1    0    0    0    0  0.00000000000E+00  0.00000000000E+00  0.39999999673E+01  0.40000000000E+01  0.51109989000E-03 0. -1.
     -623   -1    0    0    0    0  0.00000000000E+00  0.00000000000E+00  0.12525980253E-10  0.17130000000E+03  0.17130000000E+03 0. -1.
       11    1    1    2    0    0  0.54002144262E+00  0.11097287542E+00  0.41954815697E+00  0.69279077275E+00  0.51109989000E-03 0. -1.
     -623    1    1    2    0    0 -0.97452465851E+00 -0.73229714560E+00  0.24776868219E+01  0.17132225451E+03  0.17130000000E+03 0.  1.
      622    1    1    2    0    0  0.43450321589E+00  0.62132427019E+00  0.11027649885E+01  0.32849547201E+01  0.30000000000E+01 0.  0.
</event>
<event>
 5   0  0.7495800E-05  0.9118800E+02  0.7818608E-02  0.1180000E+00
       11   -1    0    0    0    0  0.00000000000E+00  0.00000000000E+00  0.39999999673E+01  0.40000000000E+01  0.51109989000E-03 0. -1.
     -623   -1    0    0    0    0  0.00000000000E+00  0.00000000000E+00  0.12525980253E-10  0.17130000000E+03  0.17130000000E+03 0. -1.
       11    1    1    2    0    0  0.19730127779E+00  0.75209684064E-01  0.15752593599E-01  0.21173732837E+00  0.51109989000E-03 0. -1.
     -623    1    1    2    0    0 -0.26624131385E-01 -0.55445510501E+00  0.17441272904E+01  0.17130977821E+03  0.17130000000E+03 0. -1.
      622    1    1    2    0    0 -0.17067714641E+00  0.47924542095E+00  0.22401200834E+01  0.37784844647E+01  0.30000000000E+01 0. -1.
</event>
<event>
 5   0  0.7495800E-05  0.9118800E+02  0.7818608E-02  0.1180000E+00
       11   -1    0    0    0    0  0.00000000000E+00  0.00000000000E+00  0.39999999673E+01  0.40000000000E+01  0.51109989000E-03 0. -1.
     -623   -1    0    0    0    0  0.00000000000E+00  0.00000000000E+00  0.12525980253E-10  0.17130000000E+03  0.17130000000E+03 0. -1.
       11    1    1    2    0    0  0.41944515110E+00  0.31052908566E+00  0.28970557543E+00  0.59690211046E+00  0.51109989000E-03 0. -1.
     -623    1    1    2    0    0 -0.76367532392E+00 -0.29993882260E+00  0.21755897459E+01  0.17131577964E+03  0.17130000000E+03 0.  1.
      622    1    1    2    0    0  0.34423017283E+00 -0.10590263067E-01  0.15347046460E+01  0.33873182484E+01  0.30000000000E+01 0. -1.
</event>
<event>
 5   0  0.7495800E-05  0.9118800E+02  0.7818608E-02  0.1180000E+00
       11   -1    0    0    0    0  0.00000000000E+00  0.00000000000E+00  0.39999999673E+01  0.40000000000E+01  0.51109989000E-03 0. -1.
     -623   -1    0    0    0    0  0.00000000000E+00  0.00000000000E+00  0.12525980253E-10  0.17130000000E+03  0.17130000000E+03 0.  1.
       11    1    1    2    0    0  0.21020047912E+00 -0.58900481779E+00  0.10224920894E+00  0.63369241652E+00  0.51109989000E-03 0. -1.
     -623    1    1    2    0    0 -0.80667606978E+00  0.36416146626E+00  0.25629552847E+01  0.17132145832E+03  0.17130000000E+03 0.  1.
      622    1    1    2    0    0  0.59647559066E+00  0.22484335153E+00  0.13347954738E+01  0.33448492671E+01  0.30000000000E+01 0. -1.
</event>
<event>
 5   0  0.7495800E-05  0.9118800E+02  0.7818608E-02  0.1180000E+00
       11   -1    0    0    0    0  0.00000000000E+00  0.00000000000E+00  0.39999999673E+01  0.40000000000E+01  0.51109989000E-03 0.  1.
     -623   -1    0    0    0    0  0.00000000000E+00  0.00000000000E+00  0.12525980253E-10  0.17130000000E+03  0.17130000000E+03 0.  1.
       11    1    1    2    0    0  0.33813722591E+00  0.12741162937E+00  0.16203242984E+00  0.39601171243E+00  0.51109989000E-03 0.  1.
     -623    1    1    2    0    0 -0.15258959160E+01 -0.95856269420E+00  0.25403238700E+01  0.17132831186E+03  0.17130000000E+03 0. -1.
      622    1    1    2    0    0  0.11877586901E+01  0.83115106484E+00  0.12976436675E+01  0.35756764236E+01  0.30000000000E+01 0.  1.
</event>
<event>
 5   0  0.7495800E-05  0.9118800E+02  0.7818608E-02  0.1180000E+00
       11   -1    0    0    0    0  0.00000000000E+00  0.00000000000E+00  0.39999999673E+01  0.40000000000E+01  0.51109989000E-03 0.  1.
     -623   -1    0    0    0    0  0.00000000000E+00  0.00000000000E+00  0.12525980253E-10  0.17130000000E+03  0.17130000000E+03 0. -1.
       11    1    1    2    0    0  0.48159356259E+00  0.13643166995E+00 -0.22076604005E+00  0.54706842877E+00  0.51109989000E-03 0.  1.
     -623    1    1    2    0    0 -0.59044480370E-01 -0.83788206183E+00  0.27774888904E+01  0.17132457494E+03  0.17130000000E+03 0. -1.
      622    1    1    2    0    0 -0.42254908222E+00  0.70145039189E+00  0.14432771170E+01  0.34283566348E+01  0.30000000000E+01 0. -1.
</event>
<event>
 5   0  0.7495800E-05  0.9118800E+02  0.7818608E-02  0.1180000E+00
       11   -1    0    0    0    0  0.00000000000E+00  0.00000000000E+00  0.39999999673E+01  0.40000000000E+01  0.51109989000E-03 0. -1.
     -623   -1    0    0    0    0  0.00000000000E+00  0.00000000000E+00  0.12525980253E-10  0.17130000000E+03  0.17130000000E+03 0.  1.
       11    1    1    2    0    0 -0.80738489454E-01 -0.11909600249E+00  0.63825980087E-01  0.15740577641E+00  0.51109989000E-03 0. -1.
     -623    1    1    2    0    0  0.60634982606E+00  0.25085882817E+00  0.16115089390E+01  0.17130883676E+03  0.17130000000E+03 0.  1.
      622    1    1    2    0    0 -0.52561133661E+00 -0.13176282568E+00  0.23246650483E+01  0.38337574658E+01  0.30000000000E+01 0. -1.
</event>
<event>
 5   0  0.7495800E-05  0.9118800E+02  0.7818608E-02  0.1180000E+00
       11   -1    0    0    0    0  0.00000000000E+00  0.00000000000E+00  0.39999999673E+01  0.40000000000E+01  0.51109989000E-03 0. -1.
     -623   -1    0    0    0    0  0.00000000000E+00  0.00000000000E+00  0.12525980253E-10  0.17130000000E+03  0.17130000000E+03 0. -1.
       11    1    1    2    0    0 -0.68012820733E-01 -0.26825080540E+00  0.40388273002E+00  0.48959754821E+00  0.51109989000E-03 0. -1.
     -623    1    1    2    0    0  0.57718628529E+00  0.31723330038E+00  0.18695937100E+01  0.17131146827E+03  0.17130000000E+03 0. -1.
      622    1    1    2    0    0 -0.50917346455E+00 -0.48982494975E-01  0.17265235274E+01  0.34989341795E+01  0.30000000000E+01 0. -1.
</event>
<event>
 5   0  0.7495800E-05  0.9118800E+02  0.7818608E-02  0.1180000E+00
       11   -1    0    0    0    0  0.00000000000E+00  0.00000000000E+00  0.39999999673E+01  0.40000000000E+01  0.51109989000E-03 0.  1.
     -623   -1    0    0    0    0  0.00000000000E+00  0.00000000000E+00  0.12525980253E-10  0.17130000000E+03  0.17130000000E+03 0. -1.
       11    1    1    2    0    0 -0.25882893242E+00  0.32833957373E+00 -0.70048354949E-01  0.42391782835E+00  0.51109989000E-03 0.  1.
     -623    1    1    2    0    0  0.91623793534E+00 -0.70265258276E+00  0.23160109950E+01  0.17131954681E+03  0.17130000000E+03 0. -1.
      622    1    1    2    0    0 -0.65740900292E+00  0.37431300903E+00  0.17540373273E+01  0.35565353606E+01  0.30000000000E+01 0.  0.
</event>
<event>
 5   0  0.7495800E-05  0.9118800E+02  0.7818608E-02  0.1180000E+00
       11   -1    0    0    0    0  0.00000000000E+00  0.00000000000E+00  0.39999999673E+01  0.40000000000E+01  0.51109989000E-03 0. -1.
     -623   -1    0    0    0    0  0.00000000000E+00  0.00000000000E+00  0.12525980253E-10  0.17130000000E+03  0.17130000000E+03 0. -1.
       11    1    1    2    0    0 -0.20415101896E+00 -0.56984258896E+00  0.54108134823E+00  0.81189131130E+00  0.51109989000E-03 0. -1.
     -623    1    1    2    0    0  0.79266737954E+00  0.11357873798E+01  0.29062672280E+01  0.17133025046E+03  0.17130000000E+03 0. -1.
      622    1    1    2    0    0 -0.58851636057E+00 -0.56594479086E+00  0.55265139110E+00  0.31578582256E+01  0.30000000000E+01 0.  0.
</event>
<event>
 5   0  0.7495800E-05  0.9118800E+02  0.7818608E-02  0.1180000E+00
       11   -1    0    0    0    0  0.00000000000E+00  0.00000000000E+00  0.39999999673E+01  0.40000000000E+01  0.51109989000E-03 0. -1.
     -623   -1    0    0    0    0  0.00000000000E+00  0.00000000000E+00  0.12525980253E-10  0.17130000000E+03  0.17130000000E+03 0.  1.
       11    1    1    2    0    0 -0.46754836407E+00 -0.14852761261E-01  0.18494000571E+00  0.50301604765E+00  0.51109989000E-03 0. -1.
     -623    1    1    2    0    0 -0.57253676999E+00  0.44897425027E+00  0.24644130964E+01  0.17131927127E+03  0.17130000000E+03 0.  1.
      622    1    1    2    0    0  0.10400851341E+01 -0.43412148901E+00  0.13506468653E+01  0.34777126833E+01  0.30000000000E+01 0. -1.
</event>
<event>
 5   0  0.7495800E-05  0.9118800E+02  0.7818608E-02  0.1180000E+00
       11   -1    0    0    0    0  0.00000000000E+00  0.00000000000E+00  0.39999999673E+01  0.40000000000E+01  0.51109989000E-03 0. -1.
     -623   -1    0    0    0    0  0.00000000000E+00  0.00000000000E+00  0.12525980253E-10  0.17130000000E+03  0.17130000000E+03 0. -1.
       11    1    1    2    0    0 -0.43526485202E+00  0.19030855392E+00  0.19641843360E+00  0.51405573567E+00  0.51109989000E-03 0. -1.
     -623    1    1    2    0    0  0.71183772934E+00  0.81894183281E-02  0.20898340207E+01  0.17131422646E+03  0.17130000000E+03 0. -1.
      622    1    1    2    0    0 -0.27657287731E+00 -0.19849797225E+00  0.17137475130E+01  0.34717178082E+01  0.30000000000E+01 0. -1.
</event>
<event>
 5   0  0.7495800E-05  0.9118800E+02  0.7818608E-02  0.1180000E+00
       11   -1    0    0    0    0  0.00000000000E+00  0.00000000000E+00  0.39999999673E+01  0.40000000000E+01  0.51109989000E-03 0. -1.
     -623   -1    0    0    0    0  0.00000000000E+00  0.00000000000E+00  0.12525980253E-10  0.17130000000E+03  0.17130000000E+03 0. -1.
       11    1    1    2    0    0 -0.59789203263E-01 -0.97199931321E-02  0.40452368421E-01  0.72841488365E-01  0.51109989000E-03 0. -1.
     -623    1    1    2    0    0  0.58342676401E+00  0.27012286201E+00  0.15061524676E+01  0.17130782775E+03  0.17130000000E+03 0. -1.
      622    1    1    2    0    0 -0.52363756074E+00 -0.26040286888E+00  0.24533951313E+01  0.39193307617E+01  0.30000000000E+01 0. -1.
</event>
<event>
 5   0  0.7495800E-05  0.9118800E+02  0.7818608E-02  0.1180000E+00
       11   -1    0    0    0    0  0.00000000000E+00  0.00000000000E+00  0.39999999673E+01  0.40000000000E+01  0.51109989000E-03 0.  1.
     -623   -1    0    0    0    0  0.00000000000E+00  0.00000000000E+00  0.12525980253E-10  0.17130000000E+03  0.17130000000E+03 0.  1.
       11    1    1    2    0    0 -0.10524212811E+00  0.34197571971E+00  0.44775715329E+00  0.57315794328E+00  0.51109989000E-03 0.  1.
     -623    1    1    2    0    0  0.32532453926E+00 -0.11216121474E+01  0.21495413246E+01  0.17131746665E+03  0.17130000000E+03 0.  1.
      622    1    1    2    0    0 -0.22008241116E+00  0.77963642774E+00  0.14027014895E+01  0.34093754114E+01  0.30000000000E+01 0.  1.
</event>
<event>
 5   0  0.7495800E-05  0.9118800E+02  0.7818608E-02  0.1180000E+00
       11   -1    0    0    0    0  0.00000000000E+00  0.00000000000E+00  0.39999999673E+01  0.40000000000E+01  0.51109989000E-03 0. -1.
     -623   -1    0    0    0    0  0.00000000000E+00  0.00000000000E+00  0.12525980253E-10  0.17130000000E+03  0.17130000000E+03 0. -1.
       11    1    1    2    0    0 -0.95333489081E-01 -0.25202686987E+00  0.11418043452E+00  0.29264902208E+00  0.51109989000E-03 0. -1.
     -623    1    1    2    0    0 -0.72447655578E-01 -0.63820208535E+00  0.19276068935E+01  0.17131204925E+03  0.17130000000E+03 0. -1.
      622    1    1    2    0    0  0.16778114466E+00  0.89022895522E+00  0.19582126393E+01  0.36953017260E+01  0.30000000000E+01 0. -1.
</event>
<event>
 5   0  0.7495800E-05  0.9118800E+02  0.7818608E-02  0.1180000E+00
       11   -1    0    0    0    0  0.00000000000E+00  0.00000000000E+00  0.39999999673E+01  0.40000000000E+01  0.51109989000E-03 0. -1.
     -623   -1    0    0    0    0  0.00000000000E+00  0.00000000000E+00  0.12525980253E-10  0.17130000000E+03  0.17130000000E+03 0. -1.
       11    1    1    2    0    0  0.17722352917E+00 -0.55055870331E+00  0.16192353472E+00  0.60061847907E+00  0.51109989000E-03 0. -1.
     -623    1    1    2    0    0  0.24889594802E+00  0.63815481958E+00  0.23384009653E+01  0.17131732927E+03  0.17130000000E+03 0. -1.
      622    1    1    2    0    0 -0.42611947719E+00 -0.87596116263E-01  0.14996754673E+01  0.33820522462E+01  0.30000000000E+01 0. -1.
</event>
<event>
 5   0  0.7495800E-05  0.9118800E+02  0.7818608E-02  0.1180000E+00
       11   -1    0    0    0    0  0.00000000000E+00  0.00000000000E+00  0.39999999673E+01  0.40000000000E+01  0.51109989000E-03 0. -1.
     -623   -1    0    0    0    0  0.00000000000E+00  0.00000000000E+00  0.12525980253E-10  0.17130000000E+03  0.17130000000E+03 0. -1.
       11    1    1    2    0    0 -0.12560152881E+00  0.14802250771E+00 -0.88832115735E-01  0.21348960827E+00  0.51109989000E-03 0. -1.
     -623    1    1    2    0    0 -0.91192558085E-01 -0.34576356936E+00  0.18137232972E+01  0.17130997478E+03  0.17130000000E+03 0. -1.
      622    1    1    2    0    0  0.21679408690E+00  0.19774106164E+00  0.22751087859E+01  0.37765356071E+01  0.30000000000E+01 0. -1.
</event>
<event>
 5   0  0.7495800E-05  0.9118800E+02  0.7818608E-02  0.1180000E+00
       11   -1    0    0    0    0  0.00000000000E+00  0.00000000000E+00  0.39999999673E+01  0.40000000000E+01  0.51109989000E-03 0.  1.
     -623   -1    0    0    0    0  0.00000000000E+00  0.00000000000E+00  0.12525980253E-10  0.17130000000E+03  0.17130000000E+03 0. -1.
       11    1    1    2    0    0  0.79282097853E-01  0.16524248952E-01 -0.62351607653E-01  0.10220903112E+00  0.51109989000E-03 0.  1.
     -623    1    1    2    0    0 -0.10389323665E+00 -0.60845152300E+00  0.16601665106E+01  0.17130915667E+03  0.17130000000E+03 0. -1.
      622    1    1    2    0    0  0.24611138799E-01  0.59192727405E+00  0.24021850644E+01  0.38886342962E+01  0.30000000000E+01 0.  1.
</event>
<event>
 5   0  0.7495800E-05  0.9118800E+02  0.7818608E-02  0.1180000E+00
       11   -1    0    0    0    0  0.00000000000E+00  0.00000000000E+00  0.39999999673E+01  0.40000000000E+01  0.51109989000E-03 0.  1.
     -623   -1    0    0    0    0  0.00000000000E+00  0.00000000000E+00  0.12525980253E-10  0.17130000000E+03  0.17130000000E+03 0.  1.
       11    1    1    2    0    0  0.53968660044E-01 -0.27492155624E+00  0.27128735451E+00  0.38998918997E+00  0.51109989000E-03 0.  1.
     -623    1    1    2    0    0  0.18422020448E+00  0.77146403475E-01  0.17614331249E+01  0.17130917236E+03  0.17130000000E+03 0.  1.
      622    1    1    2    0    0 -0.23818886453E+00  0.19777515277E+00  0.19672794879E+01  0.36008384482E+01  0.30000000000E+01 0.  1.
</event>
<event>
 5   0  0.7495800E-05  0.9118800E+02  0.7818608E-02  0.1180000E+00
       11   -1    0    0    0    0  0.00000000000E+00  0.00000000000E+00  0.39999999673E+01  0.40000000000E+01  0.51109989000E-03 0.  1.
     -623   -1    0    0    0    0  0.00000000000E+00  0.00000000000E+00  0.12525980253E-10  0.17130000000E+03  0.17130000000E+03 0.  1.
       11    1    1    2    0    0 -0.29147490281E+00 -0.19554109292E-01 -0.25792562080E+00  0.38969971677E+00  0.51109989000E-03 0.  1.
     -623    1    1    2    0    0 -0.15592874639E+00  0.10646032822E+01  0.26549283338E+01  0.17132395144E+03  0.17130000000E+03 0.  1.
      622    1    1    2    0    0  0.44740364920E+00 -0.10450491729E+01  0.16029972544E+01  0.35863488393E+01  0.30000000000E+01 0.  0.
</event>
<event>
 5   0  0.7495800E-05  0.9118800E+02  0.7818608E-02  0.1180000E+00
       11   -1    0    0    0    0  0.00000000000E+00  0.00000000000E+00  0.39999999673E+01  0.40000000000E+01  0.51109989000E-03 0.  1.
     -623   -1    0    0    0    0  0.00000000000E+00  0.00000000000E+00  0.12525980253E-10  0.17130000000E+03  0.17130000000E+03 0. -1.
       11    1    1    2    0    0 -0.64790432418E-01 -0.77958619327E-01 -0.46293689489E-01  0.11143928108E+00  0.51109989000E-03 0.  1.
     -623    1    1    2    0    0  0.90784694622E+00  0.20955622709E+00  0.17431893366E+01  0.17131140303E+03  0.17130000000E+03 0. -1.
      622    1    1    2    0    0 -0.84305651380E+00 -0.13159760776E+00  0.23031043202E+01  0.38771576864E+01  0.30000000000E+01 0.  1.
</event>
<event>
 5   0  0.7495800E-05  0.9118800E+02  0.7818608E-02  0.1180000E+00
       11   -1    0    0    0    0  0.00000000000E+00  0.00000000000E+00  0.39999999673E+01  0.40000000000E+01  0.51109989000E-03 0.  1.
     -623   -1    0    0    0    0  0.00000000000E+00  0.00000000000E+00  0.12525980253E-10  0.17130000000E+03  0.17130000000E+03 0. -1.
       11    1    1    2    0    0 -0.11550194724E-01 -0.70267673621E-01  0.87739575379E-02  0.71750933840E-01  0.51109989000E-03 0.  1.
     -623    1    1    2    0    0  0.34552599804E+00  0.52541299713E+00  0.15316233449E+01  0.17130800132E+03  0.17130000000E+03 0. -1.
      622    1    1    2    0    0 -0.33397580331E+00 -0.45514532351E+00  0.24596026649E+01  0.39202477437E+01  0.30000000000E+01 0.  1.
</event>
<event>
 5   0  0.7495800E-05  0.9118800E+02  0.7818608E-02  0.1180000E+00
       11   -1    0    0    0    0  0.00000000000E+00  0.00000000000E+00  0.39999999673E+01  0.40000000000E+01  0.51109989000E-03 0.  1.
     -623   -1    0    0    0    0  0.00000000000E+00  0.00000000000E+00  0.12525980253E-10  0.17130000000E+03  0.17130000000E+03 0. -1.
       11    1    1    2    0    0  0.40485631864E+00  0.27616598002E+00  0.29000128576E+00  0.56945350489E+00  0.51109989000E-03 0.  1.
     -623    1    1    2    0    0 -0.24817096601E+00 -0.30258926779E+00  0.20809541577E+01  0.17131308625E+03  0.17130000000E+03 0. -1.
      622    1    1    2    0    0 -0.15668535264E+00  0.26423287766E-01  0.16290445239E+01  0.34174602486E+01  0.30000000000E+01 0.  1.
</event>
<event>
 5   0  0.7495800E-05  0.9118800E+02  0.7818608E-02  0.1180000E+00
       11   -1    0    0    0    0  0.00000000000E+00  0.00000000000E+00  0.39999999673E+01  0.40000000000E+01  0.51109989000E-03 0. -1.
     -623   -1    0    0    0    0  0.00000000000E+00  0.00000000000E+00  0.12525980253E-10  0.17130000000E+03  0.17130000000E+03 0.  1.
       11    1    1    2    0    0  0.16960571294E+00 -0.33862233859E-01  0.59886480243E+00  0.62333944329E+00  0.51109989000E-03 0. -1.
     -623    1    1    2    0    0 -0.81871770767E+00  0.29279974902E+00  0.20536873145E+01  0.17131451679E+03  0.17130000000E+03 0.  1.
      622    1    1    2    0    0  0.64911199473E+00 -0.25893751516E+00  0.13474478505E+01  0.33621437697E+01  0.30000000000E+01 0. -1.
</event>
<event>
 5   0  0.7495800E-05  0.9118800E+02  0.7818608E-02  0.1180000E+00
       11   -1    0    0    0    0  0.00000000000E+00  0.00000000000E+00  0.39999999673E+01  0.40000000000E+01  0.51109989000E-03 0.  1.
     -623   -1    0    0    0    0  0.00000000000E+00  0.00000000000E+00  0.12525980253E-10  0.17130000000E+03  0.17130000000E+03 0.  1.
       11    1    1    2    0    0  0.14618825039E+00  0.72657290614E-01  0.31409815932E+00  0.35398870228E+00  0.51109989000E-03 0.  1.
     -623    1    1    2    0    0  0.16146220321E+00  0.11561529766E+00  0.16600999020E+01  0.17130815908E+03  0.17130000000E+03 0.  1.
      622    1    1    2    0    0 -0.30765045360E+00 -0.18827258827E+00  0.20258019060E+01  0.36378522141E+01  0.30000000000E+01 0.  1.
</event>
<event>
 5   0  0.7495800E-05  0.9118800E+02  0.7818608E-02  0.1180000E+00
       11   -1    0    0    0    0  0.00000000000E+00  0.00000000000E+00  0.39999999673E+01  0.40000000000E+01  0.51109989000E-03 0.  1.
     -623   -1    0    0    0    0  0.00000000000E+00  0.00000000000E+00  0.12525980253E-10  0.17130000000E+03  0.17130000000E+03 0.  1.
       11    1    1    2    0    0  0.14722053239E+00  0.56134399678E-01  0.40413590907E-01  0.16266061458E+00  0.51109989000E-03 0.  1.
     -623    1    1    2    0    0 -0.52012922187E+00 -0.39474091694E-01  0.16097430917E+01  0.17130835755E+03  0.17130000000E+03 0.  1.
      622    1    1    2    0    0  0.37290868947E+00 -0.16660307984E-01  0.23498432847E+01  0.38289818385E+01  0.30000000000E+01 0.  1.
</event>
<event>
 5   0  0.7495800E-05  0.9118800E+02  0.7818608E-02  0.1180000E+00
       11   -1    0    0    0    0  0.00000000000E+00  0.00000000000E+00  0.39999999673E+01  0.40000000000E+01  0.51109989000E-03 0.  1.
     -623   -1    0    0    0    0  0.00000000000E+00  0.00000000000E+00  0.12525980253E-10  0.17130000000E+03  0.17130000000E+03 0.  1.
       11    1    1    2    0    0  0.29855431287E-01 -0.16073485170E+00  0.34367549637E+00  0.38057870061E+00  0.51109989000E-03 0.  1.
     -623    1    1    2    0    0  0.49783892734E+00  0.32585413607E+00  0.17265271808E+01  0.17130973388E+03  0.17130000000E+03 0.  1.
      622    1    1    2    0    0 -0.52769435863E+00 -0.16511928436E+00  0.19297972902E+01  0.36096874235E+01  0.30000000000E+01 0.  1.
</event>
<event>
 5   0  0.7495800E-05  0.9118800E+02  0.7818608E-02  0.1180000E+00
       11   -1    0    0    0    0  0.00000000000E+00  0.00000000000E+00  0.39999999673E+01  0.40000000000E+01  0.51109989000E-03 0.  1.
     -623   -1    0    0    0    0  0.00000000000E+00  0.00000000000E+00  0.12525980253E-10  0.17130000000E+03  0.17130000000E+03 0. -1.
       11    1    1    2    0    0 -0.91564813410E-01  0.20450909242E-01 -0.54520547402E-01  0.10851316074E+00  0.51109989000E-03 0.  1.
     -623    1    1    2    0    0  0.44896143130E+00  0.74054508101E+00  0.17412914932E+01  0.17131103896E+03  0.17130000000E+03 0. -1.
      622    1    1    2    0    0 -0.35739661789E+00 -0.76099599025E+00  0.23132290216E+01  0.38804478796E+01  0.30000000000E+01 0.  1.
</event>
<event>
 5   0  0.7495800E-05  0.9118800E+02  0.7818608E-02  0.1180000E+00
       11   -1    0    0    0    0  0.00000000000E+00  0.00000000000E+00  0.39999999673E+01  0.40000000000E+01  0.51109989000E-03 0. -1.
     -623   -1    0    0    0    0  0.00000000000E+00  0.00000000000E+00  0.12525980253E-10  0.17130000000E+03  0.17130000000E+03 0.  1.
       11    1    1    2    0    0  0.35876151055E+00 -0.10787935562E+00  0.11255371172E+00  0.39117307687E+00  0.51109989000E-03 0. -1.
     -623    1    1    2    0    0 -0.21739129848E-01  0.37424604350E+00  0.19493503121E+01  0.17131150136E+03  0.17130000000E+03 0.  1.
      622    1    1    2    0    0 -0.33702238070E+00 -0.26636668788E+00  0.19380959435E+01  0.35973255599E+01  0.30000000000E+01 0. -1.
</event>
<event>
 5   0  0.7495800E-05  0.9118800E+02  0.7818608E-02  0.1180000E+00
       11   -1    0    0    0    0  0.00000000000E+00  0.00000000000E+00  0.39999999673E+01  0.40000000000E+01  0.51109989000E-03 0. -1.
     -623   -1    0    0    0    0  0.00000000000E+00  0.00000000000E+00  0.12525980253E-10  0.17130000000E+03  0.17130000000E+03 0.  1.
       11    1    1    2    0    0  0.13845415807E+00 -0.36701573639E+00  0.26452187267E+00  0.47311963285E+00  0.51109989000E-03 0. -1.
     -623    1    1    2    0    0 -0.23322606147E+00  0.70799666837E+00  0.19396789857E+01  0.17131260318E+03  0.17130000000E+03 0.  1.
      622    1    1    2    0    0  0.94771903393E-01 -0.34098093199E+00  0.17957991090E+01  0.35142771873E+01  0.30000000000E+01 0. -1.
</event>
<event>
 5   0  0.7495800E-05  0.9118800E+02  0.7818608E-02  0.1180000E+00
       11   -1    0    0    0    0  0.00000000000E+00  0.00000000000E+00  0.39999999673E+01  0.40000000000E+01  0.51109989000E-03 0.  1.
     -623   -1    0    0    0    0  0.00000000000E+00  0.00000000000E+00  0.12525980253E-10  0.17130000000E+03  0.17130000000E+03 0.  1.
       11    1    1    2    0    0  0.31806119268E+00  0.20921403439E+00  0.12419982115E+00  0.40044886224E+00  0.51109989000E-03 0.  1.
     -623    1    1    2    0    0 -0.89553584004E+00 -0.70649568715E+00  0.20705732058E+01  0.17131631094E+03  0.17130000000E+03 0.  1.
      622    1    1    2    0    0  0.57747464736E+00  0.49728165275E+00  0.18052269404E+01  0.35832401980E+01  0.30000000000E+01 0.  1.
</event>
<event>
 5   0  0.7495800E-05  0.9118800E+02  0.7818608E-02  0.1180000E+00
       11   -1    0    0    0    0  0.00000000000E+00  0.00000000000E+00  0.39999999673E+01  0.40000000000E+01  0.51109989000E-03 0.  1.
     -623   -1    0    0    0    0  0.00000000000E+00  0.00000000000E+00  0.12525980253E-10  0.17130000000E+03  0.17130000000E+03 0. -1.
       11    1    1    2    0    0  0.38342003218E+00  0.45331154552E+00  0.30641340826E+00  0.66812552440E+00  0.51109989000E-03 0.  1.
     -623    1    1    2    0    0  0.13998045613E-01 -0.10367363502E+00  0.23857007484E+01  0.17131664400E+03  0.17130000000E+03 0. -1.
      622    1    1    2    0    0 -0.39741807779E+00 -0.34963791050E+00  0.13078858107E+01  0.33152304732E+01  0.30000000000E+01 0.  1.
</event>
<event>
 5   0  0.7495800E-05  0.9118800E+02  0.7818608E-02  0.1180000E+00
       11   -1    0    0    0    0  0.00000000000E+00  0.00000000000E+00  0.39999999673E+01  0.40000000000E+01  0.51109989000E-03 0.  1.
     -623   -1    0    0    0    0  0.00000000000E+00  0.00000000000E+00  0.12525980253E-10  0.17130000000E+03  0.17130000000E+03 0.  1.
       11    1    1    2    0    0 -0.27783523898E+00 -0.42937044901E+00 -0.18624902804E+00  0.54427967460E+00  0.51109989000E-03 0.  1.
     -623    1    1    2    0    0 -0.39548872161E-01  0.24584553064E+00  0.25505604421E+01  0.17131916811E+03  0.17130000000E+03 0.  1.
      622    1    1    2    0    0  0.31738411114E+00  0.18352491837E+00  0.16356885533E+01  0.34365522131E+01  0.30000000000E+01 0.  1.
</event>
<event>
 5   0  0.7495800E-05  0.9118800E+02  0.7818608E-02  0.1180000E+00
       11   -1    0    0    0    0  0.00000000000E+00  0.00000000000E+00  0.39999999673E+01  0.40000000000E+01  0.51109989000E-03 0.  1.
     -623   -1    0    0    0    0  0.00000000000E+00  0.00000000000E+00  0.12525980253E-10  0.17130000000E+03  0.17130000000E+03 0. -1.
       11    1    1    2    0    0  0.35169432261E-01  0.15780857849E+00 -0.36511766521E-01  0.16575224501E+00  0.51109989000E-03 0.  1.
     -623    1    1    2    0    0 -0.10511197372E+00 -0.50070292315E+00  0.16893142206E+01  0.17130909355E+03  0.17130000000E+03 0. -1.
      622    1    1    2    0    0  0.69942541458E-01  0.34289434466E+00  0.23471975133E+01  0.38251542004E+01  0.30000000000E+01 0.  1.
</event>
<event>
 5   0  0.7495800E-05  0.9118800E+02  0.7818608E-02  0.1180000E+00
       11   -1    0    0    0    0  0.00000000000E+00  0.00000000000E+00  0.39999999673E+01  0.40000000000E+01  0.51109989000E-03 0.  1.
     -623   -1    0    0    0    0  0.00000000000E+00  0.00000000000E+00  0.12525980253E-10  0.17130000000E+03  0.17130000000E+03 0. -1.
       11    1    1    2    0    0  0.13150948662E+00  0.25628022031E+00  0.10800358494E+00  0.30763506298E+00  0.51109989000E-03 0.  1.
     -623    1    1    2    0    0 -0.59262532165E+00 -0.86102303195E-01  0.18151384393E+01  0.17131066326E+03  0.17130000000E+03 0. -1.
      622    1    1    2    0    0  0.46111583503E+00 -0.17017791711E+00  0.20768579431E+01  0.36817016789E+01  0.30000000000E+01 0.  1.
</event>
<event>
 5   0  0.7495800E-05  0.9118800E+02  0.7818608E-02  0.1180000E+00
       11   -1    0    0    0    0  0.00000000000E+00  0.00000000000E+00  0.39999999673E+01  0.40000000000E+01  0.51109989000E-03 0. -1.
     -623   -1    0    0    0    0  0.00000000000E+00  0.00000000000E+00  0.12525980253E-10  0.17130000000E+03  0.17130000000E+03 0.  1.
       11    1    1    2    0    0  0.70030771485E-01 -0.22848736862E-02 -0.50793707840E-01  0.86543581963E-01  0.51109989000E-03 0. -1.
     -623    1    1    2    0    0 -0.55624969935E+00  0.37214627939E+00  0.16277261149E+01  0.17130904062E+03  0.17130000000E+03 0.  1.
      622    1    1    2    0    0  0.48621892786E+00 -0.36986140570E+00  0.24230675603E+01  0.39044157959E+01  0.30000000000E+01 0. -1.
</event>
<event>
 5   0  0.7495800E-05  0.9118800E+02  0.7818608E-02  0.1180000E+00
       11   -1    0    0    0    0  0.00000000000E+00  0.00000000000E+00  0.39999999673E+01  0.40000000000E+01  0.51109989000E-03 0.  1.
     -623   -1    0    0    0    0  0.00000000000E+00  0.00000000000E+00  0.12525980253E-10  0.17130000000E+03  0.17130000000E+03 0.  1.
       11    1    1    2    0    0  0.50141329785E-01  0.44474171961E-01 -0.20558525179E+00  0.21623520042E+00  0.51109989000E-03 0.  1.
     -623    1    1    2    0    0 -0.34582163687E+00  0.66014335662E+00  0.20543832374E+01  0.17131393952E+03  0.17130000000E+03 0.  1.
      622    1    1    2    0    0  0.29568030709E+00 -0.70461752859E+00  0.21512019818E+01  0.37698252840E+01  0.30000000000E+01 0.  1.
</event>
<event>
 5   0  0.7495800E-05  0.9118800E+02  0.7818608E-02  0.1180000E+00
       11   -1    0    0    0    0  0.00000000000E+00  0.00000000000E+00  0.39999999673E+01  0.40000000000E+01  0.51109989000E-03 0. -1.
     -623   -1    0    0    0    0  0.00000000000E+00  0.00000000000E+00  0.12525980253E-10  0.17130000000E+03  0.17130000000E+03 0. -1.
       11    1    1    2    0    0 -0.27806507030E+00  0.12519969139E+00 -0.32418969106E-01  0.30666984988E+00  0.51109989000E-03 0. -1.
     -623    1    1    2    0    0  0.58908369344E-01 -0.47333583341E+00  0.19382136414E+01  0.17131162888E+03  0.17130000000E+03 0. -1.
      622    1    1    2    0    0  0.21915670096E+00  0.34813614202E+00  0.20942052951E+01  0.36817012713E+01  0.30000000000E+01 0. -1.
</event>
<event>
 5   0  0.7495800E-05  0.9118800E+02  0.7818608E-02  0.1180000E+00
       11   -1    0    0    0    0  0.00000000000E+00  0.00000000000E+00  0.39999999673E+01  0.40000000000E+01  0.51109989000E-03 0.  1.
     -623   -1    0    0    0    0  0.00000000000E+00  0.00000000000E+00  0.12525980253E-10  0.17130000000E+03  0.17130000000E+03 0.  1.
       11    1    1    2    0    0 -0.53133396733E-01 -0.24563433615E+00 -0.39438307990E-01  0.25439148238E+00  0.51109989000E-03 0.  1.
     -623    1    1    2    0    0  0.32077630517E+00  0.22280331660E+00  0.18301482570E+01  0.17131022147E+03  0.17130000000E+03 0.  1.
      622    1    1    2    0    0 -0.26764290844E+00  0.22831019557E-01  0.22092900184E+01  0.37353870438E+01  0.30000000000E+01 0.  1.
</event>
<event>
 5   0  0.7495800E-05  0.9118800E+02  0.7818608E-02  0.1180000E+00
       11   -1    0    0    0    0  0.00000000000E+00  0.00000000000E+00  0.39999999673E+01  0.40000000000E+01  0.51109989000E-03 0. -1.
     -623   -1    0    0    0    0  0.00000000000E+00  0.00000000000E+00  0.12525980253E-10  0.17130000000E+03  0.17130000000E+03 0. -1.
       11    1    1    2    0    0 -0.19261568892E+00 -0.54936385438E+00 -0.18037716946E+00  0.60945683407E+00  0.51109989000E-03 0. -1.
     -623    1    1    2    0    0  0.12928666246E+00  0.81337121095E+00  0.26745221800E+01  0.17132285708E+03  0.17130000000E+03 0. -1.
      622    1    1    2    0    0  0.63329026462E-01 -0.26400735658E+00  0.15058549568E+01  0.33676860900E+01  0.30000000000E+01 0. -1.
</event>
<event>
 5   0  0.7495800E-05  0.9118800E+02  0.7818608E-02  0.1180000E+00
       11   -1    0    0    0    0  0.00000000000E+00  0.00000000000E+00  0.39999999673E+01  0.40000000000E+01  0.51109989000E-03 0. -1.
     -623   -1    0    0    0    0  0.00000000000E+00  0.00000000000E+00  0.12525980253E-10  0.17130000000E+03  0.17130000000E+03 0.  1.
       11    1    1    2    0    0  0.11280508756E+00  0.27135021935E+00  0.39773926652E+00  0.49452271401E+00  0.51109989000E-03 0. -1.
     -623    1    1    2    0    0  0.34800304341E+00  0.93140284825E-02  0.18930030062E+01  0.17131081301E+03  0.17130000000E+03 0.  1.
      622    1    1    2    0    0 -0.46080813098E+00 -0.28066424783E+00  0.17092576946E+01  0.34946642786E+01  0.30000000000E+01 0.  0.
</event>
<event>
 5   0  0.7495800E-05  0.9118800E+02  0.7818608E-02  0.1180000E+00
       11   -1    0    0    0    0  0.00000000000E+00  0.00000000000E+00  0.39999999673E+01  0.40000000000E+01  0.51109989000E-03 0.  1.
     -623   -1    0    0    0    0  0.00000000000E+00  0.00000000000E+00  0.12525980253E-10  0.17130000000E+03  0.17130000000E+03 0. -1.
       11    1    1    2    0    0 -0.34979963361E-01 -0.18773165044E+00 -0.14181538122E-01  0.19148928863E+00  0.51109989000E-03 0.  1.
     -623    1    1    2    0    0  0.42454655235E+00  0.48918439479E+00  0.17369426295E+01  0.17131003039E+03  0.17130000000E+03 0. -1.
      622    1    1    2    0    0 -0.38956658899E+00 -0.30145274435E+00  0.22772388759E+01  0.37984803254E+01  0.30000000000E+01 0.  1.
</event>
<event>
 5   0  0.7495800E-05  0.9118800E+02  0.7818608E-02  0.1180000E+00
       11   -1    0    0    0    0  0.00000000000E+00  0.00000000000E+00  0.39999999673E+01  0.40000000000E+01  0.51109989000E-03 0.  1.
     -623   -1    0    0    0    0  0.00000000000E+00  0.00000000000E+00  0.12525980253E-10  0.17130000000E+03  0.17130000000E+03 0. -1.
       11    1    1    2    0    0 -0.37719315303E-01 -0.10163434542E+00 -0.90014818594E-01  0.14090853666E+00  0.51109989000E-03 0.  1.
     -623    1    1    2    0    0  0.14954253631E+00 -0.73027054097E-01  0.16847962576E+01  0.17130836592E+03  0.17130000000E+03 0. -1.
      622    1    1    2    0    0 -0.11182322101E+00  0.17466139952E+00  0.24052185283E+01  0.38507255428E+01  0.30000000000E+01 0.  1.
</event>
<event>
 5   0  0.7495800E-05  0.9118800E+02  0.7818608E-02  0.1180000E+00
       11   -1    0    0    0    0  0.00000000000E+00  0.00000000000E+00  0.39999999673E+01  0.40000000000E+01  0.51109989000E-03 0. -1.
     -623   -1    0    0    0    0  0.00000000000E+00  0.00000000000E+00  0.12525980253E-10  0.17130000000E+03  0.17130000000E+03 0.  1.
       11    1    1    2    0    0  0.17981983505E+00  0.12753523458E+00 -0.11126862977E+00  0.24694407936E+00  0.51109989000E-03 0. -1.
     -623    1    1    2    0    0  0.92590396218E+00 -0.21210056232E+00  0.21794049035E+01  0.17131649684E+03  0.17130000000E+03 0.  1.
      622    1    1    2    0    0 -0.11057237972E+01  0.84565327736E-01  0.19318636937E+01  0.37365590777E+01  0.30000000000E+01 0. -1.
</event>
<event>
 5   0  0.7495800E-05  0.9118800E+02  0.7818608E-02  0.1180000E+00
       11   -1    0    0    0    0  0.00000000000E+00  0.00000000000E+00  0.39999999673E+01  0.40000000000E+01  0.51109989000E-03 0.  1.
     -623   -1    0    0    0    0  0.00000000000E+00  0.00000000000E+00  0.12525980253E-10  0.17130000000E+03  0.17130000000E+03 0.  1.
       11    1    1    2    0    0  0.43658070557E-01  0.72520188115E-01  0.26314781413E-01  0.88644987176E-01  0.51109989000E-03 0.  1.
     -623    1    1    2    0    0 -0.34098084427E+00  0.13468814092E+00  0.15012610470E+01  0.17130697065E+03  0.17130000000E+03 0.  1.
      622    1    1    2    0    0  0.29732277372E+00 -0.20720832903E+00  0.24724241389E+01  0.39043843620E+01  0.30000000000E+01 0.  1.
</event>
<event>
 5   0  0.7495800E-05  0.9118800E+02  0.7818608E-02  0.1180000E+00
       11   -1    0    0    0    0  0.00000000000E+00  0.00000000000E+00  0.39999999673E+01  0.40000000000E+01  0.51109989000E-03 0. -1.
     -623   -1    0    0    0    0  0.00000000000E+00  0.00000000000E+00  0.12525980253E-10  0.17130000000E+03  0.17130000000E+03 0. -1.
       11    1    1    2    0    0  0.23546986811E+00  0.15975725924E+00  0.63586584718E-01  0.29156809778E+00  0.51109989000E-03 0. -1.
     -623    1    1    2    0    0 -0.11882434791E+00  0.71885980675E+00  0.19687604010E+01  0.17131286261E+03  0.17130000000E+03 0. -1.
      622    1    1    2    0    0 -0.11664552020E+00 -0.87861706599E+00  0.19676529816E+01  0.36955692907E+01  0.30000000000E+01 0. -1.
</event>
<event>
 5   0  0.7495800E-05  0.9118800E+02  0.7818608E-02  0.1180000E+00
       11   -1    0    0    0    0  0.00000000000E+00  0.00000000000E+00  0.39999999673E+01  0.40000000000E+01  0.51109989000E-03 0.  1.
     -623   -1    0    0    0    0  0.00000000000E+00  0.00000000000E+00  0.12525980253E-10  0.17130000000E+03  0.17130000000E+03 0. -1.
       11    1    1    2    0    0 -0.22088525103E+00 -0.25952550007E-01  0.34444784500E+00  0.41001025368E+00  0.51109989000E-03 0.  1.
     -623    1    1    2    0    0  0.64255475600E+00  0.27325420205E-01  0.17483032623E+01  0.17131012868E+03  0.17130000000E+03 0. -1.
      622    1    1    2    0    0 -0.42166950498E+00 -0.13728701978E-02  0.19072488600E+01  0.35798610686E+01  0.30000000000E+01 0.  1.
</event>
<event>
 5   0  0.7495800E-05  0.9118800E+02  0.7818608E-02  0.1180000E+00
       11   -1    0    0    0    0  0.00000000000E+00  0.00000000000E+00  0.39999999673E+01  0.40000000000E+01  0.51109989000E-03 0.  1.
     -623   -1    0    0    0    0  0.00000000000E+00  0.00000000000E+00  0.12525980253E-10  0.17130000000E+03  0.17130000000E+03 0.  1.
       11    1    1    2    0    0  0.13248916502E+00  0.52371063063E+00  0.28525405879E-01  0.54096225699E+00  0.51109989000E-03 0.  1.
     -623    1    1    2    0    0 -0.94673523174E+00 -0.12131926626E+01  0.26935702307E+01  0.17132808720E+03  0.17130000000E+03 0.  1.
      622    1    1    2    0    0  0.81424606672E+00  0.68948203202E+00  0.12779043308E+01  0.34309505401E+01  0.30000000000E+01 0.  1.
</event>
<event>
 5   0  0.7495800E-05  0.9118800E+02  0.7818608E-02  0.1180000E+00
       11   -1    0    0    0    0  0.00000000000E+00  0.00000000000E+00  0.39999999673E+01  0.40000000000E+01  0.51109989000E-03 0.  1.
     -623   -1    0    0    0    0  0.00000000000E+00  0.00000000000E+00  0.12525980253E-10  0.17130000000E+03  0.17130000000E+03 0. -1.
       11    1    1    2    0    0 -0.10700521439E+00  0.51369883633E-01  0.78946909203E-01  0.14255474929E+00  0.51109989000E-03 0.  1.
     -623    1    1    2    0    0  0.24256412672E+00 -0.41342354243E+00  0.15394692511E+01  0.17130758805E+03  0.17130000000E+03 0. -1.
      622    1    1    2    0    0 -0.13555891234E+00  0.36205365879E+00  0.23815838071E+01  0.38498572052E+01  0.30000000000E+01 0.  1.
</event>
<event>
 5   0  0.7495800E-05  0.9118800E+02  0.7818608E-02  0.1180000E+00
       11   -1    0    0    0    0  0.00000000000E+00  0.00000000000E+00  0.39999999673E+01  0.40000000000E+01  0.51109989000E-03 0.  1.
     -623   -1    0    0    0    0  0.00000000000E+00  0.00000000000E+00  0.12525980253E-10  0.17130000000E+03  0.17130000000E+03 0. -1.
       11    1    1    2    0    0 -0.67593663376E-01 -0.23864510633E+00 -0.98728286064E-01  0.26696053228E+00  0.51109989000E-03 0.  1.
     -623    1    1    2    0    0 -0.55365143101E+00  0.36429132211E-01  0.19974789273E+01  0.17131254414E+03  0.17130000000E+03 0. -1.
      622    1    1    2    0    0  0.62124509439E+00  0.20221597411E+00  0.21012493261E+01  0.37204953297E+01  0.30000000000E+01 0.  1.
</event>
<event>
 5   0  0.7495800E-05  0.9118800E+02  0.7818608E-02  0.1180000E+00
       11   -1    0    0    0    0  0.00000000000E+00  0.00000000000E+00  0.39999999673E+01  0.40000000000E+01  0.51109989000E-03 0. -1.
     -623   -1    0    0    0    0  0.00000000000E+00  0.00000000000E+00  0.12525980253E-10  0.17130000000E+03  0.17130000000E+03 0. -1.
       11    1    1    2    0    0  0.17895550802E+00 -0.39870134551E-01  0.31062349910E+00  0.36069643870E+00  0.51109989000E-03 0. -1.
     -623    1    1    2    0    0 -0.66026716322E+00 -0.40154042601E+00  0.17554722261E+01  0.17131073776E+03  0.17130000000E+03 0. -1.
      622    1    1    2    0    0  0.48131165520E+00  0.44141056056E+00  0.19339042422E+01  0.36285658063E+01  0.30000000000E+01 0. -1.
</event>
<event>
 5   0  0.7495800E-05  0.9118800E+02  0.7818608E-02  0.1180000E+00
       11   -1    0    0    0    0  0.00000000000E+00  0.00000000000E+00  0.39999999673E+01  0.40000000000E+01  0.51109989000E-03 0. -1.
     -623   -1    0    0    0    0  0.00000000000E+00  0.00000000000E+00  0.12525980253E-10  0.17130000000E+03  0.17130000000E+03 0. -1.
       11    1    1    2    0    0 -0.54362997500E-01  0.22528089294E-01 -0.86017699921E-01  0.10422166870E+00  0.51109989000E-03 0. -1.
     -623    1    1    2    0    0 -0.40900725654E+00 -0.70784884102E-01  0.16583313341E+01  0.17130852974E+03  0.17130000000E+03 0. -1.
      622    1    1    2    0    0  0.46337025404E+00  0.48256794809E-01  0.24276863332E+01  0.38872485955E+01  0.30000000000E+01 0. -1.
</event>
<event>
 5   0  0.7495800E-05  0.9118800E+02  0.7818608E-02  0.1180000E+00
       11   -1    0    0    0    0  0.00000000000E+00  0.00000000000E+00  0.39999999673E+01  0.40000000000E+01  0.51109989000E-03 0. -1.
     -623   -1    0    0    0    0  0.00000000000E+00  0.00000000000E+00  0.12525980253E-10  0.17130000000E+03  0.17130000000E+03 0. -1.
       11    1    1    2    0    0  0.27750809501E+00 -0.37540255122E-01  0.14357725295E+00  0.31469779525E+00  0.51109989000E-03 0. -1.
     -623    1    1    2    0    0 -0.12773216269E+01  0.17378471661E+01  0.32521129743E+01  0.17134444229E+03  0.17130000000E+03 0. -1.
      622    1    1    2    0    0  0.99981353186E+00 -0.17003069110E+01  0.60430974014E+00  0.36408599193E+01  0.30000000000E+01 0.  0.
</event>
<event>
 5   0  0.7495800E-05  0.9118800E+02  0.7818608E-02  0.1180000E+00
       11   -1    0    0    0    0  0.00000000000E+00  0.00000000000E+00  0.39999999673E+01  0.40000000000E+01  0.51109989000E-03 0. -1.
     -623   -1    0    0    0    0  0.00000000000E+00  0.00000000000E+00  0.12525980253E-10  0.17130000000E+03  0.17130000000E+03 0. -1.
       11    1    1    2    0    0  0.34721058060E-01  0.28830561002E+00  0.64471700784E-01  0.29746014534E+00  0.51109989000E-03 0. -1.
     -623    1    1    2    0    0 -0.59905303545E+00 -0.60352733152E+00  0.18864859877E+01  0.17131249791E+03  0.17130000000E+03 0. -1.
      622    1    1    2    0    0  0.56433197740E+00  0.31522172150E+00  0.20490422788E+01  0.36900419476E+01  0.30000000000E+01 0. -1.
</event>
<event>
 5   0  0.7495800E-05  0.9118800E+02  0.7818608E-02  0.1180000E+00
       11   -1    0    0    0    0  0.00000000000E+00  0.00000000000E+00  0.39999999673E+01  0.40000000000E+01  0.51109989000E-03 0.  1.
     -623   -1    0    0    0    0  0.00000000000E+00  0.00000000000E+00  0.12525980253E-10  0.17130000000E+03  0.17130000000E+03 0. -1.
       11    1    1    2    0    0 -0.81536653637E-01  0.55225834457E-01 -0.36527921920E-01  0.10503651261E+00  0.51109989000E-03 0.  1.
     -623    1    1    2    0    0 -0.13555325158E+00 -0.11547343730E+01  0.18440791543E+01  0.17131387105E+03  0.17130000000E+03 0. -1.
      622    1    1    2    0    0  0.21708990521E+00  0.10995085385E+01  0.21924487350E+01  0.38810924375E+01  0.30000000000E+01 0.  1.
</event>
<event>
 5   0  0.7495800E-05  0.9118800E+02  0.7818608E-02  0.1180000E+00
       11   -1    0    0    0    0  0.00000000000E+00  0.00000000000E+00  0.39999999673E+01  0.40000000000E+01  0.51109989000E-03 0. -1.
     -623   -1    0    0    0    0  0.00000000000E+00  0.00000000000E+00  0.12525980253E-10  0.17130000000E+03  0.17130000000E+03 0. -1.
       11    1    1    2    0    0 -0.10724204851E+00  0.29532635898E+00  0.13083455989E+00  0.34034755554E+00  0.51109989000E-03 0. -1.
     -623    1    1    2    0    0 -0.67060795762E+00 -0.70130895033E+00  0.19934300806E+01  0.17131434649E+03  0.17130000000E+03 0.  1.
      622    1    1    2    0    0  0.77785000614E+00  0.40598259135E+00  0.18757353269E+01  0.36453059560E+01  0.30000000000E+01 0.  0.
</event>
<event>
 5   0  0.7495800E-05  0.9118800E+02  0.7818608E-02  0.1180000E+00
       11   -1    0    0    0    0  0.00000000000E+00  0.00000000000E+00  0.39999999673E+01  0.40000000000E+01  0.51109989000E-03 0.  1.
     -623   -1    0    0    0    0  0.00000000000E+00  0.00000000000E+00  0.12525980253E-10  0.17130000000E+03  0.17130000000E+03 0. -1.
       11    1    1    2    0    0 -0.19200905299E+00 -0.53593038296E-01 -0.20928995093E-01  0.20044444178E+00  0.51109989000E-03 0.  1.
     -623    1    1    2    0    0 -0.14997845819E+00 -0.41927800911E+00  0.17800634734E+01  0.17130982725E+03  0.17130000000E+03 0. -1.
      622    1    1    2    0    0  0.34198751118E+00  0.47287104741E+00  0.22408654890E+01  0.37897283049E+01  0.30000000000E+01 0.  1.
</event>
<event>
 5   0  0.7495800E-05  0.9118800E+02  0.7818608E-02  0.1180000E+00
       11   -1    0    0    0    0  0.00000000000E+00  0.00000000000E+00  0.39999999673E+01  0.40000000000E+01  0.51109989000E-03 0.  1.
     -623   -1    0    0    0    0  0.00000000000E+00  0.00000000000E+00  0.12525980253E-10  0.17130000000E+03  0.17130000000E+03 0. -1.
       11    1    1    2    0    0 -0.11913349139E+00 -0.22772828005E+00 -0.40379354595E+00  0.47864647422E+00  0.51109989000E-03 0.  1.
     -623    1    1    2    0    0 -0.34261120178E+00  0.57293725700E+00  0.26981382360E+01  0.17132254840E+03  0.17130000000E+03 0. -1.
      622    1    1    2    0    0  0.46174469317E+00 -0.34520897695E+00  0.17056552773E+01  0.34988051281E+01  0.30000000000E+01 0.  1.
</event>
<event>
 5   0  0.7495800E-05  0.9118800E+02  0.7818608E-02  0.1180000E+00
       11   -1    0    0    0    0  0.00000000000E+00  0.00000000000E+00  0.39999999673E+01  0.40000000000E+01  0.51109989000E-03 0. -1.
     -623   -1    0    0    0    0  0.00000000000E+00  0.00000000000E+00  0.12525980253E-10  0.17130000000E+03  0.17130000000E+03 0.  1.
       11    1    1    2    0    0 -0.10143297094E+00 -0.16354702484E+00 -0.19263794328E-01  0.19341052692E+00  0.51109989000E-03 0. -1.
     -623    1    1    2    0    0 -0.16108695610E+01  0.50046619299E+00  0.25223476397E+01  0.17132687356E+03  0.17130000000E+03 0. -1.
      622    1    1    2    0    0  0.17123025320E+01 -0.33691916815E+00  0.14969161220E+01  0.37797159104E+01  0.30000000000E+01 0. -1.
</event>
<event>
 5   0  0.7495800E-05  0.9118800E+02  0.7818608E-02  0.1180000E+00
       11   -1    0    0    0    0  0.00000000000E+00  0.00000000000E+00  0.39999999673E+01  0.40000000000E+01  0.51109989000E-03 0. -1.
     -623   -1    0    0    0    0  0.00000000000E+00  0.00000000000E+00  0.12525980253E-10  0.17130000000E+03  0.17130000000E+03 0. -1.
       11    1    1    2    0    0 -0.23695433057E+00  0.30349733597E-01  0.45354653137E+00  0.51261406384E+00  0.51109989000E-03 0. -1.
     -623    1    1    2    0    0  0.12761746445E+01  0.53830695437E+00  0.22758439339E+01  0.17132071638E+03  0.17130000000E+03 0. -1.
      622    1    1    2    0    0 -0.10392203139E+01 -0.56865668797E+00  0.12706095020E+01  0.34666695540E+01  0.30000000000E+01 0. -1.
</event>
<event>
 5   0  0.7495800E-05  0.9118800E+02  0.7818608E-02  0.1180000E+00
       11   -1    0    0    0    0  0.00000000000E+00  0.00000000000E+00  0.39999999673E+01  0.40000000000E+01  0.51109989000E-03 0.  1.
     -623   -1    0    0    0    0  0.00000000000E+00  0.00000000000E+00  0.12525980253E-10  0.17130000000E+03  0.17130000000E+03 0.  1.
       11    1    1    2    0    0  0.99830029101E-01 -0.14099041901E+00 -0.40958983417E-01  0.17754501543E+00  0.51109989000E-03 0.  1.
     -623    1    1    2    0    0 -0.27466075181E+00  0.11433728221E+00  0.16927582525E+01  0.17130862191E+03  0.17130000000E+03 0.  1.
      622    1    1    2    0    0  0.17483072271E+00  0.26653136796E-01  0.23482006983E+01  0.38138330707E+01  0.30000000000E+01 0.  1.
</event>
<event>
 5   0  0.7495800E-05  0.9118800E+02  0.7818608E-02  0.1180000E+00
       11   -1    0    0    0    0  0.00000000000E+00  0.00000000000E+00  0.39999999673E+01  0.40000000000E+01  0.51109989000E-03 0. -1.
     -623   -1    0    0    0    0  0.00000000000E+00  0.00000000000E+00  0.12525980253E-10  0.17130000000E+03  0.17130000000E+03 0. -1.
       11    1    1    2    0    0 -0.74364936529E-01  0.12288118510E+00  0.13188869113E+00  0.19499953207E+00  0.51109989000E-03 0. -1.
     -623    1    1    2    0    0 -0.68907597785E+00 -0.65062605151E-01  0.16728583691E+01  0.17130956632E+03  0.17130000000E+03 0. -1.
      622    1    1    2    0    0  0.76344091438E+00 -0.57818579948E-01  0.21952529071E+01  0.37954341444E+01  0.30000000000E+01 0. -1.
</event>
<event>
 5   0  0.7495800E-05  0.9118800E+02  0.7818608E-02  0.1180000E+00
       11   -1    0    0    0    0  0.00000000000E+00  0.00000000000E+00  0.39999999673E+01  0.40000000000E+01  0.51109989000E-03 0.  1.
     -623   -1    0    0    0    0  0.00000000000E+00  0.00000000000E+00  0.12525980253E-10  0.17130000000E+03  0.17130000000E+03 0.  1.
       11    1    1    2    0    0  0.52380582448E+00  0.17345539754E+00 -0.22377876202E-01  0.55223214979E+00  0.51109989000E-03 0.  1.
     -623    1    1    2    0    0 -0.34755927103E+00 -0.24954281616E+00  0.23689241744E+01  0.17131691356E+03  0.17130000000E+03 0.  1.
      622    1    1    2    0    0 -0.17624655345E+00  0.76087418622E-01  0.16534536692E+01  0.34308542929E+01  0.30000000000E+01 0.  1.
</event>
<event>
 5   0  0.7495800E-05  0.9118800E+02  0.7818608E-02  0.1180000E+00
       11   -1    0    0    0    0  0.00000000000E+00  0.00000000000E+00  0.39999999673E+01  0.40000000000E+01  0.51109989000E-03 0. -1.
     -623   -1    0    0    0    0  0.00000000000E+00  0.00000000000E+00  0.12525980253E-10  0.17130000000E+03  0.17130000000E+03 0.  1.
       11    1    1    2    0    0 -0.54229532271E+00  0.32808753601E+00 -0.23075162413E-01  0.63423841942E+00  0.51109989000E-03 0. -1.
     -623    1    1    2    0    0  0.59099050479E+00  0.57834790685E-01  0.25954209097E+01  0.17132069001E+03  0.17130000000E+03 0.  1.
      622    1    1    2    0    0 -0.48695182080E-01 -0.38592232670E+00  0.14276542201E+01  0.33450715740E+01  0.30000000000E+01 0. -1.
</event>
<event>
 5   0  0.7495800E-05  0.9118800E+02  0.7818608E-02  0.1180000E+00
       11   -1    0    0    0    0  0.00000000000E+00  0.00000000000E+00  0.39999999673E+01  0.40000000000E+01  0.51109989000E-03 0.  1.
     -623   -1    0    0    0    0  0.00000000000E+00  0.00000000000E+00  0.12525980253E-10  0.17130000000E+03  0.17130000000E+03 0.  1.
       11    1    1    2    0    0  0.36190389979E+00 -0.11603229511E+00 -0.31487370309E+00  0.49354192964E+00  0.51109989000E-03 0.  1.
     -623    1    1    2    0    0 -0.21279276051E+00  0.13835866222E-01  0.25458810232E+01  0.17131905026E+03  0.17130000000E+03 0.  1.
      622    1    1    2    0    0 -0.14911113927E+00  0.10219642889E+00  0.17689926472E+01  0.34874078092E+01  0.30000000000E+01 0.  1.
</event>
<event>
 5   0  0.7495800E-05  0.9118800E+02  0.7818608E-02  0.1180000E+00
       11   -1    0    0    0    0  0.00000000000E+00  0.00000000000E+00  0.39999999673E+01  0.40000000000E+01  0.51109989000E-03 0.  1.
     -623   -1    0    0    0    0  0.00000000000E+00  0.00000000000E+00  0.12525980253E-10  0.17130000000E+03  0.17130000000E+03 0.  1.
       11    1    1    2    0    0 -0.70062950051E+00 -0.30006250519E+00  0.25619631537E+00  0.80408707068E+00  0.51109989000E-03 0.  1.
     -623    1    1    2    0    0  0.73903442265E+00  0.92210875299E+00  0.29447508127E+01  0.17132938456E+03  0.17130000000E+03 0.  1.
      622    1    1    2    0    0 -0.38404922145E-01 -0.62204624779E+00  0.79905283928E+00  0.31665283691E+01  0.30000000000E+01 0.  0.
</event>
<event>
 5   0  0.7495800E-05  0.9118800E+02  0.7818608E-02  0.1180000E+00
       11   -1    0    0    0    0  0.00000000000E+00  0.00000000000E+00  0.39999999673E+01  0.40000000000E+01  0.51109989000E-03 0. -1.
     -623   -1    0    0    0    0  0.00000000000E+00  0.00000000000E+00  0.12525980253E-10  0.17130000000E+03  0.17130000000E+03 0.  1.
       11    1    1    2    0    0 -0.24322938662E+00 -0.25056751248E+00  0.62867969602E-01  0.35482003277E+00  0.51109989000E-03 0. -1.
     -623    1    1    2    0    0 -0.50360710710E+00  0.34380311815E+00  0.20331410563E+01  0.17131315035E+03  0.17130000000E+03 0.  1.
      622    1    1    2    0    0  0.74683649372E+00 -0.93235605666E-01  0.19039909415E+01  0.36320296160E+01  0.30000000000E+01 0. -1.
</event>
<event>
 5   0  0.7495800E-05  0.9118800E+02  0.7818608E-02  0.1180000E+00
       11   -1    0    0    0    0  0.00000000000E+00  0.00000000000E+00  0.39999999673E+01  0.40000000000E+01  0.51109989000E-03 0. -1.
     -623   -1    0    0    0    0  0.00000000000E+00  0.00000000000E+00  0.12525980253E-10  0.17130000000E+03  0.17130000000E+03 0. -1.
       11    1    1    2    0    0  0.14532232452E+00 -0.17525051233E+00  0.17798590854E-01  0.22836017852E+00  0.51109989000E-03 0. -1.
     -623    1    1    2    0    0  0.12298118464E+01 -0.44529472642E+00  0.23105500810E+01  0.17132057485E+03  0.17130000000E+03 0. -1.
      622    1    1    2    0    0 -0.13751341709E+01  0.62054523876E+00  0.16716512955E+01  0.37510649735E+01  0.30000000000E+01 0.  1.
</event>
<event>
 5   0  0.7495800E-05  0.9118800E+02  0.7818608E-02  0.1180000E+00
       11   -1    0    0    0    0  0.00000000000E+00  0.00000000000E+00  0.39999999673E+01  0.40000000000E+01  0.51109989000E-03 0.  1.
     -623   -1    0    0    0    0  0.00000000000E+00  0.00000000000E+00  0.12525980253E-10  0.17130000000E+03  0.17130000000E+03 0. -1.
       11    1    1    2    0    0 -0.36241377090E-01  0.24620921300E-01 -0.65990723089E-01  0.79212776343E-01  0.51109989000E-03 0.  1.
     -623    1    1    2    0    0  0.25189141730E+00  0.14475900246E+01  0.20629433652E+01  0.17131872257E+03  0.17130000000E+03 0. -1.
      622    1    1    2    0    0 -0.21565004021E+00 -0.14722109459E+01  0.20030473252E+01  0.39020646581E+01  0.30000000000E+01 0.  1.
</event>
<event>
 5   0  0.7495800E-05  0.9118800E+02  0.7818608E-02  0.1180000E+00
       11   -1    0    0    0    0  0.00000000000E+00  0.00000000000E+00  0.39999999673E+01  0.40000000000E+01  0.51109989000E-03 0.  1.
     -623   -1    0    0    0    0  0.00000000000E+00  0.00000000000E+00  0.12525980253E-10  0.17130000000E+03  0.17130000000E+03 0.  1.
       11    1    1    2    0    0 -0.25730808614E+00 -0.33076619599E+00 -0.13182564424E+00  0.43930853543E+00  0.51109989000E-03 0.  1.
     -623    1    1    2    0    0  0.16307130501E+00  0.53699225319E+00  0.22570097877E+01  0.17131578750E+03  0.17130000000E+03 0.  1.
      622    1    1    2    0    0  0.94236781125E-01 -0.20622605720E+00  0.18748158239E+01  0.35449039664E+01  0.30000000000E+01 0.  1.
</event>
<event>
 5   0  0.7495800E-05  0.9118800E+02  0.7818608E-02  0.1180000E+00
       11   -1    0    0    0    0  0.00000000000E+00  0.00000000000E+00  0.39999999673E+01  0.40000000000E+01  0.51109989000E-03 0.  1.
     -623   -1    0    0    0    0  0.00000000000E+00  0.00000000000E+00  0.12525980253E-10  0.17130000000E+03  0.17130000000E+03 0.  1.
       11    1    1    2    0    0 -0.24983445606E+00  0.14117915512E+00 -0.14451703069E+00  0.32130086003E+00  0.51109989000E-03 0.  1.
     -623    1    1    2    0    0  0.39004617893E+00 -0.48981977997E+00  0.20730194968E+01  0.17131368734E+03  0.17130000000E+03 0.  1.
      622    1    1    2    0    0 -0.14021172287E+00  0.34864062485E+00  0.20714975012E+01  0.36650118022E+01  0.30000000000E+01 0.  1.
</event>
<event>
 5   0  0.7495800E-05  0.9118800E+02  0.7818608E-02  0.1180000E+00
       11   -1    0    0    0    0  0.00000000000E+00  0.00000000000E+00  0.39999999673E+01  0.40000000000E+01  0.51109989000E-03 0.  1.
     -623   -1    0    0    0    0  0.00000000000E+00  0.00000000000E+00  0.12525980253E-10  0.17130000000E+03  0.17130000000E+03 0. -1.
       11    1    1    2    0    0 -0.11681219894E+00 -0.28133936398E+00 -0.16363135896E+00  0.34579243833E+00  0.51109989000E-03 0.  1.
     -623    1    1    2    0    0  0.68442023893E+00 -0.10683202836E+00  0.22232829361E+01  0.17131582773E+03  0.17130000000E+03 0. -1.
      622    1    1    2    0    0 -0.56760803999E+00  0.38817139234E+00  0.19403483902E+01  0.36383798307E+01  0.30000000000E+01 0.  1.
</event>
<event>
 5   0  0.7495800E-05  0.9118800E+02  0.7818608E-02  0.1180000E+00
       11   -1    0    0    0    0  0.00000000000E+00  0.00000000000E+00  0.39999999673E+01  0.40000000000E+01  0.51109989000E-03 0.  1.
     -623   -1    0    0    0    0  0.00000000000E+00  0.00000000000E+00  0.12525980253E-10  0.17130000000E+03  0.17130000000E+03 0.  1.
       11    1    1    2    0    0  0.62288503014E-01 -0.94323423985E-01 -0.16826261036E-01  0.11428101418E+00  0.51109989000E-03 0.  1.
     -623    1    1    2    0    0 -0.35192753478E-01 -0.22598584732E+01  0.42189322675E+01  0.17136685090E+03  0.17130000000E+03 0. -1.
      622    1    1    2    0    0 -0.27095749536E-01  0.23541818972E+01 -0.20210603911E+00  0.38188680831E+01  0.30000000000E+01 0. -1.
</event>
<event>
 5   0  0.7495800E-05  0.9118800E+02  0.7818608E-02  0.1180000E+00
       11   -1    0    0    0    0  0.00000000000E+00  0.00000000000E+00  0.39999999673E+01  0.40000000000E+01  0.51109989000E-03 0. -1.
     -623   -1    0    0    0    0  0.00000000000E+00  0.00000000000E+00  0.12525980253E-10  0.17130000000E+03  0.17130000000E+03 0.  1.
       11    1    1    2    0    0  0.20093982184E+00  0.67095724645E-01 -0.38953919370E-01  0.21539804391E+00  0.51109989000E-03 0. -1.
     -623    1    1    2    0    0 -0.73879873272E+00 -0.33229778075E+00  0.18309771708E+01  0.17131170048E+03  0.17130000000E+03 0.  1.
      622    1    1    2    0    0  0.53785891088E+00  0.26520205610E+00  0.22079767159E+01  0.37729014719E+01  0.30000000000E+01 0. -1.
</event>
<event>
 5   0  0.7495800E-05  0.9118800E+02  0.7818608E-02  0.1180000E+00
       11   -1    0    0    0    0  0.00000000000E+00  0.00000000000E+00  0.39999999673E+01  0.40000000000E+01  0.51109989000E-03 0.  1.
     -623   -1    0    0    0    0  0.00000000000E+00  0.00000000000E+00  0.12525980253E-10  0.17130000000E+03  0.17130000000E+03 0.  1.
       11    1    1    2    0    0 -0.48948155796E-01 -0.29297672869E+00 -0.52268607651E-01  0.30160164800E+00  0.51109989000E-03 0.  1.
     -623    1    1    2    0    0 -0.37621966978E+00  0.13713313704E+00  0.19577466554E+01  0.17131165494E+03  0.17130000000E+03 0.  1.
      622    1    1    2    0    0  0.42516782558E+00  0.15584359165E+00  0.20945219196E+01  0.36867434108E+01  0.30000000000E+01 0.  1.
</event>
<event>
 5   0  0.7495800E-05  0.9118800E+02  0.7818608E-02  0.1180000E+00
       11   -1    0    0    0    0  0.00000000000E+00  0.00000000000E+00  0.39999999673E+01  0.40000000000E+01  0.51109989000E-03 0. -1.
     -623   -1    0    0    0    0  0.00000000000E+00  0.00000000000E+00  0.12525980253E-10  0.17130000000E+03  0.17130000000E+03 0.  1.
       11    1    1    2    0    0 -0.27915532909E+00 -0.35738853421E+00  0.33669592462E+00  0.56481737670E+00  0.51109989000E-03 0. -1.
     -623    1    1    2    0    0 -0.69952141529E+00  0.76912453311E+00  0.24247622708E+01  0.17132031507E+03  0.17130000000E+03 0.  1.
      622    1    1    2    0    0  0.97867674438E+00 -0.41173599890E+00  0.12385417720E+01  0.34148675558E+01  0.30000000000E+01 0. -1.
</event>
<event>
 5   0  0.7495800E-05  0.9118800E+02  0.7818608E-02  0.1180000E+00
       11   -1    0    0    0    0  0.00000000000E+00  0.00000000000E+00  0.39999999673E+01  0.40000000000E+01  0.51109989000E-03 0. -1.
     -623   -1    0    0    0    0  0.00000000000E+00  0.00000000000E+00  0.12525980253E-10  0.17130000000E+03  0.17130000000E+03 0. -1.
       11    1    1    2    0    0 -0.22725435299E+00  0.16797657260E+00 -0.28505930162E+00  0.40139723038E+00  0.51109989000E-03 0. -1.
     -623    1    1    2    0    0  0.86765648414E+00 -0.90681234137E+00  0.26061354090E+01  0.17132442055E+03  0.17130000000E+03 0. -1.
      622    1    1    2    0    0 -0.64040213115E+00  0.73883576877E+00  0.16789238600E+01  0.35741822156E+01  0.30000000000E+01 0. -1.
</event>
<event>
 5   0  0.7495800E-05  0.9118800E+02  0.7818608E-02  0.1180000E+00
       11   -1    0    0    0    0  0.00000000000E+00  0.00000000000E+00  0.39999999673E+01  0.40000000000E+01  0.51109989000E-03 0. -1.
     -623   -1    0    0    0    0  0.00000000000E+00  0.00000000000E+00  0.12525980253E-10  0.17130000000E+03  0.17130000000E+03 0. -1.
       11    1    1    2    0    0  0.13316505923E+00 -0.28661380574E+00 -0.27352168314E+00  0.41796504520E+00  0.51109989000E-03 0. -1.
     -623    1    1    2    0    0  0.69019238254E-02  0.90434849008E+00  0.24606634554E+01  0.17132005942E+03  0.17130000000E+03 0. -1.
      622    1    1    2    0    0 -0.14006698306E+00 -0.61773468435E+00  0.18128581951E+01  0.35619755383E+01  0.30000000000E+01 0.  0.
</event>
<event>
 5   0  0.7495800E-05  0.9118800E+02  0.7818608E-02  0.1180000E+00
       11   -1    0    0    0    0  0.00000000000E+00  0.00000000000E+00  0.39999999673E+01  0.40000000000E+01  0.51109989000E-03 0. -1.
     -623   -1    0    0    0    0  0.00000000000E+00  0.00000000000E+00  0.12525980253E-10  0.17130000000E+03  0.17130000000E+03 0.  1.
       11    1    1    2    0    0 -0.10115664944E+00  0.15464651862E+00 -0.25728252015E+00  0.31676926910E+00  0.51109989000E-03 0. -1.
     -623    1    1    2    0    0  0.82662604764E+00 -0.72318671706E+00  0.23676861942E+01  0.17131988281E+03  0.17130000000E+03 0.  1.
      622    1    1    2    0    0 -0.72546939820E+00  0.56854019844E+00  0.18895962934E+01  0.36633479164E+01  0.30000000000E+01 0. -1.
</event>
<event>
 5   0  0.7495800E-05  0.9118800E+02  0.7818608E-02  0.1180000E+00
       11   -1    0    0    0    0  0.00000000000E+00  0.00000000000E+00  0.39999999673E+01  0.40000000000E+01  0.51109989000E-03 0.  1.
     -623   -1    0    0    0    0  0.00000000000E+00  0.00000000000E+00  0.12525980253E-10  0.17130000000E+03  0.17130000000E+03 0.  1.
       11    1    1    2    0    0 -0.20971058053E+00  0.11680661287E+00  0.15014525851E+00  0.28313631394E+00  0.51109989000E-03 0.  1.
     -623    1    1    2    0    0 -0.32115906548E+00 -0.93393667044E-01  0.17368213819E+01  0.17130913115E+03  0.17130000000E+03 0.  1.
      622    1    1    2    0    0  0.53086964602E+00 -0.23412945829E-01  0.21130333269E+01  0.37077325399E+01  0.30000000000E+01 0.  1.
</event>
<event>
 5   0  0.7495800E-05  0.9118800E+02  0.7818608E-02  0.1180000E+00
       11   -1    0    0    0    0  0.00000000000E+00  0.00000000000E+00  0.39999999673E+01  0.40000000000E+01  0.51109989000E-03 0. -1.
     -623   -1    0    0    0    0  0.00000000000E+00  0.00000000000E+00  0.12525980253E-10  0.17130000000E+03  0.17130000000E+03 0.  1.
       11    1    1    2    0    0 -0.96247961060E-01  0.52680440580E+00  0.25424772397E+00  0.59281423594E+00  0.51109989000E-03 0. -1.
     -623    1    1    2    0    0  0.38862230840E+00  0.12409395873E+00  0.23357111045E+01  0.17131640894E+03  0.17130000000E+03 0.  1.
      622    1    1    2    0    0 -0.29237434734E+00 -0.65089836453E+00  0.14100411389E+01  0.33907768215E+01  0.30000000000E+01 0. -1.
</event>
<event>
 5   0  0.7495800E-05  0.9118800E+02  0.7818608E-02  0.1180000E+00
       11   -1    0    0    0    0  0.00000000000E+00  0.00000000000E+00  0.39999999673E+01  0.40000000000E+01  0.51109989000E-03 0.  1.
     -623   -1    0    0    0    0  0.00000000000E+00  0.00000000000E+00  0.12525980253E-10  0.17130000000E+03  0.17130000000E+03 0.  1.
       11    1    1    2    0    0  0.14402291228E+00  0.58371759252E+00  0.87023434184E-01  0.60748840844E+00  0.51109989000E-03 0.  1.
     -623    1    1    2    0    0 -0.22112843780E+00  0.30199244507E+00  0.26573767228E+01  0.17132101958E+03  0.17130000000E+03 0.  1.
      622    1    1    2    0    0  0.77105525525E-01 -0.88571003759E+00  0.12555998104E+01  0.33714920164E+01  0.30000000000E+01 0.  0.
</event>
<event>
 5   0  0.7495800E-05  0.9118800E+02  0.7818608E-02  0.1180000E+00
       11   -1    0    0    0    0  0.00000000000E+00  0.00000000000E+00  0.39999999673E+01  0.40000000000E+01  0.51109989000E-03 0. -1.
     -623   -1    0    0    0    0  0.00000000000E+00  0.00000000000E+00  0.12525980253E-10  0.17130000000E+03  0.17130000000E+03 0.  1.
       11    1    1    2    0    0 -0.95328549539E-01 -0.17483702509E+00 -0.97236453871E-01  0.22160935649E+00  0.51109989000E-03 0. -1.
     -623    1    1    2    0    0  0.82494722031E+00  0.82822126328E+00  0.20491914354E+01  0.17131624463E+03  0.17130000000E+03 0.  1.
      622    1    1    2    0    0 -0.72961867077E+00 -0.65338423820E+00  0.20480449859E+01  0.37621460141E+01  0.30000000000E+01 0. -1.
</event>
<event>
 5   0  0.7495800E-05  0.9118800E+02  0.7818608E-02  0.1180000E+00
       11   -1    0    0    0    0  0.00000000000E+00  0.00000000000E+00  0.39999999673E+01  0.40000000000E+01  0.51109989000E-03 0. -1.
     -623   -1    0    0    0    0  0.00000000000E+00  0.00000000000E+00  0.12525980253E-10  0.17130000000E+03  0.17130000000E+03 0. -1.
       11    1    1    2    0    0 -0.17404285008E+00  0.31530138852E-01  0.10979241065E-01  0.17721700899E+00  0.51109989000E-03 0. -1.
     -623    1    1    2    0    0  0.10373729757E+00  0.65910011164E+00  0.17408443732E+01  0.17131014481E+03  0.17130000000E+03 0. -1.
      622    1    1    2    0    0  0.70305552509E-01 -0.69063025049E+00  0.22481763531E+01  0.38126381848E+01  0.30000000000E+01 0. -1.
</event>
<event>
 5   0  0.7495800E-05  0.9118800E+02  0.7818608E-02  0.1180000E+00
       11   -1    0    0    0    0  0.00000000000E+00  0.00000000000E+00  0.39999999673E+01  0.40000000000E+01  0.51109989000E-03 0. -1.
     -623   -1    0    0    0    0  0.00000000000E+00  0.00000000000E+00  0.12525980253E-10  0.17130000000E+03  0.17130000000E+03 0.  1.
       11    1    1    2    0    0 -0.11020274696E+00  0.29224882146E+00 -0.18749352556E+00  0.36429123299E+00  0.51109989000E-03 0. -1.
     -623    1    1    2    0    0 -0.77373393141E-02 -0.10599938057E+01  0.23228104009E+01  0.17131902724E+03  0.17130000000E+03 0.  1.
      622    1    1    2    0    0  0.11794008627E+00  0.76774498426E+00  0.18646830921E+01  0.36166815257E+01  0.30000000000E+01 0. -1.
</event>
<event>
 5   0  0.7495800E-05  0.9118800E+02  0.7818608E-02  0.1180000E+00
       11   -1    0    0    0    0  0.00000000000E+00  0.00000000000E+00  0.39999999673E+01  0.40000000000E+01  0.51109989000E-03 0. -1.
     -623   -1    0    0    0    0  0.00000000000E+00  0.00000000000E+00  0.12525980253E-10  0.17130000000E+03  0.17130000000E+03 0. -1.
       11    1    1    2    0    0  0.13388698451E+00 -0.58537594012E+00  0.10584253034E+00  0.60974881578E+00  0.51109989000E-03 0. -1.
     -623    1    1    2    0    0  0.43711735530E+00  0.97984243512E+00  0.25291413254E+01  0.17132202929E+03  0.17130000000E+03 0. -1.
      622    1    1    2    0    0 -0.57100433981E+00 -0.39446649500E+00  0.13650161116E+01  0.33682218984E+01  0.30000000000E+01 0. -1.
</event>
<event>
 5   0  0.7495800E-05  0.9118800E+02  0.7818608E-02  0.1180000E+00
       11   -1    0    0    0    0  0.00000000000E+00  0.00000000000E+00  0.39999999673E+01  0.40000000000E+01  0.51109989000E-03 0. -1.
     -623   -1    0    0    0    0  0.00000000000E+00  0.00000000000E+00  0.12525980253E-10  0.17130000000E+03  0.17130000000E+03 0. -1.
       11    1    1    2    0    0  0.82850681659E-01  0.11212133126E+00  0.11314680682E+00  0.17954912835E+00  0.51109989000E-03 0. -1.
     -623    1    1    2    0    0 -0.22522055301E+00 -0.16275407104E+00  0.15376814003E+01  0.17130712676E+03  0.17130000000E+03 0. -1.
      622    1    1    2    0    0  0.14236987135E+00  0.50632739775E-01  0.23491717602E+01  0.38133241160E+01  0.30000000000E+01 0. -1.
</event>
<event>
 5   0  0.7495800E-05  0.9118800E+02  0.7818608E-02  0.1180000E+00
       11   -1    0    0    0    0  0.00000000000E+00  0.00000000000E+00  0.39999999673E+01  0.40000000000E+01  0.51109989000E-03 0.  1.
     -623   -1    0    0    0    0  0.00000000000E+00  0.00000000000E+00  0.12525980253E-10  0.17130000000E+03  0.17130000000E+03 0. -1.
       11    1    1    2    0    0 -0.13810514662E+00  0.66026983859E+00 -0.31956593264E+00  0.74642611008E+00  0.51109989000E-03 0.  1.
     -623    1    1    2    0    0  0.99680486762E+00 -0.13316116104E+01  0.42730439510E+01  0.17136136004E+03  0.17130000000E+03 0.  1.
      622    1    1    2    0    0 -0.85869972100E+00  0.67134177183E+00  0.46521949043E-01  0.31922138520E+01  0.30000000000E+01 0.  1.
</event>
<event>
 5   0  0.7495800E-05  0.9118800E+02  0.7818608E-02  0.1180000E+00
       11   -1    0    0    0    0  0.00000000000E+00  0.00000000000E+00  0.39999999673E+01  0.40000000000E+01  0.51109989000E-03 0.  1.
     -623   -1    0    0    0    0  0.00000000000E+00  0.00000000000E+00  0.12525980253E-10  0.17130000000E+03  0.17130000000E+03 0.  1.
       11    1    1    2    0    0 -0.28566801823E-01  0.11809467033E+00  0.13451747515E+00  0.18126672522E+00  0.51109989000E-03 0.  1.
     -623    1    1    2    0    0 -0.45196164240E+00  0.30386153186E+00  0.16049951717E+01  0.17130838453E+03  0.17130000000E+03 0.  1.
      622    1    1    2    0    0  0.48052844422E+00 -0.42195620219E+00  0.22604873205E+01  0.38103487437E+01  0.30000000000E+01 0.  1.
</event>
<event>
 5   0  0.7495800E-05  0.9118800E+02  0.7818608E-02  0.1180000E+00
       11   -1    0    0    0    0  0.00000000000E+00  0.00000000000E+00  0.39999999673E+01  0.40000000000E+01  0.51109989000E-03 0. -1.
     -623   -1    0    0    0    0  0.00000000000E+00  0.00000000000E+00  0.12525980253E-10  0.17130000000E+03  0.17130000000E+03 0. -1.
       11    1    1    2    0    0  0.23536640103E+00 -0.16543539455E+00  0.50588729846E+00  0.58196944291E+00  0.51109989000E-03 0. -1.
     -623    1    1    2    0    0  0.96488961300E-02  0.80987875727E+00  0.20409824821E+01  0.17131407300E+03  0.17130000000E+03 0. -1.
      622    1    1    2    0    0 -0.24501529716E+00 -0.64444336272E+00  0.14531301868E+01  0.34039575619E+01  0.30000000000E+01 0.  0.
</event>
<event>
 5   0  0.7495800E-05  0.9118800E+02  0.7818608E-02  0.1180000E+00
       11   -1    0    0    0    0  0.00000000000E+00  0.00000000000E+00  0.39999999673E+01  0.40000000000E+01  0.51109989000E-03 0. -1.
     -623   -1    0    0    0    0  0.00000000000E+00  0.00000000000E+00  0.12525980253E-10  0.17130000000E+03  0.17130000000E+03 0.  1.
       11    1    1    2    0    0  0.20503729173E+00  0.26129776987E+00 -0.27112254580E+00  0.42874760828E+00  0.51109989000E-03 0. -1.
     -623    1    1    2    0    0 -0.67756641706E+00 -0.55626944477E+00  0.24538733704E+01  0.17131981796E+03  0.17130000000E+03 0.  1.
      622    1    1    2    0    0  0.47252912533E+00  0.29497167490E+00  0.18172491427E+01  0.35514344299E+01  0.30000000000E+01 0. -1.
</event>
<event>
 5   0  0.7495800E-05  0.9118800E+02  0.7818608E-02  0.1180000E+00
       11   -1    0    0    0    0  0.00000000000E+00  0.00000000000E+00  0.39999999673E+01  0.40000000000E+01  0.51109989000E-03 0. -1.
     -623   -1    0    0    0    0  0.00000000000E+00  0.00000000000E+00  0.12525980253E-10  0.17130000000E+03  0.17130000000E+03 0. -1.
       11    1    1    2    0    0  0.22877650625E-01  0.95546736515E-01 -0.19130518927E+00  0.21505929978E+00  0.51109989000E-03 0. -1.
     -623    1    1    2    0    0  0.36965855636E+00  0.15923592611E-02  0.19382268614E+01  0.17131136382E+03  0.17130000000E+03 0. -1.
      622    1    1    2    0    0 -0.39253620699E+00 -0.97139095776E-01  0.22530782953E+01  0.37735768817E+01  0.30000000000E+01 0. -1.
</event>
<event>
 5   0  0.7495800E-05  0.9118800E+02  0.7818608E-02  0.1180000E+00
       11   -1    0    0    0    0  0.00000000000E+00  0.00000000000E+00  0.39999999673E+01  0.40000000000E+01  0.51109989000E-03 0. -1.
     -623   -1    0    0    0    0  0.00000000000E+00  0.00000000000E+00  0.12525980253E-10  0.17130000000E+03  0.17130000000E+03 0. -1.
       11    1    1    2    0    0 -0.19929458890E+00 -0.23576645429E-01 -0.62374209180E-01  0.21015469199E+00  0.51109989000E-03 0. -1.
     -623    1    1    2    0    0  0.21659125652E+00 -0.59152630106E+00  0.18487787560E+01  0.17131113448E+03  0.17130000000E+03 0. -1.
      622    1    1    2    0    0 -0.17296667624E-01  0.61510294649E+00  0.22135954205E+01  0.37787108245E+01  0.30000000000E+01 0. -1.
</event>
<event>
 5   0  0.7495800E-05  0.9118800E+02  0.7818608E-02  0.1180000E+00
       11   -1    0    0    0    0  0.00000000000E+00  0.00000000000E+00  0.39999999673E+01  0.40000000000E+01  0.51109989000E-03 0. -1.
     -623   -1    0    0    0    0  0.00000000000E+00  0.00000000000E+00  0.12525980253E-10  0.17130000000E+03  0.17130000000E+03 0.  1.
       11    1    1    2    0    0 -0.30466102288E+00 -0.19304268091E+00  0.25078418788E+00  0.43929123098E+00  0.51109989000E-03 0. -1.
     -623    1    1    2    0    0  0.12311071027E+01  0.69713970188E+00  0.21919238542E+01  0.17131986504E+03  0.17130000000E+03 0.  1.
      622    1    1    2    0    0 -0.92644607979E+00 -0.50409702097E+00  0.15572919253E+01  0.35408437252E+01  0.30000000000E+01 0. -1.
</event>
<event>
 5   0  0.7495800E-05  0.9118800E+02  0.7818608E-02  0.1180000E+00
       11   -1    0    0    0    0  0.00000000000E+00  0.00000000000E+00  0.39999999673E+01  0.40000000000E+01  0.51109989000E-03 0. -1.
     -623   -1    0    0    0    0  0.00000000000E+00  0.00000000000E+00  0.12525980253E-10  0.17130000000E+03  0.17130000000E+03 0. -1.
       11    1    1    2    0    0  0.19232072841E+00 -0.86727738911E-01 -0.13163938406E+00  0.24867278085E+00  0.51109989000E-03 0. -1.
     -623    1    1    2    0    0  0.61039807395E-01  0.77834907496E+00  0.20276589960E+01  0.17131377923E+03  0.17130000000E+03 0. -1.
      622    1    1    2    0    0 -0.25336053581E+00 -0.69162133605E+00  0.21039803554E+01  0.37375479889E+01  0.30000000000E+01 0. -1.
</event>
<event>
 5   0  0.7495800E-05  0.9118800E+02  0.7818608E-02  0.1180000E+00
       11   -1    0    0    0    0  0.00000000000E+00  0.00000000000E+00  0.39999999673E+01  0.40000000000E+01  0.51109989000E-03 0.  1.
     -623   -1    0    0    0    0  0.00000000000E+00  0.00000000000E+00  0.12525980253E-10  0.17130000000E+03  0.17130000000E+03 0.  1.
       11    1    1    2    0    0  0.17363014785E+00  0.89557925005E-01 -0.19640613006E-01  0.19635189094E+00  0.51109989000E-03 0.  1.
     -623    1    1    2    0    0  0.19151687364E+00 -0.13453719895E+01  0.21177745371E+01  0.17131848025E+03  0.17130000000E+03 0.  1.
      622    1    1    2    0    0 -0.36514702150E+00  0.12558140645E+01  0.19018660432E+01  0.37851678639E+01  0.30000000000E+01 0.  1.
</event>
<event>
 5   0  0.7495800E-05  0.9118800E+02  0.7818608E-02  0.1180000E+00
       11   -1    0    0    0    0  0.00000000000E+00  0.00000000000E+00  0.39999999673E+01  0.40000000000E+01  0.51109989000E-03 0. -1.
     -623   -1    0    0    0    0  0.00000000000E+00  0.00000000000E+00  0.12525980253E-10  0.17130000000E+03  0.17130000000E+03 0. -1.
       11    1    1    2    0    0  0.13052334025E+00  0.13273756178E+00  0.13445666332E+00  0.22963984452E+00  0.51109989000E-03 0. -1.
     -623    1    1    2    0    0 -0.22972967531E+00  0.39521879495E+00  0.16605901759E+01  0.17130865866E+03  0.17130000000E+03 0. -1.
      622    1    1    2    0    0  0.99206335061E-01 -0.52795635673E+00  0.22049531282E+01  0.37617014912E+01  0.30000000000E+01 0. -1.
</event>
<event>
 5   0  0.7495800E-05  0.9118800E+02  0.7818608E-02  0.1180000E+00
       11   -1    0    0    0    0  0.00000000000E+00  0.00000000000E+00  0.39999999673E+01  0.40000000000E+01  0.51109989000E-03 0.  1.
     -623   -1    0    0    0    0  0.00000000000E+00  0.00000000000E+00  0.12525980253E-10  0.17130000000E+03  0.17130000000E+03 0. -1.
       11    1    1    2    0    0 -0.93242556708E-01  0.11069262827E+00  0.17877875401E+00  0.23001986097E+00  0.51109989000E-03 0.  1.
     -623    1    1    2    0    0 -0.20822271296E+00 -0.47685961535E+00  0.16018906454E+01  0.17130828003E+03  0.17130000000E+03 0. -1.
      622    1    1    2    0    0  0.30146526967E+00  0.36616698707E+00  0.22193305680E+01  0.37617001131E+01  0.30000000000E+01 0.  1.
</event>
<event>
 5   0  0.7495800E-05  0.9118800E+02  0.7818608E-02  0.1180000E+00
       11   -1    0    0    0    0  0.00000000000E+00  0.00000000000E+00  0.39999999673E+01  0.40000000000E+01  0.51109989000E-03 0.  1.
     -623   -1    0    0    0    0  0.00000000000E+00  0.00000000000E+00  0.12525980253E-10  0.17130000000E+03  0.17130000000E+03 0. -1.
       11    1    1    2    0    0  0.19072139806E-01 -0.33714126202E-01 -0.23975605800E-01  0.45557433191E-01  0.51109989000E-03 0.  1.
     -623    1    1    2    0    0  0.58251076176E+00  0.12914140142E+01  0.18872441752E+01  0.17131625363E+03  0.17130000000E+03 0. -1.
      622    1    1    2    0    0 -0.60158290157E+00 -0.12576998880E+01  0.21367313980E+01  0.39381889318E+01  0.30000000000E+01 0.  1.
</event>
<event>
 5   0  0.7495800E-05  0.9118800E+02  0.7818608E-02  0.1180000E+00
       11   -1    0    0    0    0  0.00000000000E+00  0.00000000000E+00  0.39999999673E+01  0.40000000000E+01  0.51109989000E-03 0.  1.
     -623   -1    0    0    0    0  0.00000000000E+00  0.00000000000E+00  0.12525980253E-10  0.17130000000E+03  0.17130000000E+03 0.  1.
       11    1    1    2    0    0 -0.29647615010E+00  0.44151533223E+00  0.35038461271E+00  0.63687010781E+00  0.51109989000E-03 0.  1.
     -623    1    1    2    0    0 -0.41231023617E+00 -0.12189533139E+01  0.26317731921E+01  0.17132504801E+03  0.17130000000E+03 0.  1.
      622    1    1    2    0    0  0.70878638627E+00  0.77743798163E+00  0.10178421626E+01  0.33380818781E+01  0.30000000000E+01 0.  0.
</event>
<event>
 5   0  0.7495800E-05  0.9118800E+02  0.7818608E-02  0.1180000E+00
       11   -1    0    0    0    0  0.00000000000E+00  0.00000000000E+00  0.39999999673E+01  0.40000000000E+01  0.51109989000E-03 0.  1.
     -623   -1    0    0    0    0  0.00000000000E+00  0.00000000000E+00  0.12525980253E-10  0.17130000000E+03  0.17130000000E+03 0. -1.
       11    1    1    2    0    0 -0.17998914959E+00 -0.21862902255E+00  0.32121574161E+00  0.42822255586E+00  0.51109989000E-03 0.  1.
     -623    1    1    2    0    0  0.79147018023E+00 -0.62582724037E+00  0.20789466933E+01  0.17131558628E+03  0.17130000000E+03 0. -1.
      622    1    1    2    0    0 -0.61148103065E+00  0.84445626293E+00  0.15998375325E+01  0.35561911593E+01  0.30000000000E+01 0.  1.
</event>
<event>
 5   0  0.7495800E-05  0.9118800E+02  0.7818608E-02  0.1180000E+00
       11   -1    0    0    0    0  0.00000000000E+00  0.00000000000E+00  0.39999999673E+01  0.40000000000E+01  0.51109989000E-03 0.  1.
     -623   -1    0    0    0    0  0.00000000000E+00  0.00000000000E+00  0.12525980253E-10  0.17130000000E+03  0.17130000000E+03 0.  1.
       11    1    1    2    0    0 -0.28532654077E+00  0.50957951794E-01  0.36834562185E-01  0.29217288360E+00  0.51109989000E-03 0.  1.
     -623    1    1    2    0    0 -0.21885194298E+00  0.63892546200E+00  0.19824913193E+01  0.17131280277E+03  0.17130000000E+03 0.  1.
      622    1    1    2    0    0  0.50417848374E+00 -0.68988341379E+00  0.19806740858E+01  0.36950243440E+01  0.30000000000E+01 0.  1.
</event>
<event>
 5   0  0.7495800E-05  0.9118800E+02  0.7818608E-02  0.1180000E+00
       11   -1    0    0    0    0  0.00000000000E+00  0.00000000000E+00  0.39999999673E+01  0.40000000000E+01  0.51109989000E-03 0.  1.
     -623   -1    0    0    0    0  0.00000000000E+00  0.00000000000E+00  0.12525980253E-10  0.17130000000E+03  0.17130000000E+03 0.  1.
       11    1    1    2    0    0 -0.33155983758E+00  0.21905760981E+00  0.12724005499E+00  0.41726305267E+00  0.51109989000E-03 0.  1.
     -623    1    1    2    0    0  0.24175339526E+00 -0.39023370625E+00  0.19452679382E+01  0.17131165983E+03  0.17130000000E+03 0.  1.
      622    1    1    2    0    0  0.89806442316E-01  0.17117609644E+00  0.19274919742E+01  0.35710771153E+01  0.30000000000E+01 0.  1.
</event>
<event>
 5   0  0.7495800E-05  0.9118800E+02  0.7818608E-02  0.1180000E+00
       11   -1    0    0    0    0  0.00000000000E+00  0.00000000000E+00  0.39999999673E+01  0.40000000000E+01  0.51109989000E-03 0. -1.
     -623   -1    0    0    0    0  0.00000000000E+00  0.00000000000E+00  0.12525980253E-10  0.17130000000E+03  0.17130000000E+03 0.  1.
       11    1    1    2    0    0 -0.30865015095E+00  0.26723256651E+00  0.29905698538E+00  0.50607657722E+00  0.51109989000E-03 0. -1.
     -623    1    1    2    0    0  0.17098852351E-01 -0.59381466639E+00  0.19897880038E+01  0.17131258612E+03  0.17130000000E+03 0.  1.
      622    1    1    2    0    0  0.29155129860E+00  0.32658209988E+00  0.17111549782E+01  0.34813372987E+01  0.30000000000E+01 0. -1.
</event>
<event>
 5   0  0.7495800E-05  0.9118800E+02  0.7818608E-02  0.1180000E+00
       11   -1    0    0    0    0  0.00000000000E+00  0.00000000000E+00  0.39999999673E+01  0.40000000000E+01  0.51109989000E-03 0.  1.
     -623   -1    0    0    0    0  0.00000000000E+00  0.00000000000E+00  0.12525980253E-10  0.17130000000E+03  0.17130000000E+03 0.  1.
       11    1    1    2    0    0 -0.51818752062E-01 -0.27407853587E+00 -0.17721984253E+00  0.33047142191E+00  0.51109989000E-03 0.  1.
     -623    1    1    2    0    0  0.50722679199E+00  0.36801898254E+00  0.21418451422E+01  0.17131453592E+03  0.17130000000E+03 0.  1.
      622    1    1    2    0    0 -0.45540803993E+00 -0.93940446668E-01  0.20353746677E+01  0.36549926577E+01  0.30000000000E+01 0.  1.
</event>
<event>
 5   0  0.7495800E-05  0.9118800E+02  0.7818608E-02  0.1180000E+00
       11   -1    0    0    0    0  0.00000000000E+00  0.00000000000E+00  0.39999999673E+01  0.40000000000E+01  0.51109989000E-03 0.  1.
     -623   -1    0    0    0    0  0.00000000000E+00  0.00000000000E+00  0.12525980253E-10  0.17130000000E+03  0.17130000000E+03 0. -1.
       11    1    1    2    0    0  0.12943735634E+00  0.74586308153E+00  0.13513394565E+00  0.76897802965E+00  0.51109989000E-03 0.  1.
     -623    1    1    2    0    0  0.14412932494E+00 -0.40453116534E+00  0.28182317999E+01  0.17132371946E+03  0.17130000000E+03 0. -1.
      622    1    1    2    0    0 -0.27356668128E+00 -0.34133191619E+00  0.10466342218E+01  0.32073025115E+01  0.30000000000E+01 0.  1.
</event>
<event>
 5   0  0.7495800E-05  0.9118800E+02  0.7818608E-02  0.1180000E+00
       11   -1    0    0    0    0  0.00000000000E+00  0.00000000000E+00  0.39999999673E+01  0.40000000000E+01  0.51109989000E-03 0.  1.
     -623   -1    0    0    0    0  0.00000000000E+00  0.00000000000E+00  0.12525980253E-10  0.17130000000E+03  0.17130000000E+03 0. -1.
       11    1    1    2    0    0 -0.21181854398E+00  0.15179102723E+00 -0.20452305068E+00  0.33126658600E+00  0.51109989000E-03 0.  1.
     -623    1    1    2    0    0  0.62394969922E+00 -0.64048261656E-01  0.21615384598E+01  0.17131478530E+03  0.17130000000E+03 0. -1.
      622    1    1    2    0    0 -0.41213115523E+00 -0.87742765572E-01  0.20429845582E+01  0.36539481095E+01  0.30000000000E+01 0.  1.
</event>
<event>
 5   0  0.7495800E-05  0.9118800E+02  0.7818608E-02  0.1180000E+00
       11   -1    0    0    0    0  0.00000000000E+00  0.00000000000E+00  0.39999999673E+01  0.40000000000E+01  0.51109989000E-03 0. -1.
     -623   -1    0    0    0    0  0.00000000000E+00  0.00000000000E+00  0.12525980253E-10  0.17130000000E+03  0.17130000000E+03 0. -1.
       11    1    1    2    0    0 -0.78115194569E-01  0.43730863058E+00 -0.69006517116E+00  0.82068935881E+00  0.51109989000E-03 0. -1.
     -623    1    1    2    0    0  0.11300834598E+00  0.39822767813E+00  0.46984631081E+01  0.17136492322E+03  0.17130000000E+03 0.  1.
      622    1    1    2    0    0 -0.34893151416E-01 -0.83553630870E+00 -0.83979695641E-02  0.31143874167E+01  0.30000000000E+01 0.  1.
</event>
<event>
 5   0  0.7495800E-05  0.9118800E+02  0.7818608E-02  0.1180000E+00
       11   -1    0    0    0    0  0.00000000000E+00  0.00000000000E+00  0.39999999673E+01  0.40000000000E+01  0.51109989000E-03 0.  1.
     -623   -1    0    0    0    0  0.00000000000E+00  0.00000000000E+00  0.12525980253E-10  0.17130000000E+03  0.17130000000E+03 0.  1.
       11    1    1    2    0    0 -0.29564289183E+00 -0.13814786597E+00 -0.75075040001E-02  0.32641411765E+00  0.51109989000E-03 0.  1.
     -623    1    1    2    0    0  0.29059492454E+00 -0.25520215358E+00  0.19444198744E+01  0.17131147172E+03  0.17130000000E+03 0.  1.
      622    1    1    2    0    0  0.50479672935E-02  0.39335001955E+00  0.20630875969E+01  0.36621141643E+01  0.30000000000E+01 0.  1.
</event>
<event>
 5   0  0.7495800E-05  0.9118800E+02  0.7818608E-02  0.1180000E+00
       11   -1    0    0    0    0  0.00000000000E+00  0.00000000000E+00  0.39999999673E+01  0.40000000000E+01  0.51109989000E-03 0.  1.
     -623   -1    0    0    0    0  0.00000000000E+00  0.00000000000E+00  0.12525980253E-10  0.17130000000E+03  0.17130000000E+03 0.  1.
       11    1    1    2    0    0  0.12720068839E+00  0.60265559363E-01  0.94996539329E-03  0.14075907228E+00  0.51109989000E-03 0.  1.
     -623    1    1    2    0    0 -0.57028042623E+00 -0.52108113308E+00  0.16734020279E+01  0.17130991512E+03  0.17130000000E+03 0.  1.
      622    1    1    2    0    0  0.44307973784E+00  0.46081557372E+00  0.23256479740E+01  0.38493258041E+01  0.30000000000E+01 0.  1.
</event>
<event>
 5   0  0.7495800E-05  0.9118800E+02  0.7818608E-02  0.1180000E+00
       11   -1    0    0    0    0  0.00000000000E+00  0.00000000000E+00  0.39999999673E+01  0.40000000000E+01  0.51109989000E-03 0.  1.
     -623   -1    0    0    0    0  0.00000000000E+00  0.00000000000E+00  0.12525980253E-10  0.17130000000E+03  0.17130000000E+03 0.  1.
       11    1    1    2    0    0  0.10682618677E+00  0.53794968470E-01 -0.66467775110E-02  0.11979221046E+00  0.51109989000E-03 0.  1.
     -623    1    1    2    0    0 -0.37059374847E+00  0.41637758855E-01  0.15739265026E+01  0.17130763648E+03  0.17130000000E+03 0.  1.
      622    1    1    2    0    0  0.26376756170E+00 -0.95432727325E-01  0.24327202422E+01  0.38725713046E+01  0.30000000000E+01 0.  1.
</event>
<event>
 5   0  0.7495800E-05  0.9118800E+02  0.7818608E-02  0.1180000E+00
       11   -1    0    0    0    0  0.00000000000E+00  0.00000000000E+00  0.39999999673E+01  0.40000000000E+01  0.51109989000E-03 0. -1.
     -623   -1    0    0    0    0  0.00000000000E+00  0.00000000000E+00  0.12525980253E-10  0.17130000000E+03  0.17130000000E+03 0.  1.
       11    1    1    2    0    0 -0.22971596096E+00  0.14400342870E+00  0.26142467253E+00  0.37662916885E+00  0.51109989000E-03 0. -1.
     -623    1    1    2    0    0  0.29128541635E+00 -0.94494104637E+00  0.18982474774E+01  0.17131337106E+03  0.17130000000E+03 0.  1.
      622    1    1    2    0    0 -0.61569455392E-01  0.80093761767E+00  0.18403278175E+01  0.36099997702E+01  0.30000000000E+01 0.  0.
</event>
<event>
 5   0  0.7495800E-05  0.9118800E+02  0.7818608E-02  0.1180000E+00
       11   -1    0    0    0    0  0.00000000000E+00  0.00000000000E+00  0.39999999673E+01  0.40000000000E+01  0.51109989000E-03 0. -1.
     -623   -1    0    0    0    0  0.00000000000E+00  0.00000000000E+00  0.12525980253E-10  0.17130000000E+03  0.17130000000E+03 0. -1.
       11    1    1    2    0    0 -0.36622853899E+00  0.26414782093E-01  0.74082507051E-01  0.37457918063E+00  0.51109989000E-03 0. -1.
     -623    1    1    2    0    0  0.11464777594E+01  0.33946741880E+00  0.21158581388E+01  0.17131723937E+03  0.17130000000E+03 0. -1.
      622    1    1    2    0    0 -0.78024922040E+00 -0.36588220090E+00  0.18100593215E+01  0.36081814503E+01  0.30000000000E+01 0. -1.
</event>
<event>
 5   0  0.7495800E-05  0.9118800E+02  0.7818608E-02  0.1180000E+00
       11   -1    0    0    0    0  0.00000000000E+00  0.00000000000E+00  0.39999999673E+01  0.40000000000E+01  0.51109989000E-03 0.  1.
     -623   -1    0    0    0    0  0.00000000000E+00  0.00000000000E+00  0.12525980253E-10  0.17130000000E+03  0.17130000000E+03 0. -1.
       11    1    1    2    0    0 -0.62859150513E+00 -0.13197492346E+00 -0.63767871503E-01  0.64545430775E+00  0.51109989000E-03 0.  1.
     -623    1    1    2    0    0  0.15759436644E+00 -0.11100807591E+01  0.43695711681E+01  0.17135938920E+03  0.17130000000E+03 0. -1.
      622    1    1    2    0    0  0.47099713868E+00  0.12420556825E+01 -0.30580332927E+00  0.32951564909E+01  0.30000000000E+01 0.  1.
</event>
<event>
 5   0  0.7495800E-05  0.9118800E+02  0.7818608E-02  0.1180000E+00
       11   -1    0    0    0    0  0.00000000000E+00  0.00000000000E+00  0.39999999673E+01  0.40000000000E+01  0.51109989000E-03 0. -1.
     -623   -1    0    0    0    0  0.00000000000E+00  0.00000000000E+00  0.12525980253E-10  0.17130000000E+03  0.17130000000E+03 0. -1.
       11    1    1    2    0    0 -0.22122762971E+00  0.16991480885E+00  0.23425553586E+00  0.36426449692E+00  0.51109989000E-03 0. -1.
     -623    1    1    2    0    0  0.52032886599E+00 -0.95730453710E+00  0.19202426334E+01  0.17131422739E+03  0.17130000000E+03 0. -1.
      622    1    1    2    0    0 -0.29910123627E+00  0.78738972824E+00  0.18455017981E+01  0.36215081141E+01  0.30000000000E+01 0.  0.
</event>
<event>
 5   0  0.7495800E-05  0.9118800E+02  0.7818608E-02  0.1180000E+00
       11   -1    0    0    0    0  0.00000000000E+00  0.00000000000E+00  0.39999999673E+01  0.40000000000E+01  0.51109989000E-03 0. -1.
     -623   -1    0    0    0    0  0.00000000000E+00  0.00000000000E+00  0.12525980253E-10  0.17130000000E+03  0.17130000000E+03 0.  1.
       11    1    1    2    0    0  0.19833613322E+00  0.15760681998E+00  0.98855459948E-01  0.27193711522E+00  0.51109989000E-03 0. -1.
     -623    1    1    2    0    0 -0.34813136115E+00 -0.29849713171E+00  0.17130382592E+01  0.17130917896E+03  0.17130000000E+03 0.  1.
      622    1    1    2    0    0  0.14979522793E+00  0.14089031172E+00  0.21881062482E+01  0.37188839245E+01  0.30000000000E+01 0. -1.
</event>
<event>
 5   0  0.7495800E-05  0.9118800E+02  0.7818608E-02  0.1180000E+00
       11   -1    0    0    0    0  0.00000000000E+00  0.00000000000E+00  0.39999999673E+01  0.40000000000E+01  0.51109989000E-03 0.  1.
     -623   -1    0    0    0    0  0.00000000000E+00  0.00000000000E+00  0.12525980253E-10  0.17130000000E+03  0.17130000000E+03 0. -1.
       11    1    1    2    0    0 -0.11967446708E-01 -0.36753783924E-01 -0.58557602192E-01  0.70166333873E-01  0.51109989000E-03 0.  1.
     -623    1    1    2    0    0  0.99152769699E-01  0.43615073420E+00  0.15654216847E+01  0.17130773656E+03  0.17130000000E+03 0. -1.
      622    1    1    2    0    0 -0.87185322990E-01 -0.39939695028E+00  0.24931358849E+01  0.39220971106E+01  0.30000000000E+01 0.  1.
</event>
<event>
 5   0  0.7495800E-05  0.9118800E+02  0.7818608E-02  0.1180000E+00
       11   -1    0    0    0    0  0.00000000000E+00  0.00000000000E+00  0.39999999673E+01  0.40000000000E+01  0.51109989000E-03 0.  1.
     -623   -1    0    0    0    0  0.00000000000E+00  0.00000000000E+00  0.12525980253E-10  0.17130000000E+03  0.17130000000E+03 0. -1.
       11    1    1    2    0    0 -0.13395393337E+00  0.25111082911E+00 -0.28214737997E+00  0.40075891756E+00  0.51109989000E-03 0.  1.
     -623    1    1    2    0    0  0.80928352821E+00 -0.35855730456E+00  0.24533791989E+01  0.17131985458E+03  0.17130000000E+03 0. -1.
      622    1    1    2    0    0 -0.67532959485E+00  0.10744647545E+00  0.18287681484E+01  0.35793865043E+01  0.30000000000E+01 0.  1.
</event>
<event>
 5   0  0.7495800E-05  0.9118800E+02  0.7818608E-02  0.1180000E+00
       11   -1    0    0    0    0  0.00000000000E+00  0.00000000000E+00  0.39999999673E+01  0.40000000000E+01  0.51109989000E-03 0. -1.
     -623   -1    0    0    0    0  0.00000000000E+00  0.00000000000E+00  0.12525980253E-10  0.17130000000E+03  0.17130000000E+03 0. -1.
       11    1    1    2    0    0 -0.32787695178E+00  0.51525733416E+00 -0.34903211705E+00  0.70343236766E+00  0.51109989000E-03 0. -1.
     -623    1    1    2    0    0  0.86929192620E+00 -0.45757032142E+00  0.31835464320E+01  0.17133239626E+03  0.17130000000E+03 0. -1.
      622    1    1    2    0    0 -0.54141497442E+00 -0.57687012741E-01  0.11654856524E+01  0.32641713760E+01  0.30000000000E+01 0. -1.
</event>
<event>
 5   0  0.7495800E-05  0.9118800E+02  0.7818608E-02  0.1180000E+00
       11   -1    0    0    0    0  0.00000000000E+00  0.00000000000E+00  0.39999999673E+01  0.40000000000E+01  0.51109989000E-03 0. -1.
     -623   -1    0    0    0    0  0.00000000000E+00  0.00000000000E+00  0.12525980253E-10  0.17130000000E+03  0.17130000000E+03 0. -1.
       11    1    1    2    0    0 -0.21160457287E-01  0.88647956257E-01 -0.19924765645E-01  0.93292457413E-01  0.51109989000E-03 0. -1.
     -623    1    1    2    0    0  0.33154772690E+00 -0.26967317340E+00  0.15553814022E+01  0.17130759428E+03  0.17130000000E+03 0. -1.
      622    1    1    2    0    0 -0.31038726961E+00  0.18102521714E+00  0.24645433308E+01  0.38991132602E+01  0.30000000000E+01 0. -1.
</event>
<event>
 5   0  0.7495800E-05  0.9118800E+02  0.7818608E-02  0.1180000E+00
       11   -1    0    0    0    0  0.00000000000E+00  0.00000000000E+00  0.39999999673E+01  0.40000000000E+01  0.51109989000E-03 0.  1.
     -623   -1    0    0    0    0  0.00000000000E+00  0.00000000000E+00  0.12525980253E-10  0.17130000000E+03  0.17130000000E+03 0. -1.
       11    1    1    2    0    0 -0.31039826951E+00 -0.63240010463E-01  0.25997907977E+00  0.40979966786E+00  0.51109989000E-03 0.  1.
     -623    1    1    2    0    0  0.26906825376E+00 -0.26503466595E+00  0.18143558482E+01  0.17131002460E+03  0.17130000000E+03 0. -1.
      622    1    1    2    0    0  0.41330015745E-01  0.32827467642E+00  0.19256650394E+01  0.35801757327E+01  0.30000000000E+01 0.  1.
</event>
<event>
 5   0  0.7495800E-05  0.9118800E+02  0.7818608E-02  0.1180000E+00
       11   -1    0    0    0    0  0.00000000000E+00  0.00000000000E+00  0.39999999673E+01  0.40000000000E+01  0.51109989000E-03 0. -1.
     -623   -1    0    0    0    0  0.00000000000E+00  0.00000000000E+00  0.12525980253E-10  0.17130000000E+03  0.17130000000E+03 0.  1.
       11    1    1    2    0    0  0.10378530928E+00 -0.63668357417E-01  0.16183349346E-01  0.12283001334E+00  0.51109989000E-03 0. -1.
     -623    1    1    2    0    0 -0.19595914307E+00  0.13129822312E+00  0.15416088117E+01  0.17130709909E+03  0.17130000000E+03 0.  1.
      622    1    1    2    0    0  0.92173833794E-01 -0.67629865701E-01  0.24422078063E+01  0.38700709016E+01  0.30000000000E+01 0. -1.
</event>
<event>
 5   0  0.7495800E-05  0.9118800E+02  0.7818608E-02  0.1180000E+00
       11   -1    0    0    0    0  0.00000000000E+00  0.00000000000E+00  0.39999999673E+01  0.40000000000E+01  0.51109989000E-03 0. -1.
     -623   -1    0    0    0    0  0.00000000000E+00  0.00000000000E+00  0.12525980253E-10  0.17130000000E+03  0.17130000000E+03 0.  1.
       11    1    1    2    0    0  0.31256692281E+00 -0.45993627345E+00  0.18083526734E+00  0.58475731035E+00  0.51109989000E-03 0. -1.
     -623    1    1    2    0    0 -0.41399770369E+00  0.16053565556E+01  0.27530378607E+01  0.17133014265E+03  0.17130000000E+03 0. -1.
      622    1    1    2    0    0  0.10143078088E+00 -0.11454202821E+01  0.10661268393E+01  0.33851000374E+01  0.30000000000E+01 0.  0.
</event>
<event>
 5   0  0.7495800E-05  0.9118800E+02  0.7818608E-02  0.1180000E+00
       11   -1    0    0    0    0  0.00000000000E+00  0.00000000000E+00  0.39999999673E+01  0.40000000000E+01  0.51109989000E-03 0.  1.
     -623   -1    0    0    0    0  0.00000000000E+00  0.00000000000E+00  0.12525980253E-10  0.17130000000E+03  0.17130000000E+03 0.  1.
       11    1    1    2    0    0 -0.91561647438E-01  0.10307542609E+00 -0.36727329802E+00  0.39229837549E+00  0.51109989000E-03 0.  1.
     -623    1    1    2    0    0  0.10335233007E+01 -0.49908543603E+00  0.26966002484E+01  0.17132506795E+03  0.17130000000E+03 0.  1.
      622    1    1    2    0    0 -0.94196165331E+00  0.39601000994E+00  0.16706730170E+01  0.35826336701E+01  0.30000000000E+01 0.  1.
</event>
<event>
 5   0  0.7495800E-05  0.9118800E+02  0.7818608E-02  0.1180000E+00
       11   -1    0    0    0    0  0.00000000000E+00  0.00000000000E+00  0.39999999673E+01  0.40000000000E+01  0.51109989000E-03 0. -1.
     -623   -1    0    0    0    0  0.00000000000E+00  0.00000000000E+00  0.12525980253E-10  0.17130000000E+03  0.17130000000E+03 0. -1.
       11    1    1    2    0    0 -0.13086333655E+00 -0.65916369792E-01 -0.13644749973E-01  0.14716188734E+00  0.51109989000E-03 0. -1.
     -623    1    1    2    0    0  0.34941701340E+00 -0.38245942547E+00  0.16625967233E+01  0.17130885148E+03  0.17130000000E+03 0. -1.
      622    1    1    2    0    0 -0.21855367685E+00  0.44837579527E+00  0.23510479940E+01  0.38439866329E+01  0.30000000000E+01 0. -1.
</event>
<event>
 5   0  0.7495800E-05  0.9118800E+02  0.7818608E-02  0.1180000E+00
       11   -1    0    0    0    0  0.00000000000E+00  0.00000000000E+00  0.39999999673E+01  0.40000000000E+01  0.51109989000E-03 0.  1.
     -623   -1    0    0    0    0  0.00000000000E+00  0.00000000000E+00  0.12525980253E-10  0.17130000000E+03  0.17130000000E+03 0. -1.
       11    1    1    2    0    0  0.19465136598E+00  0.15951211295E+00  0.13569747301E+00  0.28591490668E+00  0.51109989000E-03 0.  1.
     -623    1    1    2    0    0  0.91230417427E+00 -0.19167461288E+00  0.20035573363E+01  0.17131425300E+03  0.17130000000E+03 0. -1.
      622    1    1    2    0    0 -0.11069555403E+01  0.32162499939E-01  0.18607451581E+01  0.36998320959E+01  0.30000000000E+01 0.  1.
</event>
<event>
 5   0  0.7495800E-05  0.9118800E+02  0.7818608E-02  0.1180000E+00
       11   -1    0    0    0    0  0.00000000000E+00  0.00000000000E+00  0.39999999673E+01  0.40000000000E+01  0.51109989000E-03 0. -1.
     -623   -1    0    0    0    0  0.00000000000E+00  0.00000000000E+00  0.12525980253E-10  0.17130000000E+03  0.17130000000E+03 0.  1.
       11    1    1    2    0    0 -0.11366098589E-01  0.28733582181E+00  0.44931115234E-01  0.29105004557E+00  0.51109989000E-03 0. -1.
     -623    1    1    2    0    0 -0.20297946455E+00 -0.97191289798E-01  0.18097728608E+01  0.17130970762E+03  0.17130000000E+03 0.  1.
      622    1    1    2    0    0  0.21434556314E+00 -0.19014453201E+00  0.21452959913E+01  0.36992423351E+01  0.30000000000E+01 0. -1.
</event>
<event>
 5   0  0.7495800E-05  0.9118800E+02  0.7818608E-02  0.1180000E+00
       11   -1    0    0    0    0  0.00000000000E+00  0.00000000000E+00  0.39999999673E+01  0.40000000000E+01  0.51109989000E-03 0. -1.
     -623   -1    0    0    0    0  0.00000000000E+00  0.00000000000E+00  0.12525980253E-10  0.17130000000E+03  0.17130000000E+03 0. -1.
       11    1    1    2    0    0 -0.60861632547E+00  0.27356739887E+00  0.57134738229E+00  0.87845947307E+00  0.51109989000E-03 0. -1.
     -623    1    1    2    0    0  0.47764741486E+00 -0.73203330422E+00  0.28308333319E+01  0.17132561874E+03  0.17130000000E+03 0. -1.
      622    1    1    2    0    0  0.13096891062E+00  0.45846590535E+00  0.59781925319E+00  0.30959217854E+01  0.30000000000E+01 0. -1.
</event>
<event>
 5   0  0.7495800E-05  0.9118800E+02  0.7818608E-02  0.1180000E+00
       11   -1    0    0    0    0  0.00000000000E+00  0.00000000000E+00  0.39999999673E+01  0.40000000000E+01  0.51109989000E-03 0.  1.
     -623   -1    0    0    0    0  0.00000000000E+00  0.00000000000E+00  0.12525980253E-10  0.17130000000E+03  0.17130000000E+03 0. -1.
       11    1    1    2    0    0  0.18422803679E-01 -0.12379873220E+00  0.93320934324E-01  0.15612361703E+00  0.51109989000E-03 0.  1.
     -623    1    1    2    0    0 -0.97257568723E-01 -0.62507846413E+00  0.16397152601E+01  0.17130901567E+03  0.17130000000E+03 0. -1.
      622    1    1    2    0    0  0.78834765043E-01  0.74887719633E+00  0.22669637729E+01  0.38348607175E+01  0.30000000000E+01 0.  1.
</event>
<event>
 5   0  0.7495800E-05  0.9118800E+02  0.7818608E-02  0.1180000E+00
       11   -1    0    0    0    0  0.00000000000E+00  0.00000000000E+00  0.39999999673E+01  0.40000000000E+01  0.51109989000E-03 0. -1.
     -623   -1    0    0    0    0  0.00000000000E+00  0.00000000000E+00  0.12525980253E-10  0.17130000000E+03  0.17130000000E+03 0. -1.
       11    1    1    2    0    0 -0.56967634685E-01  0.55835423793E-01 -0.95775519763E-01  0.12464396239E+00  0.51109989000E-03 0. -1.
     -623    1    1    2    0    0  0.53982965371E-01  0.25120945547E+00  0.16751991308E+01  0.17130838366E+03  0.17130000000E+03 0. -1.
      622    1    1    2    0    0  0.29846693144E-02 -0.30704487926E+00  0.24205763563E+01  0.38669723768E+01  0.30000000000E+01 0. -1.
</event>
<event>
 5   0  0.7495800E-05  0.9118800E+02  0.7818608E-02  0.1180000E+00
       11   -1    0    0    0    0  0.00000000000E+00  0.00000000000E+00  0.39999999673E+01  0.40000000000E+01  0.51109989000E-03 0.  1.
     -623   -1    0    0    0    0  0.00000000000E+00  0.00000000000E+00  0.12525980253E-10  0.17130000000E+03  0.17130000000E+03 0. -1.
       11    1    1    2    0    0 -0.42068802352E+00 -0.90584914272E-01  0.40199084518E+00  0.58888109212E+00  0.51109989000E-03 0.  1.
     -623    1    1    2    0    0  0.89312260038E+00  0.12851178930E+00  0.20784392840E+01  0.17131498502E+03  0.17130000000E+03 0. -1.
      622    1    1    2    0    0 -0.47243457685E+00 -0.37926875024E-01  0.15195698381E+01  0.33961338858E+01  0.30000000000E+01 0.  1.
</event>
<event>
 5   0  0.7495800E-05  0.9118800E+02  0.7818608E-02  0.1180000E+00
       11   -1    0    0    0    0  0.00000000000E+00  0.00000000000E+00  0.39999999673E+01  0.40000000000E+01  0.51109989000E-03 0. -1.
     -623   -1    0    0    0    0  0.00000000000E+00  0.00000000000E+00  0.12525980253E-10  0.17130000000E+03  0.17130000000E+03 0. -1.
       11    1    1    2    0    0 -0.31206983535E+00  0.38730017214E+00  0.57963578666E+00  0.76378459783E+00  0.51109989000E-03 0. -1.
     -623    1    1    2    0    0 -0.26860286130E+00 -0.11405112046E+01  0.27909035775E+01  0.17132674063E+03  0.17130000000E+03 0. -1.
      622    1    1    2    0    0  0.58067269665E+00  0.75321103249E+00  0.62946060316E+00  0.32094747687E+01  0.30000000000E+01 0.  0.
</event>
<event>
 5   0  0.7495800E-05  0.9118800E+02  0.7818608E-02  0.1180000E+00
       11   -1    0    0    0    0  0.00000000000E+00  0.00000000000E+00  0.39999999673E+01  0.40000000000E+01  0.51109989000E-03 0. -1.
     -623   -1    0    0    0    0  0.00000000000E+00  0.00000000000E+00  0.12525980253E-10  0.17130000000E+03  0.17130000000E+03 0.  1.
       11    1    1    2    0    0  0.27013715741E+00  0.21280159522E+00  0.53288976727E-01  0.34799221113E+00  0.51109989000E-03 0. -1.
     -623    1    1    2    0    0 -0.71950095131E+00  0.83709655485E+00  0.22437787944E+01  0.17131825050E+03  0.17130000000E+03 0.  1.
      622    1    1    2    0    0  0.44936379390E+00 -0.10498981501E+01  0.17029321963E+01  0.36337572855E+01  0.30000000000E+01 0. -1.
</event>
<event>
 5   0  0.7495800E-05  0.9118800E+02  0.7818608E-02  0.1180000E+00
       11   -1    0    0    0    0  0.00000000000E+00  0.00000000000E+00  0.39999999673E+01  0.40000000000E+01  0.51109989000E-03 0. -1.
     -623   -1    0    0    0    0  0.00000000000E+00  0.00000000000E+00  0.12525980253E-10  0.17130000000E+03  0.17130000000E+03 0.  1.
       11    1    1    2    0    0 -0.37459679262E+00 -0.27358557216E+00  0.28147423665E-01  0.46471965852E+00  0.51109989000E-03 0. -1.
     -623    1    1    2    0    0 -0.36139795825E+00  0.84065357806E+00  0.23906845688E+01  0.17131912526E+03  0.17130000000E+03 0.  1.
      622    1    1    2    0    0  0.73599475086E+00 -0.56706800590E+00  0.15811679749E+01  0.35161550821E+01  0.30000000000E+01 0. -1.
</event>
<event>
 5   0  0.7495800E-05  0.9118800E+02  0.7818608E-02  0.1180000E+00
       11   -1    0    0    0    0  0.00000000000E+00  0.00000000000E+00  0.39999999673E+01  0.40000000000E+01  0.51109989000E-03 0. -1.
     -623   -1    0    0    0    0  0.00000000000E+00  0.00000000000E+00  0.12525980253E-10  0.17130000000E+03  0.17130000000E+03 0. -1.
       11    1    1    2    0    0  0.10218431211E+00 -0.23257054227E+00  0.30526072796E+00  0.39713355944E+00  0.51109989000E-03 0. -1.
     -623    1    1    2    0    0 -0.54303313197E+00  0.43339027054E+00  0.17791831149E+01  0.17131064825E+03  0.17130000000E+03 0. -1.
      622    1    1    2    0    0  0.44084881986E+00 -0.20081972827E+00  0.19155561245E+01  0.35922181881E+01  0.30000000000E+01 0. -1.
</event>
<event>
 5   0  0.7495800E-05  0.9118800E+02  0.7818608E-02  0.1180000E+00
       11   -1    0    0    0    0  0.00000000000E+00  0.00000000000E+00  0.39999999673E+01  0.40000000000E+01  0.51109989000E-03 0.  1.
     -623   -1    0    0    0    0  0.00000000000E+00  0.00000000000E+00  0.12525980253E-10  0.17130000000E+03  0.17130000000E+03 0.  1.
       11    1    1    2    0    0 -0.53460627893E-02  0.31113529567E+00  0.11059100525E-01  0.31137809417E+00  0.51109989000E-03 0.  1.
     -623    1    1    2    0    0 -0.70765999559E-01  0.44360498609E+00  0.20040392282E+01  0.17131231119E+03  0.17130000000E+03 0.  1.
      622    1    1    2    0    0  0.76112062349E-01 -0.75474028176E+00  0.19849016386E+01  0.36763107124E+01  0.30000000000E+01 0.  0.
</event>
<event>
 5   0  0.7495800E-05  0.9118800E+02  0.7818608E-02  0.1180000E+00
       11   -1    0    0    0    0  0.00000000000E+00  0.00000000000E+00  0.39999999673E+01  0.40000000000E+01  0.51109989000E-03 0. -1.
     -623   -1    0    0    0    0  0.00000000000E+00  0.00000000000E+00  0.12525980253E-10  0.17130000000E+03  0.17130000000E+03 0.  1.
       11    1    1    2    0    0  0.10954129412E+00 -0.22574055460E-01  0.17641443961E-01  0.11322705006E+00  0.51109989000E-03 0. -1.
     -623    1    1    2    0    0 -0.99375011194E-01  0.45246012355E+00  0.15612043823E+01  0.17130774050E+03  0.17130000000E+03 0.  1.
      622    1    1    2    0    0 -0.10166282925E-01 -0.42988606808E+00  0.24211541411E+01  0.38790324515E+01  0.30000000000E+01 0. -1.
</event>
<event>
 5   0  0.7495800E-05  0.9118800E+02  0.7818608E-02  0.1180000E+00
       11   -1    0    0    0    0  0.00000000000E+00  0.00000000000E+00  0.39999999673E+01  0.40000000000E+01  0.51109989000E-03 0.  1.
     -623   -1    0    0    0    0  0.00000000000E+00  0.00000000000E+00  0.12525980253E-10  0.17130000000E+03  0.17130000000E+03 0.  1.
       11    1    1    2    0    0 -0.48245527345E+00  0.21782151125E+00 -0.13353471666E-01  0.52951664569E+00  0.51109989000E-03 0.  1.
     -623    1    1    2    0    0  0.60848220001E+00 -0.12945222551E+00  0.23089482458E+01  0.17131668994E+03  0.17130000000E+03 0.  1.
      622    1    1    2    0    0 -0.12602692656E+00 -0.88369285740E-01  0.17044051932E+01  0.34537934188E+01  0.30000000000E+01 0.  1.
</event>
<event>
 5   0  0.7495800E-05  0.9118800E+02  0.7818608E-02  0.1180000E+00
       11   -1    0    0    0    0  0.00000000000E+00  0.00000000000E+00  0.39999999673E+01  0.40000000000E+01  0.51109989000E-03 0.  1.
     -623   -1    0    0    0    0  0.00000000000E+00  0.00000000000E+00  0.12525980253E-10  0.17130000000E+03  0.17130000000E+03 0. -1.
       11    1    1    2    0    0 -0.23040392895E+00  0.21409491716E+00  0.12449832559E+00  0.33826424334E+00  0.51109989000E-03 0.  1.
     -623    1    1    2    0    0  0.73496252619E+00 -0.29056035166E+00  0.18603856184E+01  0.17131192495E+03  0.17130000000E+03 0.  1.
      622    1    1    2    0    0 -0.50455859725E+00  0.76465434498E-01  0.20151160234E+01  0.36498108072E+01  0.30000000000E+01 0.  1.
</event>
<event>
 5   0  0.7495800E-05  0.9118800E+02  0.7818608E-02  0.1180000E+00
       11   -1    0    0    0    0  0.00000000000E+00  0.00000000000E+00  0.39999999673E+01  0.40000000000E+01  0.51109989000E-03 0. -1.
     -623   -1    0    0    0    0  0.00000000000E+00  0.00000000000E+00  0.12525980253E-10  0.17130000000E+03  0.17130000000E+03 0.  1.
       11    1    1    2    0    0  0.37606452920E+00 -0.53353666879E-01  0.29337199633E+00  0.47993596797E+00  0.51109989000E-03 0. -1.
     -623    1    1    2    0    0  0.10432891783E+01  0.59830014704E+00  0.27613086981E+01  0.17132647560E+03  0.17130000000E+03 0.  1.
      622    1    1    2    0    0 -0.14193537075E+01 -0.54494648016E+00  0.94531927290E+00  0.34935884332E+01  0.30000000000E+01 0. -1.
</event>
<event>
 5   0  0.7495800E-05  0.9118800E+02  0.7818608E-02  0.1180000E+00
       11   -1    0    0    0    0  0.00000000000E+00  0.00000000000E+00  0.39999999673E+01  0.40000000000E+01  0.51109989000E-03 0.  1.
     -623   -1    0    0    0    0  0.00000000000E+00  0.00000000000E+00  0.12525980253E-10  0.17130000000E+03  0.17130000000E+03 0. -1.
       11    1    1    2    0    0 -0.41402921577E-02  0.31370496313E-01 -0.56571983443E-02  0.32148330816E-01  0.51109989000E-03 0.  1.
     -623    1    1    2    0    0  0.56173896250E+00 -0.95934896002E-01  0.14816835240E+01  0.17130735577E+03  0.17130000000E+03 0. -1.
      622    1    1    2    0    0 -0.55759867034E+00  0.64564399689E-01  0.25239736418E+01  0.39604959012E+01  0.30000000000E+01 0.  1.
</event>
<event>
 5   0  0.7495800E-05  0.9118800E+02  0.7818608E-02  0.1180000E+00
       11   -1    0    0    0    0  0.00000000000E+00  0.00000000000E+00  0.39999999673E+01  0.40000000000E+01  0.51109989000E-03 0. -1.
     -623   -1    0    0    0    0  0.00000000000E+00  0.00000000000E+00  0.12525980253E-10  0.17130000000E+03  0.17130000000E+03 0. -1.
       11    1    1    2    0    0  0.14085623251E+00 -0.26851204401E+00 -0.13080454127E+00  0.33022611231E+00  0.51109989000E-03 0. -1.
     -623    1    1    2    0    0  0.17643853993E+00  0.34394283146E+00  0.20652617196E+01  0.17131288549E+03  0.17130000000E+03 0. -1.
      622    1    1    2    0    0 -0.31729477244E+00 -0.75430787451E-01  0.20655427890E+01  0.36568884027E+01  0.30000000000E+01 0. -1.
</event>
<event>
 5   0  0.7495800E-05  0.9118800E+02  0.7818608E-02  0.1180000E+00
       11   -1    0    0    0    0  0.00000000000E+00  0.00000000000E+00  0.39999999673E+01  0.40000000000E+01  0.51109989000E-03 0.  1.
     -623   -1    0    0    0    0  0.00000000000E+00  0.00000000000E+00  0.12525980253E-10  0.17130000000E+03  0.17130000000E+03 0.  1.
       11    1    1    2    0    0 -0.24084109511E+00 -0.47925930699E-01 -0.46858621982E+00  0.52903178974E+00  0.51109989000E-03 0.  1.
     -623    1    1    2    0    0  0.29399674344E+00  0.10431790117E+01  0.31139603129E+01  0.17133172913E+03  0.17130000000E+03 0.  1.
      622    1    1    2    0    0 -0.53155648330E-01 -0.99525308102E+00  0.13546258743E+01  0.34392390841E+01  0.30000000000E+01 0.  1.
</event>
<event>
 5   0  0.7495800E-05  0.9118800E+02  0.7818608E-02  0.1180000E+00
       11   -1    0    0    0    0  0.00000000000E+00  0.00000000000E+00  0.39999999673E+01  0.40000000000E+01  0.51109989000E-03 0.  1.
     -623   -1    0    0    0    0  0.00000000000E+00  0.00000000000E+00  0.12525980253E-10  0.17130000000E+03  0.17130000000E+03 0.  1.
       11    1    1    2    0    0 -0.25809926666E+00 -0.20516972950E-01 -0.17253977252E+00  0.31113728795E+00  0.51109989000E-03 0.  1.
     -623    1    1    2    0    0 -0.19291361965E-02  0.47724692122E+00  0.21157505749E+01  0.17131373024E+03  0.17130000000E+03 0.  1.
      622    1    1    2    0    0  0.26002840286E+00 -0.45672994827E+00  0.20567891650E+01  0.36751324718E+01  0.30000000000E+01 0.  1.
</event>
<event>
 5   0  0.7495800E-05  0.9118800E+02  0.7818608E-02  0.1180000E+00
       11   -1    0    0    0    0  0.00000000000E+00  0.00000000000E+00  0.39999999673E+01  0.40000000000E+01  0.51109989000E-03 0.  1.
     -623   -1    0    0    0    0  0.00000000000E+00  0.00000000000E+00  0.12525980253E-10  0.17130000000E+03  0.17130000000E+03 0. -1.
       11    1    1    2    0    0  0.30379579413E-01  0.63661193110E-01 -0.13819875335E+00  0.15516063613E+00  0.51109989000E-03 0.  1.
     -623    1    1    2    0    0  0.37145767610E+00  0.25315750871E+00  0.18050941150E+01  0.17131010021E+03  0.17130000000E+03 0. -1.
      622    1    1    2    0    0 -0.40183725552E+00 -0.31681870182E+00  0.23331046057E+01  0.38347391529E+01  0.30000000000E+01 0.  0.
</event>
<event>
 5   0  0.7495800E-05  0.9118800E+02  0.7818608E-02  0.1180000E+00
       11   -1    0    0    0    0  0.00000000000E+00  0.00000000000E+00  0.39999999673E+01  0.40000000000E+01  0.51109989000E-03 0. -1.
     -623   -1    0    0    0    0  0.00000000000E+00  0.00000000000E+00  0.12525980253E-10  0.17130000000E+03  0.17130000000E+03 0.  1.
       11    1    1    2    0    0 -0.85327934850E-01 -0.80613952016E-01  0.14534983016E+00  0.18683227792E+00  0.51109989000E-03 0. -1.
     -623    1    1    2    0    0 -0.17354332171E+00  0.91131207852E-01  0.15264644883E+01  0.17130691322E+03  0.17130000000E+03 0.  1.
      622    1    1    2    0    0  0.25887125656E+00 -0.10517255837E-01  0.23281856488E+01  0.38062545048E+01  0.30000000000E+01 0. -1.
</event>
<event>
 5   0  0.7495800E-05  0.9118800E+02  0.7818608E-02  0.1180000E+00
       11   -1    0    0    0    0  0.00000000000E+00  0.00000000000E+00  0.39999999673E+01  0.40000000000E+01  0.51109989000E-03 0. -1.
     -623   -1    0    0    0    0  0.00000000000E+00  0.00000000000E+00  0.12525980253E-10  0.17130000000E+03  0.17130000000E+03 0. -1.
       11    1    1    2    0    0  0.12668383710E+00 -0.12612303811E+00  0.11686806788E+00  0.21357486237E+00  0.51109989000E-03 0. -1.
     -623    1    1    2    0    0  0.17842962557E+00 -0.64388119990E+00  0.17444434174E+01  0.17131018505E+03  0.17130000000E+03 0. -1.
      622    1    1    2    0    0 -0.30511346267E+00  0.77000423801E+00  0.21386884821E+01  0.37762400844E+01  0.30000000000E+01 0. -1.
</event>
<event>
 5   0  0.7495800E-05  0.9118800E+02  0.7818608E-02  0.1180000E+00
       11   -1    0    0    0    0  0.00000000000E+00  0.00000000000E+00  0.39999999673E+01  0.40000000000E+01  0.51109989000E-03 0.  1.
     -623   -1    0    0    0    0  0.00000000000E+00  0.00000000000E+00  0.12525980253E-10  0.17130000000E+03  0.17130000000E+03 0.  1.
       11    1    1    2    0    0  0.47548640738E+00  0.12005907140E+00  0.13345980357E+00  0.50824529966E+00  0.51109989000E-03 0.  1.
     -623    1    1    2    0    0 -0.56597033243E+00  0.84024808562E+00  0.24094466390E+01  0.17131993980E+03  0.17130000000E+03 0.  1.
      622    1    1    2    0    0  0.90483925048E-01 -0.96030715703E+00  0.14570935248E+01  0.34718149024E+01  0.30000000000E+01 0.  1.
</event>
<event>
 5   0  0.7495800E-05  0.9118800E+02  0.7818608E-02  0.1180000E+00
       11   -1    0    0    0    0  0.00000000000E+00  0.00000000000E+00  0.39999999673E+01  0.40000000000E+01  0.51109989000E-03 0. -1.
     -623   -1    0    0    0    0  0.00000000000E+00  0.00000000000E+00  0.12525980253E-10  0.17130000000E+03  0.17130000000E+03 0.  1.
       11    1    1    2    0    0  0.12019701127E+00 -0.18585277109E+00  0.20550947182E+00  0.30203141935E+00  0.51109989000E-03 0. -1.
     -623    1    1    2    0    0 -0.11534204332E+01  0.17641904070E+00  0.19241323071E+01  0.17131477983E+03  0.17130000000E+03 0.  1.
      622    1    1    2    0    0  0.10332234219E+01  0.94337303936E-02  0.18703581884E+01  0.36831887527E+01  0.30000000000E+01 0. -1.
</event>
<event>
 5   0  0.7495800E-05  0.9118800E+02  0.7818608E-02  0.1180000E+00
       11   -1    0    0    0    0  0.00000000000E+00  0.00000000000E+00  0.39999999673E+01  0.40000000000E+01  0.51109989000E-03 0.  1.
     -623   -1    0    0    0    0  0.00000000000E+00  0.00000000000E+00  0.12525980253E-10  0.17130000000E+03  0.17130000000E+03 0.  1.
       11    1    1    2    0    0  0.53877200089E-01  0.10660646469E+00  0.74072437608E-01  0.14055133667E+00  0.51109989000E-03 0.  1.
     -623    1    1    2    0    0  0.68371547804E+00  0.44819656043E-01  0.16329376630E+01  0.17130915317E+03  0.17130000000E+03 0.  1.
      622    1    1    2    0    0 -0.73759267813E+00 -0.15142612073E+00  0.22929898668E+01  0.38502954897E+01  0.30000000000E+01 0.  1.
</event>
<event>
 5   0  0.7495800E-05  0.9118800E+02  0.7818608E-02  0.1180000E+00
       11   -1    0    0    0    0  0.00000000000E+00  0.00000000000E+00  0.39999999673E+01  0.40000000000E+01  0.51109989000E-03 0. -1.
     -623   -1    0    0    0    0  0.00000000000E+00  0.00000000000E+00  0.12525980253E-10  0.17130000000E+03  0.17130000000E+03 0. -1.
       11    1    1    2    0    0 -0.23419769167E+00 -0.25505464450E+00 -0.34911482886E-01  0.34802371086E+00  0.51109989000E-03 0. -1.
     -623    1    1    2    0    0  0.84273828635E+00  0.30099376899E+00  0.20711915236E+01  0.17131485820E+03  0.17130000000E+03 0. -1.
      622    1    1    2    0    0 -0.60854059468E+00 -0.45939124493E-01  0.19637199267E+01  0.36371180912E+01  0.30000000000E+01 0.  0.
</event>
<event>
 5   0  0.7495800E-05  0.9118800E+02  0.7818608E-02  0.1180000E+00
       11   -1    0    0    0    0  0.00000000000E+00  0.00000000000E+00  0.39999999673E+01  0.40000000000E+01  0.51109989000E-03 0. -1.
     -623   -1    0    0    0    0  0.00000000000E+00  0.00000000000E+00  0.12525980253E-10  0.17130000000E+03  0.17130000000E+03 0. -1.
       11    1    1    2    0    0  0.15069362562E+00  0.40864069701E+00  0.19671812260E-01  0.43598512529E+00  0.51109989000E-03 0. -1.
     -623    1    1    2    0    0 -0.10873716699E+01 -0.29413594431E+00  0.23459412078E+01  0.17131976632E+03  0.17130000000E+03 0. -1.
      622    1    1    2    0    0  0.93667804424E+00 -0.11450475270E+00  0.16343869473E+01  0.35442485509E+01  0.30000000000E+01 0. -1.
</event>
<event>
 5   0  0.7495800E-05  0.9118800E+02  0.7818608E-02  0.1180000E+00
       11   -1    0    0    0    0  0.00000000000E+00  0.00000000000E+00  0.39999999673E+01  0.40000000000E+01  0.51109989000E-03 0. -1.
     -623   -1    0    0    0    0  0.00000000000E+00  0.00000000000E+00  0.12525980253E-10  0.17130000000E+03  0.17130000000E+03 0.  1.
       11    1    1    2    0    0 -0.16472574956E+00  0.18667276917E+00  0.59065039388E+00  0.64097538512E+00  0.51109989000E-03 0. -1.
     -623    1    1    2    0    0  0.60686598876E+00 -0.53500529479E+00  0.20411788838E+01  0.17131407102E+03  0.17130000000E+03 0.  1.
      622    1    1    2    0    0 -0.44214023920E+00  0.34833252562E+00  0.13681706897E+01  0.33449535984E+01  0.30000000000E+01 0. -1.
</event>
<event>
 5   0  0.7495800E-05  0.9118800E+02  0.7818608E-02  0.1180000E+00
       11   -1    0    0    0    0  0.00000000000E+00  0.00000000000E+00  0.39999999673E+01  0.40000000000E+01  0.51109989000E-03 0. -1.
     -623   -1    0    0    0    0  0.00000000000E+00  0.00000000000E+00  0.12525980253E-10  0.17130000000E+03  0.17130000000E+03 0.  1.
       11    1    1    2    0    0  0.87958440041E-01 -0.25229849750E-01 -0.10064042106E+00  0.13602201317E+00  0.51109989000E-03 0. -1.
     -623    1    1    2    0    0 -0.41476188186E+00 -0.38906444967E+00  0.17391876000E+01  0.17130977255E+03  0.17130000000E+03 0.  1.
      622    1    1    2    0    0  0.32680344182E+00  0.41429429942E+00  0.23614527884E+01  0.38542054341E+01  0.30000000000E+01 0. -1.
</event>
<event>
 5   0  0.7495800E-05  0.9118800E+02  0.7818608E-02  0.1180000E+00
       11   -1    0    0    0    0  0.00000000000E+00  0.00000000000E+00  0.39999999673E+01  0.40000000000E+01  0.51109989000E-03 0.  1.
     -623   -1    0    0    0    0  0.00000000000E+00  0.00000000000E+00  0.12525980253E-10  0.17130000000E+03  0.17130000000E+03 0. -1.
       11    1    1    2    0    0  0.14269362246E+00 -0.26387342402E+00 -0.73464797176E-01  0.30884946404E+00  0.51109989000E-03 0.  1.
     -623    1    1    2    0    0  0.77133865954E+00  0.11270728155E+01  0.23756082690E+01  0.17132191562E+03  0.17130000000E+03 0. -1.
      622    1    1    2    0    0 -0.91403228199E+00 -0.86319939145E+00  0.16978564955E+01  0.36692349177E+01  0.30000000000E+01 0.  1.
</event>
<event>
 5   0  0.7495800E-05  0.9118800E+02  0.7818608E-02  0.1180000E+00
       11   -1    0    0    0    0  0.00000000000E+00  0.00000000000E+00  0.39999999673E+01  0.40000000000E+01  0.51109989000E-03 0. -1.
     -623   -1    0    0    0    0  0.00000000000E+00  0.00000000000E+00  0.12525980253E-10  0.17130000000E+03  0.17130000000E+03 0. -1.
       11    1    1    2    0    0 -0.36811143853E+00 -0.41699498256E-01  0.34387727127E+00  0.50546683200E+00  0.51109989000E-03 0. -1.
     -623    1    1    2    0    0  0.98640015801E+00  0.78672312797E+00  0.21917793723E+01  0.17131866745E+03  0.17130000000E+03 0. -1.
      622    1    1    2    0    0 -0.61828871948E+00 -0.74502362971E+00  0.14643433238E+01  0.34758657223E+01  0.30000000000E+01 0. -1.
</event>
<event>
 5   0  0.7495800E-05  0.9118800E+02  0.7818608E-02  0.1180000E+00
       11   -1    0    0    0    0  0.00000000000E+00  0.00000000000E+00  0.39999999673E+01  0.40000000000E+01  0.51109989000E-03 0. -1.
     -623   -1    0    0    0    0  0.00000000000E+00  0.00000000000E+00  0.12525980253E-10  0.17130000000E+03  0.17130000000E+03 0. -1.
       11    1    1    2    0    0 -0.79204037801E-03  0.24382481477E+00  0.13127575292E-01  0.24417977410E+00  0.51109989000E-03 0. -1.
     -623    1    1    2    0    0 -0.92650367879E+00 -0.19361280714E+01  0.29412826463E+01  0.17133869424E+03  0.17130000000E+03 0. -1.
      622    1    1    2    0    0  0.92729571917E+00  0.16923032566E+01  0.10455897458E+01  0.37171259838E+01  0.30000000000E+01 0.  0.
</event>
<event>
 5   0  0.7495800E-05  0.9118800E+02  0.7818608E-02  0.1180000E+00
       11   -1    0    0    0    0  0.00000000000E+00  0.00000000000E+00  0.39999999673E+01  0.40000000000E+01  0.51109989000E-03 0.  1.
     -623   -1    0    0    0    0  0.00000000000E+00  0.00000000000E+00  0.12525980253E-10  0.17130000000E+03  0.17130000000E+03 0. -1.
       11    1    1    2    0    0 -0.14597707375E+00 -0.26271305254E+00  0.20491724848E+00  0.36375650369E+00  0.51109989000E-03 0.  1.
     -623    1    1    2    0    0  0.21459023311E+00  0.77571125716E+00  0.18278879020E+01  0.17131164278E+03  0.17130000000E+03 0. -1.
      622    1    1    2    0    0 -0.68613159359E-01 -0.51299820463E+00  0.19671948169E+01  0.36246007189E+01  0.30000000000E+01 0.  0.
</event>
<event>
 5   0  0.7495800E-05  0.9118800E+02  0.7818608E-02  0.1180000E+00
       11   -1    0    0    0    0  0.00000000000E+00  0.00000000000E+00  0.39999999673E+01  0.40000000000E+01  0.51109989000E-03 0.  1.
     -623   -1    0    0    0    0  0.00000000000E+00  0.00000000000E+00  0.12525980253E-10  0.17130000000E+03  0.17130000000E+03 0.  1.
       11    1    1    2    0    0  0.34583190118E-01  0.64862217329E-01  0.58401591830E-01  0.93883499226E-01  0.51109989000E-03 0.  1.
     -623    1    1    2    0    0  0.20942380695E+00  0.20950542338E+00  0.14776206284E+01  0.17130662892E+03  0.17130000000E+03 0.  1.
      622    1    1    2    0    0 -0.24400699707E+00 -0.27436764071E+00  0.24639777471E+01  0.38994875760E+01  0.30000000000E+01 0.  1.
</event>
<event>
 5   0  0.7495800E-05  0.9118800E+02  0.7818608E-02  0.1180000E+00
       11   -1    0    0    0    0  0.00000000000E+00  0.00000000000E+00  0.39999999673E+01  0.40000000000E+01  0.51109989000E-03 0.  1.
     -623   -1    0    0    0    0  0.00000000000E+00  0.00000000000E+00  0.12525980253E-10  0.17130000000E+03  0.17130000000E+03 0.  1.
       11    1    1    2    0    0 -0.17902180206E+00  0.36967257433E+00 -0.99350701034E-01  0.42258424112E+00  0.51109989000E-03 0.  1.
     -623    1    1    2    0    0 -0.49430781402E+00 -0.20275507576E+00  0.23106409209E+01  0.17131641635E+03  0.17130000000E+03 0.  1.
      622    1    1    2    0    0  0.67332961608E+00 -0.16691749857E+00  0.17887097475E+01  0.35609994080E+01  0.30000000000E+01 0.  1.
</event>
<event>
 5   0  0.7495800E-05  0.9118800E+02  0.7818608E-02  0.1180000E+00
       11   -1    0    0    0    0  0.00000000000E+00  0.00000000000E+00  0.39999999673E+01  0.40000000000E+01  0.51109989000E-03 0.  1.
     -623   -1    0    0    0    0  0.00000000000E+00  0.00000000000E+00  0.12525980253E-10  0.17130000000E+03  0.17130000000E+03 0. -1.
       11    1    1    2    0    0 -0.76476062752E-01 -0.24500826581E+00  0.44228686813E+00  0.51136637886E+00  0.51109989000E-03 0.  1.
     -623    1    1    2    0    0  0.26286482646E+00 -0.36750507187E+00  0.19201736234E+01  0.17131135755E+03  0.17130000000E+03 0. -1.
      622    1    1    2    0    0 -0.18638876371E+00  0.61251333768E+00  0.16375394758E+01  0.34772760740E+01  0.30000000000E+01 0.  1.
</event>
<event>
 5   0  0.7495800E-05  0.9118800E+02  0.7818608E-02  0.1180000E+00
       11   -1    0    0    0    0  0.00000000000E+00  0.00000000000E+00  0.39999999673E+01  0.40000000000E+01  0.51109989000E-03 0.  1.
     -623   -1    0    0    0    0  0.00000000000E+00  0.00000000000E+00  0.12525980253E-10  0.17130000000E+03  0.17130000000E+03 0. -1.
       11    1    1    2    0    0  0.16214657541E+00 -0.19792653855E+00 -0.11259265352E+00  0.27954211387E+00  0.51109989000E-03 0.  1.
     -623    1    1    2    0    0  0.31418409036E+00  0.76050466221E+00  0.20653298386E+01  0.17131442632E+03  0.17130000000E+03 0.  1.
      622    1    1    2    0    0 -0.47633066577E+00 -0.56257812366E+00  0.20472627823E+01  0.37060315633E+01  0.30000000000E+01 0.  1.
</event>
<event>
 5   0  0.7495800E-05  0.9118800E+02  0.7818608E-02  0.1180000E+00
       11   -1    0    0    0    0  0.00000000000E+00  0.00000000000E+00  0.39999999673E+01  0.40000000000E+01  0.51109989000E-03 0.  1.
     -623   -1    0    0    0    0  0.00000000000E+00  0.00000000000E+00  0.12525980253E-10  0.17130000000E+03  0.17130000000E+03 0. -1.
       11    1    1    2    0    0 -0.47308861506E+00  0.41917978166E+00  0.12545173508E+00  0.64440897426E+00  0.51109989000E-03 0.  1.
     -623    1    1    2    0    0  0.54815977762E+00 -0.68547492544E+00  0.24420956336E+01  0.17131965499E+03  0.17130000000E+03 0. -1.
      622    1    1    2    0    0 -0.75071162554E-01  0.26629514378E+00  0.14324525987E+01  0.33359360351E+01  0.30000000000E+01 0.  1.
</event>
<event>
 5   0  0.7495800E-05  0.9118800E+02  0.7818608E-02  0.1180000E+00
       11   -1    0    0    0    0  0.00000000000E+00  0.00000000000E+00  0.39999999673E+01  0.40000000000E+01  0.51109989000E-03 0. -1.
     -623   -1    0    0    0    0  0.00000000000E+00  0.00000000000E+00  0.12525980253E-10  0.17130000000E+03  0.17130000000E+03 0. -1.
       11    1    1    2    0    0  0.15791423979E+00 -0.16578952914E+00 -0.76821372207E-01  0.24150540274E+00  0.51109989000E-03 0. -1.
     -623    1    1    2    0    0  0.86328294684E+00  0.55639893323E+00  0.21251825730E+01  0.17131626087E+03  0.17130000000E+03 0. -1.
      622    1    1    2    0    0 -0.10211971866E+01 -0.39060940408E+00  0.19516387666E+01  0.37422337281E+01  0.30000000000E+01 0. -1.
</event>
<event>
 5   0  0.7495800E-05  0.9118800E+02  0.7818608E-02  0.1180000E+00
       11   -1    0    0    0    0  0.00000000000E+00  0.00000000000E+00  0.39999999673E+01  0.40000000000E+01  0.51109989000E-03 0. -1.
     -623   -1    0    0    0    0  0.00000000000E+00  0.00000000000E+00  0.12525980253E-10  0.17130000000E+03  0.17130000000E+03 0. -1.
       11    1    1    2    0    0 -0.47663434396E-01 -0.16690994376E+00 -0.28296014650E+00  0.33195999463E+00  0.51109989000E-03 0. -1.
     -623    1    1    2    0    0  0.70845196312E-01 -0.11697732025E+00  0.22170590383E+01  0.17131440119E+03  0.17130000000E+03 0. -1.
      622    1    1    2    0    0 -0.23181761916E-01  0.28388726401E+00  0.20659010756E+01  0.36536388200E+01  0.30000000000E+01 0. -1.
</event>
<event>
 5   0  0.7495800E-05  0.9118800E+02  0.7818608E-02  0.1180000E+00
       11   -1    0    0    0    0  0.00000000000E+00  0.00000000000E+00  0.39999999673E+01  0.40000000000E+01  0.51109989000E-03 0. -1.
     -623   -1    0    0    0    0  0.00000000000E+00  0.00000000000E+00  0.12525980253E-10  0.17130000000E+03  0.17130000000E+03 0. -1.
       11    1    1    2    0    0  0.33161820659E+00  0.17631385873E-01  0.28040741557E+00  0.43463787299E+00  0.51109989000E-03 0. -1.
     -623    1    1    2    0    0 -0.64014463312E+00 -0.60633961372E+00  0.19374849067E+01  0.17131322564E+03  0.17130000000E+03 0. -1.
      622    1    1    2    0    0  0.30852642653E+00  0.58870822785E+00  0.17821076451E+01  0.35521364827E+01  0.30000000000E+01 0.  0.
</event>
<event>
 5   0  0.7495800E-05  0.9118800E+02  0.7818608E-02  0.1180000E+00
       11   -1    0    0    0    0  0.00000000000E+00  0.00000000000E+00  0.39999999673E+01  0.40000000000E+01  0.51109989000E-03 0.  1.
     -623   -1    0    0    0    0  0.00000000000E+00  0.00000000000E+00  0.12525980253E-10  0.17130000000E+03  0.17130000000E+03 0. -1.
       11    1    1    2    0    0  0.14019407873E+00 -0.34469815441E+00  0.15565090133E+00  0.40335922163E+00  0.51109989000E-03 0.  1.
     -623    1    1    2    0    0 -0.29262489782E+00  0.99919815900E+00  0.20066487787E+01  0.17131491665E+03  0.17130000000E+03 0. -1.
      622    1    1    2    0    0  0.15243081909E+00 -0.65450000460E+00  0.18377002873E+01  0.35817241318E+01  0.30000000000E+01 0.  0.
</event>
<event>
 5   0  0.7495800E-05  0.9118800E+02  0.7818608E-02  0.1180000E+00
       11   -1    0    0    0    0  0.00000000000E+00  0.00000000000E+00  0.39999999673E+01  0.40000000000E+01  0.51109989000E-03 0.  1.
     -623   -1    0    0    0    0  0.00000000000E+00  0.00000000000E+00  0.12525980253E-10  0.17130000000E+03  0.17130000000E+03 0.  1.
       11    1    1    2    0    0 -0.21511063948E+00 -0.14465429669E+00  0.16106886937E+00  0.30518993213E+00  0.51109989000E-03 0.  1.
     -623    1    1    2    0    0  0.60057930641E+00 -0.62980254104E+00  0.18869370207E+01  0.17131260280E+03  0.17130000000E+03 0.  1.
      622    1    1    2    0    0 -0.38546866692E+00  0.77445683773E+00  0.19519940773E+01  0.36822072680E+01  0.30000000000E+01 0.  1.
</event>
<event>
 5   0  0.7495800E-05  0.9118800E+02  0.7818608E-02  0.1180000E+00
       11   -1    0    0    0    0  0.00000000000E+00  0.00000000000E+00  0.39999999673E+01  0.40000000000E+01  0.51109989000E-03 0. -1.
     -623   -1    0    0    0    0  0.00000000000E+00  0.00000000000E+00  0.12525980253E-10  0.17130000000E+03  0.17130000000E+03 0.  1.
       11    1    1    2    0    0 -0.17591732193E+00 -0.42633772484E-01  0.72593308819E-01  0.19502459440E+00  0.51109989000E-03 0. -1.
     -623    1    1    2    0    0  0.16856357260E+00 -0.10900373695E+01  0.19056861412E+01  0.17131415071E+03  0.17130000000E+03 0. -1.
      622    1    1    2    0    0  0.73537493369E-02  0.11326711419E+01  0.20217205173E+01  0.37908246917E+01  0.30000000000E+01 0.  1.
</event>
<event>
 5   0  0.7495800E-05  0.9118800E+02  0.7818608E-02  0.1180000E+00
       11   -1    0    0    0    0  0.00000000000E+00  0.00000000000E+00  0.39999999673E+01  0.40000000000E+01  0.51109989000E-03 0.  1.
     -623   -1    0    0    0    0  0.00000000000E+00  0.00000000000E+00  0.12525980253E-10  0.17130000000E+03  0.17130000000E+03 0.  1.
       11    1    1    2    0    0  0.24366501147E+00 -0.75819811319E-01  0.13355751368E+00  0.28802630485E+00  0.51109989000E-03 0.  1.
     -623    1    1    2    0    0  0.14002611110E+00 -0.79058313911E-01  0.17352899728E+01  0.17130886459E+03  0.17130000000E+03 0.  1.
      622    1    1    2    0    0 -0.38369112257E+00  0.15487812523E+00  0.21311524808E+01  0.37031091002E+01  0.30000000000E+01 0.  1.
</event>
<event>
 5   0  0.7495800E-05  0.9118800E+02  0.7818608E-02  0.1180000E+00
       11   -1    0    0    0    0  0.00000000000E+00  0.00000000000E+00  0.39999999673E+01  0.40000000000E+01  0.51109989000E-03 0. -1.
     -623   -1    0    0    0    0  0.00000000000E+00  0.00000000000E+00  0.12525980253E-10  0.17130000000E+03  0.17130000000E+03 0. -1.
       11    1    1    2    0    0 -0.19735876028E-01  0.15651291537E+00  0.11013293499E+00  0.19239366433E+00  0.51109989000E-03 0. -1.
     -623    1    1    2    0    0 -0.11863553222E+01  0.98822146528E+00  0.22886548755E+01  0.17132224596E+03  0.17130000000E+03 0. -1.
      622    1    1    2    0    0  0.12060911982E+01 -0.11447343807E+01  0.16012121569E+01  0.37853603728E+01  0.30000000000E+01 0. -1.
</event>
<event>
 5   0  0.7495800E-05  0.9118800E+02  0.7818608E-02  0.1180000E+00
       11   -1    0    0    0    0  0.00000000000E+00  0.00000000000E+00  0.39999999673E+01  0.40000000000E+01  0.51109989000E-03 0.  1.
     -623   -1    0    0    0    0  0.00000000000E+00  0.00000000000E+00  0.12525980253E-10  0.17130000000E+03  0.17130000000E+03 0. -1.
       11    1    1    2    0    0  0.13503627391E+00  0.49996667223E-01  0.20867488128E+00  0.25353486802E+00  0.51109989000E-03 0.  1.
     -623    1    1    2    0    0 -0.18741592531E+00 -0.54770230195E+00  0.16185390159E+01  0.17130862433E+03  0.17130000000E+03 0. -1.
      622    1    1    2    0    0  0.52379651398E-01  0.49770563473E+00  0.21727860702E+01  0.37378407983E+01  0.30000000000E+01 0.  1.
</event>
<event>
 5   0  0.7495800E-05  0.9118800E+02  0.7818608E-02  0.1180000E+00
       11   -1    0    0    0    0  0.00000000000E+00  0.00000000000E+00  0.39999999673E+01  0.40000000000E+01  0.51109989000E-03 0.  1.
     -623   -1    0    0    0    0  0.00000000000E+00  0.00000000000E+00  0.12525980253E-10  0.17130000000E+03  0.17130000000E+03 0.  1.
       11    1    1    2    0    0 -0.39521823896E+00  0.19705070014E+00  0.26117645995E+00  0.51306903950E+00  0.51109989000E-03 0.  1.
     -623    1    1    2    0    0  0.44326683542E+00 -0.16513239210E+00  0.19865024570E+01  0.17131217104E+03  0.17130000000E+03 0.  1.
      622    1    1    2    0    0 -0.48048596460E-01 -0.31918308044E-01  0.17523210504E+01  0.34747599212E+01  0.30000000000E+01 0.  1.
</event>
<event>
 5   0  0.7495800E-05  0.9118800E+02  0.7818608E-02  0.1180000E+00
       11   -1    0    0    0    0  0.00000000000E+00  0.00000000000E+00  0.39999999673E+01  0.40000000000E+01  0.51109989000E-03 0.  1.
     -623   -1    0    0    0    0  0.00000000000E+00  0.00000000000E+00  0.12525980253E-10  0.17130000000E+03  0.17130000000E+03 0. -1.
       11    1    1    2    0    0  0.79592119282E+00  0.10571288183E+00  0.30156943955E+00  0.85767718091E+00  0.51109989000E-03 0.  1.
     -623    1    1    2    0    0 -0.13471936377E+01 -0.35083390981E+00  0.31570924096E+01  0.17133474618E+03  0.17130000000E+03 0. -1.
      622    1    1    2    0    0  0.55127244489E+00  0.24512102798E+00  0.54133811821E+00  0.31075766419E+01  0.30000000000E+01 0.  0.
</event>
<event>
 5   0  0.7495800E-05  0.9118800E+02  0.7818608E-02  0.1180000E+00
       11   -1    0    0    0    0  0.00000000000E+00  0.00000000000E+00  0.39999999673E+01  0.40000000000E+01  0.51109989000E-03 0. -1.
     -623   -1    0    0    0    0  0.00000000000E+00  0.00000000000E+00  0.12525980253E-10  0.17130000000E+03  0.17130000000E+03 0. -1.
       11    1    1    2    0    0  0.10132745194E+00 -0.38533789499E+00  0.48747172768E+00  0.62958835150E+00  0.51109989000E-03 0. -1.
     -623    1    1    2    0    0 -0.52760785959E+00  0.51061326265E+00  0.20747637937E+01  0.17131413760E+03  0.17130000000E+03 0. -1.
      622    1    1    2    0    0  0.42628040765E+00 -0.12527536766E+00  0.14377644460E+01  0.33562740511E+01  0.30000000000E+01 0. -1.
</event>
<event>
 5   0  0.7495800E-05  0.9118800E+02  0.7818608E-02  0.1180000E+00
       11   -1    0    0    0    0  0.00000000000E+00  0.00000000000E+00  0.39999999673E+01  0.40000000000E+01  0.51109989000E-03 0.  1.
     -623   -1    0    0    0    0  0.00000000000E+00  0.00000000000E+00  0.12525980253E-10  0.17130000000E+03  0.17130000000E+03 0. -1.
       11    1    1    2    0    0 -0.24240469366E+00  0.10981779341E+00  0.25285925527E+00  0.36709405806E+00  0.51109989000E-03 0.  1.
     -623    1    1    2    0    0 -0.21549401693E+00  0.16310425129E-01  0.17710323972E+01  0.17130929122E+03  0.17130000000E+03 0. -1.
      622    1    1    2    0    0  0.45789871060E+00 -0.12612821854E+00  0.19761083148E+01  0.36236147186E+01  0.30000000000E+01 0.  1.
</event>
<event>
 5   0  0.7495800E-05  0.9118800E+02  0.7818608E-02  0.1180000E+00
       11   -1    0    0    0    0  0.00000000000E+00  0.00000000000E+00  0.39999999673E+01  0.40000000000E+01  0.51109989000E-03 0.  1.
     -623   -1    0    0    0    0  0.00000000000E+00  0.00000000000E+00  0.12525980253E-10  0.17130000000E+03  0.17130000000E+03 0. -1.
       11    1    1    2    0    0 -0.10294070347E+00  0.17696770239E+00 -0.56589791854E-01  0.21240767850E+00  0.51109989000E-03 0.  1.
     -623    1    1    2    0    0 -0.85109788869E+00 -0.44404318812E-01  0.19791854884E+01  0.17131355321E+03  0.17130000000E+03 0. -1.
      622    1    1    2    0    0  0.95403859216E+00 -0.13256338358E+00  0.20774042708E+01  0.37740391082E+01  0.30000000000E+01 0.  1.
</event>
<event>
 5   0  0.7495800E-05  0.9118800E+02  0.7818608E-02  0.1180000E+00
       11   -1    0    0    0    0  0.00000000000E+00  0.00000000000E+00  0.39999999673E+01  0.40000000000E+01  0.51109989000E-03 0.  1.
     -623   -1    0    0    0    0  0.00000000000E+00  0.00000000000E+00  0.12525980253E-10  0.17130000000E+03  0.17130000000E+03 0. -1.
       11    1    1    2    0    0 -0.15179648815E+00  0.29399404026E+00 -0.82341148756E-01  0.34096186814E+00  0.51109989000E-03 0.  1.
     -623    1    1    2    0    0 -0.16963154999E+00 -0.97744370938E+00  0.21593761614E+01  0.17131648221E+03  0.17130000000E+03 0. -1.
      622    1    1    2    0    0  0.32142803815E+00  0.68344966912E+00  0.19229649547E+01  0.36425559228E+01  0.30000000000E+01 0.  1.
</event>
<event>
 5   0  0.7495800E-05  0.9118800E+02  0.7818608E-02  0.1180000E+00
       11   -1    0    0    0    0  0.00000000000E+00  0.00000000000E+00  0.39999999673E+01  0.40000000000E+01  0.51109989000E-03 0. -1.
     -623   -1    0    0    0    0  0.00000000000E+00  0.00000000000E+00  0.12525980253E-10  0.17130000000E+03  0.17130000000E+03 0. -1.
       11    1    1    2    0    0 -0.23473318112E+00  0.37898488766E-01 -0.52913922935E-01  0.24359003722E+00  0.51109989000E-03 0. -1.
     -623    1    1    2    0    0  0.36149140400E+00 -0.24032791562E+00  0.18220520516E+01  0.17131023994E+03  0.17130000000E+03 0. -1.
      622    1    1    2    0    0 -0.12675822288E+00  0.20242942685E+00  0.22308618387E+01  0.37461700259E+01  0.30000000000E+01 0. -1.
</event>
<event>
 5   0  0.7495800E-05  0.9118800E+02  0.7818608E-02  0.1180000E+00
       11   -1    0    0    0    0  0.00000000000E+00  0.00000000000E+00  0.39999999673E+01  0.40000000000E+01  0.51109989000E-03 0.  1.
     -623   -1    0    0    0    0  0.00000000000E+00  0.00000000000E+00  0.12525980253E-10  0.17130000000E+03  0.17130000000E+03 0. -1.
       11    1    1    2    0    0 -0.22183327425E-02  0.10159834770E-01 -0.36416855132E-01  0.37876005643E-01  0.51109989000E-03 0.  1.
     -623    1    1    2    0    0  0.69236443854E+00 -0.29686407269E-01  0.15555416522E+01  0.17130846435E+03  0.17130000000E+03 0. -1.
      622    1    1    2    0    0 -0.69014610580E+00  0.19526572499E-01  0.24808751703E+01  0.39536596395E+01  0.30000000000E+01 0.  1.
</event>
<event>
 5   0  0.7495800E-05  0.9118800E+02  0.7818608E-02  0.1180000E+00
       11   -1    0    0    0    0  0.00000000000E+00  0.00000000000E+00  0.39999999673E+01  0.40000000000E+01  0.51109989000E-03 0.  1.
     -623   -1    0    0    0    0  0.00000000000E+00  0.00000000000E+00  0.12525980253E-10  0.17130000000E+03  0.17130000000E+03 0. -1.
       11    1    1    2    0    0  0.27636488009E+00  0.13731659932E-01  0.28466926700E+00  0.39699239063E+00  0.51109989000E-03 0.  1.
     -623    1    1    2    0    0 -0.46374604102E+00  0.15760330868E+00  0.17538132641E+01  0.17130967795E+03  0.17130000000E+03 0. -1.
      622    1    1    2    0    0  0.18738116094E+00 -0.17133496861E+00  0.19615174362E+01  0.35933296570E+01  0.30000000000E+01 0.  1.
</event>
<event>
 5   0  0.7495800E-05  0.9118800E+02  0.7818608E-02  0.1180000E+00
       11   -1    0    0    0    0  0.00000000000E+00  0.00000000000E+00  0.39999999673E+01  0.40000000000E+01  0.51109989000E-03 0. -1.
     -623   -1    0    0    0    0  0.00000000000E+00  0.00000000000E+00  0.12525980253E-10  0.17130000000E+03  0.17130000000E+03 0.  1.
       11    1    1    2    0    0  0.62936066965E+00 -0.38047692590E+00  0.26037223303E+00  0.78016120424E+00  0.51109989000E-03 0. -1.
     -623    1    1    2    0    0 -0.12776207091E+01  0.75878399757E-01  0.29249880070E+01  0.17132975114E+03  0.17130000000E+03 0.  1.
      622    1    1    2    0    0  0.64826003946E+00  0.30459852614E+00  0.81463972732E+00  0.31900876518E+01  0.30000000000E+01 0. -1.
</event>
<event>
 5   0  0.7495800E-05  0.9118800E+02  0.7818608E-02  0.1180000E+00
       11   -1    0    0    0    0  0.00000000000E+00  0.00000000000E+00  0.39999999673E+01  0.40000000000E+01  0.51109989000E-03 0.  1.
     -623   -1    0    0    0    0  0.00000000000E+00  0.00000000000E+00  0.12525980253E-10  0.17130000000E+03  0.17130000000E+03 0. -1.
       11    1    1    2    0    0 -0.96301288864E-01  0.26231684599E+00 -0.15111167434E+00  0.31767761217E+00  0.51109989000E-03 0.  1.
     -623    1    1    2    0    0  0.44587895397E+00 -0.21744055034E+00  0.20682742250E+01  0.17131320395E+03  0.17130000000E+03 0. -1.
      622    1    1    2    0    0 -0.34957766511E+00 -0.44876295649E-01  0.20828374167E+01  0.36691184405E+01  0.30000000000E+01 0.  1.
</event>
<event>
 5   0  0.7495800E-05  0.9118800E+02  0.7818608E-02  0.1180000E+00
       11   -1    0    0    0    0  0.00000000000E+00  0.00000000000E+00  0.39999999673E+01  0.40000000000E+01  0.51109989000E-03 0.  1.
     -623   -1    0    0    0    0  0.00000000000E+00  0.00000000000E+00  0.12525980253E-10  0.17130000000E+03  0.17130000000E+03 0. -1.
       11    1    1    2    0    0 -0.37236279675E+00  0.35299248274E+00  0.53189237251E+00  0.73903146241E+00  0.51109989000E-03 0.  1.
     -623    1    1    2    0    0  0.83636710584E+00 -0.48444615924E-01  0.23699595992E+01  0.17131844199E+03  0.17130000000E+03 0. -1.
      622    1    1    2    0    0 -0.46400430910E+00 -0.30454786682E+00  0.10981479957E+01  0.32425265492E+01  0.30000000000E+01 0.  1.
</event>
<event>
 5   0  0.7495800E-05  0.9118800E+02  0.7818608E-02  0.1180000E+00
       11   -1    0    0    0    0  0.00000000000E+00  0.00000000000E+00  0.39999999673E+01  0.40000000000E+01  0.51109989000E-03 0.  1.
     -623   -1    0    0    0    0  0.00000000000E+00  0.00000000000E+00  0.12525980253E-10  0.17130000000E+03  0.17130000000E+03 0.  1.
       11    1    1    2    0    0  0.47536767822E-01 -0.34786908751E+00  0.15563888096E+00  0.38405255998E+00  0.51109989000E-03 0.  1.
     -623    1    1    2    0    0 -0.96963735811E+00  0.61960644754E+00  0.21037050290E+01  0.17131678168E+03  0.17130000000E+03 0.  1.
      622    1    1    2    0    0  0.92210059029E+00 -0.27173736004E+00  0.17406560574E+01  0.35991657647E+01  0.30000000000E+01 0.  1.
</event>
<event>
 5   0  0.7495800E-05  0.9118800E+02  0.7818608E-02  0.1180000E+00
       11   -1    0    0    0    0  0.00000000000E+00  0.00000000000E+00  0.39999999673E+01  0.40000000000E+01  0.51109989000E-03 0. -1.
     -623   -1    0    0    0    0  0.00000000000E+00  0.00000000000E+00  0.12525980253E-10  0.17130000000E+03  0.17130000000E+03 0.  1.
       11    1    1    2    0    0  0.34833147777E+00  0.38716862082E+00  0.26683233777E+00  0.58517870523E+00  0.51109989000E-03 0. -1.
     -623    1    1    2    0    0 -0.47292531271E+00 -0.50608539707E-03  0.21850879071E+01  0.17131458860E+03  0.17130000000E+03 0.  1.
      622    1    1    2    0    0  0.12459383494E+00 -0.38666253542E+00  0.15480797224E+01  0.34002326931E+01  0.30000000000E+01 0. -1.
</event>
<event>
 5   0  0.7495800E-05  0.9118800E+02  0.7818608E-02  0.1180000E+00
       11   -1    0    0    0    0  0.00000000000E+00  0.00000000000E+00  0.39999999673E+01  0.40000000000E+01  0.51109989000E-03 0. -1.
     -623   -1    0    0    0    0  0.00000000000E+00  0.00000000000E+00  0.12525980253E-10  0.17130000000E+03  0.17130000000E+03 0. -1.
       11    1    1    2    0    0 -0.24731293961E-01  0.10406278247E+00  0.50057574003E-02  0.10707949582E+00  0.51109989000E-03 0. -1.
     -623    1    1    2    0    0  0.45428461868E+00  0.53204997067E+00  0.16513497343E+01  0.17130938797E+03  0.17130000000E+03 0. -1.
      622    1    1    2    0    0 -0.42955332472E+00 -0.63611275314E+00  0.23436444757E+01  0.38835325313E+01  0.30000000000E+01 0. -1.
</event>
<event>
 5   0  0.7495800E-05  0.9118800E+02  0.7818608E-02  0.1180000E+00
       11   -1    0    0    0    0  0.00000000000E+00  0.00000000000E+00  0.39999999673E+01  0.40000000000E+01  0.51109989000E-03 0. -1.
     -623   -1    0    0    0    0  0.00000000000E+00  0.00000000000E+00  0.12525980253E-10  0.17130000000E+03  0.17130000000E+03 0.  1.
       11    1    1    2    0    0  0.59440341116E-01  0.20726863749E+00 -0.82963754340E-01  0.23103395421E+00  0.51109989000E-03 0. -1.
     -623    1    1    2    0    0  0.41201665070E+00  0.22504732566E+00  0.19125402095E+01  0.17131131957E+03  0.17130000000E+03 0.  1.
      622    1    1    2    0    0 -0.47145699182E+00 -0.43231596315E+00  0.21704235122E+01  0.37576464721E+01  0.30000000000E+01 0. -1.
</event>
<event>
 5   0  0.7495800E-05  0.9118800E+02  0.7818608E-02  0.1180000E+00
       11   -1    0    0    0    0  0.00000000000E+00  0.00000000000E+00  0.39999999673E+01  0.40000000000E+01  0.51109989000E-03 0. -1.
     -623   -1    0    0    0    0  0.00000000000E+00  0.00000000000E+00  0.12525980253E-10  0.17130000000E+03  0.17130000000E+03 0. -1.
       11    1    1    2    0    0 -0.60521060534E-01  0.60976545230E-01 -0.44701270806E-01  0.96847316282E-01  0.51109989000E-03 0. -1.
     -623    1    1    2    0    0 -0.11014757163E+00  0.65794997931E+00  0.16751805444E+01  0.17130948970E+03  0.17130000000E+03 0. -1.
      622    1    1    2    0    0  0.17066863217E+00 -0.71892652454E+00  0.23695206938E+01  0.38936629859E+01  0.30000000000E+01 0. -1.
</event>
<event>
 5   0  0.7495800E-05  0.9118800E+02  0.7818608E-02  0.1180000E+00
       11   -1    0    0    0    0  0.00000000000E+00  0.00000000000E+00  0.39999999673E+01  0.40000000000E+01  0.51109989000E-03 0.  1.
     -623   -1    0    0    0    0  0.00000000000E+00  0.00000000000E+00  0.12525980253E-10  0.17130000000E+03  0.17130000000E+03 0.  1.
       11    1    1    2    0    0  0.10335808227E+00  0.31546965196E+00  0.27454825382E-01  0.33310362222E+00  0.51109989000E-03 0.  1.
     -623    1    1    2    0    0 -0.23347097295E+00  0.51671206050E-01  0.19196392321E+01  0.17131092257E+03  0.17130000000E+03 0.  1.
      622    1    1    2    0    0  0.13011289068E+00 -0.36714085801E+00  0.20529059099E+01  0.36559738031E+01  0.30000000000E+01 0.  1.
</event>
<event>
 5   0  0.7495800E-05  0.9118800E+02  0.7818608E-02  0.1180000E+00
       11   -1    0    0    0    0  0.00000000000E+00  0.00000000000E+00  0.39999999673E+01  0.40000000000E+01  0.51109989000E-03 0. -1.
     -623   -1    0    0    0    0  0.00000000000E+00  0.00000000000E+00  0.12525980253E-10  0.17130000000E+03  0.17130000000E+03 0. -1.
       11    1    1    2    0    0 -0.17849105164E+00  0.13956952946E+00  0.10986207607E+00  0.25181073458E+00  0.51109989000E-03 0. -1.
     -623    1    1    2    0    0  0.98539911411E+00  0.15460626441E+00  0.18368843217E+01  0.17131275218E+03  0.17130000000E+03 0. -1.
      622    1    1    2    0    0 -0.80690806247E+00 -0.29417579387E+00  0.20532535696E+01  0.37354370882E+01  0.30000000000E+01 0. -1.
</event>
<event>
 5   0  0.7495800E-05  0.9118800E+02  0.7818608E-02  0.1180000E+00
       11   -1    0    0    0    0  0.00000000000E+00  0.00000000000E+00  0.39999999673E+01  0.40000000000E+01  0.51109989000E-03 0.  1.
     -623   -1    0    0    0    0  0.00000000000E+00  0.00000000000E+00  0.12525980253E-10  0.17130000000E+03  0.17130000000E+03 0.  1.
       11    1    1    2    0    0  0.50763015828E+00 -0.70355771127E-01  0.25052976073E+00  0.57044170111E+00  0.51109989000E-03 0.  1.
     -623    1    1    2    0    0 -0.16666988327E+00  0.39479690081E+00  0.21870592709E+01  0.17131449697E+03  0.17130000000E+03 0.  1.
      622    1    1    2    0    0 -0.34096027501E+00 -0.32444112968E+00  0.15624109357E+01  0.34150613300E+01  0.30000000000E+01 0.  1.
</event>
<event>
 5   0  0.7495800E-05  0.9118800E+02  0.7818608E-02  0.1180000E+00
       11   -1    0    0    0    0  0.00000000000E+00  0.00000000000E+00  0.39999999673E+01  0.40000000000E+01  0.51109989000E-03 0. -1.
     -623   -1    0    0    0    0  0.00000000000E+00  0.00000000000E+00  0.12525980253E-10  0.17130000000E+03  0.17130000000E+03 0.  1.
       11    1    1    2    0    0 -0.22529509630E+00 -0.70408216500E+00 -0.19160650429E-01  0.73949778041E+00  0.51109989000E-03 0. -1.
     -623    1    1    2    0    0 -0.74051788890E+00  0.21801720883E+00  0.35600627036E+01  0.17133872868E+03  0.17130000000E+03 0.  1.
      622    1    1    2    0    0  0.96581298520E+00  0.48606495617E+00  0.45909791415E+00  0.32217735424E+01  0.30000000000E+01 0. -1.
</event>
<event>
 5   0  0.7495800E-05  0.9118800E+02  0.7818608E-02  0.1180000E+00
       11   -1    0    0    0    0  0.00000000000E+00  0.00000000000E+00  0.39999999673E+01  0.40000000000E+01  0.51109989000E-03 0. -1.
     -623   -1    0    0    0    0  0.00000000000E+00  0.00000000000E+00  0.12525980253E-10  0.17130000000E+03  0.17130000000E+03 0.  1.
       11    1    1    2    0    0  0.18902870916E-01 -0.16459053058E-01 -0.32122818757E-01  0.40747462061E-01  0.51109989000E-03 0. -1.
     -623    1    1    2    0    0  0.14659594111E+00  0.42948344011E+00  0.14981300183E+01  0.17130715204E+03  0.17130000000E+03 0.  1.
      622    1    1    2    0    0 -0.16549881203E+00 -0.41302438705E+00  0.25339927678E+01  0.39521004983E+01  0.30000000000E+01 0. -1.
</event>
<event>
 5   0  0.7495800E-05  0.9118800E+02  0.7818608E-02  0.1180000E+00
       11   -1    0    0    0    0  0.00000000000E+00  0.00000000000E+00  0.39999999673E+01  0.40000000000E+01  0.51109989000E-03 0. -1.
     -623   -1    0    0    0    0  0.00000000000E+00  0.00000000000E+00  0.12525980253E-10  0.17130000000E+03  0.17130000000E+03 0. -1.
       11    1    1    2    0    0 -0.16625008307E+00 -0.15265344400E+00  0.68243369166E-01  0.23579563767E+00  0.51109989000E-03 0. -1.
     -623    1    1    2    0    0  0.31133636891E+00  0.71644603874E+00  0.17524105714E+01  0.17131074446E+03  0.17130000000E+03 0. -1.
      622    1    1    2    0    0 -0.14508628584E+00 -0.56379259474E+00  0.21793460268E+01  0.37534599005E+01  0.30000000000E+01 0. -1.
</event>
<event>
 5   0  0.7495800E-05  0.9118800E+02  0.7818608E-02  0.1180000E+00
       11   -1    0    0    0    0  0.00000000000E+00  0.00000000000E+00  0.39999999673E+01  0.40000000000E+01  0.51109989000E-03 0. -1.
     -623   -1    0    0    0    0  0.00000000000E+00  0.00000000000E+00  0.12525980253E-10  0.17130000000E+03  0.17130000000E+03 0.  1.
       11    1    1    2    0    0  0.17454812283E+00 -0.48706323046E-01 -0.13704953758E-01  0.18173453185E+00  0.51109989000E-03 0. -1.
     -623    1    1    2    0    0 -0.35505404001E-01  0.26791948718E+00  0.16797563527E+01  0.17130844878E+03  0.17130000000E+03 0.  1.
      622    1    1    2    0    0 -0.13904271882E+00 -0.21921316414E+00  0.23339485684E+01  0.38098166897E+01  0.30000000000E+01 0. -1.
</event>
<event>
 5   0  0.7495800E-05  0.9118800E+02  0.7818608E-02  0.1180000E+00
       11   -1    0    0    0    0  0.00000000000E+00  0.00000000000E+00  0.39999999673E+01  0.40000000000E+01  0.51109989000E-03 0. -1.
     -623   -1    0    0    0    0  0.00000000000E+00  0.00000000000E+00  0.12525980253E-10  0.17130000000E+03  0.17130000000E+03 0. -1.
       11    1    1    2    0    0 -0.50088270842E+00  0.30583555876E+00  0.32557875504E+00  0.67113386410E+00  0.51109989000E-03 0. -1.
     -623    1    1    2    0    0  0.10353258059E+01 -0.11816860282E+01  0.27615543973E+01  0.17132946175E+03  0.17130000000E+03 0. -1.
      622    1    1    2    0    0 -0.53444309746E+00  0.87585046947E+00  0.91286681504E+00  0.32994043843E+01  0.30000000000E+01 0.  0.
</event>
<event>
 5   0  0.7495800E-05  0.9118800E+02  0.7818608E-02  0.1180000E+00
       11   -1    0    0    0    0  0.00000000000E+00  0.00000000000E+00  0.39999999673E+01  0.40000000000E+01  0.51109989000E-03 0.  1.
     -623   -1    0    0    0    0  0.00000000000E+00  0.00000000000E+00  0.12525980253E-10  0.17130000000E+03  0.17130000000E+03 0. -1.
       11    1    1    2    0    0 -0.13215532756E+00  0.73664128355E-01 -0.16304157344E+00  0.22242807894E+00  0.51109989000E-03 0.  1.
     -623    1    1    2    0    0  0.28674928923E+00  0.22265565426E+00  0.19102448432E+01  0.17131103536E+03  0.17130000000E+03 0. -1.
      622    1    1    2    0    0 -0.15459396167E+00 -0.29631978262E+00  0.22527966976E+01  0.37665365612E+01  0.30000000000E+01 0.  1.
</event>
<event>
 5   0  0.7495800E-05  0.9118800E+02  0.7818608E-02  0.1180000E+00
       11   -1    0    0    0    0  0.00000000000E+00  0.00000000000E+00  0.39999999673E+01  0.40000000000E+01  0.51109989000E-03 0. -1.
     -623   -1    0    0    0    0  0.00000000000E+00  0.00000000000E+00  0.12525980253E-10  0.17130000000E+03  0.17130000000E+03 0. -1.
       11    1    1    2    0    0 -0.11471076972E+00 -0.11708196424E+00 -0.27686746752E+00  0.32174928567E+00  0.51109989000E-03 0. -1.
     -623    1    1    2    0    0  0.30165743699E+00 -0.58415906961E-01  0.21890295639E+01  0.17131426169E+03  0.17130000000E+03 0. -1.
      622    1    1    2    0    0 -0.18694666727E+00  0.17549787120E+00  0.20878378710E+01  0.36639890195E+01  0.30000000000E+01 0. -1.
</event>
<event>
 5   0  0.7495800E-05  0.9118800E+02  0.7818608E-02  0.1180000E+00
       11   -1    0    0    0    0  0.00000000000E+00  0.00000000000E+00  0.39999999673E+01  0.40000000000E+01  0.51109989000E-03 0. -1.
     -623   -1    0    0    0    0  0.00000000000E+00  0.00000000000E+00  0.12525980253E-10  0.17130000000E+03  0.17130000000E+03 0. -1.
       11    1    1    2    0    0  0.14543070013E+00 -0.34692826979E+00  0.88116588234E-01  0.38636007463E+00  0.51109989000E-03 0. -1.
     -623    1    1    2    0    0 -0.47140968055E+00  0.13549609540E+00  0.19569646402E+01  0.17131188020E+03  0.17130000000E+03 0. -1.
      622    1    1    2    0    0  0.32597898042E+00  0.21143217439E+00  0.19549187389E+01  0.36017597276E+01  0.30000000000E+01 0. -1.
</event>
<event>
 5   0  0.7495800E-05  0.9118800E+02  0.7818608E-02  0.1180000E+00
       11   -1    0    0    0    0  0.00000000000E+00  0.00000000000E+00  0.39999999673E+01  0.40000000000E+01  0.51109989000E-03 0.  1.
     -623   -1    0    0    0    0  0.00000000000E+00  0.00000000000E+00  0.12525980253E-10  0.17130000000E+03  0.17130000000E+03 0. -1.
       11    1    1    2    0    0 -0.66201447610E-01 -0.29059569480E-01 -0.51655455298E-01  0.88857399969E-01  0.51109989000E-03 0.  1.
     -623    1    1    2    0    0 -0.28237786086E+00 -0.52269909930E+00  0.16430297880E+01  0.17130890957E+03  0.17130000000E+03 0. -1.
      622    1    1    2    0    0  0.34857930847E+00  0.55175866878E+00  0.24086256347E+01  0.39022330288E+01  0.30000000000E+01 0.  1.
</event>
<event>
 5   0  0.7495800E-05  0.9118800E+02  0.7818608E-02  0.1180000E+00
       11   -1    0    0    0    0  0.00000000000E+00  0.00000000000E+00  0.39999999673E+01  0.40000000000E+01  0.51109989000E-03 0. -1.
     -623   -1    0    0    0    0  0.00000000000E+00  0.00000000000E+00  0.12525980253E-10  0.17130000000E+03  0.17130000000E+03 0.  1.
       11    1    1    2    0    0 -0.20416136390E+00  0.50736108965E+00  0.49797820485E+00  0.73964835667E+00  0.51109989000E-03 0. -1.
     -623    1    1    2    0    0  0.29068922417E+00 -0.35414053448E+00  0.22787665942E+01  0.17131576896E+03  0.17130000000E+03 0.  1.
      622    1    1    2    0    0 -0.86527860272E-01 -0.15322055516E+00  0.12232551683E+01  0.32445826875E+01  0.30000000000E+01 0.  0.
</event>
<event>
 5   0  0.7495800E-05  0.9118800E+02  0.7818608E-02  0.1180000E+00
       11   -1    0    0    0    0  0.00000000000E+00  0.00000000000E+00  0.39999999673E+01  0.40000000000E+01  0.51109989000E-03 0. -1.
     -623   -1    0    0    0    0  0.00000000000E+00  0.00000000000E+00  0.12525980253E-10  0.17130000000E+03  0.17130000000E+03 0. -1.
       11    1    1    2    0    0  0.20380064562E+00 -0.53392362048E+00  0.10362028259E+00  0.58081542666E+00  0.51109989000E-03 0. -1.
     -623    1    1    2    0    0  0.17004431960E+00  0.67674740397E+00  0.23434337036E+01  0.17131744973E+03  0.17130000000E+03 0. -1.
      622    1    1    2    0    0 -0.37384496523E+00 -0.14282378349E+00  0.15529459812E+01  0.34017348385E+01  0.30000000000E+01 0. -1.
</event>
<event>
 5   0  0.7495800E-05  0.9118800E+02  0.7818608E-02  0.1180000E+00
       11   -1    0    0    0    0  0.00000000000E+00  0.00000000000E+00  0.39999999673E+01  0.40000000000E+01  0.51109989000E-03 0. -1.
     -623   -1    0    0    0    0  0.00000000000E+00  0.00000000000E+00  0.12525980253E-10  0.17130000000E+03  0.17130000000E+03 0.  1.
       11    1    1    2    0    0 -0.52477670849E-02 -0.64624004999E+00  0.20122274096E+00  0.67686379278E+00  0.51109989000E-03 0. -1.
     -623    1    1    2    0    0 -0.24568799011E+00  0.67539080562E+00  0.24369592442E+01  0.17131884101E+03  0.17130000000E+03 0.  1.
      622    1    1    2    0    0  0.25093575720E+00 -0.29150755627E-01  0.13618179822E+01  0.33042951952E+01  0.30000000000E+01 0. -1.
</event>
<event>
 5   0  0.7495800E-05  0.9118800E+02  0.7818608E-02  0.1180000E+00
       11   -1    0    0    0    0  0.00000000000E+00  0.00000000000E+00  0.39999999673E+01  0.40000000000E+01  0.51109989000E-03 0.  1.
     -623   -1    0    0    0    0  0.00000000000E+00  0.00000000000E+00  0.12525980253E-10  0.17130000000E+03  0.17130000000E+03 0.  1.
       11    1    1    2    0    0  0.63454046138E-01 -0.91530137274E-03 -0.68913060277E-01  0.93683108651E-01  0.51109989000E-03 0.  1.
     -623    1    1    2    0    0 -0.58384063063E-01  0.10406484873E+00  0.15806604146E+01  0.17130733413E+03  0.17130000000E+03 0.  1.
      622    1    1    2    0    0 -0.50699830752E-02 -0.10314954736E+00  0.24882526131E+01  0.38989827648E+01  0.30000000000E+01 0.  1.
</event>
<event>
 5   0  0.7495800E-05  0.9118800E+02  0.7818608E-02  0.1180000E+00
       11   -1    0    0    0    0  0.00000000000E+00  0.00000000000E+00  0.39999999673E+01  0.40000000000E+01  0.51109989000E-03 0.  1.
     -623   -1    0    0    0    0  0.00000000000E+00  0.00000000000E+00  0.12525980253E-10  0.17130000000E+03  0.17130000000E+03 0.  1.
       11    1    1    2    0    0  0.94524044646E-01  0.25479098782E+00 -0.15679830677E+00  0.31375023939E+00  0.51109989000E-03 0.  1.
     -623    1    1    2    0    0 -0.43869864610E+00  0.74413905893E+00  0.23293314930E+01  0.17131801419E+03  0.17130000000E+03 0.  1.
      622    1    1    2    0    0  0.34417460146E+00 -0.99893004675E+00  0.18274667811E+01  0.36682355746E+01  0.30000000000E+01 0.  1.
</event>
<event>
 5   0  0.7495800E-05  0.9118800E+02  0.7818608E-02  0.1180000E+00
       11   -1    0    0    0    0  0.00000000000E+00  0.00000000000E+00  0.39999999673E+01  0.40000000000E+01  0.51109989000E-03 0.  1.
     -623   -1    0    0    0    0  0.00000000000E+00  0.00000000000E+00  0.12525980253E-10  0.17130000000E+03  0.17130000000E+03 0. -1.
       11    1    1    2    0    0 -0.52052473737E-01 -0.60556963114E+00  0.13112361919E+00  0.62178589797E+00  0.51109989000E-03 0.  1.
     -623    1    1    2    0    0  0.50982362523E+00  0.14669156691E+01  0.27438515708E+01  0.17132901238E+03  0.17130000000E+03 0. -1.
      622    1    1    2    0    0 -0.45777115149E+00 -0.86134603793E+00  0.11250247774E+01  0.33492017219E+01  0.30000000000E+01 0.  0.
</event>
<event>
 5   0  0.7495800E-05  0.9118800E+02  0.7818608E-02  0.1180000E+00
       11   -1    0    0    0    0  0.00000000000E+00  0.00000000000E+00  0.39999999673E+01  0.40000000000E+01  0.51109989000E-03 0.  1.
     -623   -1    0    0    0    0  0.00000000000E+00  0.00000000000E+00  0.12525980253E-10  0.17130000000E+03  0.17130000000E+03 0. -1.
       11    1    1    2    0    0 -0.14759200626E+00 -0.69015004372E-02 -0.49322894202E-01  0.15576918866E+00  0.51109989000E-03 0.  1.
     -623    1    1    2    0    0 -0.65459606283E-01 -0.10692025240E+00  0.16709149111E+01  0.17130819500E+03  0.17130000000E+03 0. -1.
      622    1    1    2    0    0  0.21305161255E+00  0.11382175284E+00  0.23784079504E+01  0.38360358131E+01  0.30000000000E+01 0.  1.
</event>
<event>
 5   0  0.7495800E-05  0.9118800E+02  0.7818608E-02  0.1180000E+00
       11   -1    0    0    0    0  0.00000000000E+00  0.00000000000E+00  0.39999999673E+01  0.40000000000E+01  0.51109989000E-03 0. -1.
     -623   -1    0    0    0    0  0.00000000000E+00  0.00000000000E+00  0.12525980253E-10  0.17130000000E+03  0.17130000000E+03 0.  1.
       11    1    1    2    0    0 -0.46328776056E-01  0.67712189317E-01  0.13889567536E+00  0.16131821325E+00  0.51109989000E-03 0. -1.
     -623    1    1    2    0    0 -0.47277940067E-01 -0.40023775268E+00  0.15027256758E+01  0.17130706527E+03  0.17130000000E+03 0.  1.
      622    1    1    2    0    0  0.93606716123E-01  0.33252556336E+00  0.23583786162E+01  0.38316165211E+01  0.30000000000E+01 0. -1.
</event>
<event>
 5   0  0.7495800E-05  0.9118800E+02  0.7818608E-02  0.1180000E+00
       11   -1    0    0    0    0  0.00000000000E+00  0.00000000000E+00  0.39999999673E+01  0.40000000000E+01  0.51109989000E-03 0. -1.
     -623   -1    0    0    0    0  0.00000000000E+00  0.00000000000E+00  0.12525980253E-10  0.17130000000E+03  0.17130000000E+03 0. -1.
       11    1    1    2    0    0 -0.71448525393E-01  0.33878283413E-01  0.17324424476E-01  0.80950767583E-01  0.51109989000E-03 0. -1.
     -623    1    1    2    0    0  0.63775625763E+00  0.21863839252E+00  0.15518205654E+01  0.17130835555E+03  0.17130000000E+03 0. -1.
      622    1    1    2    0    0 -0.56630773223E+00 -0.25251667594E+00  0.24308549775E+01  0.39106936777E+01  0.30000000000E+01 0. -1.
</event>
<event>
 5   0  0.7495800E-05  0.9118800E+02  0.7818608E-02  0.1180000E+00
       11   -1    0    0    0    0  0.00000000000E+00  0.00000000000E+00  0.39999999673E+01  0.40000000000E+01  0.51109989000E-03 0. -1.
     -623   -1    0    0    0    0  0.00000000000E+00  0.00000000000E+00  0.12525980253E-10  0.17130000000E+03  0.17130000000E+03 0. -1.
       11    1    1    2    0    0  0.12573332397E-01 -0.63469012246E-01 -0.11371415822E+00  0.13083415153E+00  0.51109989000E-03 0. -1.
     -623    1    1    2    0    0 -0.93865872415E-01  0.58054543593E+00  0.17430321886E+01  0.17130987714E+03  0.17130000000E+03 0. -1.
      622    1    1    2    0    0  0.81292540018E-01 -0.51707642369E+00  0.23706819370E+01  0.38592887105E+01  0.30000000000E+01 0. -1.
</event>
<event>
 5   0  0.7495800E-05  0.9118800E+02  0.7818608E-02  0.1180000E+00
       11   -1    0    0    0    0  0.00000000000E+00  0.00000000000E+00  0.39999999673E+01  0.40000000000E+01  0.51109989000E-03 0. -1.
     -623   -1    0    0    0    0  0.00000000000E+00  0.00000000000E+00  0.12525980253E-10  0.17130000000E+03  0.17130000000E+03 0. -1.
       11    1    1    2    0    0 -0.50808529780E-01 -0.10838649289E+00  0.57027199231E-01  0.13259525336E+00  0.51109989000E-03 0. -1.
     -623    1    1    2    0    0  0.42919542016E+00  0.90456051057E+00  0.16861929005E+01  0.17131122463E+03  0.17130000000E+03 0. -1.
      622    1    1    2    0    0 -0.37838689038E+00 -0.79617401768E+00  0.22567798677E+01  0.38561801146E+01  0.30000000000E+01 0. -1.
</event>
<event>
 5   0  0.7495800E-05  0.9118800E+02  0.7818608E-02  0.1180000E+00
       11   -1    0    0    0    0  0.00000000000E+00  0.00000000000E+00  0.39999999673E+01  0.40000000000E+01  0.51109989000E-03 0. -1.
     -623   -1    0    0    0    0  0.00000000000E+00  0.00000000000E+00  0.12525980253E-10  0.17130000000E+03  0.17130000000E+03 0.  1.
       11    1    1    2    0    0  0.14525686421E+00 -0.13141668119E+00  0.24223000237E-01  0.19737506341E+00  0.51109989000E-03 0. -1.
     -623    1    1    2    0    0  0.26396245448E+00  0.38493214246E+00  0.17044369438E+01  0.17130911521E+03  0.17130000000E+03 0.  1.
      622    1    1    2    0    0 -0.40921931869E+00 -0.25351546127E+00  0.22713400233E+01  0.37935097260E+01  0.30000000000E+01 0. -1.
</event>
<event>
 5   0  0.7495800E-05  0.9118800E+02  0.7818608E-02  0.1180000E+00
       11   -1    0    0    0    0  0.00000000000E+00  0.00000000000E+00  0.39999999673E+01  0.40000000000E+01  0.51109989000E-03 0.  1.
     -623   -1    0    0    0    0  0.00000000000E+00  0.00000000000E+00  0.12525980253E-10  0.17130000000E+03  0.17130000000E+03 0. -1.
       11    1    1    2    0    0  0.17167307368E+00 -0.34039334925E+00 -0.11284582270E-02  0.38123589952E+00  0.51109989000E-03 0.  1.
     -623    1    1    2    0    0 -0.19704043161E+00  0.25630242263E+00  0.20008523313E+01  0.17131199002E+03  0.17130000000E+03 0. -1.
      622    1    1    2    0    0  0.25367357933E-01  0.84090926619E-01  0.20002760943E+01  0.36067740767E+01  0.30000000000E+01 0.  1.
</event>
<event>
 5   0  0.7495800E-05  0.9118800E+02  0.7818608E-02  0.1180000E+00
       11   -1    0    0    0    0  0.00000000000E+00  0.00000000000E+00  0.39999999673E+01  0.40000000000E+01  0.51109989000E-03 0.  1.
     -623   -1    0    0    0    0  0.00000000000E+00  0.00000000000E+00  0.12525980253E-10  0.17130000000E+03  0.17130000000E+03 0.  1.
       11    1    1    2    0    0 -0.15015006170E+00  0.40175833921E-01 -0.22590079923E+00  0.27420899142E+00  0.51109989000E-03 0.  1.
     -623    1    1    2    0    0  0.17290582020E+00  0.77117704492E+00  0.22000410613E+01  0.17131595019E+03  0.17130000000E+03 0.  1.
      622    1    1    2    0    0 -0.22755758502E-01 -0.81135287884E+00  0.20258597053E+01  0.37098408138E+01  0.30000000000E+01 0.  1.
</event>
<event>
 5   0  0.7495800E-05  0.9118800E+02  0.7818608E-02  0.1180000E+00
       11   -1    0    0    0    0  0.00000000000E+00  0.00000000000E+00  0.39999999673E+01  0.40000000000E+01  0.51109989000E-03 0. -1.
     -623   -1    0    0    0    0  0.00000000000E+00  0.00000000000E+00  0.12525980253E-10  0.17130000000E+03  0.17130000000E+03 0. -1.
       11    1    1    2    0    0  0.14767512079E+00  0.10124274764E+00  0.11745715741E+00  0.21413659262E+00  0.51109989000E-03 0. -1.
     -623    1    1    2    0    0 -0.98037451965E-01 -0.20240018296E+00  0.15883661209E+01  0.17130751146E+03  0.17130000000E+03 0. -1.
      622    1    1    2    0    0 -0.49637668821E-01  0.10115743533E+00  0.22941766890E+01  0.37783519430E+01  0.30000000000E+01 0. -1.
</event>
<event>
 5   0  0.7495800E-05  0.9118800E+02  0.7818608E-02  0.1180000E+00
       11   -1    0    0    0    0  0.00000000000E+00  0.00000000000E+00  0.39999999673E+01  0.40000000000E+01  0.51109989000E-03 0. -1.
     -623   -1    0    0    0    0  0.00000000000E+00  0.00000000000E+00  0.12525980253E-10  0.17130000000E+03  0.17130000000E+03 0.  1.
       11    1    1    2    0    0  0.28794121306E+00  0.32760389773E+00 -0.18512809811E+00  0.47382183352E+00  0.51109989000E-03 0. -1.
     -623    1    1    2    0    0 -0.46222930504E+00 -0.79105216478E+00  0.24388595076E+01  0.17131981046E+03  0.17130000000E+03 0.  1.
      622    1    1    2    0    0  0.17428809198E+00  0.46344826705E+00  0.17462685578E+01  0.35063677091E+01  0.30000000000E+01 0. -1.
</event>
<event>
 5   0  0.7495800E-05  0.9118800E+02  0.7818608E-02  0.1180000E+00
       11   -1    0    0    0    0  0.00000000000E+00  0.00000000000E+00  0.39999999673E+01  0.40000000000E+01  0.51109989000E-03 0.  1.
     -623   -1    0    0    0    0  0.00000000000E+00  0.00000000000E+00  0.12525980253E-10  0.17130000000E+03  0.17130000000E+03 0.  1.
       11    1    1    2    0    0  0.27010764427E+00  0.98880067316E-01 -0.10735971729E+00  0.30702080927E+00  0.51109989000E-03 0.  1.
     -623    1    1    2    0    0  0.86998484171E-01  0.26875611804E+00  0.20374920504E+01  0.17131234974E+03  0.17130000000E+03 0.  1.
      622    1    1    2    0    0 -0.35710612845E+00 -0.36763618536E+00  0.20698676342E+01  0.36806294536E+01  0.30000000000E+01 0.  1.
</event>
<event>
 5   0  0.7495800E-05  0.9118800E+02  0.7818608E-02  0.1180000E+00
       11   -1    0    0    0    0  0.00000000000E+00  0.00000000000E+00  0.39999999673E+01  0.40000000000E+01  0.51109989000E-03 0.  1.
     -623   -1    0    0    0    0  0.00000000000E+00  0.00000000000E+00  0.12525980253E-10  0.17130000000E+03  0.17130000000E+03 0.  1.
       11    1    1    2    0    0  0.15255030975E+00 -0.29399962213E-01 -0.14752857732E+00  0.21424494657E+00  0.51109989000E-03 0.  1.
     -623    1    1    2    0    0 -0.16614268591E+00 -0.20089914757E+00  0.18671156236E+01  0.17131037355E+03  0.17130000000E+03 0.  1.
      622    1    1    2    0    0  0.13592376161E-01  0.23029910978E+00  0.22804129211E+01  0.37753815070E+01  0.30000000000E+01 0.  1.
</event>
<event>
 5   0  0.7495800E-05  0.9118800E+02  0.7818608E-02  0.1180000E+00
       11   -1    0    0    0    0  0.00000000000E+00  0.00000000000E+00  0.39999999673E+01  0.40000000000E+01  0.51109989000E-03 0.  1.
     -623   -1    0    0    0    0  0.00000000000E+00  0.00000000000E+00  0.12525980253E-10  0.17130000000E+03  0.17130000000E+03 0. -1.
       11    1    1    2    0    0  0.16218185795E+00 -0.11984912827E+00 -0.27901347467E+00  0.34426087328E+00  0.51109989000E-03 0.  1.
     -623    1    1    2    0    0  0.54901907500E+00  0.56993107275E+00  0.24028956836E+01  0.17131868010E+03  0.17130000000E+03 0. -1.
      622    1    1    2    0    0 -0.71120093296E+00 -0.45008194448E+00  0.18761177585E+01  0.36370590272E+01  0.30000000000E+01 0.  1.
</event>
<event>
 5   0  0.7495800E-05  0.9118800E+02  0.7818608E-02  0.1180000E+00
       11   -1    0    0    0    0  0.00000000000E+00  0.00000000000E+00  0.39999999673E+01  0.40000000000E+01  0.51109989000E-03 0. -1.
     -623   -1    0    0    0    0  0.00000000000E+00  0.00000000000E+00  0.12525980253E-10  0.17130000000E+03  0.17130000000E+03 0. -1.
       11    1    1    2    0    0  0.30377155478E+00  0.22025145111E+00  0.39610988191E+00  0.54561081274E+00  0.51109989000E-03 0. -1.
     -623    1    1    2    0    0 -0.16543493673E+00 -0.73273151868E+00  0.20042561153E+01  0.17131337165E+03  0.17130000000E+03 0. -1.
      622    1    1    2    0    0 -0.13833661804E+00  0.51248006756E+00  0.15996339702E+01  0.34410175353E+01  0.30000000000E+01 0. -1.
</event>
<event>
 5   0  0.7495800E-05  0.9118800E+02  0.7818608E-02  0.1180000E+00
       11   -1    0    0    0    0  0.00000000000E+00  0.00000000000E+00  0.39999999673E+01  0.40000000000E+01  0.51109989000E-03 0.  1.
     -623   -1    0    0    0    0  0.00000000000E+00  0.00000000000E+00  0.12525980253E-10  0.17130000000E+03  0.17130000000E+03 0. -1.
       11    1    1    2    0    0  0.84428087134E-01 -0.34441036217E+00  0.28437887794E+00  0.45455275481E+00  0.51109989000E-03 0.  1.
     -623    1    1    2    0    0 -0.38739105428E+00  0.46275913544E+00  0.18760142509E+01  0.17131133543E+03  0.17130000000E+03 0. -1.
      622    1    1    2    0    0  0.30296296715E+00 -0.11834877328E+00  0.18396068385E+01  0.35341118137E+01  0.30000000000E+01 0.  1.
</event>
<event>
 5   0  0.7495800E-05  0.9118800E+02  0.7818608E-02  0.1180000E+00
       11   -1    0    0    0    0  0.00000000000E+00  0.00000000000E+00  0.39999999673E+01  0.40000000000E+01  0.51109989000E-03 0.  1.
     -623   -1    0    0    0    0  0.00000000000E+00  0.00000000000E+00  0.12525980253E-10  0.17130000000E+03  0.17130000000E+03 0.  1.
       11    1    1    2    0    0 -0.88934223472E-01  0.11821986311E-01  0.97776757976E-01  0.13270120982E+00  0.51109989000E-03 0.  1.
     -623    1    1    2    0    0  0.16524576985E-01 -0.49385644208E+00  0.15230265936E+01  0.17130748313E+03  0.17130000000E+03 0.  1.
      622    1    1    2    0    0  0.72409646487E-01  0.48203445577E+00  0.23791966158E+01  0.38598156575E+01  0.30000000000E+01 0.  1.
</event>
<event>
 5   0  0.7495800E-05  0.9118800E+02  0.7818608E-02  0.1180000E+00
       11   -1    0    0    0    0  0.00000000000E+00  0.00000000000E+00  0.39999999673E+01  0.40000000000E+01  0.51109989000E-03 0. -1.
     -623   -1    0    0    0    0  0.00000000000E+00  0.00000000000E+00  0.12525980253E-10  0.17130000000E+03  0.17130000000E+03 0. -1.
       11    1    1    2    0    0  0.22248140371E+00  0.43592421865E-01  0.69493958853E-01  0.23712432558E+00  0.51109989000E-03 0. -1.
     -623    1    1    2    0    0 -0.66340966834E+00  0.43772701899E+00  0.17740599304E+01  0.17131103002E+03  0.17130000000E+03 0. -1.
      622    1    1    2    0    0  0.44092826463E+00 -0.48131944086E+00  0.21564460781E+01  0.37518456560E+01  0.30000000000E+01 0.  0.
</event>
<event>
 5   0  0.7495800E-05  0.9118800E+02  0.7818608E-02  0.1180000E+00
       11   -1    0    0    0    0  0.00000000000E+00  0.00000000000E+00  0.39999999673E+01  0.40000000000E+01  0.51109989000E-03 0. -1.
     -623   -1    0    0    0    0  0.00000000000E+00  0.00000000000E+00  0.12525980253E-10  0.17130000000E+03  0.17130000000E+03 0.  1.
       11    1    1    2    0    0  0.78774231899E-01  0.64987783577E-01  0.49460041000E-01  0.11346959286E+00  0.51109989000E-03 0. -1.
     -623    1    1    2    0    0 -0.45946713516E+00  0.18056843372E+00  0.15337127899E+01  0.17130757715E+03  0.17130000000E+03 0.  1.
      622    1    1    2    0    0  0.38069290326E+00 -0.24555621729E+00  0.24168271365E+01  0.38789532544E+01  0.30000000000E+01 0. -1.
</event>
<event>
 5   0  0.7495800E-05  0.9118800E+02  0.7818608E-02  0.1180000E+00
       11   -1    0    0    0    0  0.00000000000E+00  0.00000000000E+00  0.39999999673E+01  0.40000000000E+01  0.51109989000E-03 0. -1.
     -623   -1    0    0    0    0  0.00000000000E+00  0.00000000000E+00  0.12525980253E-10  0.17130000000E+03  0.17130000000E+03 0.  1.
       11    1    1    2    0    0 -0.12698640968E+00 -0.11090568133E+00  0.81567695063E-01  0.18729433653E+00  0.51109989000E-03 0. -1.
     -623    1    1    2    0    0 -0.57041233600E+00 -0.25994947948E+00  0.17187905751E+01  0.17130976967E+03  0.17130000000E+03 0.  1.
      622    1    1    2    0    0  0.69739874568E+00  0.37085516081E+00  0.21996416972E+01  0.38029359917E+01  0.30000000000E+01 0. -1.
</event>
<event>
 5   0  0.7495800E-05  0.9118800E+02  0.7818608E-02  0.1180000E+00
       11   -1    0    0    0    0  0.00000000000E+00  0.00000000000E+00  0.39999999673E+01  0.40000000000E+01  0.51109989000E-03 0.  1.
     -623   -1    0    0    0    0  0.00000000000E+00  0.00000000000E+00  0.12525980253E-10  0.17130000000E+03  0.17130000000E+03 0. -1.
       11    1    1    2    0    0  0.77035184022E-01 -0.43726664569E-01  0.53131147565E-01  0.10329385672E+00  0.51109989000E-03 0.  1.
     -623    1    1    2    0    0 -0.21515505104E+00 -0.13658087235E+00  0.14808160942E+01  0.17130658996E+03  0.17130000000E+03 0. -1.
      622    1    1    2    0    0  0.13811986701E+00  0.18030753692E+00  0.24660527256E+01  0.38901161873E+01  0.30000000000E+01 0.  1.
</event>
<event>
 5   0  0.7495800E-05  0.9118800E+02  0.7818608E-02  0.1180000E+00
       11   -1    0    0    0    0  0.00000000000E+00  0.00000000000E+00  0.39999999673E+01  0.40000000000E+01  0.51109989000E-03 0.  1.
     -623   -1    0    0    0    0  0.00000000000E+00  0.00000000000E+00  0.12525980253E-10  0.17130000000E+03  0.17130000000E+03 0.  1.
       11    1    1    2    0    0 -0.30147343012E+00  0.41423238818E+00  0.24218964870E+00  0.56668402805E+00  0.51109989000E-03 0.  1.
     -623    1    1    2    0    0  0.95037225977E+00 -0.17360607797E+00  0.22792341916E+01  0.17131788656E+03  0.17130000000E+03 0.  1.
      622    1    1    2    0    0 -0.64889882965E+00 -0.24062631021E+00  0.14785761270E+01  0.34154294131E+01  0.30000000000E+01 0.  1.
</event>
<event>
 5   0  0.7495800E-05  0.9118800E+02  0.7818608E-02  0.1180000E+00
       11   -1    0    0    0    0  0.00000000000E+00  0.00000000000E+00  0.39999999673E+01  0.40000000000E+01  0.51109989000E-03 0. -1.
     -623   -1    0    0    0    0  0.00000000000E+00  0.00000000000E+00  0.12525980253E-10  0.17130000000E+03  0.17130000000E+03 0.  1.
       11    1    1    2    0    0 -0.19728682131E+00  0.37156515596E+00  0.13990887150E+00  0.44334806702E+00  0.51109989000E-03 0. -1.
     -623    1    1    2    0    0 -0.76162574946E-01 -0.83425847992E+00  0.20548530991E+01  0.17131437245E+03  0.17130000000E+03 0.  1.
      622    1    1    2    0    0  0.27344939626E+00  0.46269332396E+00  0.18052379967E+01  0.35422794793E+01  0.30000000000E+01 0. -1.
</event>
<event>
 5   0  0.7495800E-05  0.9118800E+02  0.7818608E-02  0.1180000E+00
       11   -1    0    0    0    0  0.00000000000E+00  0.00000000000E+00  0.39999999673E+01  0.40000000000E+01  0.51109989000E-03 0. -1.
     -623   -1    0    0    0    0  0.00000000000E+00  0.00000000000E+00  0.12525980253E-10  0.17130000000E+03  0.17130000000E+03 0. -1.
       11    1    1    2    0    0  0.36498906079E-01  0.94617710759E-02 -0.97101000349E-01  0.10416602492E+00  0.51109989000E-03 0. -1.
     -623    1    1    2    0    0  0.72758660501E+00  0.46296036849E+00  0.17992515997E+01  0.17131161963E+03  0.17130000000E+03 0. -1.
      622    1    1    2    0    0 -0.76408551109E+00 -0.47242213957E+00  0.22978493680E+01  0.38842143432E+01  0.30000000000E+01 0. -1.
</event>
<event>
 5   0  0.7495800E-05  0.9118800E+02  0.7818608E-02  0.1180000E+00
       11   -1    0    0    0    0  0.00000000000E+00  0.00000000000E+00  0.39999999673E+01  0.40000000000E+01  0.51109989000E-03 0.  1.
     -623   -1    0    0    0    0  0.00000000000E+00  0.00000000000E+00  0.12525980253E-10  0.17130000000E+03  0.17130000000E+03 0. -1.
       11    1    1    2    0    0  0.96205802504E-01  0.11241875566E+00  0.34991944483E-01  0.15204680353E+00  0.51109989000E-03 0.  1.
     -623    1    1    2    0    0  0.87697117446E-01 -0.44816302537E+00  0.15989670821E+01  0.17130807114E+03  0.17130000000E+03 0. -1.
      622    1    1    2    0    0 -0.18390291995E+00  0.33574426970E+00  0.23660409408E+01  0.38398820597E+01  0.30000000000E+01 0.  1.
</event>
<event>
 5   0  0.7495800E-05  0.9118800E+02  0.7818608E-02  0.1180000E+00
       11   -1    0    0    0    0  0.00000000000E+00  0.00000000000E+00  0.39999999673E+01  0.40000000000E+01  0.51109989000E-03 0.  1.
     -623   -1    0    0    0    0  0.00000000000E+00  0.00000000000E+00  0.12525980253E-10  0.17130000000E+03  0.17130000000E+03 0.  1.
       11    1    1    2    0    0  0.13362306528E+00  0.22282959405E+00 -0.12714735286E+00  0.28926607496E+00  0.51109989000E-03 0.  1.
     -623    1    1    2    0    0 -0.66272496869E-01 -0.58851952343E+00  0.19970166996E+01  0.17131266393E+03  0.17130000000E+03 0.  1.
      622    1    1    2    0    0 -0.67350568416E-01  0.36568992937E+00  0.21301306206E+01  0.36980699945E+01  0.30000000000E+01 0.  1.
</event>
<event>
 5   0  0.7495800E-05  0.9118800E+02  0.7818608E-02  0.1180000E+00
       11   -1    0    0    0    0  0.00000000000E+00  0.00000000000E+00  0.39999999673E+01  0.40000000000E+01  0.51109989000E-03 0.  1.
     -623   -1    0    0    0    0  0.00000000000E+00  0.00000000000E+00  0.12525980253E-10  0.17130000000E+03  0.17130000000E+03 0.  1.
       11    1    1    2    0    0 -0.41553629914E+00 -0.31646222300E+00  0.17996356562E-01  0.52263073442E+00  0.51109989000E-03 0.  1.
     -623    1    1    2    0    0 -0.36073082794E+00  0.16232789508E+00  0.24520191957E+01  0.17131800511E+03  0.17130000000E+03 0.  1.
      622    1    1    2    0    0  0.77626712708E+00  0.15413432791E+00  0.15299844151E+01  0.34593641546E+01  0.30000000000E+01 0.  1.
</event>
<event>
 5   0  0.7495800E-05  0.9118800E+02  0.7818608E-02  0.1180000E+00
       11   -1    0    0    0    0  0.00000000000E+00  0.00000000000E+00  0.39999999673E+01  0.40000000000E+01  0.51109989000E-03 0. -1.
     -623   -1    0    0    0    0  0.00000000000E+00  0.00000000000E+00  0.12525980253E-10  0.17130000000E+03  0.17130000000E+03 0. -1.
       11    1    1    2    0    0 -0.42825113499E-02  0.11110887130E+00 -0.15249960551E+00  0.18873238219E+00  0.51109989000E-03 0. -1.
     -623    1    1    2    0    0  0.83214957230E+00  0.18619088326E+00  0.19967354052E+01  0.17131375920E+03  0.17130000000E+03 0. -1.
      622    1    1    2    0    0 -0.82786706095E+00 -0.29729975456E+00  0.21557641676E+01  0.37975084149E+01  0.30000000000E+01 0. -1.
</event>
<event>
 5   0  0.7495800E-05  0.9118800E+02  0.7818608E-02  0.1180000E+00
       11   -1    0    0    0    0  0.00000000000E+00  0.00000000000E+00  0.39999999673E+01  0.40000000000E+01  0.51109989000E-03 0. -1.
     -623   -1    0    0    0    0  0.00000000000E+00  0.00000000000E+00  0.12525980253E-10  0.17130000000E+03  0.17130000000E+03 0. -1.
       11    1    1    2    0    0 -0.97578461268E-01 -0.28675582007E+00 -0.92836932010E-01  0.31681132179E+00  0.51109989000E-03 0. -1.
     -623    1    1    2    0    0  0.56312957492E+00 -0.67634868325E+00  0.22779954010E+01  0.17131740666E+03  0.17130000000E+03 0. -1.
      622    1    1    2    0    0 -0.46555111365E+00  0.96310450332E+00  0.18148414984E+01  0.36657820159E+01  0.30000000000E+01 0. -1.
</event>
<event>
 5   0  0.7495800E-05  0.9118800E+02  0.7818608E-02  0.1180000E+00
       11   -1    0    0    0    0  0.00000000000E+00  0.00000000000E+00  0.39999999673E+01  0.40000000000E+01  0.51109989000E-03 0.  1.
     -623   -1    0    0    0    0  0.00000000000E+00  0.00000000000E+00  0.12525980253E-10  0.17130000000E+03  0.17130000000E+03 0. -1.
       11    1    1    2    0    0  0.62529767580E-01 -0.59935521522E-01 -0.51604019770E-02  0.86770556904E-01  0.51109989000E-03 0.  1.
     -623    1    1    2    0    0 -0.84539715082E-03  0.26075119052E+00  0.15120703951E+01  0.17130687187E+03  0.17130000000E+03 0. -1.
      622    1    1    2    0    0 -0.61684370429E-01 -0.20081566900E+00  0.24930899742E+01  0.39063575763E+01  0.30000000000E+01 0.  1.
</event>
<event>
 5   0  0.7495800E-05  0.9118800E+02  0.7818608E-02  0.1180000E+00
       11   -1    0    0    0    0  0.00000000000E+00  0.00000000000E+00  0.39999999673E+01  0.40000000000E+01  0.51109989000E-03 0.  1.
     -623   -1    0    0    0    0  0.00000000000E+00  0.00000000000E+00  0.12525980253E-10  0.17130000000E+03  0.17130000000E+03 0. -1.
       11    1    1    2    0    0 -0.23432778499E+00  0.35779718734E+00  0.25852481749E+00  0.49976362470E+00  0.51109989000E-03 0.  1.
     -623    1    1    2    0    0  0.32531396272E+00 -0.29129832844E+00  0.19648736814E+01  0.17131182508E+03  0.17130000000E+03 0. -1.
      622    1    1    2    0    0 -0.90986177731E-01 -0.66498858903E-01  0.17766014684E+01  0.34884112946E+01  0.30000000000E+01 0.  1.
</event>
<event>
 5   0  0.7495800E-05  0.9118800E+02  0.7818608E-02  0.1180000E+00
       11   -1    0    0    0    0  0.00000000000E+00  0.00000000000E+00  0.39999999673E+01  0.40000000000E+01  0.51109989000E-03 0.  1.
     -623   -1    0    0    0    0  0.00000000000E+00  0.00000000000E+00  0.12525980253E-10  0.17130000000E+03  0.17130000000E+03 0.  1.
       11    1    1    2    0    0  0.13331958338E-01  0.12895110747E+00 -0.46831795722E-01  0.13783906392E+00  0.51109989000E-03 0.  1.
     -623    1    1    2    0    0  0.15850140969E+00  0.28653136783E+00  0.16700893406E+01  0.17130845403E+03  0.17130000000E+03 0.  1.
      622    1    1    2    0    0 -0.17183336803E+00 -0.41548247530E+00  0.23767424225E+01  0.38537069085E+01  0.30000000000E+01 0.  1.
</event>
<event>
 5   0  0.7495800E-05  0.9118800E+02  0.7818608E-02  0.1180000E+00
       11   -1    0    0    0    0  0.00000000000E+00  0.00000000000E+00  0.39999999673E+01  0.40000000000E+01  0.51109989000E-03 0. -1.
     -623   -1    0    0    0    0  0.00000000000E+00  0.00000000000E+00  0.12525980253E-10  0.17130000000E+03  0.17130000000E+03 0. -1.
       11    1    1    2    0    0  0.48236228407E+00 -0.18410246277E+00  0.16873719550E+00  0.54317547096E+00  0.51109989000E-03 0. -1.
     -623    1    1    2    0    0 -0.25497278957E+00  0.10589709231E+01  0.24203010693E+01  0.17132056003E+03  0.17130000000E+03 0. -1.
      622    1    1    2    0    0 -0.22738949450E+00 -0.87486846033E+00  0.14109617025E+01  0.34362645025E+01  0.30000000000E+01 0.  0.
</event>
<event>
 5   0  0.7495800E-05  0.9118800E+02  0.7818608E-02  0.1180000E+00
       11   -1    0    0    0    0  0.00000000000E+00  0.00000000000E+00  0.39999999673E+01  0.40000000000E+01  0.51109989000E-03 0.  1.
     -623   -1    0    0    0    0  0.00000000000E+00  0.00000000000E+00  0.12525980253E-10  0.17130000000E+03  0.17130000000E+03 0. -1.
       11    1    1    2    0    0 -0.18170914066E+00  0.21663189653E+00  0.50469077982E+00  0.57849860402E+00  0.51109989000E-03 0.  1.
     -623    1    1    2    0    0 -0.53975272054E+00 -0.76348081975E+00  0.21624452877E+01  0.17131620007E+03  0.17130000000E+03 0. -1.
      622    1    1    2    0    0  0.72146186120E+00  0.54684892322E+00  0.13328638998E+01  0.34053013284E+01  0.30000000000E+01 0.  0.
</event>
<event>
 5   0  0.7495800E-05  0.9118800E+02  0.7818608E-02  0.1180000E+00
       11   -1    0    0    0    0  0.00000000000E+00  0.00000000000E+00  0.39999999673E+01  0.40000000000E+01  0.51109989000E-03 0.  1.
     -623   -1    0    0    0    0  0.00000000000E+00  0.00000000000E+00  0.12525980253E-10  0.17130000000E+03  0.17130000000E+03 0.  1.
       11    1    1    2    0    0  0.84017206989E-01 -0.20216932523E-01 -0.19220293854E-01  0.88528505860E-01  0.51109989000E-03 0.  1.
     -623    1    1    2    0    0  0.10474348722E+00 -0.46842779244E+00  0.15772530987E+01  0.17130793363E+03  0.17130000000E+03 0.  1.
      622    1    1    2    0    0 -0.18876069421E+00  0.48864472496E+00  0.24419671625E+01  0.39035378684E+01  0.30000000000E+01 0.  0.
</event>
<event>
 5   0  0.7495800E-05  0.9118800E+02  0.7818608E-02  0.1180000E+00
       11   -1    0    0    0    0  0.00000000000E+00  0.00000000000E+00  0.39999999673E+01  0.40000000000E+01  0.51109989000E-03 0. -1.
     -623   -1    0    0    0    0  0.00000000000E+00  0.00000000000E+00  0.12525980253E-10  0.17130000000E+03  0.17130000000E+03 0. -1.
       11    1    1    2    0    0  0.14797113318E+00  0.51786882970E-01  0.27077990015E-01  0.15909373422E+00  0.51109989000E-03 0. -1.
     -623    1    1    2    0    0 -0.24569745946E+00  0.67391152639E+00  0.17058329989E+01  0.17130999501E+03  0.17130000000E+03 0. -1.
      622    1    1    2    0    0  0.97726326273E-01 -0.72569840936E+00  0.22670889784E+01  0.38309112561E+01  0.30000000000E+01 0. -1.
</event>
<event>
 5   0  0.7495800E-05  0.9118800E+02  0.7818608E-02  0.1180000E+00
       11   -1    0    0    0    0  0.00000000000E+00  0.00000000000E+00  0.39999999673E+01  0.40000000000E+01  0.51109989000E-03 0.  1.
     -623   -1    0    0    0    0  0.00000000000E+00  0.00000000000E+00  0.12525980253E-10  0.17130000000E+03  0.17130000000E+03 0. -1.
       11    1    1    2    0    0 -0.29453212231E+00 -0.26190872987E+00  0.11117186588E+00  0.40951776377E+00  0.51109989000E-03 0.  1.
     -623    1    1    2    0    0  0.64131620758E+00  0.92318328741E+00  0.20955717970E+01  0.17131650526E+03  0.17130000000E+03 0. -1.
      622    1    1    2    0    0 -0.34678408527E+00 -0.66127455754E+00  0.17932563045E+01  0.35739769747E+01  0.30000000000E+01 0.  1.
</event>
<event>
 5   0  0.7495800E-05  0.9118800E+02  0.7818608E-02  0.1180000E+00
       11   -1    0    0    0    0  0.00000000000E+00  0.00000000000E+00  0.39999999673E+01  0.40000000000E+01  0.51109989000E-03 0. -1.
     -623   -1    0    0    0    0  0.00000000000E+00  0.00000000000E+00  0.12525980253E-10  0.17130000000E+03  0.17130000000E+03 0.  1.
       11    1    1    2    0    0  0.14231187652E+00  0.35839375062E-01  0.32419890115E-01  0.15029451588E+00  0.51109989000E-03 0. -1.
     -623    1    1    2    0    0  0.16108565719E+00 -0.42160202845E+00  0.16189727115E+01  0.17130824490E+03  0.17130000000E+03 0.  1.
      622    1    1    2    0    0 -0.30339753371E+00  0.38576265339E+00  0.23486073658E+01  0.38414605877E+01  0.30000000000E+01 0. -1.
</event>
<event>
 5   0  0.7495800E-05  0.9118800E+02  0.7818608E-02  0.1180000E+00
       11   -1    0    0    0    0  0.00000000000E+00  0.00000000000E+00  0.39999999673E+01  0.40000000000E+01  0.51109989000E-03 0.  1.
     -623   -1    0    0    0    0  0.00000000000E+00  0.00000000000E+00  0.12525980253E-10  0.17130000000E+03  0.17130000000E+03 0.  1.
       11    1    1    2    0    0  0.14271811347E+00 -0.48959543301E+00  0.42573574370E+00  0.66432170868E+00  0.51109989000E-03 0.  1.
     -623    1    1    2    0    0 -0.11126108034E+01  0.12610564764E+01  0.29698996917E+01  0.17133399683E+03  0.17130000000E+03 0. -1.
      622    1    1    2    0    0  0.96989268997E+00 -0.77146104343E+00  0.60436453194E+00  0.33016814594E+01  0.30000000000E+01 0.  0.
</event>
<event>
 5   0  0.7495800E-05  0.9118800E+02  0.7818608E-02  0.1180000E+00
       11   -1    0    0    0    0  0.00000000000E+00  0.00000000000E+00  0.39999999673E+01  0.40000000000E+01  0.51109989000E-03 0. -1.
     -623   -1    0    0    0    0  0.00000000000E+00  0.00000000000E+00  0.12525980253E-10  0.17130000000E+03  0.17130000000E+03 0.  1.
       11    1    1    2    0    0  0.15487669613E+00 -0.22605510355E+00 -0.16209948617E+00  0.31837745756E+00  0.51109989000E-03 0. -1.
     -623    1    1    2    0    0 -0.58592731695E+00  0.74620933893E+00  0.21676264275E+01  0.17131634115E+03  0.17130000000E+03 0.  1.
      622    1    1    2    0    0  0.43105062082E+00 -0.52015423538E+00  0.19944730260E+01  0.36652813968E+01  0.30000000000E+01 0. -1.
</event>
<event>
 5   0  0.7495800E-05  0.9118800E+02  0.7818608E-02  0.1180000E+00
       11   -1    0    0    0    0  0.00000000000E+00  0.00000000000E+00  0.39999999673E+01  0.40000000000E+01  0.51109989000E-03 0. -1.
     -623   -1    0    0    0    0  0.00000000000E+00  0.00000000000E+00  0.12525980253E-10  0.17130000000E+03  0.17130000000E+03 0. -1.
       11    1    1    2    0    0  0.69487165729E-02  0.48975835636E-01 -0.11452038365E+00  0.12474813279E+00  0.51109989000E-03 0. -1.
     -623    1    1    2    0    0 -0.17580807365E+00  0.20828465947E+00  0.16945377742E+01  0.17130859800E+03  0.17130000000E+03 0. -1.
      622    1    1    2    0    0  0.16885935707E+00 -0.25726049511E+00  0.24199825769E+01  0.38666538657E+01  0.30000000000E+01 0. -1.
</event>
<event>
 5   0  0.7495800E-05  0.9118800E+02  0.7818608E-02  0.1180000E+00
       11   -1    0    0    0    0  0.00000000000E+00  0.00000000000E+00  0.39999999673E+01  0.40000000000E+01  0.51109989000E-03 0. -1.
     -623   -1    0    0    0    0  0.00000000000E+00  0.00000000000E+00  0.12525980253E-10  0.17130000000E+03  0.17130000000E+03 0. -1.
       11    1    1    2    0    0 -0.57921492252E+00  0.27569855621E+00  0.26148643979E-01  0.64201529045E+00  0.51109989000E-03 0. -1.
     -623    1    1    2    0    0  0.86900512329E+00 -0.58875924941E+00  0.25801140620E+01  0.17132264531E+03  0.17130000000E+03 0. -1.
      622    1    1    2    0    0 -0.28979020076E+00  0.31306069319E+00  0.13937372614E+01  0.33353393998E+01  0.30000000000E+01 0. -1.
</event>
<event>
 5   0  0.7495800E-05  0.9118800E+02  0.7818608E-02  0.1180000E+00
       11   -1    0    0    0    0  0.00000000000E+00  0.00000000000E+00  0.39999999673E+01  0.40000000000E+01  0.51109989000E-03 0.  1.
     -623   -1    0    0    0    0  0.00000000000E+00  0.00000000000E+00  0.12525980253E-10  0.17130000000E+03  0.17130000000E+03 0.  1.
       11    1    1    2    0    0 -0.22416921285E+00 -0.14168445915E+00  0.58989821041E-01  0.27167330043E+00  0.51109989000E-03 0.  1.
     -623    1    1    2    0    0 -0.31925156754E+00  0.90449470084E-01  0.18129460982E+01  0.17130991470E+03  0.17130000000E+03 0.  1.
      622    1    1    2    0    0  0.54342078039E+00  0.51234989070E-01  0.21280640481E+01  0.37184119946E+01  0.30000000000E+01 0.  1.
</event>
<event>
 5   0  0.7495800E-05  0.9118800E+02  0.7818608E-02  0.1180000E+00
       11   -1    0    0    0    0  0.00000000000E+00  0.00000000000E+00  0.39999999673E+01  0.40000000000E+01  0.51109989000E-03 0. -1.
     -623   -1    0    0    0    0  0.00000000000E+00  0.00000000000E+00  0.12525980253E-10  0.17130000000E+03  0.17130000000E+03 0.  1.
       11    1    1    2    0    0  0.15727807356E+00 -0.17339280486E-01  0.55705031176E+00  0.57908751853E+00  0.51109989000E-03 0. -1.
     -623    1    1    2    0    0 -0.10662853860E+01 -0.44497041533E+00  0.22022079281E+01  0.17131805125E+03  0.17130000000E+03 0.  1.
      622    1    1    2    0    0  0.90900731248E+00  0.46230969581E+00  0.12407417275E+01  0.34028612348E+01  0.30000000000E+01 0.  0.
</event>
<event>
 5   0  0.7495800E-05  0.9118800E+02  0.7818608E-02  0.1180000E+00
       11   -1    0    0    0    0  0.00000000000E+00  0.00000000000E+00  0.39999999673E+01  0.40000000000E+01  0.51109989000E-03 0. -1.
     -623   -1    0    0    0    0  0.00000000000E+00  0.00000000000E+00  0.12525980253E-10  0.17130000000E+03  0.17130000000E+03 0.  1.
       11    1    1    2    0    0 -0.10778400353E+00 -0.21645972451E+00 -0.14576769444E+00  0.28234851818E+00  0.51109989000E-03 0. -1.
     -623    1    1    2    0    0 -0.23118679380E+00  0.13285608062E+01  0.23256385226E+01  0.17132109361E+03  0.17130000000E+03 0.  1.
      622    1    1    2    0    0  0.33897079733E+00 -0.11121010817E+01  0.18201291392E+01  0.36965578719E+01  0.30000000000E+01 0. -1.
</event>
<event>
 5   0  0.7495800E-05  0.9118800E+02  0.7818608E-02  0.1180000E+00
       11   -1    0    0    0    0  0.00000000000E+00  0.00000000000E+00  0.39999999673E+01  0.40000000000E+01  0.51109989000E-03 0. -1.
     -623   -1    0    0    0    0  0.00000000000E+00  0.00000000000E+00  0.12525980253E-10  0.17130000000E+03  0.17130000000E+03 0. -1.
       11    1    1    2    0    0 -0.45301325837E+00 -0.11057213685E+00  0.29944924435E+00  0.55418166776E+00  0.51109989000E-03 0. -1.
     -623    1    1    2    0    0  0.11909706978E+01 -0.40920813200E+00  0.23150469040E+01  0.17132027114E+03  0.17130000000E+03 0. -1.
      622    1    1    2    0    0 -0.73795743940E+00  0.51978026886E+00  0.13855038190E+01  0.34255471888E+01  0.30000000000E+01 0. -1.
</event>
<event>
 5   0  0.7495800E-05  0.9118800E+02  0.7818608E-02  0.1180000E+00
       11   -1    0    0    0    0  0.00000000000E+00  0.00000000000E+00  0.39999999673E+01  0.40000000000E+01  0.51109989000E-03 0.  1.
     -623   -1    0    0    0    0  0.00000000000E+00  0.00000000000E+00  0.12525980253E-10  0.17130000000E+03  0.17130000000E+03 0. -1.
       11    1    1    2    0    0  0.32646999656E+00 -0.69556214592E-02  0.37721297367E-01  0.32871598200E+00  0.51109989000E-03 0.  1.
     -623    1    1    2    0    0 -0.16781183826E+00 -0.27903944941E+00  0.18904158100E+01  0.17131074016E+03  0.17130000000E+03 0. -1.
      622    1    1    2    0    0 -0.15865815831E+00  0.28599507087E+00  0.20718628600E+01  0.36605438533E+01  0.30000000000E+01 0.  1.
</event>
<event>
 5   0  0.7495800E-05  0.9118800E+02  0.7818608E-02  0.1180000E+00
       11   -1    0    0    0    0  0.00000000000E+00  0.00000000000E+00  0.39999999673E+01  0.40000000000E+01  0.51109989000E-03 0.  1.
     -623   -1    0    0    0    0  0.00000000000E+00  0.00000000000E+00  0.12525980253E-10  0.17130000000E+03  0.17130000000E+03 0. -1.
       11    1    1    2    0    0  0.16416812982E+00  0.27521606713E+00 -0.48543574749E-01  0.32411695162E+00  0.51109989000E-03 0.  1.
     -623    1    1    2    0    0  0.62560790035E+00 -0.13642946835E+00  0.21081449433E+01  0.17131416834E+03  0.17130000000E+03 0. -1.
      622    1    1    2    0    0 -0.78977603017E+00 -0.13878659878E+00  0.19403985988E+01  0.36617147104E+01  0.30000000000E+01 0.  1.
</event>
<event>
 5   0  0.7495800E-05  0.9118800E+02  0.7818608E-02  0.1180000E+00
       11   -1    0    0    0    0  0.00000000000E+00  0.00000000000E+00  0.39999999673E+01  0.40000000000E+01  0.51109989000E-03 0.  1.
     -623   -1    0    0    0    0  0.00000000000E+00  0.00000000000E+00  0.12525980253E-10  0.17130000000E+03  0.17130000000E+03 0.  1.
       11    1    1    2    0    0 -0.14084133315E+00 -0.99396725789E-01 -0.27057980339E+00  0.32082655975E+00  0.51109989000E-03 0.  1.
     -623    1    1    2    0    0  0.67763715750E+00 -0.19746677982E+00  0.22606419307E+01  0.17131637017E+03  0.17130000000E+03 0.  1.
      622    1    1    2    0    0 -0.53679582435E+00  0.29686350561E+00  0.20099378400E+01  0.36628032733E+01  0.30000000000E+01 0.  1.
</event>
<event>
 5   0  0.7495800E-05  0.9118800E+02  0.7818608E-02  0.1180000E+00
       11   -1    0    0    0    0  0.00000000000E+00  0.00000000000E+00  0.39999999673E+01  0.40000000000E+01  0.51109989000E-03 0.  1.
     -623   -1    0    0    0    0  0.00000000000E+00  0.00000000000E+00  0.12525980253E-10  0.17130000000E+03  0.17130000000E+03 0. -1.
       11    1    1    2    0    0  0.95427135842E-01 -0.27453906063E-01 -0.29740464912E+00  0.31354400290E+00  0.51109989000E-03 0.  1.
     -623    1    1    2    0    0 -0.32376941096E+00  0.19004635476E+00  0.21987081707E+01  0.17131452146E+03  0.17130000000E+03 0. -1.
      622    1    1    2    0    0  0.22834227512E+00 -0.16259244869E+00  0.20986964458E+01  0.36719345406E+01  0.30000000000E+01 0.  1.
</event>
<event>
 5   0  0.7495800E-05  0.9118800E+02  0.7818608E-02  0.1180000E+00
       11   -1    0    0    0    0  0.00000000000E+00  0.00000000000E+00  0.39999999673E+01  0.40000000000E+01  0.51109989000E-03 0.  1.
     -623   -1    0    0    0    0  0.00000000000E+00  0.00000000000E+00  0.12525980253E-10  0.17130000000E+03  0.17130000000E+03 0.  1.
       11    1    1    2    0    0  0.55882167561E-01  0.29040767643E-04 -0.18769238426E+00  0.19583541515E+00  0.51109989000E-03 0.  1.
     -623    1    1    2    0    0  0.40105349505E+00  0.69513570902E-01  0.19132252527E+01  0.17131116749E+03  0.17130000000E+03 0. -1.
      622    1    1    2    0    0 -0.45693566261E+00 -0.69542611670E-01  0.22744670990E+01  0.37929970945E+01  0.30000000000E+01 0.  1.
</event>
<event>
 5   0  0.7495800E-05  0.9118800E+02  0.7818608E-02  0.1180000E+00
       11   -1    0    0    0    0  0.00000000000E+00  0.00000000000E+00  0.39999999673E+01  0.40000000000E+01  0.51109989000E-03 0. -1.
     -623   -1    0    0    0    0  0.00000000000E+00  0.00000000000E+00  0.12525980253E-10  0.17130000000E+03  0.17130000000E+03 0.  1.
       11    1    1    2    0    0 -0.11146700780E+00  0.88727862345E-01 -0.23926309464E+00  0.27846834122E+00  0.51109989000E-03 0. -1.
     -623    1    1    2    0    0 -0.46610165078E+00  0.21464840383E+00  0.21614839972E+01  0.17131440493E+03  0.17130000000E+03 0.  1.
      622    1    1    2    0    0  0.57756865857E+00 -0.30337626617E+00  0.20777790648E+01  0.37071267252E+01  0.30000000000E+01 0. -1.
</event>
<event>
 5   0  0.7495800E-05  0.9118800E+02  0.7818608E-02  0.1180000E+00
       11   -1    0    0    0    0  0.00000000000E+00  0.00000000000E+00  0.39999999673E+01  0.40000000000E+01  0.51109989000E-03 0.  1.
     -623   -1    0    0    0    0  0.00000000000E+00  0.00000000000E+00  0.12525980253E-10  0.17130000000E+03  0.17130000000E+03 0.  1.
       11    1    1    2    0    0 -0.23323980983E+00  0.18734517130E+00 -0.34239015292E+00  0.45467603866E+00  0.51109989000E-03 0.  1.
     -623    1    1    2    0    0  0.10511116680E+00 -0.32262716695E+00  0.24975398134E+01  0.17131854203E+03  0.17130000000E+03 0.  1.
      622    1    1    2    0    0  0.12812864303E+00  0.13528199565E+00  0.18448503069E+01  0.35267819358E+01  0.30000000000E+01 0.  1.
</event>
<event>
 5   0  0.7495800E-05  0.9118800E+02  0.7818608E-02  0.1180000E+00
       11   -1    0    0    0    0  0.00000000000E+00  0.00000000000E+00  0.39999999673E+01  0.40000000000E+01  0.51109989000E-03 0. -1.
     -623   -1    0    0    0    0  0.00000000000E+00  0.00000000000E+00  0.12525980253E-10  0.17130000000E+03  0.17130000000E+03 0.  1.
       11    1    1    2    0    0 -0.47877416607E+00 -0.49835924383E-01 -0.35941637144E+00  0.60074013578E+00  0.51109989000E-03 0. -1.
     -623    1    1    2    0    0  0.27855277199E+00  0.18194548198E+00  0.28307601930E+01  0.17132371085E+03  0.17130000000E+03 0.  1.
      622    1    1    2    0    0  0.20022139408E+00 -0.13210955759E+00  0.15286561458E+01  0.33755490152E+01  0.30000000000E+01 0. -1.
</event>
<event>
 5   0  0.7495800E-05  0.9118800E+02  0.7818608E-02  0.1180000E+00
       11   -1    0    0    0    0  0.00000000000E+00  0.00000000000E+00  0.39999999673E+01  0.40000000000E+01  0.51109989000E-03 0. -1.
     -623   -1    0    0    0    0  0.00000000000E+00  0.00000000000E+00  0.12525980253E-10  0.17130000000E+03  0.17130000000E+03 0. -1.
       11    1    1    2    0    0  0.65946348042E-01  0.12443512496E+00 -0.21298479555E-02  0.14084679129E+00  0.51109989000E-03 0. -1.
     -623    1    1    2    0    0 -0.67042921725E+00 -0.61476940872E+00  0.17213475634E+01  0.17131106343E+03  0.17130000000E+03 0. -1.
      622    1    1    2    0    0  0.60448286921E+00  0.49033428375E+00  0.22807822519E+01  0.38480897767E+01  0.30000000000E+01 0. -1.
</event>
<event>
 5   0  0.7495800E-05  0.9118800E+02  0.7818608E-02  0.1180000E+00
       11   -1    0    0    0    0  0.00000000000E+00  0.00000000000E+00  0.39999999673E+01  0.40000000000E+01  0.51109989000E-03 0. -1.
     -623   -1    0    0    0    0  0.00000000000E+00  0.00000000000E+00  0.12525980253E-10  0.17130000000E+03  0.17130000000E+03 0.  1.
       11    1    1    2    0    0 -0.20456542832E+00  0.20814298546E+00  0.79646359738E-01  0.30251333971E+00  0.51109989000E-03 0. -1.
     -623    1    1    2    0    0  0.12773876169E+01  0.89107569834E-01  0.21033400818E+01  0.17131769815E+03  0.17130000000E+03 0.  1.
      622    1    1    2    0    0 -0.10728221886E+01 -0.29725055529E+00  0.18170135259E+01  0.36797885121E+01  0.30000000000E+01 0. -1.
</event>
<event>
 5   0  0.7495800E-05  0.9118800E+02  0.7818608E-02  0.1180000E+00
       11   -1    0    0    0    0  0.00000000000E+00  0.00000000000E+00  0.39999999673E+01  0.40000000000E+01  0.51109989000E-03 0. -1.
     -623   -1    0    0    0    0  0.00000000000E+00  0.00000000000E+00  0.12525980253E-10  0.17130000000E+03  0.17130000000E+03 0. -1.
       11    1    1    2    0    0  0.16477317448E-01 -0.91945874079E-01  0.11280138048E+00  0.14645804318E+00  0.51109989000E-03 0. -1.
     -623    1    1    2    0    0 -0.24412345834E+00 -0.38041877569E+00  0.15383566537E+01  0.17130750379E+03  0.17130000000E+03 0. -1.
      622    1    1    2    0    0  0.22764614089E+00  0.47236464977E+00  0.23488419332E+01  0.38460381635E+01  0.30000000000E+01 0. -1.
</event>
<event>
 5   0  0.7495800E-05  0.9118800E+02  0.7818608E-02  0.1180000E+00
       11   -1    0    0    0    0  0.00000000000E+00  0.00000000000E+00  0.39999999673E+01  0.40000000000E+01  0.51109989000E-03 0. -1.
     -623   -1    0    0    0    0  0.00000000000E+00  0.00000000000E+00  0.12525980253E-10  0.17130000000E+03  0.17130000000E+03 0.  1.
       11    1    1    2    0    0  0.14489584510E+00  0.17911851127E+00  0.22308588836E+00  0.32069584003E+00  0.51109989000E-03 0. -1.
     -623    1    1    2    0    0  0.26533804751E+00 -0.72749599242E+00  0.17800525507E+01  0.17131099860E+03  0.17130000000E+03 0.  1.
      622    1    1    2    0    0 -0.41023389261E+00  0.54837748116E+00  0.19968615283E+01  0.36683055587E+01  0.30000000000E+01 0.  0.
</event>
<event>
 5   0  0.7495800E-05  0.9118800E+02  0.7818608E-02  0.1180000E+00
       11   -1    0    0    0    0  0.00000000000E+00  0.00000000000E+00  0.39999999673E+01  0.40000000000E+01  0.51109989000E-03 0.  1.
     -623   -1    0    0    0    0  0.00000000000E+00  0.00000000000E+00  0.12525980253E-10  0.17130000000E+03  0.17130000000E+03 0.  1.
       11    1    1    2    0    0 -0.22703151426E+00  0.29505028155E-01  0.24644045097E+00  0.33637332274E+00  0.51109989000E-03 0.  1.
     -623    1    1    2    0    0 -0.33029849948E+00  0.60091859498E+00  0.18480031457E+01  0.17131134030E+03  0.17130000000E+03 0.  1.
      622    1    1    2    0    0  0.55733001374E+00 -0.63042362313E+00  0.19055563707E+01  0.36522863758E+01  0.30000000000E+01 0.  1.
</event>
<event>
 5   0  0.7495800E-05  0.9118800E+02  0.7818608E-02  0.1180000E+00
       11   -1    0    0    0    0  0.00000000000E+00  0.00000000000E+00  0.39999999673E+01  0.40000000000E+01  0.51109989000E-03 0. -1.
     -623   -1    0    0    0    0  0.00000000000E+00  0.00000000000E+00  0.12525980253E-10  0.17130000000E+03  0.17130000000E+03 0.  1.
       11    1    1    2    0    0  0.13341899805E+00  0.67943858532E-01  0.12024437838E+00  0.19203116598E+00  0.51109989000E-03 0. -1.
     -623    1    1    2    0    0 -0.36689113973E+00 -0.92453391457E-01  0.15584628452E+01  0.17130750703E+03  0.17130000000E+03 0.  1.
      622    1    1    2    0    0  0.23347214168E+00  0.24509532925E-01  0.23212927438E+01  0.38004618089E+01  0.30000000000E+01 0. -1.
</event>
<event>
 5   0  0.7495800E-05  0.9118800E+02  0.7818608E-02  0.1180000E+00
       11   -1    0    0    0    0  0.00000000000E+00  0.00000000000E+00  0.39999999673E+01  0.40000000000E+01  0.51109989000E-03 0. -1.
     -623   -1    0    0    0    0  0.00000000000E+00  0.00000000000E+00  0.12525980253E-10  0.17130000000E+03  0.17130000000E+03 0. -1.
       11    1    1    2    0    0  0.32431514032E+00  0.25447939592E+00 -0.44060261858E-01  0.41458610816E+00  0.51109989000E-03 0. -1.
     -623    1    1    2    0    0 -0.31795498612E+00  0.27131452735E-01  0.21259084149E+01  0.17131348843E+03  0.17130000000E+03 0. -1.
      622    1    1    2    0    0 -0.63601541964E-02 -0.28161084865E+00  0.19181518143E+01  0.35719254618E+01  0.30000000000E+01 0. -1.
</event>
<event>
 5   0  0.7495800E-05  0.9118800E+02  0.7818608E-02  0.1180000E+00
       11   -1    0    0    0    0  0.00000000000E+00  0.00000000000E+00  0.39999999673E+01  0.40000000000E+01  0.51109989000E-03 0. -1.
     -623   -1    0    0    0    0  0.00000000000E+00  0.00000000000E+00  0.12525980253E-10  0.17130000000E+03  0.17130000000E+03 0.  1.
       11    1    1    2    0    0  0.25301527259E+00 -0.15369182275E-01  0.13147489016E+00  0.28555007948E+00  0.51109989000E-03 0. -1.
     -623    1    1    2    0    0 -0.64800199943E+00  0.17168475857E+00  0.17374235772E+01  0.17131012236E+03  0.17130000000E+03 0.  1.
      622    1    1    2    0    0  0.39498672684E+00 -0.15631557629E+00  0.21311015000E+01  0.37043275607E+01  0.30000000000E+01 0. -1.
</event>
<event>
 5   0  0.7495800E-05  0.9118800E+02  0.7818608E-02  0.1180000E+00
       11   -1    0    0    0    0  0.00000000000E+00  0.00000000000E+00  0.39999999673E+01  0.40000000000E+01  0.51109989000E-03 0.  1.
     -623   -1    0    0    0    0  0.00000000000E+00  0.00000000000E+00  0.12525980253E-10  0.17130000000E+03  0.17130000000E+03 0.  1.
       11    1    1    2    0    0  0.12175877920E+00 -0.10727484526E+00 -0.12919492771E+00  0.20742392173E+00  0.51109989000E-03 0.  1.
     -623    1    1    2    0    0  0.33003457376E+00  0.19465383347E+00  0.18728506450E+01  0.17131066628E+03  0.17130000000E+03 0.  1.
      622    1    1    2    0    0 -0.45179335296E+00 -0.87378988211E-01  0.22563442501E+01  0.37819097948E+01  0.30000000000E+01 0.  1.
</event>
<event>
 5   0  0.7495800E-05  0.9118800E+02  0.7818608E-02  0.1180000E+00
       11   -1    0    0    0    0  0.00000000000E+00  0.00000000000E+00  0.39999999673E+01  0.40000000000E+01  0.51109989000E-03 0. -1.
     -623   -1    0    0    0    0  0.00000000000E+00  0.00000000000E+00  0.12525980253E-10  0.17130000000E+03  0.17130000000E+03 0. -1.
       11    1    1    2    0    0 -0.27788149534E+00  0.48272687051E+00  0.65819802919E-01  0.56087063094E+00  0.51109989000E-03 0. -1.
     -623    1    1    2    0    0  0.40829737716E-01  0.21598253062E-01  0.23839506671E+01  0.17131659393E+03  0.17130000000E+03 0. -1.
      622    1    1    2    0    0  0.23705175762E+00 -0.50432512358E+00  0.15502294973E+01  0.34225354433E+01  0.30000000000E+01 0. -1.
</event>
<event>
 5   0  0.7495800E-05  0.9118800E+02  0.7818608E-02  0.1180000E+00
       11   -1    0    0    0    0  0.00000000000E+00  0.00000000000E+00  0.39999999673E+01  0.40000000000E+01  0.51109989000E-03 0. -1.
     -623   -1    0    0    0    0  0.00000000000E+00  0.00000000000E+00  0.12525980253E-10  0.17130000000E+03  0.17130000000E+03 0. -1.
       11    1    1    2    0    0 -0.33182415627E+00  0.43538842018E+00 -0.73361990100E-01  0.55231566149E+00  0.51109989000E-03 0. -1.
     -623    1    1    2    0    0  0.10213788428E+01  0.21387127550E+00  0.27247356885E+01  0.17132484683E+03  0.17130000000E+03 0. -1.
      622    1    1    2    0    0 -0.68955468652E+00 -0.64925969568E+00  0.13486262689E+01  0.34228375117E+01  0.30000000000E+01 0. -1.
</event>
<event>
 5   0  0.7495800E-05  0.9118800E+02  0.7818608E-02  0.1180000E+00
       11   -1    0    0    0    0  0.00000000000E+00  0.00000000000E+00  0.39999999673E+01  0.40000000000E+01  0.51109989000E-03 0.  1.
     -623   -1    0    0    0    0  0.00000000000E+00  0.00000000000E+00  0.12525980253E-10  0.17130000000E+03  0.17130000000E+03 0.  1.
       11    1    1    2    0    0 -0.13287160400E+00 -0.16358451148E+00 -0.22759085688E+00  0.31018158376E+00  0.51109989000E-03 0.  1.
     -623    1    1    2    0    0 -0.19495364984E+00  0.11885254516E+01  0.24107771831E+01  0.17132119672E+03  0.17130000000E+03 0.  1.
      622    1    1    2    0    0  0.32782525384E+00 -0.10249409401E+01  0.18168136412E+01  0.36686216941E+01  0.30000000000E+01 0.  1.
</event>
<event>
 5   0  0.7495800E-05  0.9118800E+02  0.7818608E-02  0.1180000E+00
       11   -1    0    0    0    0  0.00000000000E+00  0.00000000000E+00  0.39999999673E+01  0.40000000000E+01  0.51109989000E-03 0. -1.
     -623   -1    0    0    0    0  0.00000000000E+00  0.00000000000E+00  0.12525980253E-10  0.17130000000E+03  0.17130000000E+03 0.  1.
       11    1    1    2    0    0  0.44584218447E-01  0.76093717015E-01 -0.76656338247E-01  0.11685230730E+00  0.51109989000E-03 0. -1.
     -623    1    1    2    0    0 -0.77724240961E-01  0.81260224606E-01  0.16286729919E+01  0.17130777922E+03  0.17130000000E+03 0.  1.
      622    1    1    2    0    0  0.33140022514E-01 -0.15735394162E+00  0.24479833138E+01  0.38753684765E+01  0.30000000000E+01 0. -1.
</event>
<event>
 5   0  0.7495800E-05  0.9118800E+02  0.7818608E-02  0.1180000E+00
       11   -1    0    0    0    0  0.00000000000E+00  0.00000000000E+00  0.39999999673E+01  0.40000000000E+01  0.51109989000E-03 0. -1.
     -623   -1    0    0    0    0  0.00000000000E+00  0.00000000000E+00  0.12525980253E-10  0.17130000000E+03  0.17130000000E+03 0.  1.
       11    1    1    2    0    0 -0.14516976381E+00 -0.18214342209E+00 -0.54484764501E-01  0.23920563814E+00  0.51109989000E-03 0. -1.
     -623    1    1    2    0    0  0.28969248371E+00  0.55402960016E+00  0.18405383430E+01  0.17131102840E+03  0.17130000000E+03 0.  1.
      622    1    1    2    0    0 -0.14452271990E+00 -0.37188617807E+00  0.22139463888E+01  0.37497659605E+01  0.30000000000E+01 0. -1.
</event>
<event>
 5   0  0.7495800E-05  0.9118800E+02  0.7818608E-02  0.1180000E+00
       11   -1    0    0    0    0  0.00000000000E+00  0.00000000000E+00  0.39999999673E+01  0.40000000000E+01  0.51109989000E-03 0.  1.
     -623   -1    0    0    0    0  0.00000000000E+00  0.00000000000E+00  0.12525980253E-10  0.17130000000E+03  0.17130000000E+03 0. -1.
       11    1    1    2    0    0  0.12612964251E+00 -0.69526142799E+00 -0.35460631677E+00  0.79059663615E+00  0.51109989000E-03 0.  1.
     -623    1    1    2    0    0 -0.41441715764E+00  0.12563342844E+01  0.35582684087E+01  0.17134205961E+03  0.17130000000E+03 0. -1.
      622    1    1    2    0    0  0.28828751513E+00 -0.56107285642E+00  0.79633787546E+00  0.31673437536E+01  0.30000000000E+01 0.  1.
</event>
<event>
 5   0  0.7495800E-05  0.9118800E+02  0.7818608E-02  0.1180000E+00
       11   -1    0    0    0    0  0.00000000000E+00  0.00000000000E+00  0.39999999673E+01  0.40000000000E+01  0.51109989000E-03 0.  1.
     -623   -1    0    0    0    0  0.00000000000E+00  0.00000000000E+00  0.12525980253E-10  0.17130000000E+03  0.17130000000E+03 0. -1.
       11    1    1    2    0    0  0.23729421214E+00  0.58432857359E+00  0.95547555385E-01  0.63786990962E+00  0.51109989000E-03 0.  1.
     -623    1    1    2    0    0 -0.10177552524E+01 -0.52532258724E+00  0.26689868540E+01  0.17132461960E+03  0.17130000000E+03 0. -1.
      622    1    1    2    0    0  0.78046104030E+00 -0.59005986358E-01  0.12354655579E+01  0.33375104924E+01  0.30000000000E+01 0.  1.
</event>
<event>
 5   0  0.7495800E-05  0.9118800E+02  0.7818608E-02  0.1180000E+00
       11   -1    0    0    0    0  0.00000000000E+00  0.00000000000E+00  0.39999999673E+01  0.40000000000E+01  0.51109989000E-03 0.  1.
     -623   -1    0    0    0    0  0.00000000000E+00  0.00000000000E+00  0.12525980253E-10  0.17130000000E+03  0.17130000000E+03 0. -1.
       11    1    1    2    0    0 -0.22447047354E+00  0.19983273224E+00 -0.44772233979E-01  0.30385017447E+00  0.51109989000E-03 0.  1.
     -623    1    1    2    0    0 -0.23053633159E+00  0.19846925257E+00  0.19933682244E+01  0.17131186781E+03  0.17130000000E+03 0. -1.
      622    1    1    2    0    0  0.45500680513E+00 -0.39830198481E+00  0.20514039769E+01  0.36842820115E+01  0.30000000000E+01 0.  1.
</event>
<event>
 5   0  0.7495800E-05  0.9118800E+02  0.7818608E-02  0.1180000E+00
       11   -1    0    0    0    0  0.00000000000E+00  0.00000000000E+00  0.39999999673E+01  0.40000000000E+01  0.51109989000E-03 0.  1.
     -623   -1    0    0    0    0  0.00000000000E+00  0.00000000000E+00  0.12525980253E-10  0.17130000000E+03  0.17130000000E+03 0. -1.
       11    1    1    2    0    0  0.28864401441E+00 -0.75270646839E-01  0.15799627592E+00  0.33755610165E+00  0.51109989000E-03 0.  1.
     -623    1    1    2    0    0 -0.36141964745E+00  0.30010372314E+00  0.17717589033E+01  0.17130980654E+03  0.17130000000E+03 0. -1.
      622    1    1    2    0    0  0.72775633037E-01 -0.22483307630E+00  0.20702447881E+01  0.36526373606E+01  0.30000000000E+01 0.  1.
</event>
<event>
 5   0  0.7495800E-05  0.9118800E+02  0.7818608E-02  0.1180000E+00
       11   -1    0    0    0    0  0.00000000000E+00  0.00000000000E+00  0.39999999673E+01  0.40000000000E+01  0.51109989000E-03 0. -1.
     -623   -1    0    0    0    0  0.00000000000E+00  0.00000000000E+00  0.12525980253E-10  0.17130000000E+03  0.17130000000E+03 0.  1.
       11    1    1    2    0    0 -0.81510490952E-01 -0.21111323675E-01  0.79858309319E-01  0.11604851964E+00  0.51109989000E-03 0. -1.
     -623    1    1    2    0    0 -0.13536959599E+00  0.15634248678E-01  0.14730133775E+01  0.17130638732E+03  0.17130000000E+03 0.  1.
      622    1    1    2    0    0  0.21688008694E+00  0.54770749973E-02  0.24471282806E+01  0.38775641570E+01  0.30000000000E+01 0. -1.
</event>
<event>
 5   0  0.7495800E-05  0.9118800E+02  0.7818608E-02  0.1180000E+00
       11   -1    0    0    0    0  0.00000000000E+00  0.00000000000E+00  0.39999999673E+01  0.40000000000E+01  0.51109989000E-03 0. -1.
     -623   -1    0    0    0    0  0.00000000000E+00  0.00000000000E+00  0.12525980253E-10  0.17130000000E+03  0.17130000000E+03 0.  1.
       11    1    1    2    0    0 -0.49726990777E-01 -0.79604764057E-01 -0.79522049183E-01  0.12301914322E+00  0.51109989000E-03 0. -1.
     -623    1    1    2    0    0  0.90371642808E-01  0.21711869735E+00  0.16406053252E+01  0.17130801760E+03  0.17130000000E+03 0.  1.
      622    1    1    2    0    0 -0.40644652032E-01 -0.13751393329E+00  0.24389166913E+01  0.38689632587E+01  0.30000000000E+01 0. -1.
</event>
<event>
 5   0  0.7495800E-05  0.9118800E+02  0.7818608E-02  0.1180000E+00
       11   -1    0    0    0    0  0.00000000000E+00  0.00000000000E+00  0.39999999673E+01  0.40000000000E+01  0.51109989000E-03 0.  1.
     -623   -1    0    0    0    0  0.00000000000E+00  0.00000000000E+00  0.12525980253E-10  0.17130000000E+03  0.17130000000E+03 0.  1.
       11    1    1    2    0    0 -0.28933527851E-01  0.69859093883E-01 -0.24006042451E+00  0.25168772451E+00  0.51109989000E-03 0.  1.
     -623    1    1    2    0    0 -0.10512149955E+01  0.50235206684E+00  0.23959280032E+01  0.17132071644E+03  0.17130000000E+03 0.  1.
      622    1    1    2    0    0  0.10801485233E+01 -0.57221116073E+00  0.18441323886E+01  0.37275958353E+01  0.30000000000E+01 0.  1.
</event>
<event>
 5   0  0.7495800E-05  0.9118800E+02  0.7818608E-02  0.1180000E+00
       11   -1    0    0    0    0  0.00000000000E+00  0.00000000000E+00  0.39999999673E+01  0.40000000000E+01  0.51109989000E-03 0.  1.
     -623   -1    0    0    0    0  0.00000000000E+00  0.00000000000E+00  0.12525980253E-10  0.17130000000E+03  0.17130000000E+03 0.  1.
       11    1    1    2    0    0 -0.18078104198E-01 -0.35424469560E-01 -0.45112235085E+00  0.45287233030E+00  0.51109989000E-03 0.  1.
     -623    1    1    2    0    0 -0.26539542285E+00  0.53264675034E+00  0.26910835798E+01  0.17132217042E+03  0.17130000000E+03 0.  1.
      622    1    1    2    0    0  0.28347352705E+00 -0.49722228078E+00  0.17600387384E+01  0.35249572476E+01  0.30000000000E+01 0.  1.
</event>
<event>
 5   0  0.7495800E-05  0.9118800E+02  0.7818608E-02  0.1180000E+00
       11   -1    0    0    0    0  0.00000000000E+00  0.00000000000E+00  0.39999999673E+01  0.40000000000E+01  0.51109989000E-03 0.  1.
     -623   -1    0    0    0    0  0.00000000000E+00  0.00000000000E+00  0.12525980253E-10  0.17130000000E+03  0.17130000000E+03 0.  1.
       11    1    1    2    0    0  0.54986229133E-01 -0.15029070917E+00 -0.11937782495E-01  0.16047914048E+00  0.51109989000E-03 0.  1.
     -623    1    1    2    0    0 -0.13859168959E+00  0.55844708645E+00  0.16670035891E+01  0.17130907732E+03  0.17130000000E+03 0.  1.
      622    1    1    2    0    0  0.83605460458E-01 -0.40815637728E+00  0.23449341608E+01  0.38304435409E+01  0.30000000000E+01 0.  1.
</event>
<event>
 5   0  0.7495800E-05  0.9118800E+02  0.7818608E-02  0.1180000E+00
       11   -1    0    0    0    0  0.00000000000E+00  0.00000000000E+00  0.39999999673E+01  0.40000000000E+01  0.51109989000E-03 0. -1.
     -623   -1    0    0    0    0  0.00000000000E+00  0.00000000000E+00  0.12525980253E-10  0.17130000000E+03  0.17130000000E+03 0. -1.
       11    1    1    2    0    0 -0.97427122249E-01  0.26454573596E+00 -0.26100248351E+00  0.38418621551E+00  0.51109989000E-03 0. -1.
     -623    1    1    2    0    0 -0.19976407775E+00 -0.31849513924E+00  0.22940083079E+01  0.17131577224E+03  0.17130000000E+03 0. -1.
      622    1    1    2    0    0  0.29719120000E+00  0.53949403284E-01  0.19669941430E+01  0.36000415422E+01  0.30000000000E+01 0. -1.
</event>
<event>
 5   0  0.7495800E-05  0.9118800E+02  0.7818608E-02  0.1180000E+00
       11   -1    0    0    0    0  0.00000000000E+00  0.00000000000E+00  0.39999999673E+01  0.40000000000E+01  0.51109989000E-03 0.  1.
     -623   -1    0    0    0    0  0.00000000000E+00  0.00000000000E+00  0.12525980253E-10  0.17130000000E+03  0.17130000000E+03 0. -1.
       11    1    1    2    0    0  0.32004884594E+00 -0.43994669167E+00  0.33022269748E+00  0.63642096638E+00  0.51109989000E-03 0.  1.
     -623    1    1    2    0    0  0.51169241078E-01  0.98991154437E-01  0.22703535991E+01  0.17131508084E+03  0.17130000000E+03 0. -1.
      622    1    1    2    0    0 -0.37121808702E+00  0.34095553723E+00  0.13994236708E+01  0.33484981942E+01  0.30000000000E+01 0.  0.
</event>
<event>
 5   0  0.7495800E-05  0.9118800E+02  0.7818608E-02  0.1180000E+00
       11   -1    0    0    0    0  0.00000000000E+00  0.00000000000E+00  0.39999999673E+01  0.40000000000E+01  0.51109989000E-03 0.  1.
     -623   -1    0    0    0    0  0.00000000000E+00  0.00000000000E+00  0.12525980253E-10  0.17130000000E+03  0.17130000000E+03 0.  1.
       11    1    1    2    0    0  0.17125325464E+00 -0.67807868518E-03 -0.18865251842E+00  0.25479044516E+00  0.51109989000E-03 0.  1.
     -623    1    1    2    0    0 -0.33254110499E+00 -0.29444764744E+00  0.19926313114E+01  0.17131216496E+03  0.17130000000E+03 0.  1.
      622    1    1    2    0    0  0.16128785034E+00  0.29512572613E+00  0.21960211744E+01  0.37330445970E+01  0.30000000000E+01 0.  1.
</event>
<event>
 5   0  0.7495800E-05  0.9118800E+02  0.7818608E-02  0.1180000E+00
       11   -1    0    0    0    0  0.00000000000E+00  0.00000000000E+00  0.39999999673E+01  0.40000000000E+01  0.51109989000E-03 0. -1.
     -623   -1    0    0    0    0  0.00000000000E+00  0.00000000000E+00  0.12525980253E-10  0.17130000000E+03  0.17130000000E+03 0.  1.
       11    1    1    2    0    0 -0.62689119933E+00 -0.43959408751E-01  0.37749008035E+00  0.73309210022E+00  0.51109989000E-03 0. -1.
     -623    1    1    2    0    0  0.13083816674E+00  0.24961114503E+00  0.24981714490E+01  0.17131844701E+03  0.17130000000E+03 0.  1.
      622    1    1    2    0    0  0.49605303260E+00 -0.20565173628E+00  0.11243384380E+01  0.32484608926E+01  0.30000000000E+01 0. -1.
</event>
<event>
 5   0  0.7495800E-05  0.9118800E+02  0.7818608E-02  0.1180000E+00
       11   -1    0    0    0    0  0.00000000000E+00  0.00000000000E+00  0.39999999673E+01  0.40000000000E+01  0.51109989000E-03 0.  1.
     -623   -1    0    0    0    0  0.00000000000E+00  0.00000000000E+00  0.12525980253E-10  0.17130000000E+03  0.17130000000E+03 0.  1.
       11    1    1    2    0    0  0.15998040273E+00  0.10512480383E+00  0.77728878989E-01  0.20660830934E+00  0.51109989000E-03 0.  1.
     -623    1    1    2    0    0 -0.49187453320E+00  0.18566153836E+00  0.16577149298E+01  0.17130882765E+03  0.17130000000E+03 0.  1.
      622    1    1    2    0    0  0.33189413047E+00 -0.29078634218E+00  0.22645561585E+01  0.37845640443E+01  0.30000000000E+01 0.  1.
</event>
<event>
 5   0  0.7495800E-05  0.9118800E+02  0.7818608E-02  0.1180000E+00
       11   -1    0    0    0    0  0.00000000000E+00  0.00000000000E+00  0.39999999673E+01  0.40000000000E+01  0.51109989000E-03 0. -1.
     -623   -1    0    0    0    0  0.00000000000E+00  0.00000000000E+00  0.12525980253E-10  0.17130000000E+03  0.17130000000E+03 0. -1.
       11    1    1    2    0    0 -0.72607412019E-01  0.79468441772E-01  0.12610785694E-01  0.10838063783E+00  0.51109989000E-03 0. -1.
     -623    1    1    2    0    0  0.54974443428E+00  0.91973813796E+00  0.17919948684E+01  0.17131272394E+03  0.17130000000E+03 0. -1.
      622    1    1    2    0    0 -0.47713702226E+00 -0.99920657973E+00  0.21953943132E+01  0.38788954249E+01  0.30000000000E+01 0. -1.
</event>
<event>
 5   0  0.7495800E-05  0.9118800E+02  0.7818608E-02  0.1180000E+00
       11   -1    0    0    0    0  0.00000000000E+00  0.00000000000E+00  0.39999999673E+01  0.40000000000E+01  0.51109989000E-03 0.  1.
     -623   -1    0    0    0    0  0.00000000000E+00  0.00000000000E+00  0.12525980253E-10  0.17130000000E+03  0.17130000000E+03 0. -1.
       11    1    1    2    0    0 -0.57060220658E-01 -0.23014588847E+00 -0.53460680470E-01  0.24306646075E+00  0.51109989000E-03 0.  1.
     -623    1    1    2    0    0  0.40540913441E+00  0.32038687328E+00  0.18386984617E+01  0.17131064712E+03  0.17130000000E+03 0. -1.
      622    1    1    2    0    0 -0.34834891375E+00 -0.90240984808E-01  0.22147621861E+01  0.37462864202E+01  0.30000000000E+01 0.  1.
</event>
<event>
 5   0  0.7495800E-05  0.9118800E+02  0.7818608E-02  0.1180000E+00
       11   -1    0    0    0    0  0.00000000000E+00  0.00000000000E+00  0.39999999673E+01  0.40000000000E+01  0.51109989000E-03 0.  1.
     -623   -1    0    0    0    0  0.00000000000E+00  0.00000000000E+00  0.12525980253E-10  0.17130000000E+03  0.17130000000E+03 0. -1.
       11    1    1    2    0    0 -0.10819517933E+00 -0.68964054401E-03 -0.24236578330E+00  0.26542062198E+00  0.51109989000E-03 0.  1.
     -623    1    1    2    0    0  0.47337277663E+00 -0.37080358067E+00  0.21042582785E+01  0.17131397923E+03  0.17130000000E+03 0. -1.
      622    1    1    2    0    0 -0.36517759730E+00  0.37149322121E+00  0.21381074722E+01  0.37206001469E+01  0.30000000000E+01 0.  1.
</event>
<event>
 5   0  0.7495800E-05  0.9118800E+02  0.7818608E-02  0.1180000E+00
       11   -1    0    0    0    0  0.00000000000E+00  0.00000000000E+00  0.39999999673E+01  0.40000000000E+01  0.51109989000E-03 0. -1.
     -623   -1    0    0    0    0  0.00000000000E+00  0.00000000000E+00  0.12525980253E-10  0.17130000000E+03  0.17130000000E+03 0. -1.
       11    1    1    2    0    0 -0.70000839531E-01  0.27250902909E-02 -0.38640478482E-01  0.80005571385E-01  0.51109989000E-03 0. -1.
     -623    1    1    2    0    0 -0.14737112736E+00  0.21312227977E+00  0.15453732721E+01  0.17130716657E+03  0.17130000000E+03 0. -1.
      622    1    1    2    0    0  0.21737196689E+00 -0.21584737006E+00  0.24932671737E+01  0.39128278596E+01  0.30000000000E+01 0. -1.
</event>
<event>
 5   0  0.7495800E-05  0.9118800E+02  0.7818608E-02  0.1180000E+00
       11   -1    0    0    0    0  0.00000000000E+00  0.00000000000E+00  0.39999999673E+01  0.40000000000E+01  0.51109989000E-03 0.  1.
     -623   -1    0    0    0    0  0.00000000000E+00  0.00000000000E+00  0.12525980253E-10  0.17130000000E+03  0.17130000000E+03 0. -1.
       11    1    1    2    0    0 -0.67316570788E-01 -0.95769057156E-01 -0.53738646936E-01  0.12880736163E+00  0.51109989000E-03 0.  1.
     -623    1    1    2    0    0  0.44111551226E+00 -0.26266836073E+00  0.16770826736E+01  0.17130897870E+03  0.17130000000E+03 0. -1.
      622    1    1    2    0    0 -0.37379894147E+00  0.35843741788E+00  0.23766559407E+01  0.38622139366E+01  0.30000000000E+01 0.  1.
</event>
<event>
 5   0  0.7495800E-05  0.9118800E+02  0.7818608E-02  0.1180000E+00
       11   -1    0    0    0    0  0.00000000000E+00  0.00000000000E+00  0.39999999673E+01  0.40000000000E+01  0.51109989000E-03 0. -1.
     -623   -1    0    0    0    0  0.00000000000E+00  0.00000000000E+00  0.12525980253E-10  0.17130000000E+03  0.17130000000E+03 0.  1.
       11    1    1    2    0    0 -0.31660957285E-01  0.25065314523E+00 -0.10297368432E+00  0.27282458891E+00  0.51109989000E-03 0. -1.
     -623    1    1    2    0    0  0.13050432920E+01 -0.15600951355E+01  0.29739424847E+01  0.17133788655E+03  0.17130000000E+03 0.  1.
      622    1    1    2    0    0 -0.12733823348E+01  0.13094419902E+01  0.11290311670E+01  0.36892888573E+01  0.30000000000E+01 0. -1.
</event>
<event>
 5   0  0.7495800E-05  0.9118800E+02  0.7818608E-02  0.1180000E+00
       11   -1    0    0    0    0  0.00000000000E+00  0.00000000000E+00  0.39999999673E+01  0.40000000000E+01  0.51109989000E-03 0.  1.
     -623   -1    0    0    0    0  0.00000000000E+00  0.00000000000E+00  0.12525980253E-10  0.17130000000E+03  0.17130000000E+03 0. -1.
       11    1    1    2    0    0 -0.40283609820E+00  0.28362494026E+00 -0.18439925198E-02  0.49266996081E+00  0.51109989000E-03 0.  1.
     -623    1    1    2    0    0 -0.82714855446E+00 -0.83340085448E-02  0.27595105666E+01  0.17132422229E+03  0.17130000000E+03 0. -1.
      622    1    1    2    0    0  0.12299846527E+01 -0.27529093172E+00  0.12423333933E+01  0.34831077507E+01  0.30000000000E+01 0.  1.
</event>
<event>
 5   0  0.7495800E-05  0.9118800E+02  0.7818608E-02  0.1180000E+00
       11   -1    0    0    0    0  0.00000000000E+00  0.00000000000E+00  0.39999999673E+01  0.40000000000E+01  0.51109989000E-03 0. -1.
     -623   -1    0    0    0    0  0.00000000000E+00  0.00000000000E+00  0.12525980253E-10  0.17130000000E+03  0.17130000000E+03 0.  1.
       11    1    1    2    0    0  0.11663088066E+00  0.15743927297E+00  0.14791862678E+00  0.24549963008E+00  0.51109989000E-03 0. -1.
     -623    1    1    2    0    0 -0.20963137667E+00 -0.23381828007E+00  0.16109177415E+01  0.17130786226E+03  0.17130000000E+03 0.  1.
      622    1    1    2    0    0  0.93000496017E-01  0.76379007104E-01  0.22411635991E+01  0.37466381094E+01  0.30000000000E+01 0. -1.
</event>
<event>
 5   0  0.7495800E-05  0.9118800E+02  0.7818608E-02  0.1180000E+00
       11   -1    0    0    0    0  0.00000000000E+00  0.00000000000E+00  0.39999999673E+01  0.40000000000E+01  0.51109989000E-03 0.  1.
     -623   -1    0    0    0    0  0.00000000000E+00  0.00000000000E+00  0.12525980253E-10  0.17130000000E+03  0.17130000000E+03 0.  1.
       11    1    1    2    0    0  0.12741419498E+00 -0.27614435196E-01 -0.19112753564E+00  0.23135887754E+00  0.51109989000E-03 0.  1.
     -623    1    1    2    0    0 -0.83124329357E+00 -0.18409630162E+00  0.20572065129E+01  0.17131446803E+03  0.17130000000E+03 0.  1.
      622    1    1    2    0    0  0.70382909860E+00  0.21171073682E+00  0.21339209901E+01  0.37541730951E+01  0.30000000000E+01 0.  1.
</event>
<event>
 5   0  0.7495800E-05  0.9118800E+02  0.7818608E-02  0.1180000E+00
       11   -1    0    0    0    0  0.00000000000E+00  0.00000000000E+00  0.39999999673E+01  0.40000000000E+01  0.51109989000E-03 0. -1.
     -623   -1    0    0    0    0  0.00000000000E+00  0.00000000000E+00  0.12525980253E-10  0.17130000000E+03  0.17130000000E+03 0. -1.
       11    1    1    2    0    0  0.15141219908E+00 -0.12183512050E+00  0.29740217040E-01  0.19660669456E+00  0.51109989000E-03 0. -1.
     -623    1    1    2    0    0 -0.72765613006E+00  0.51585036689E+00  0.17584028141E+01  0.17131134687E+03  0.17130000000E+03 0. -1.
      622    1    1    2    0    0  0.57624393098E+00 -0.39401524639E+00  0.22118569362E+01  0.37920464381E+01  0.30000000000E+01 0. -1.
</event>
<event>
 5   0  0.7495800E-05  0.9118800E+02  0.7818608E-02  0.1180000E+00
       11   -1    0    0    0    0  0.00000000000E+00  0.00000000000E+00  0.39999999673E+01  0.40000000000E+01  0.51109989000E-03 0. -1.
     -623   -1    0    0    0    0  0.00000000000E+00  0.00000000000E+00  0.12525980253E-10  0.17130000000E+03  0.17130000000E+03 0.  1.
       11    1    1    2    0    0  0.26556874700E+00  0.40209487102E+00  0.90308576671E-01  0.49026823773E+00  0.51109989000E-03 0. -1.
     -623    1    1    2    0    0 -0.56861910561E+00  0.33040534990E+00  0.23058493626E+01  0.17131678095E+03  0.17130000000E+03 0. -1.
      622    1    1    2    0    0  0.30305035861E+00 -0.73250022092E+00  0.16038420280E+01  0.34929508076E+01  0.30000000000E+01 0. -1.
</event>
<event>
 5   0  0.7495800E-05  0.9118800E+02  0.7818608E-02  0.1180000E+00
       11   -1    0    0    0    0  0.00000000000E+00  0.00000000000E+00  0.39999999673E+01  0.40000000000E+01  0.51109989000E-03 0. -1.
     -623   -1    0    0    0    0  0.00000000000E+00  0.00000000000E+00  0.12525980253E-10  0.17130000000E+03  0.17130000000E+03 0. -1.
       11    1    1    2    0    0  0.20409723520E+00 -0.75273641512E-01 -0.62051258870E-01  0.22621322347E+00  0.51109989000E-03 0. -1.
     -623    1    1    2    0    0 -0.53059036379E+00  0.74887443566E+00  0.19216301082E+01  0.17131323650E+03  0.17130000000E+03 0. -1.
      622    1    1    2    0    0  0.32649312859E+00 -0.67360079414E+00  0.21404211181E+01  0.37605502730E+01  0.30000000000E+01 0. -1.
</event>
<event>
 5   0  0.7495800E-05  0.9118800E+02  0.7818608E-02  0.1180000E+00
       11   -1    0    0    0    0  0.00000000000E+00  0.00000000000E+00  0.39999999673E+01  0.40000000000E+01  0.51109989000E-03 0.  1.
     -623   -1    0    0    0    0  0.00000000000E+00  0.00000000000E+00  0.12525980253E-10  0.17130000000E+03  0.17130000000E+03 0.  1.
       11    1    1    2    0    0  0.36119461766E+00  0.31228234373E+00  0.49513593144E-01  0.48003507284E+00  0.51109989000E-03 0.  1.
     -623    1    1    2    0    0 -0.29778582905E+00  0.66637226452E+00  0.24352565720E+01  0.17131886412E+03  0.17130000000E+03 0.  1.
      622    1    1    2    0    0 -0.63408788609E-01 -0.97865460824E+00  0.15152298022E+01  0.35011008083E+01  0.30000000000E+01 0.  1.
</event>
<event>
 5   0  0.7495800E-05  0.9118800E+02  0.7818608E-02  0.1180000E+00
       11   -1    0    0    0    0  0.00000000000E+00  0.00000000000E+00  0.39999999673E+01  0.40000000000E+01  0.51109989000E-03 0.  1.
     -623   -1    0    0    0    0  0.00000000000E+00  0.00000000000E+00  0.12525980253E-10  0.17130000000E+03  0.17130000000E+03 0. -1.
       11    1    1    2    0    0 -0.20117156868E+00 -0.28523953415E-01  0.73870078527E-01  0.21619589656E+00  0.51109989000E-03 0.  1.
     -623    1    1    2    0    0  0.28928354646E+00  0.44981314124E+00  0.16758735940E+01  0.17130903236E+03  0.17130000000E+03 0. -1.
      622    1    1    2    0    0 -0.88111977777E-01 -0.42128918783E+00  0.22502562948E+01  0.37747717405E+01  0.30000000000E+01 0.  1.
</event>
<event>
 5   0  0.7495800E-05  0.9118800E+02  0.7818608E-02  0.1180000E+00
       11   -1    0    0    0    0  0.00000000000E+00  0.00000000000E+00  0.39999999673E+01  0.40000000000E+01  0.51109989000E-03 0.  1.
     -623   -1    0    0    0    0  0.00000000000E+00  0.00000000000E+00  0.12525980253E-10  0.17130000000E+03  0.17130000000E+03 0.  1.
       11    1    1    2    0    0  0.26590305458E+00 -0.41297466806E+00  0.34861740110E+00  0.60231790980E+00  0.51109989000E-03 0.  1.
     -623    1    1    2    0    0  0.38352483074E+00  0.13322061560E+01  0.25997261368E+01  0.17132533508E+03  0.17130000000E+03 0.  1.
      622    1    1    2    0    0 -0.64942788531E+00 -0.91923148796E+00  0.10516564295E+01  0.33723470095E+01  0.30000000000E+01 0.  1.
</event>
<event>
 5   0  0.7495800E-05  0.9118800E+02  0.7818608E-02  0.1180000E+00
       11   -1    0    0    0    0  0.00000000000E+00  0.00000000000E+00  0.39999999673E+01  0.40000000000E+01  0.51109989000E-03 0. -1.
     -623   -1    0    0    0    0  0.00000000000E+00  0.00000000000E+00  0.12525980253E-10  0.17130000000E+03  0.17130000000E+03 0. -1.
       11    1    1    2    0    0  0.26327424923E+00 -0.86054498873E-01  0.66534708631E-01  0.28486108151E+00  0.51109989000E-03 0. -1.
     -623    1    1    2    0    0  0.26808481434E+00  0.46669317208E+00  0.18613334794E+01  0.17131095772E+03  0.17130000000E+03 0. -1.
      622    1    1    2    0    0 -0.53135906357E+00 -0.38063867321E+00  0.20721317794E+01  0.37041812004E+01  0.30000000000E+01 0. -1.
</event>
<event>
 5   0  0.7495800E-05  0.9118800E+02  0.7818608E-02  0.1180000E+00
       11   -1    0    0    0    0  0.00000000000E+00  0.00000000000E+00  0.39999999673E+01  0.40000000000E+01  0.51109989000E-03 0.  1.
     -623   -1    0    0    0    0  0.00000000000E+00  0.00000000000E+00  0.12525980253E-10  0.17130000000E+03  0.17130000000E+03 0.  1.
       11    1    1    2    0    0 -0.66465929505E+00 -0.43736519580E+00  0.47151920504E-01  0.79704696086E+00  0.51109989000E-03 0.  1.
     -623    1    1    2    0    0  0.46642172000E+00  0.88704383560E+00  0.30438382058E+01  0.17132997212E+03  0.17130000000E+03 0.  1.
      622    1    1    2    0    0  0.19823757505E+00 -0.44967863980E+00  0.90900984103E+00  0.31729809181E+01  0.30000000000E+01 0.  1.
</event>
<event>
 5   0  0.7495800E-05  0.9118800E+02  0.7818608E-02  0.1180000E+00
       11   -1    0    0    0    0  0.00000000000E+00  0.00000000000E+00  0.39999999673E+01  0.40000000000E+01  0.51109989000E-03 0.  1.
     -623   -1    0    0    0    0  0.00000000000E+00  0.00000000000E+00  0.12525980253E-10  0.17130000000E+03  0.17130000000E+03 0. -1.
       11    1    1    2    0    0 -0.41449134192E+00  0.44754135732E+00  0.23595768451E+00  0.65404329301E+00  0.51109989000E-03 0.  1.
     -623    1    1    2    0    0  0.58104735484E+00 -0.59233445692E+00  0.23404524668E+01  0.17131799729E+03  0.17130000000E+03 0.  1.
      622    1    1    2    0    0 -0.16655601292E+00  0.14479309961E+00  0.14235898161E+01  0.33279594216E+01  0.30000000000E+01 0.  1.
</event>
<event>
 5   0  0.7495800E-05  0.9118800E+02  0.7818608E-02  0.1180000E+00
       11   -1    0    0    0    0  0.00000000000E+00  0.00000000000E+00  0.39999999673E+01  0.40000000000E+01  0.51109989000E-03 0.  1.
     -623   -1    0    0    0    0  0.00000000000E+00  0.00000000000E+00  0.12525980253E-10  0.17130000000E+03  0.17130000000E+03 0.  1.
       11    1    1    2    0    0 -0.40157895471E+00 -0.30905269721E+00 -0.11309674602E+00  0.51920165803E+00  0.51109989000E-03 0.  1.
     -623    1    1    2    0    0  0.62959941369E+00 -0.28539570542E+00  0.25089220657E+01  0.17131976692E+03  0.17130000000E+03 0.  1.
      622    1    1    2    0    0 -0.22802045898E+00  0.59444840263E+00  0.16041746477E+01  0.34610314262E+01  0.30000000000E+01 0.  0.
</event>
<event>
 5   0  0.7495800E-05  0.9118800E+02  0.7818608E-02  0.1180000E+00
       11   -1    0    0    0    0  0.00000000000E+00  0.00000000000E+00  0.39999999673E+01  0.40000000000E+01  0.51109989000E-03 0. -1.
     -623   -1    0    0    0    0  0.00000000000E+00  0.00000000000E+00  0.12525980253E-10  0.17130000000E+03  0.17130000000E+03 0.  1.
       11    1    1    2    0    0  0.92088905431E-02 -0.40110877254E-02 -0.19613573438E-01  0.22041914070E-01  0.51109989000E-03 0. -1.
     -623    1    1    2    0    0  0.63816836975E+00  0.73067897772E-01  0.15020004468E+01  0.17130778909E+03  0.17130000000E+03 0.  1.
      622    1    1    2    0    0 -0.64737726029E+00 -0.69056810047E-01  0.25176130940E+01  0.39701689953E+01  0.30000000000E+01 0. -1.
</event>
<event>
 5   0  0.7495800E-05  0.9118800E+02  0.7818608E-02  0.1180000E+00
       11   -1    0    0    0    0  0.00000000000E+00  0.00000000000E+00  0.39999999673E+01  0.40000000000E+01  0.51109989000E-03 0.  1.
     -623   -1    0    0    0    0  0.00000000000E+00  0.00000000000E+00  0.12525980253E-10  0.17130000000E+03  0.17130000000E+03 0. -1.
       11    1    1    2    0    0  0.93079937003E-01  0.56810558183E+00  0.10090287966E+00  0.58445656735E+00  0.51109989000E-03 0.  1.
     -623    1    1    2    0    0 -0.16596397057E+00 -0.31368981684E+00  0.23223556876E+01  0.17131610923E+03  0.17130000000E+03 0. -1.
      622    1    1    2    0    0  0.72884033570E-01 -0.25441576499E+00  0.15767414001E+01  0.33994342039E+01  0.30000000000E+01 0.  1.
</event>
<event>
 5   0  0.7495800E-05  0.9118800E+02  0.7818608E-02  0.1180000E+00
       11   -1    0    0    0    0  0.00000000000E+00  0.00000000000E+00  0.39999999673E+01  0.40000000000E+01  0.51109989000E-03 0. -1.
     -623   -1    0    0    0    0  0.00000000000E+00  0.00000000000E+00  0.12525980253E-10  0.17130000000E+03  0.17130000000E+03 0. -1.
       11    1    1    2    0    0 -0.41148831988E+00 -0.14527409729E+00 -0.38461235941E-01  0.43807160218E+00  0.51109989000E-03 0. -1.
     -623    1    1    2    0    0  0.19164993759E+00 -0.32539272623E+00  0.22184615776E+01  0.17131478098E+03  0.17130000000E+03 0. -1.
      622    1    1    2    0    0  0.21983838230E+00  0.47066682353E+00  0.18199996257E+01  0.35471474188E+01  0.30000000000E+01 0. -1.
</event>
<event>
 5   0  0.7495800E-05  0.9118800E+02  0.7818608E-02  0.1180000E+00
       11   -1    0    0    0    0  0.00000000000E+00  0.00000000000E+00  0.39999999673E+01  0.40000000000E+01  0.51109989000E-03 0.  1.
     -623   -1    0    0    0    0  0.00000000000E+00  0.00000000000E+00  0.12525980253E-10  0.17130000000E+03  0.17130000000E+03 0.  1.
       11    1    1    2    0    0  0.15710738353E+00  0.41512204335E+00 -0.52260405886E-01  0.44692331790E+00  0.51109989000E-03 0.  1.
     -623    1    1    2    0    0 -0.56047009152E+00  0.18185062211E+00  0.23241631306E+01  0.17131677948E+03  0.17130000000E+03 0.  1.
      622    1    1    2    0    0  0.40336270799E+00 -0.59697266547E+00  0.17280972426E+01  0.35362972043E+01  0.30000000000E+01 0.  1.
</event>
<event>
 5   0  0.7495800E-05  0.9118800E+02  0.7818608E-02  0.1180000E+00
       11   -1    0    0    0    0  0.00000000000E+00  0.00000000000E+00  0.39999999673E+01  0.40000000000E+01  0.51109989000E-03 0.  1.
     -623   -1    0    0    0    0  0.00000000000E+00  0.00000000000E+00  0.12525980253E-10  0.17130000000E+03  0.17130000000E+03 0. -1.
       11    1    1    2    0    0  0.10374838637E+00  0.52607788378E+00 -0.29013965657E-01  0.53699510137E+00  0.51109989000E-03 0.  1.
     -623    1    1    2    0    0  0.11301578376E+00 -0.26775979052E+00  0.23664713844E+01  0.17131659188E+03  0.17130000000E+03 0. -1.
      622    1    1    2    0    0 -0.21676417013E+00 -0.25831809326E+00  0.16625425486E+01  0.34464130148E+01  0.30000000000E+01 0.  1.
</event>
<event>
 5   0  0.7495800E-05  0.9118800E+02  0.7818608E-02  0.1180000E+00
       11   -1    0    0    0    0  0.00000000000E+00  0.00000000000E+00  0.39999999673E+01  0.40000000000E+01  0.51109989000E-03 0.  1.
     -623   -1    0    0    0    0  0.00000000000E+00  0.00000000000E+00  0.12525980253E-10  0.17130000000E+03  0.17130000000E+03 0.  1.
       11    1    1    2    0    0 -0.93834387959E-01  0.27219107465E+00  0.65592080268E-01  0.29528876663E+00  0.51109989000E-03 0.  1.
     -623    1    1    2    0    0  0.62776879384E-01 -0.11479803758E+00  0.17826316643E+01  0.17130932518E+03  0.17130000000E+03 0.  1.
      622    1    1    2    0    0  0.31057508575E-01 -0.15739303707E+00  0.21517762228E+01  0.36953860488E+01  0.30000000000E+01 0.  1.
</event>
<event>
 5   0  0.7495800E-05  0.9118800E+02  0.7818608E-02  0.1180000E+00
       11   -1    0    0    0    0  0.00000000000E+00  0.00000000000E+00  0.39999999673E+01  0.40000000000E+01  0.51109989000E-03 0. -1.
     -623   -1    0    0    0    0  0.00000000000E+00  0.00000000000E+00  0.12525980253E-10  0.17130000000E+03  0.17130000000E+03 0.  1.
       11    1    1    2    0    0  0.13326637811E+00  0.54234705303E-01 -0.68283972688E-01  0.15926171210E+00  0.51109989000E-03 0. -1.
     -623    1    1    2    0    0  0.11023563116E+00  0.71020023562E+00  0.18274611254E+01  0.17131125518E+03  0.17130000000E+03 0.  1.
      622    1    1    2    0    0 -0.24350200927E+00 -0.76443494092E+00  0.22408228147E+01  0.38294831106E+01  0.30000000000E+01 0.  0.
</event>
<event>
 5   0  0.7495800E-05  0.9118800E+02  0.7818608E-02  0.1180000E+00
       11   -1    0    0    0    0  0.00000000000E+00  0.00000000000E+00  0.39999999673E+01  0.40000000000E+01  0.51109989000E-03 0.  1.
     -623   -1    0    0    0    0  0.00000000000E+00  0.00000000000E+00  0.12525980253E-10  0.17130000000E+03  0.17130000000E+03 0.  1.
       11    1    1    2    0    0 -0.16933673344E+00  0.52500566050E-01 -0.18942113751E+00  0.25944530693E+00  0.51109989000E-03 0.  1.
     -623    1    1    2    0    0  0.40043905269E+00 -0.26115436918E+00  0.19978901154E+01  0.17131231747E+03  0.17130000000E+03 0.  1.
      622    1    1    2    0    0 -0.23110231924E+00  0.20865380313E+00  0.21915309895E+01  0.37282372201E+01  0.30000000000E+01 0.  1.
</event>
<event>
 5   0  0.7495800E-05  0.9118800E+02  0.7818608E-02  0.1180000E+00
       11   -1    0    0    0    0  0.00000000000E+00  0.00000000000E+00  0.39999999673E+01  0.40000000000E+01  0.51109989000E-03 0. -1.
     -623   -1    0    0    0    0  0.00000000000E+00  0.00000000000E+00  0.12525980253E-10  0.17130000000E+03  0.17130000000E+03 0. -1.
       11    1    1    2    0    0 -0.17290978306E+00  0.34909502158E-01  0.13549547241E+00  0.22243145165E+00  0.51109989000E-03 0. -1.
     -623    1    1    2    0    0  0.50176296357E+00 -0.34840048062E+00  0.16291239533E+01  0.17130883571E+03  0.17130000000E+03 0. -1.
      622    1    1    2    0    0 -0.32885318051E+00  0.31349097846E+00  0.22353805416E+01  0.37687328340E+01  0.30000000000E+01 0. -1.
</event>
<event>
 5   0  0.7495800E-05  0.9118800E+02  0.7818608E-02  0.1180000E+00
       11   -1    0    0    0    0  0.00000000000E+00  0.00000000000E+00  0.39999999673E+01  0.40000000000E+01  0.51109989000E-03 0. -1.
     -623   -1    0    0    0    0  0.00000000000E+00  0.00000000000E+00  0.12525980253E-10  0.17130000000E+03  0.17130000000E+03 0.  1.
       11    1    1    2    0    0  0.43499248906E+00  0.21300201160E+00  0.16406510943E+00  0.51137651866E+00  0.51109989000E-03 0. -1.
     -623    1    1    2    0    0 -0.44129443989E+00  0.24448308799E-01  0.20979356631E+01  0.17131341650E+03  0.17130000000E+03 0.  1.
      622    1    1    2    0    0  0.63019508238E-02 -0.23745032039E+00  0.17379991948E+01  0.34752069824E+01  0.30000000000E+01 0. -1.
</event>
<event>
 5   0  0.7495800E-05  0.9118800E+02  0.7818608E-02  0.1180000E+00
       11   -1    0    0    0    0  0.00000000000E+00  0.00000000000E+00  0.39999999673E+01  0.40000000000E+01  0.51109989000E-03 0. -1.
     -623   -1    0    0    0    0  0.00000000000E+00  0.00000000000E+00  0.12525980253E-10  0.17130000000E+03  0.17130000000E+03 0. -1.
       11    1    1    2    0    0 -0.10935661958E+00  0.11898212561E+00  0.28681728758E-01  0.16412958066E+00  0.51109989000E-03 0. -1.
     -623    1    1    2    0    0  0.10378920752E+01 -0.93018478848E-01  0.17907013931E+01  0.17131252868E+03  0.17130000000E+03 0. -1.
      622    1    1    2    0    0 -0.92853545562E+00 -0.25963646764E-01  0.21806168455E+01  0.38233417360E+01  0.30000000000E+01 0. -1.
</event>
<event>
 5   0  0.7495800E-05  0.9118800E+02  0.7818608E-02  0.1180000E+00
       11   -1    0    0    0    0  0.00000000000E+00  0.00000000000E+00  0.39999999673E+01  0.40000000000E+01  0.51109989000E-03 0.  1.
     -623   -1    0    0    0    0  0.00000000000E+00  0.00000000000E+00  0.12525980253E-10  0.17130000000E+03  0.17130000000E+03 0.  1.
       11    1    1    2    0    0  0.12536287744E+00 -0.20549742927E+00 -0.31334451470E-01  0.24274915767E+00  0.51109989000E-03 0.  1.
     -623    1    1    2    0    0 -0.17245190495E+01 -0.51600283843E+00  0.26856953576E+01  0.17133050862E+03  0.17130000000E+03 0.  1.
      622    1    1    2    0    0  0.15991561720E+01  0.72150026770E+00  0.13456390612E+01  0.37267422210E+01  0.30000000000E+01 0.  1.
</event>
<event>
 5   0  0.7495800E-05  0.9118800E+02  0.7818608E-02  0.1180000E+00
       11   -1    0    0    0    0  0.00000000000E+00  0.00000000000E+00  0.39999999673E+01  0.40000000000E+01  0.51109989000E-03 0.  1.
     -623   -1    0    0    0    0  0.00000000000E+00  0.00000000000E+00  0.12525980253E-10  0.17130000000E+03  0.17130000000E+03 0. -1.
       11    1    1    2    0    0 -0.41605208335E-01  0.69123602276E-01 -0.25881684749E+00  0.27110051184E+00  0.51109989000E-03 0.  1.
     -623    1    1    2    0    0  0.18344190579E+00  0.61959879659E-01  0.20740751066E+01  0.17131266526E+03  0.17130000000E+03 0. -1.
      622    1    1    2    0    0 -0.14183669746E+00 -0.13108348193E+00  0.21847417082E+01  0.37162342310E+01  0.30000000000E+01 0.  1.
</event>
<event>
 5   0  0.7495800E-05  0.9118800E+02  0.7818608E-02  0.1180000E+00
       11   -1    0    0    0    0  0.00000000000E+00  0.00000000000E+00  0.39999999673E+01  0.40000000000E+01  0.51109989000E-03 0. -1.
     -623   -1    0    0    0    0  0.00000000000E+00  0.00000000000E+00  0.12525980253E-10  0.17130000000E+03  0.17130000000E+03 0.  1.
       11    1    1    2    0    0  0.12512381650E+00 -0.26979044978E+00  0.23298944734E+00  0.37779253571E+00  0.51109989000E-03 0. -1.
     -623    1    1    2    0    0 -0.67914606059E+00  0.79475678266E+00  0.19129432979E+01  0.17131387051E+03  0.17130000000E+03 0.  1.
      622    1    1    2    0    0  0.55402224408E+00 -0.52496633288E+00  0.18540672221E+01  0.36083369524E+01  0.30000000000E+01 0. -1.
</event>
<event>
 5   0  0.7495800E-05  0.9118800E+02  0.7818608E-02  0.1180000E+00
       11   -1    0    0    0    0  0.00000000000E+00  0.00000000000E+00  0.39999999673E+01  0.40000000000E+01  0.51109989000E-03 0.  1.
     -623   -1    0    0    0    0  0.00000000000E+00  0.00000000000E+00  0.12525980253E-10  0.17130000000E+03  0.17130000000E+03 0. -1.
       11    1    1    2    0    0 -0.41002248768E+00 -0.41014515513E+00  0.28419992463E+00  0.64583848373E+00  0.51109989000E-03 0.  1.
     -623    1    1    2    0    0  0.51907089771E+00  0.84818164480E+00  0.23296701393E+01  0.17131872697E+03  0.17130000000E+03 0. -1.
      622    1    1    2    0    0 -0.10904841003E+00 -0.43803648967E+00  0.13861299034E+01  0.33354345491E+01  0.30000000000E+01 0.  1.
</event>
<event>
 5   0  0.7495800E-05  0.9118800E+02  0.7818608E-02  0.1180000E+00
       11   -1    0    0    0    0  0.00000000000E+00  0.00000000000E+00  0.39999999673E+01  0.40000000000E+01  0.51109989000E-03 0. -1.
     -623   -1    0    0    0    0  0.00000000000E+00  0.00000000000E+00  0.12525980253E-10  0.17130000000E+03  0.17130000000E+03 0.  1.
       11    1    1    2    0    0 -0.39371544458E-01 -0.63752735589E-01 -0.42954323693E-01  0.86370509745E-01  0.51109989000E-03 0. -1.
     -623    1    1    2    0    0  0.87436176474E-01 -0.18550017571E+00  0.15537790695E+01  0.17130716939E+03  0.17130000000E+03 0.  1.
      622    1    1    2    0    0 -0.48064632016E-01  0.24925291130E+00  0.24891752215E+01  0.39064600991E+01  0.30000000000E+01 0. -1.
</event>
<event>
 5   0  0.7495800E-05  0.9118800E+02  0.7818608E-02  0.1180000E+00
       11   -1    0    0    0    0  0.00000000000E+00  0.00000000000E+00  0.39999999673E+01  0.40000000000E+01  0.51109989000E-03 0. -1.
     -623   -1    0    0    0    0  0.00000000000E+00  0.00000000000E+00  0.12525980253E-10  0.17130000000E+03  0.17130000000E+03 0. -1.
       11    1    1    2    0    0 -0.27836540053E+00 -0.79643567772E-01  0.10618399351E+00  0.30839211371E+00  0.51109989000E-03 0. -1.
     -623    1    1    2    0    0  0.86192562232E+00  0.11236771324E+00  0.18451945824E+01  0.17131214284E+03  0.17130000000E+03 0. -1.
      622    1    1    2    0    0 -0.58356022179E+00 -0.32724145472E-01  0.20486213914E+01  0.36794650437E+01  0.30000000000E+01 0. -1.
</event>
<event>
 5   0  0.7495800E-05  0.9118800E+02  0.7818608E-02  0.1180000E+00
       11   -1    0    0    0    0  0.00000000000E+00  0.00000000000E+00  0.39999999673E+01  0.40000000000E+01  0.51109989000E-03 0.  1.
     -623   -1    0    0    0    0  0.00000000000E+00  0.00000000000E+00  0.12525980253E-10  0.17130000000E+03  0.17130000000E+03 0. -1.
       11    1    1    2    0    0  0.33779266410E+00 -0.21560387349E+00 -0.26727167613E+00  0.48168799473E+00  0.51109989000E-03 0.  1.
     -623    1    1    2    0    0 -0.10889543952E+01  0.82345160480E+00  0.27672647752E+01  0.17132779006E+03  0.17130000000E+03 0. -1.
      622    1    1    2    0    0  0.75116173106E+00 -0.60784773131E+00  0.15000068683E+01  0.34905219403E+01  0.30000000000E+01 0.  1.
</event>
<event>
 5   0  0.7495800E-05  0.9118800E+02  0.7818608E-02  0.1180000E+00
       11   -1    0    0    0    0  0.00000000000E+00  0.00000000000E+00  0.39999999673E+01  0.40000000000E+01  0.51109989000E-03 0. -1.
     -623   -1    0    0    0    0  0.00000000000E+00  0.00000000000E+00  0.12525980253E-10  0.17130000000E+03  0.17130000000E+03 0.  1.
       11    1    1    2    0    0 -0.13921786450E+00  0.46040471178E-01 -0.80130565491E-01  0.16710029184E+00  0.51109989000E-03 0. -1.
     -623    1    1    2    0    0  0.36468760383E+00 -0.60280829045E-01  0.17198501937E+01  0.17130903221E+03  0.17130000000E+03 0.  1.
      622    1    1    2    0    0 -0.22546973933E+00  0.14240357867E-01  0.23602803392E+01  0.38238675017E+01  0.30000000000E+01 0. -1.
</event>
<event>
 5   0  0.7495800E-05  0.9118800E+02  0.7818608E-02  0.1180000E+00
       11   -1    0    0    0    0  0.00000000000E+00  0.00000000000E+00  0.39999999673E+01  0.40000000000E+01  0.51109989000E-03 0. -1.
     -623   -1    0    0    0    0  0.00000000000E+00  0.00000000000E+00  0.12525980253E-10  0.17130000000E+03  0.17130000000E+03 0.  1.
       11    1    1    2    0    0 -0.17812034655E+00 -0.17568328869E+00 -0.84914245772E-03  0.25018484775E+00  0.51109989000E-03 0. -1.
     -623    1    1    2    0    0  0.49179872454E+00  0.17443524765E+00  0.17902601762E+01  0.17131014951E+03  0.17130000000E+03 0.  1.
      622    1    1    2    0    0 -0.31367837799E+00  0.12480410375E-02  0.22105889336E+01  0.37396656422E+01  0.30000000000E+01 0. -1.
</event>
<event>
 5   0  0.7495800E-05  0.9118800E+02  0.7818608E-02  0.1180000E+00
       11   -1    0    0    0    0  0.00000000000E+00  0.00000000000E+00  0.39999999673E+01  0.40000000000E+01  0.51109989000E-03 0.  1.
     -623   -1    0    0    0    0  0.00000000000E+00  0.00000000000E+00  0.12525980253E-10  0.17130000000E+03  0.17130000000E+03 0.  1.
       11    1    1    2    0    0  0.89043661011E-01  0.28684081546E-02 -0.85962309408E-01  0.12380137799E+00  0.51109989000E-03 0.  1.
     -623    1    1    2    0    0 -0.59506842996E+00  0.31984020666E+00  0.17221996153E+01  0.17130998913E+03  0.17130000000E+03 0.  1.
      622    1    1    2    0    0  0.50602476895E+00 -0.32270861482E+00  0.23637626614E+01  0.38662094920E+01  0.30000000000E+01 0.  1.
</event>
<event>
 5   0  0.7495800E-05  0.9118800E+02  0.7818608E-02  0.1180000E+00
       11   -1    0    0    0    0  0.00000000000E+00  0.00000000000E+00  0.39999999673E+01  0.40000000000E+01  0.51109989000E-03 0.  1.
     -623   -1    0    0    0    0  0.00000000000E+00  0.00000000000E+00  0.12525980253E-10  0.17130000000E+03  0.17130000000E+03 0. -1.
       11    1    1    2    0    0 -0.11685776668E+00 -0.85884138217E-02  0.64437475987E-01  0.13372340116E+00  0.51109989000E-03 0.  1.
     -623    1    1    2    0    0  0.28375487584E+00  0.48621363737E+00  0.15628210573E+01  0.17130805390E+03  0.17130000000E+03 0. -1.
      622    1    1    2    0    0 -0.16689710916E+00 -0.47762522355E+00  0.23727414341E+01  0.38582227012E+01  0.30000000000E+01 0.  1.
</event>
<event>
 5   0  0.7495800E-05  0.9118800E+02  0.7818608E-02  0.1180000E+00
       11   -1    0    0    0    0  0.00000000000E+00  0.00000000000E+00  0.39999999673E+01  0.40000000000E+01  0.51109989000E-03 0.  1.
     -623   -1    0    0    0    0  0.00000000000E+00  0.00000000000E+00  0.12525980253E-10  0.17130000000E+03  0.17130000000E+03 0.  1.
       11    1    1    2    0    0 -0.31154189021E-01 -0.45103657664E+00  0.39550666767E+00  0.60069157007E+00  0.51109989000E-03 0.  1.
     -623    1    1    2    0    0 -0.55344913283E+00 -0.23066605541E+00  0.23259733702E+01  0.17131683999E+03  0.17130000000E+03 0.  1.
      622    1    1    2    0    0  0.58460332185E+00  0.68170263205E+00  0.12785199295E+01  0.33824684378E+01  0.30000000000E+01 0.  1.
</event>
<event>
 5   0  0.7495800E-05  0.9118800E+02  0.7818608E-02  0.1180000E+00
       11   -1    0    0    0    0  0.00000000000E+00  0.00000000000E+00  0.39999999673E+01  0.40000000000E+01  0.51109989000E-03 0. -1.
     -623   -1    0    0    0    0  0.00000000000E+00  0.00000000000E+00  0.12525980253E-10  0.17130000000E+03  0.17130000000E+03 0.  1.
       11    1    1    2    0    0 -0.23823356371E-01  0.46930523083E-01  0.32020719390E-01  0.61608554570E-01  0.51109989000E-03 0. -1.
     -623    1    1    2    0    0  0.79971733740E-01 -0.80150135885E+00  0.15454498709E+01  0.17130886496E+03  0.17130000000E+03 0.  1.
      622    1    1    2    0    0 -0.56148377369E-01  0.75457083577E+00  0.24225293771E+01  0.39295264816E+01  0.30000000000E+01 0. -1.
</event>
<event>
 5   0  0.7495800E-05  0.9118800E+02  0.7818608E-02  0.1180000E+00
       11   -1    0    0    0    0  0.00000000000E+00  0.00000000000E+00  0.39999999673E+01  0.40000000000E+01  0.51109989000E-03 0. -1.
     -623   -1    0    0    0    0  0.00000000000E+00  0.00000000000E+00  0.12525980253E-10  0.17130000000E+03  0.17130000000E+03 0.  1.
       11    1    1    2    0    0  0.10795966550E+00  0.11687728094E+00 -0.67790879517E+00  0.69633051345E+00  0.51109989000E-03 0. -1.
     -623    1    1    2    0    0 -0.25140513770E+00  0.10804255278E+01  0.47529686560E+01  0.17136951664E+03  0.17130000000E+03 0. -1.
      622    1    1    2    0    0  0.14344547220E+00 -0.11973028087E+01 -0.75059893487E-01  0.32341528422E+01  0.30000000000E+01 0.  0.
</event>
<event>
 5   0  0.7495800E-05  0.9118800E+02  0.7818608E-02  0.1180000E+00
       11   -1    0    0    0    0  0.00000000000E+00  0.00000000000E+00  0.39999999673E+01  0.40000000000E+01  0.51109989000E-03 0. -1.
     -623   -1    0    0    0    0  0.00000000000E+00  0.00000000000E+00  0.12525980253E-10  0.17130000000E+03  0.17130000000E+03 0.  1.
       11    1    1    2    0    0 -0.23863328043E+00  0.11760538371E+00 -0.24881395682E+00  0.36426022997E+00  0.51109989000E-03 0. -1.
     -623    1    1    2    0    0  0.26191888635E+00 -0.92197111480E+00  0.23967823109E+01  0.17131944781E+03  0.17130000000E+03 0.  1.
      622    1    1    2    0    0 -0.23285605915E-01  0.80436573109E+00  0.18520316132E+01  0.36162919607E+01  0.30000000000E+01 0. -1.
</event>
<event>
 5   0  0.7495800E-05  0.9118800E+02  0.7818608E-02  0.1180000E+00
       11   -1    0    0    0    0  0.00000000000E+00  0.00000000000E+00  0.39999999673E+01  0.40000000000E+01  0.51109989000E-03 0. -1.
     -623   -1    0    0    0    0  0.00000000000E+00  0.00000000000E+00  0.12525980253E-10  0.17130000000E+03  0.17130000000E+03 0.  1.
       11    1    1    2    0    0  0.82984086947E-01  0.18200464594E+00 -0.18276869817E+00  0.27095517726E+00  0.51109989000E-03 0. -1.
     -623    1    1    2    0    0 -0.54237229252E+00 -0.32511111273E+00  0.20438914385E+01  0.17131336012E+03  0.17130000000E+03 0.  1.
      622    1    1    2    0    0  0.45938820557E+00  0.14310646679E+00  0.21388772270E+01  0.37156846982E+01  0.30000000000E+01 0. -1.
</event>
<event>
 5   0  0.7495800E-05  0.9118800E+02  0.7818608E-02  0.1180000E+00
       11   -1    0    0    0    0  0.00000000000E+00  0.00000000000E+00  0.39999999673E+01  0.40000000000E+01  0.51109989000E-03 0.  1.
     -623   -1    0    0    0    0  0.00000000000E+00  0.00000000000E+00  0.12525980253E-10  0.17130000000E+03  0.17130000000E+03 0. -1.
       11    1    1    2    0    0  0.14184660628E+00  0.17569026361E+00  0.26759784051E-02  0.22582061581E+00  0.51109989000E-03 0.  1.
     -623    1    1    2    0    0 -0.55723803639E+00 -0.78897007322E+00  0.18526194695E+01  0.17131274088E+03  0.17130000000E+03 0. -1.
      622    1    1    2    0    0  0.41539143011E+00  0.61327980960E+00  0.21447045195E+01  0.37614385069E+01  0.30000000000E+01 0.  1.
</event>
<event>
 5   0  0.7495800E-05  0.9118800E+02  0.7818608E-02  0.1180000E+00
       11   -1    0    0    0    0  0.00000000000E+00  0.00000000000E+00  0.39999999673E+01  0.40000000000E+01  0.51109989000E-03 0.  1.
     -623   -1    0    0    0    0  0.00000000000E+00  0.00000000000E+00  0.12525980253E-10  0.17130000000E+03  0.17130000000E+03 0. -1.
       11    1    1    2    0    0 -0.24982163489E+00  0.28016215897E+00  0.11489925633E+00  0.39256054935E+00  0.51109989000E-03 0.  1.
     -623    1    1    2    0    0  0.16779755327E+00 -0.55268575725E+00  0.19235143444E+01  0.17131177287E+03  0.17130000000E+03 0. -1.
      622    1    1    2    0    0  0.82024081615E-01  0.27252359828E+00  0.19615863666E+01  0.35956665773E+01  0.30000000000E+01 0.  1.
</event>
<event>
 5   0  0.7495800E-05  0.9118800E+02  0.7818608E-02  0.1180000E+00
       11   -1    0    0    0    0  0.00000000000E+00  0.00000000000E+00  0.39999999673E+01  0.40000000000E+01  0.51109989000E-03 0.  1.
     -623   -1    0    0    0    0  0.00000000000E+00  0.00000000000E+00  0.12525980253E-10  0.17130000000E+03  0.17130000000E+03 0.  1.
       11    1    1    2    0    0 -0.10189338628E+00  0.10251854836E+00 -0.97377779114E-01  0.17428427356E+00  0.51109989000E-03 0.  1.
     -623    1    1    2    0    0  0.21443905860E+00  0.88196928772E+00  0.19643440730E+01  0.17131366700E+03  0.17130000000E+03 0.  1.
      622    1    1    2    0    0 -0.11254567233E+00 -0.98448783608E+00  0.21330336734E+01  0.38120487247E+01  0.30000000000E+01 0.  1.
</event>
<event>
 5   0  0.7495800E-05  0.9118800E+02  0.7818608E-02  0.1180000E+00
       11   -1    0    0    0    0  0.00000000000E+00  0.00000000000E+00  0.39999999673E+01  0.40000000000E+01  0.51109989000E-03 0. -1.
     -623   -1    0    0    0    0  0.00000000000E+00  0.00000000000E+00  0.12525980253E-10  0.17130000000E+03  0.17130000000E+03 0.  1.
       11    1    1    2    0    0 -0.26016653358E+00  0.13967569914E+00 -0.11534050590E+00  0.31701674979E+00  0.51109989000E-03 0. -1.
     -623    1    1    2    0    0  0.68080798117E+00 -0.21239058967E+00  0.20461917528E+01  0.17131370497E+03  0.17130000000E+03 0.  1.
      622    1    1    2    0    0 -0.42064144760E+00  0.72714890534E-01  0.20691487205E+01  0.36692782819E+01  0.30000000000E+01 0. -1.
</event>
<event>
 5   0  0.7495800E-05  0.9118800E+02  0.7818608E-02  0.1180000E+00
       11   -1    0    0    0    0  0.00000000000E+00  0.00000000000E+00  0.39999999673E+01  0.40000000000E+01  0.51109989000E-03 0. -1.
     -623   -1    0    0    0    0  0.00000000000E+00  0.00000000000E+00  0.12525980253E-10  0.17130000000E+03  0.17130000000E+03 0.  1.
       11    1    1    2    0    0  0.58336636302E-01 -0.74887633193E-01  0.30961283002E-01  0.99850803745E-01  0.51109989000E-03 0. -1.
     -623    1    1    2    0    0 -0.12993546705E+00 -0.90453438605E-02  0.14894949670E+01  0.17130652515E+03  0.17130000000E+03 0.  1.
      622    1    1    2    0    0  0.71598830749E-01  0.83932977054E-01  0.24795437173E+01  0.38936240424E+01  0.30000000000E+01 0. -1.
</event>
<event>
 5   0  0.7495800E-05  0.9118800E+02  0.7818608E-02  0.1180000E+00
       11   -1    0    0    0    0  0.00000000000E+00  0.00000000000E+00  0.39999999673E+01  0.40000000000E+01  0.51109989000E-03 0.  1.
     -623   -1    0    0    0    0  0.00000000000E+00  0.00000000000E+00  0.12525980253E-10  0.17130000000E+03  0.17130000000E+03 0. -1.
       11    1    1    2    0    0 -0.13577474227E+00 -0.38015516167E+00  0.28692349144E+00  0.49525556912E+00  0.51109989000E-03 0.  1.
     -623    1    1    2    0    0 -0.10547546924E+01  0.45742298603E+00  0.24034539403E+01  0.17132071776E+03  0.17130000000E+03 0. -1.
      622    1    1    2    0    0  0.11905294347E+01 -0.77267824358E-01  0.13096225357E+01  0.34840266700E+01  0.30000000000E+01 0.  1.
</event>
<event>
 5   0  0.7495800E-05  0.9118800E+02  0.7818608E-02  0.1180000E+00
       11   -1    0    0    0    0  0.00000000000E+00  0.00000000000E+00  0.39999999673E+01  0.40000000000E+01  0.51109989000E-03 0. -1.
     -623   -1    0    0    0    0  0.00000000000E+00  0.00000000000E+00  0.12525980253E-10  0.17130000000E+03  0.17130000000E+03 0. -1.
       11    1    1    2    0    0 -0.21345092705E+00  0.48141046254E+00  0.16540168863E+00  0.55197401345E+00  0.51109989000E-03 0. -1.
     -623    1    1    2    0    0 -0.12343228219E+00 -0.15138595304E+01  0.25985561440E+01  0.17132644133E+03  0.17130000000E+03 0.  1.
      622    1    1    2    0    0  0.33688320924E+00  0.10324490678E+01  0.12360421348E+01  0.34215846524E+01  0.30000000000E+01 0. -1.
</event>
<event>
 5   0  0.7495800E-05  0.9118800E+02  0.7818608E-02  0.1180000E+00
       11   -1    0    0    0    0  0.00000000000E+00  0.00000000000E+00  0.39999999673E+01  0.40000000000E+01  0.51109989000E-03 0. -1.
     -623   -1    0    0    0    0  0.00000000000E+00  0.00000000000E+00  0.12525980253E-10  0.17130000000E+03  0.17130000000E+03 0. -1.
       11    1    1    2    0    0 -0.33069403664E+00 -0.47754554352E+00 -0.10638831532E-01  0.58096621069E+00  0.51109989000E-03 0. -1.
     -623    1    1    2    0    0  0.13239444041E+01  0.81386041609E+00  0.28348493671E+01  0.17133050391E+03  0.17130000000E+03 0. -1.
      622    1    1    2    0    0 -0.99325036746E+00 -0.33631487257E+00  0.11757894317E+01  0.33885298839E+01  0.30000000000E+01 0. -1.
</event>
<event>
 5   0  0.7495800E-05  0.9118800E+02  0.7818608E-02  0.1180000E+00
       11   -1    0    0    0    0  0.00000000000E+00  0.00000000000E+00  0.39999999673E+01  0.40000000000E+01  0.51109989000E-03 0. -1.
     -623   -1    0    0    0    0  0.00000000000E+00  0.00000000000E+00  0.12525980253E-10  0.17130000000E+03  0.17130000000E+03 0. -1.
       11    1    1    2    0    0  0.20139567082E+00 -0.25063247626E+00  0.16051946274E-01  0.32192356326E+00  0.51109989000E-03 0. -1.
     -623    1    1    2    0    0 -0.36920387615E+00  0.35665279453E+00  0.18846505033E+01  0.17131113630E+03  0.17130000000E+03 0. -1.
      622    1    1    2    0    0  0.16780820533E+00 -0.10602031826E+00  0.20992975178E+01  0.36669401372E+01  0.30000000000E+01 0. -1.
</event>
<event>
 5   0  0.7495800E-05  0.9118800E+02  0.7818608E-02  0.1180000E+00
       11   -1    0    0    0    0  0.00000000000E+00  0.00000000000E+00  0.39999999673E+01  0.40000000000E+01  0.51109989000E-03 0. -1.
     -623   -1    0    0    0    0  0.00000000000E+00  0.00000000000E+00  0.12525980253E-10  0.17130000000E+03  0.17130000000E+03 0. -1.
       11    1    1    2    0    0 -0.10827763893E+00  0.78796035872E-01 -0.95031140336E-01  0.16420731171E+00  0.51109989000E-03 0. -1.
     -623    1    1    2    0    0 -0.59234102601E+00  0.14747343539E+00  0.18395384399E+01  0.17131096438E+03  0.17130000000E+03 0.  1.
      622    1    1    2    0    0  0.70061866494E+00 -0.22626947126E+00  0.22554926678E+01  0.38248283049E+01  0.30000000000E+01 0. -1.
</event>
<event>
 5   0  0.7495800E-05  0.9118800E+02  0.7818608E-02  0.1180000E+00
       11   -1    0    0    0    0  0.00000000000E+00  0.00000000000E+00  0.39999999673E+01  0.40000000000E+01  0.51109989000E-03 0.  1.
     -623   -1    0    0    0    0  0.00000000000E+00  0.00000000000E+00  0.12525980253E-10  0.17130000000E+03  0.17130000000E+03 0. -1.
       11    1    1    2    0    0 -0.55902639472E-01 -0.10708297689E+00  0.33940958593E+00  0.36026517634E+00  0.51109989000E-03 0.  1.
     -623    1    1    2    0    0  0.27027462525E+00 -0.48531902444E+00  0.17159186388E+01  0.17130949466E+03  0.17130000000E+03 0. -1.
      622    1    1    2    0    0 -0.21437198578E+00  0.59240200133E+00  0.19446717427E+01  0.36302401665E+01  0.30000000000E+01 0.  1.
</event>
<event>
 5   0  0.7495800E-05  0.9118800E+02  0.7818608E-02  0.1180000E+00
       11   -1    0    0    0    0  0.00000000000E+00  0.00000000000E+00  0.39999999673E+01  0.40000000000E+01  0.51109989000E-03 0.  1.
     -623   -1    0    0    0    0  0.00000000000E+00  0.00000000000E+00  0.12525980253E-10  0.17130000000E+03  0.17130000000E+03 0.  1.
       11    1    1    2    0    0  0.48101633384E-01 -0.95589999982E-01 -0.32798060170E-01  0.11192492664E+00  0.51109989000E-03 0.  1.
     -623    1    1    2    0    0 -0.85901286181E+00  0.43528451527E+00  0.17405317062E+01  0.17131154902E+03  0.17130000000E+03 0.  1.
      622    1    1    2    0    0  0.81091122843E+00 -0.33969451528E+00  0.22922663213E+01  0.38765260572E+01  0.30000000000E+01 0.  1.
</event>
<event>
 5   0  0.7495800E-05  0.9118800E+02  0.7818608E-02  0.1180000E+00
       11   -1    0    0    0    0  0.00000000000E+00  0.00000000000E+00  0.39999999673E+01  0.40000000000E+01  0.51109989000E-03 0. -1.
     -623   -1    0    0    0    0  0.00000000000E+00  0.00000000000E+00  0.12525980253E-10  0.17130000000E+03  0.17130000000E+03 0.  1.
       11    1    1    2    0    0 -0.44259980753E-01  0.51726802012E-01  0.11460420377E+00  0.13330038517E+00  0.51109989000E-03 0. -1.
     -623    1    1    2    0    0  0.80020639819E+00  0.30372578443E+00  0.16097347642E+01  0.17130970149E+03  0.17130000000E+03 0.  1.
      622    1    1    2    0    0 -0.75594641743E+00 -0.35545258644E+00  0.22756609994E+01  0.38569981218E+01  0.30000000000E+01 0. -1.
</event>
<event>
 5   0  0.7495800E-05  0.9118800E+02  0.7818608E-02  0.1180000E+00
       11   -1    0    0    0    0  0.00000000000E+00  0.00000000000E+00  0.39999999673E+01  0.40000000000E+01  0.51109989000E-03 0.  1.
     -623   -1    0    0    0    0  0.00000000000E+00  0.00000000000E+00  0.12525980253E-10  0.17130000000E+03  0.17130000000E+03 0.  1.
       11    1    1    2    0    0  0.58801099274E+00  0.21246834342E+00 -0.19899752216E+00  0.65612498778E+00  0.51109989000E-03 0.  1.
     -623    1    1    2    0    0 -0.78902905718E+00  0.55225906103E+00  0.30330242505E+01  0.17132955610E+03  0.17130000000E+03 0.  1.
      622    1    1    2    0    0  0.20101806444E+00 -0.76472740446E+00  0.11659732391E+01  0.33143189134E+01  0.30000000000E+01 0.  1.
</event>
<event>
 5   0  0.7495800E-05  0.9118800E+02  0.7818608E-02  0.1180000E+00
       11   -1    0    0    0    0  0.00000000000E+00  0.00000000000E+00  0.39999999673E+01  0.40000000000E+01  0.51109989000E-03 0.  1.
     -623   -1    0    0    0    0  0.00000000000E+00  0.00000000000E+00  0.12525980253E-10  0.17130000000E+03  0.17130000000E+03 0. -1.
       11    1    1    2    0    0  0.26019047835E+00  0.81341439373E-01 -0.74859162927E-01  0.28270067259E+00  0.51109989000E-03 0.  1.
     -623    1    1    2    0    0  0.47740099400E-01 -0.31754778034E+00  0.19337272632E+01  0.17131121509E+03  0.17130000000E+03 0. -1.
      622    1    1    2    0    0 -0.30793057775E+00  0.23620634097E+00  0.21411318670E+01  0.37060842338E+01  0.30000000000E+01 0.  1.
</event>
<event>
 5   0  0.7495800E-05  0.9118800E+02  0.7818608E-02  0.1180000E+00
       11   -1    0    0    0    0  0.00000000000E+00  0.00000000000E+00  0.39999999673E+01  0.40000000000E+01  0.51109989000E-03 0.  1.
     -623   -1    0    0    0    0  0.00000000000E+00  0.00000000000E+00  0.12525980253E-10  0.17130000000E+03  0.17130000000E+03 0. -1.
       11    1    1    2    0    0  0.25317740548E+00 -0.26955746801E+00  0.87434572974E-01  0.38000670123E+00  0.51109989000E-03 0.  1.
     -623    1    1    2    0    0 -0.49675414833E+00  0.58111942941E+00  0.19490249594E+01  0.17131279334E+03  0.17130000000E+03 0. -1.
      622    1    1    2    0    0  0.24357674285E+00 -0.31156196139E+00  0.19635404350E+01  0.36071999564E+01  0.30000000000E+01 0.  1.
</event>
<event>
 5   0  0.7495800E-05  0.9118800E+02  0.7818608E-02  0.1180000E+00
       11   -1    0    0    0    0  0.00000000000E+00  0.00000000000E+00  0.39999999673E+01  0.40000000000E+01  0.51109989000E-03 0. -1.
     -623   -1    0    0    0    0  0.00000000000E+00  0.00000000000E+00  0.12525980253E-10  0.17130000000E+03  0.17130000000E+03 0. -1.
       11    1    1    2    0    0  0.13005221954E+00  0.29495963641E+00  0.48392807508E-01  0.32597069187E+00  0.51109989000E-03 0. -1.
     -623    1    1    2    0    0 -0.11008197705E+01 -0.18500405532E+00  0.21015142104E+01  0.17131652691E+03  0.17130000000E+03 0. -1.
      622    1    1    2    0    0  0.97076755094E+00 -0.10995558109E+00  0.18500929494E+01  0.36575023977E+01  0.30000000000E+01 0. -1.
</event>
<event>
 5   0  0.7495800E-05  0.9118800E+02  0.7818608E-02  0.1180000E+00
       11   -1    0    0    0    0  0.00000000000E+00  0.00000000000E+00  0.39999999673E+01  0.40000000000E+01  0.51109989000E-03 0. -1.
     -623   -1    0    0    0    0  0.00000000000E+00  0.00000000000E+00  0.12525980253E-10  0.17130000000E+03  0.17130000000E+03 0. -1.
       11    1    1    2    0    0 -0.11059769500E+00  0.10452539722E+00 -0.15707203457E+00  0.21869909481E+00  0.51109989000E-03 0. -1.
     -623    1    1    2    0    0  0.58992549312E+00 -0.16131493053E+00  0.19265530816E+01  0.17131192498E+03  0.17130000000E+03 0. -1.
      622    1    1    2    0    0 -0.47932779812E+00  0.56789533305E-01  0.22305189203E+01  0.37693759222E+01  0.30000000000E+01 0. -1.
</event>
<event>
 5   0  0.7495800E-05  0.9118800E+02  0.7818608E-02  0.1180000E+00
       11   -1    0    0    0    0  0.00000000000E+00  0.00000000000E+00  0.39999999673E+01  0.40000000000E+01  0.51109989000E-03 0.  1.
     -623   -1    0    0    0    0  0.00000000000E+00  0.00000000000E+00  0.12525980253E-10  0.17130000000E+03  0.17130000000E+03 0. -1.
       11    1    1    2    0    0  0.32844041049E+00  0.19047250744E+00  0.45613525932E+00  0.59347494922E+00  0.51109989000E-03 0.  1.
     -623    1    1    2    0    0 -0.46480717655E+00  0.27518837634E+00  0.20335302549E+01  0.17131292134E+03  0.17130000000E+03 0. -1.
      622    1    1    2    0    0  0.13636676606E+00 -0.46566088377E+00  0.15103344532E+01  0.33936037061E+01  0.30000000000E+01 0.  1.
</event>
<event>
 5   0  0.7495800E-05  0.9118800E+02  0.7818608E-02  0.1180000E+00
       11   -1    0    0    0    0  0.00000000000E+00  0.00000000000E+00  0.39999999673E+01  0.40000000000E+01  0.51109989000E-03 0.  1.
     -623   -1    0    0    0    0  0.00000000000E+00  0.00000000000E+00  0.12525980253E-10  0.17130000000E+03  0.17130000000E+03 0. -1.
       11    1    1    2    0    0  0.22749540960E-01 -0.11725209804E+00  0.74221175962E-01  0.14062233211E+00  0.51109989000E-03 0.  1.
     -623    1    1    2    0    0 -0.52455440096E+00 -0.79931734715E-02  0.15665683009E+01  0.17130796642E+03  0.17130000000E+03 0. -1.
      622    1    1    2    0    0  0.50180486000E+00  0.12524527151E+00  0.23592104905E+01  0.38514112523E+01  0.30000000000E+01 0.  1.
</event>
<event>
 5   0  0.7495800E-05  0.9118800E+02  0.7818608E-02  0.1180000E+00
       11   -1    0    0    0    0  0.00000000000E+00  0.00000000000E+00  0.39999999673E+01  0.40000000000E+01  0.51109989000E-03 0. -1.
     -623   -1    0    0    0    0  0.00000000000E+00  0.00000000000E+00  0.12525980253E-10  0.17130000000E+03  0.17130000000E+03 0. -1.
       11    1    1    2    0    0 -0.38717426630E+00  0.34370049425E+00  0.24421783763E+00  0.57243039374E+00  0.51109989000E-03 0. -1.
     -623    1    1    2    0    0 -0.60295829757E+00 -0.33827128286E+00  0.24767532382E+01  0.17131929924E+03  0.17130000000E+03 0. -1.
      622    1    1    2    0    0  0.99013256388E+00 -0.54292113859E-02  0.12790288916E+01  0.34082703643E+01  0.30000000000E+01 0. -1.
</event>
<event>
 5   0  0.7495800E-05  0.9118800E+02  0.7818608E-02  0.1180000E+00
       11   -1    0    0    0    0  0.00000000000E+00  0.00000000000E+00  0.39999999673E+01  0.40000000000E+01  0.51109989000E-03 0.  1.
     -623   -1    0    0    0    0  0.00000000000E+00  0.00000000000E+00  0.12525980253E-10  0.17130000000E+03  0.17130000000E+03 0.  1.
       11    1    1    2    0    0  0.61596629501E-01 -0.51547441144E-01 -0.22592752667E-01  0.83438463256E-01  0.51109989000E-03 0.  1.
     -623    1    1    2    0    0  0.48425862655E+00 -0.18073622298E+00  0.15887085949E+01  0.17130814682E+03  0.17130000000E+03 0.  1.
      622    1    1    2    0    0 -0.54585525605E+00  0.23228366412E+00  0.24338841252E+01  0.39084147165E+01  0.30000000000E+01 0.  1.
</event>
<event>
 5   0  0.7495800E-05  0.9118800E+02  0.7818608E-02  0.1180000E+00
       11   -1    0    0    0    0  0.00000000000E+00  0.00000000000E+00  0.39999999673E+01  0.40000000000E+01  0.51109989000E-03 0.  1.
     -623   -1    0    0    0    0  0.00000000000E+00  0.00000000000E+00  0.12525980253E-10  0.17130000000E+03  0.17130000000E+03 0. -1.
       11    1    1    2    0    0  0.15496635005E+00 -0.11530964265E-01 -0.55655591845E-01  0.16506162156E+00  0.51109989000E-03 0.  1.
     -623    1    1    2    0    0 -0.69479312726E+00  0.29299586145E+00  0.17635209159E+01  0.17131073694E+03  0.17130000000E+03 0.  1.
      622    1    1    2    0    0  0.53982677721E+00 -0.28146489719E+00  0.22921346433E+01  0.38242014409E+01  0.30000000000E+01 0.  1.
</event>
<event>
 5   0  0.7495800E-05  0.9118800E+02  0.7818608E-02  0.1180000E+00
       11   -1    0    0    0    0  0.00000000000E+00  0.00000000000E+00  0.39999999673E+01  0.40000000000E+01  0.51109989000E-03 0. -1.
     -623   -1    0    0    0    0  0.00000000000E+00  0.00000000000E+00  0.12525980253E-10  0.17130000000E+03  0.17130000000E+03 0. -1.
       11    1    1    2    0    0 -0.42039451799E-02 -0.66867948325E-01  0.63917682460E-01  0.92599821925E-01  0.51109989000E-03 0. -1.
     -623    1    1    2    0    0  0.37883255377E+00 -0.12322247907E+00  0.14788816321E+01  0.17130684688E+03  0.17130000000E+03 0. -1.
      622    1    1    2    0    0 -0.37462860859E+00  0.19009042739E+00  0.24572006528E+01  0.39005532957E+01  0.30000000000E+01 0. -1.
</event>
<event>
 5   0  0.7495800E-05  0.9118800E+02  0.7818608E-02  0.1180000E+00
       11   -1    0    0    0    0  0.00000000000E+00  0.00000000000E+00  0.39999999673E+01  0.40000000000E+01  0.51109989000E-03 0.  1.
     -623   -1    0    0    0    0  0.00000000000E+00  0.00000000000E+00  0.12525980253E-10  0.17130000000E+03  0.17130000000E+03 0. -1.
       11    1    1    2    0    0 -0.12150825537E+00  0.89936235064E-02 -0.82475775870E-01  0.14713142497E+00  0.51109989000E-03 0.  1.
     -623    1    1    2    0    0  0.30373857165E+00 -0.14571766309E+00  0.16895669018E+01  0.17130866332E+03  0.17130000000E+03 0. -1.
      622    1    1    2    0    0 -0.18223031628E+00  0.13672403958E+00  0.23929088414E+01  0.38442052591E+01  0.30000000000E+01 0.  1.
</event>
<event>
 5   0  0.7495800E-05  0.9118800E+02  0.7818608E-02  0.1180000E+00
       11   -1    0    0    0    0  0.00000000000E+00  0.00000000000E+00  0.39999999673E+01  0.40000000000E+01  0.51109989000E-03 0. -1.
     -623   -1    0    0    0    0  0.00000000000E+00  0.00000000000E+00  0.12525980253E-10  0.17130000000E+03  0.17130000000E+03 0. -1.
       11    1    1    2    0    0  0.13962816315E+00  0.31860091159E+00  0.17412658402E+00  0.38900243353E+00  0.51109989000E-03 0. -1.
     -623    1    1    2    0    0 -0.28545549605E+00  0.21551108986E+00  0.19146128283E+01  0.17131107282E+03  0.17130000000E+03 0. -1.
      622    1    1    2    0    0  0.14582733290E+00 -0.53411200145E+00  0.19112605551E+01  0.35999247423E+01  0.30000000000E+01 0. -1.
</event>
<event>
 5   0  0.7495800E-05  0.9118800E+02  0.7818608E-02  0.1180000E+00
       11   -1    0    0    0    0  0.00000000000E+00  0.00000000000E+00  0.39999999673E+01  0.40000000000E+01  0.51109989000E-03 0.  1.
     -623   -1    0    0    0    0  0.00000000000E+00  0.00000000000E+00  0.12525980253E-10  0.17130000000E+03  0.17130000000E+03 0.  1.
       11    1    1    2    0    0  0.21507290547E+00  0.89606005912E-02  0.57541440207E-01  0.22281814466E+00  0.51109989000E-03 0.  1.
     -623    1    1    2    0    0 -0.27739055054E+00 -0.22794156242E+00  0.16729237983E+01  0.17130854496E+03  0.17130000000E+03 0.  1.
      622    1    1    2    0    0  0.62317645071E-01  0.21898096183E+00  0.22695347288E+01  0.37686368936E+01  0.30000000000E+01 0.  1.
</event>
<event>
 5   0  0.7495800E-05  0.9118800E+02  0.7818608E-02  0.1180000E+00
       11   -1    0    0    0    0  0.00000000000E+00  0.00000000000E+00  0.39999999673E+01  0.40000000000E+01  0.51109989000E-03 0.  1.
     -623   -1    0    0    0    0  0.00000000000E+00  0.00000000000E+00  0.12525980253E-10  0.17130000000E+03  0.17130000000E+03 0.  1.
       11    1    1    2    0    0  0.35346167981E+00 -0.81286209485E-01  0.47551082988E+00  0.59804131756E+00  0.51109989000E-03 0.  1.
     -623    1    1    2    0    0 -0.60093808906E+00 -0.50751104608E+00  0.20868392514E+01  0.17131451658E+03  0.17130000000E+03 0.  1.
      622    1    1    2    0    0  0.24747640925E+00  0.58879725557E+00  0.14376498861E+01  0.33874420993E+01  0.30000000000E+01 0.  1.
</event>
<event>
 5   0  0.7495800E-05  0.9118800E+02  0.7818608E-02  0.1180000E+00
       11   -1    0    0    0    0  0.00000000000E+00  0.00000000000E+00  0.39999999673E+01  0.40000000000E+01  0.51109989000E-03 0. -1.
     -623   -1    0    0    0    0  0.00000000000E+00  0.00000000000E+00  0.12525980253E-10  0.17130000000E+03  0.17130000000E+03 0. -1.
       11    1    1    2    0    0 -0.14413939955E+00  0.40450953628E+00  0.15567469996E+00  0.45677018825E+00  0.51109989000E-03 0. -1.
     -623    1    1    2    0    0  0.67079253393E+00 -0.21567015160E+00  0.20715822601E+01  0.17131397471E+03  0.17130000000E+03 0. -1.
      622    1    1    2    0    0 -0.52665313438E+00 -0.18883938469E+00  0.17727430073E+01  0.35292551065E+01  0.30000000000E+01 0. -1.
</event>
<event>
 5   0  0.7495800E-05  0.9118800E+02  0.7818608E-02  0.1180000E+00
       11   -1    0    0    0    0  0.00000000000E+00  0.00000000000E+00  0.39999999673E+01  0.40000000000E+01  0.51109989000E-03 0.  1.
     -623   -1    0    0    0    0  0.00000000000E+00  0.00000000000E+00  0.12525980253E-10  0.17130000000E+03  0.17130000000E+03 0. -1.
       11    1    1    2    0    0 -0.68880512155E+00  0.23645055949E+00  0.10160623880E+00  0.73531316562E+00  0.51109989000E-03 0.  1.
     -623    1    1    2    0    0  0.47940943284E+00  0.56578166578E-01  0.27222565267E+01  0.17132230945E+03  0.17130000000E+03 0. -1.
      622    1    1    2    0    0  0.20939568870E+00 -0.29302872607E+00  0.11761372019E+01  0.32423773849E+01  0.30000000000E+01 0.  1.
</event>
<event>
 5   0  0.7495800E-05  0.9118800E+02  0.7818608E-02  0.1180000E+00
       11   -1    0    0    0    0  0.00000000000E+00  0.00000000000E+00  0.39999999673E+01  0.40000000000E+01  0.51109989000E-03 0. -1.
     -623   -1    0    0    0    0  0.00000000000E+00  0.00000000000E+00  0.12525980253E-10  0.17130000000E+03  0.17130000000E+03 0. -1.
       11    1    1    2    0    0  0.71000235971E-01  0.35256596360E+00  0.25747000590E+00  0.44230629360E+00  0.51109989000E-03 0. -1.
     -623    1    1    2    0    0 -0.19484545322E+00 -0.16918453057E+00  0.18623951343E+01  0.17131031815E+03  0.17130000000E+03 0. -1.
      622    1    1    2    0    0  0.12384521725E+00 -0.18338143303E+00  0.18801348271E+01  0.35473755589E+01  0.30000000000E+01 0. -1.
</event>
<event>
 5   0  0.7495800E-05  0.9118800E+02  0.7818608E-02  0.1180000E+00
       11   -1    0    0    0    0  0.00000000000E+00  0.00000000000E+00  0.39999999673E+01  0.40000000000E+01  0.51109989000E-03 0.  1.
     -623   -1    0    0    0    0  0.00000000000E+00  0.00000000000E+00  0.12525980253E-10  0.17130000000E+03  0.17130000000E+03 0.  1.
       11    1    1    2    0    0  0.13353833115E+00 -0.20073206832E+00 -0.30273860145E+00  0.38701004014E+00  0.51109989000E-03 0.  1.
     -623    1    1    2    0    0 -0.17414659846E+00  0.66014651327E-01  0.23229374234E+01  0.17131585076E+03  0.17130000000E+03 0.  1.
      622    1    1    2    0    0  0.40608267309E-01  0.13471741700E+00  0.19798011454E+01  0.35971391951E+01  0.30000000000E+01 0.  1.
</event>
<event>
 5   0  0.7495800E-05  0.9118800E+02  0.7818608E-02  0.1180000E+00
       11   -1    0    0    0    0  0.00000000000E+00  0.00000000000E+00  0.39999999673E+01  0.40000000000E+01  0.51109989000E-03 0. -1.
     -623   -1    0    0    0    0  0.00000000000E+00  0.00000000000E+00  0.12525980253E-10  0.17130000000E+03  0.17130000000E+03 0.  1.
       11    1    1    2    0    0 -0.52069658446E+00  0.35754203444E+00  0.23463135218E+00  0.67380514402E+00  0.51109989000E-03 0. -1.
     -623    1    1    2    0    0  0.76553857985E+00  0.15039021283E+00  0.24952019930E+01  0.17131994834E+03  0.17130000000E+03 0. -1.
      622    1    1    2    0    0 -0.24484199539E+00 -0.50793224726E+00  0.12701666222E+01  0.33062465151E+01  0.30000000000E+01 0. -1.
</event>
<event>
 5   0  0.7495800E-05  0.9118800E+02  0.7818608E-02  0.1180000E+00
       11   -1    0    0    0    0  0.00000000000E+00  0.00000000000E+00  0.39999999673E+01  0.40000000000E+01  0.51109989000E-03 0.  1.
     -623   -1    0    0    0    0  0.00000000000E+00  0.00000000000E+00  0.12525980253E-10  0.17130000000E+03  0.17130000000E+03 0. -1.
       11    1    1    2    0    0 -0.44551978842E+00  0.38456012770E+00  0.13833258899E+00  0.60457467701E+00  0.51109989000E-03 0.  1.
     -623    1    1    2    0    0  0.99658376370E+00 -0.46698579961E+00  0.24198618661E+01  0.17132062627E+03  0.17130000000E+03 0. -1.
      622    1    1    2    0    0 -0.55106397529E+00  0.82425671909E-01  0.14418055123E+01  0.33747990505E+01  0.30000000000E+01 0.  1.
</event>
<event>
 5   0  0.7495800E-05  0.9118800E+02  0.7818608E-02  0.1180000E+00
       11   -1    0    0    0    0  0.00000000000E+00  0.00000000000E+00  0.39999999673E+01  0.40000000000E+01  0.51109989000E-03 0.  1.
     -623   -1    0    0    0    0  0.00000000000E+00  0.00000000000E+00  0.12525980253E-10  0.17130000000E+03  0.17130000000E+03 0.  1.
       11    1    1    2    0    0 -0.12110793896E+00 -0.11371456350E+00  0.23094348385E-01  0.16772520676E+00  0.51109989000E-03 0.  1.
     -623    1    1    2    0    0  0.87360722235E-01 -0.22506633229E-01  0.16086533370E+01  0.17130757690E+03  0.17130000000E+03 0.  1.
      622    1    1    2    0    0  0.33747216721E-01  0.13622119673E+00  0.23682522819E+01  0.38246978913E+01  0.30000000000E+01 0.  1.
</event>
<event>
 5   0  0.7495800E-05  0.9118800E+02  0.7818608E-02  0.1180000E+00
       11   -1    0    0    0    0  0.00000000000E+00  0.00000000000E+00  0.39999999673E+01  0.40000000000E+01  0.51109989000E-03 0.  1.
     -623   -1    0    0    0    0  0.00000000000E+00  0.00000000000E+00  0.12525980253E-10  0.17130000000E+03  0.17130000000E+03 0.  1.
       11    1    1    2    0    0  0.20242636281E+00  0.14054529721E+00 -0.20077700881E+00  0.31786959813E+00  0.51109989000E-03 0.  1.
     -623    1    1    2    0    0  0.13389061179E+00 -0.29474959537E+00  0.21217482093E+01  0.17131344553E+03  0.17130000000E+03 0.  1.
      622    1    1    2    0    0 -0.33631697459E+00  0.15420429816E+00  0.20790287669E+01  0.36686848715E+01  0.30000000000E+01 0.  1.
</event>
<event>
 5   0  0.7495800E-05  0.9118800E+02  0.7818608E-02  0.1180000E+00
       11   -1    0    0    0    0  0.00000000000E+00  0.00000000000E+00  0.39999999673E+01  0.40000000000E+01  0.51109989000E-03 0.  1.
     -623   -1    0    0    0    0  0.00000000000E+00  0.00000000000E+00  0.12525980253E-10  0.17130000000E+03  0.17130000000E+03 0. -1.
       11    1    1    2    0    0  0.32942730143E+00  0.15174211738E+00 -0.14495772875E-02  0.36269874499E+00  0.51109989000E-03 0.  1.
     -623    1    1    2    0    0  0.17615555329E+00  0.10490842637E+01  0.24585841887E+01  0.17132094514E+03  0.17130000000E+03 0. -1.
      622    1    1    2    0    0 -0.50558285472E+00 -0.12008263811E+01  0.15428653559E+01  0.36163561117E+01  0.30000000000E+01 0.  1.
</event>
<event>
 5   0  0.7495800E-05  0.9118800E+02  0.7818608E-02  0.1180000E+00
       11   -1    0    0    0    0  0.00000000000E+00  0.00000000000E+00  0.39999999673E+01  0.40000000000E+01  0.51109989000E-03 0. -1.
     -623   -1    0    0    0    0  0.00000000000E+00  0.00000000000E+00  0.12525980253E-10  0.17130000000E+03  0.17130000000E+03 0. -1.
       11    1    1    2    0    0  0.69822306387E-01  0.31611661077E+00  0.58558055310E-01  0.32898962467E+00  0.51109989000E-03 0. -1.
     -623    1    1    2    0    0  0.22623261466E+00 -0.59566767522E-01  0.18808649778E+01  0.17131048533E+03  0.17130000000E+03 0. -1.
      622    1    1    2    0    0 -0.29605492105E+00 -0.25654984325E+00  0.20605769343E+01  0.36605250498E+01  0.30000000000E+01 0. -1.
</event>
<event>
 5   0  0.7495800E-05  0.9118800E+02  0.7818608E-02  0.1180000E+00
       11   -1    0    0    0    0  0.00000000000E+00  0.00000000000E+00  0.39999999673E+01  0.40000000000E+01  0.51109989000E-03 0. -1.
     -623   -1    0    0    0    0  0.00000000000E+00  0.00000000000E+00  0.12525980253E-10  0.17130000000E+03  0.17130000000E+03 0. -1.
       11    1    1    2    0    0 -0.76558549226E-01  0.14048245045E+00  0.15410756169E+00  0.22213944300E+00  0.51109989000E-03 0. -1.
     -623    1    1    2    0    0 -0.68931962062E-02 -0.63974866627E+00  0.16212384352E+01  0.17130886650E+03  0.17130000000E+03 0. -1.
      622    1    1    2    0    0  0.83451745432E-01  0.49926621583E+00  0.22246539705E+01  0.37689940616E+01  0.30000000000E+01 0.  0.
</event>
<event>
 5   0  0.7495800E-05  0.9118800E+02  0.7818608E-02  0.1180000E+00
       11   -1    0    0    0    0  0.00000000000E+00  0.00000000000E+00  0.39999999673E+01  0.40000000000E+01  0.51109989000E-03 0. -1.
     -623   -1    0    0    0    0  0.00000000000E+00  0.00000000000E+00  0.12525980253E-10  0.17130000000E+03  0.17130000000E+03 0.  1.
       11    1    1    2    0    0 -0.24877375792E+00 -0.23202026641E+00  0.15258515967E+00  0.37283277596E+00  0.51109989000E-03 0. -1.
     -623    1    1    2    0    0  0.73584242396E+00  0.91859559821E+00  0.20220172598E+01  0.17131597659E+03  0.17130000000E+03 0.  1.
      622    1    1    2    0    0 -0.48706866604E+00 -0.68657533180E+00  0.18253975479E+01  0.36111906318E+01  0.30000000000E+01 0. -1.
</event>
<event>
 5   0  0.7495800E-05  0.9118800E+02  0.7818608E-02  0.1180000E+00
       11   -1    0    0    0    0  0.00000000000E+00  0.00000000000E+00  0.39999999673E+01  0.40000000000E+01  0.51109989000E-03 0. -1.
     -623   -1    0    0    0    0  0.00000000000E+00  0.00000000000E+00  0.12525980253E-10  0.17130000000E+03  0.17130000000E+03 0. -1.
       11    1    1    2    0    0 -0.15040991378E+00  0.29544898595E+00 -0.15921328718E-01  0.33191413859E+00  0.51109989000E-03 0. -1.
     -623    1    1    2    0    0 -0.44387560435E+00 -0.39949839457E+00  0.20168505399E+01  0.17131291344E+03  0.17130000000E+03 0. -1.
      622    1    1    2    0    0  0.59428551813E+00  0.10404940862E+00  0.19990707562E+01  0.36551724234E+01  0.30000000000E+01 0. -1.
</event>
<event>
 5   0  0.7495800E-05  0.9118800E+02  0.7818608E-02  0.1180000E+00
       11   -1    0    0    0    0  0.00000000000E+00  0.00000000000E+00  0.39999999673E+01  0.40000000000E+01  0.51109989000E-03 0.  1.
     -623   -1    0    0    0    0  0.00000000000E+00  0.00000000000E+00  0.12525980253E-10  0.17130000000E+03  0.17130000000E+03 0. -1.
       11    1    1    2    0    0 -0.44457300820E-02 -0.93136601762E-01  0.23710146634E-01  0.96211347454E-01  0.51109989000E-03 0.  1.
     -623    1    1    2    0    0 -0.74524013520E+00  0.52654440343E+00  0.16506200995E+01  0.17131038258E+03  0.17130000000E+03 0.  1.
      622    1    1    2    0    0  0.74968586529E+00 -0.43340780167E+00  0.23256697212E+01  0.38934060758E+01  0.30000000000E+01 0.  1.
</event>
<event>
 5   0  0.7495800E-05  0.9118800E+02  0.7818608E-02  0.1180000E+00
       11   -1    0    0    0    0  0.00000000000E+00  0.00000000000E+00  0.39999999673E+01  0.40000000000E+01  0.51109989000E-03 0.  1.
     -623   -1    0    0    0    0  0.00000000000E+00  0.00000000000E+00  0.12525980253E-10  0.17130000000E+03  0.17130000000E+03 0.  1.
       11    1    1    2    0    0  0.20963026862E-01 -0.10916450443E+00 -0.27462071690E-01  0.11450224508E+00  0.51109989000E-03 0.  1.
     -623    1    1    2    0    0 -0.18469567008E+00 -0.83723513026E-01  0.15830066150E+01  0.17130743426E+03  0.17130000000E+03 0.  1.
      622    1    1    2    0    0  0.16373264322E+00  0.19288801746E+00  0.24444554241E+01  0.38780634969E+01  0.30000000000E+01 0.  1.
</event>
<event>
 5   0  0.7495800E-05  0.9118800E+02  0.7818608E-02  0.1180000E+00
       11   -1    0    0    0    0  0.00000000000E+00  0.00000000000E+00  0.39999999673E+01  0.40000000000E+01  0.51109989000E-03 0.  1.
     -623   -1    0    0    0    0  0.00000000000E+00  0.00000000000E+00  0.12525980253E-10  0.17130000000E+03  0.17130000000E+03 0. -1.
       11    1    1    2    0    0  0.17468275531E+00 -0.39120908748E+00  0.12099038387E+00  0.44519383345E+00  0.51109989000E-03 0.  1.
     -623    1    1    2    0    0 -0.67957596629E+00  0.66466502429E+00  0.20907906609E+01  0.17131539630E+03  0.17130000000E+03 0. -1.
      622    1    1    2    0    0  0.50489321098E+00 -0.27345593681E+00  0.17882189226E+01  0.35394098687E+01  0.30000000000E+01 0.  1.
</event>
<event>
 5   0  0.7495800E-05  0.9118800E+02  0.7818608E-02  0.1180000E+00
       11   -1    0    0    0    0  0.00000000000E+00  0.00000000000E+00  0.39999999673E+01  0.40000000000E+01  0.51109989000E-03 0. -1.
     -623   -1    0    0    0    0  0.00000000000E+00  0.00000000000E+00  0.12525980253E-10  0.17130000000E+03  0.17130000000E+03 0. -1.
       11    1    1    2    0    0 -0.11219819568E-01 -0.21241705349E+00  0.18734471060E+00  0.28345227248E+00  0.51109989000E-03 0. -1.
     -623    1    1    2    0    0 -0.36090767066E+00  0.31082460809E+00  0.16680447914E+01  0.17130878331E+03  0.17130000000E+03 0. -1.
      622    1    1    2    0    0  0.37212749022E+00 -0.98407554601E-01  0.21446104653E+01  0.37077644159E+01  0.30000000000E+01 0. -1.
</event>
<event>
 5   0  0.7495800E-05  0.9118800E+02  0.7818608E-02  0.1180000E+00
       11   -1    0    0    0    0  0.00000000000E+00  0.00000000000E+00  0.39999999673E+01  0.40000000000E+01  0.51109989000E-03 0.  1.
     -623   -1    0    0    0    0  0.00000000000E+00  0.00000000000E+00  0.12525980253E-10  0.17130000000E+03  0.17130000000E+03 0.  1.
       11    1    1    2    0    0 -0.23967846251E+00  0.19467320574E+00 -0.14290841619E+00  0.34024476347E+00  0.51109989000E-03 0.  1.
     -623    1    1    2    0    0  0.18808181826E+00 -0.11047686911E+00  0.20713042202E+01  0.17131266118E+03  0.17130000000E+03 0.  1.
      622    1    1    2    0    0  0.51596644256E-01 -0.84196336636E-01  0.20716041633E+01  0.36470940550E+01  0.30000000000E+01 0.  1.
</event>
<event>
 5   0  0.7495800E-05  0.9118800E+02  0.7818608E-02  0.1180000E+00
       11   -1    0    0    0    0  0.00000000000E+00  0.00000000000E+00  0.39999999673E+01  0.40000000000E+01  0.51109989000E-03 0. -1.
     -623   -1    0    0    0    0  0.00000000000E+00  0.00000000000E+00  0.12525980253E-10  0.17130000000E+03  0.17130000000E+03 0. -1.
       11    1    1    2    0    0 -0.65404270719E-01 -0.20971161385E+00 -0.90409064793E-01  0.23755155194E+00  0.51109989000E-03 0. -1.
     -623    1    1    2    0    0 -0.43905594476E+00  0.98877392937E-01  0.18981975143E+01  0.17131110793E+03  0.17130000000E+03 0. -1.
      622    1    1    2    0    0  0.50446021548E+00  0.11083422091E+00  0.21922115178E+01  0.37513405167E+01  0.30000000000E+01 0. -1.
</event>
<event>
 5   0  0.7495800E-05  0.9118800E+02  0.7818608E-02  0.1180000E+00
       11   -1    0    0    0    0  0.00000000000E+00  0.00000000000E+00  0.39999999673E+01  0.40000000000E+01  0.51109989000E-03 0. -1.
     -623   -1    0    0    0    0  0.00000000000E+00  0.00000000000E+00  0.12525980253E-10  0.17130000000E+03  0.17130000000E+03 0. -1.
       11    1    1    2    0    0 -0.31022627539E+00  0.16024148136E+00  0.13639604320E+00  0.37486239623E+00  0.51109989000E-03 0. -1.
     -623    1    1    2    0    0 -0.39912791748E+00  0.15929133162E+01  0.33408310395E+01  0.17134044423E+03  0.17130000000E+03 0.  1.
      622    1    1    2    0    0  0.70935419287E+00 -0.17531547976E+01  0.52277288471E+00  0.35846933766E+01  0.30000000000E+01 0.  1.
</event>
<event>
 5   0  0.7495800E-05  0.9118800E+02  0.7818608E-02  0.1180000E+00
       11   -1    0    0    0    0  0.00000000000E+00  0.00000000000E+00  0.39999999673E+01  0.40000000000E+01  0.51109989000E-03 0.  1.
     -623   -1    0    0    0    0  0.00000000000E+00  0.00000000000E+00  0.12525980253E-10  0.17130000000E+03  0.17130000000E+03 0.  1.
       11    1    1    2    0    0  0.19455710546E+00 -0.87331115785E-01  0.11156527292E+00  0.24067875355E+00  0.51109989000E-03 0.  1.
     -623    1    1    2    0    0 -0.39044257534E+00 -0.42242983379E+00  0.17059520975E+01  0.17130946023E+03  0.17130000000E+03 0.  1.
      622    1    1    2    0    0  0.19588546989E+00  0.50976094958E+00  0.21824825969E+01  0.37498610146E+01  0.30000000000E+01 0.  1.
</event>
<event>
 5   0  0.7495800E-05  0.9118800E+02  0.7818608E-02  0.1180000E+00
       11   -1    0    0    0    0  0.00000000000E+00  0.00000000000E+00  0.39999999673E+01  0.40000000000E+01  0.51109989000E-03 0.  1.
     -623   -1    0    0    0    0  0.00000000000E+00  0.00000000000E+00  0.12525980253E-10  0.17130000000E+03  0.17130000000E+03 0. -1.
       11    1    1    2    0    0 -0.23484333933E+00 -0.16984837448E-01  0.20516958809E-01  0.23634949874E+00  0.51109989000E-03 0.  1.
     -623    1    1    2    0    0  0.45632756276E-01 -0.85569477076E-01  0.17316538095E+01  0.17130877978E+03  0.17130000000E+03 0. -1.
      622    1    1    2    0    0  0.18921058306E+00  0.10255431452E+00  0.22478291990E+01  0.37548707222E+01  0.30000000000E+01 0.  1.
</event>
<event>
 5   0  0.7495800E-05  0.9118800E+02  0.7818608E-02  0.1180000E+00
       11   -1    0    0    0    0  0.00000000000E+00  0.00000000000E+00  0.39999999673E+01  0.40000000000E+01  0.51109989000E-03 0.  1.
     -623   -1    0    0    0    0  0.00000000000E+00  0.00000000000E+00  0.12525980253E-10  0.17130000000E+03  0.17130000000E+03 0. -1.
       11    1    1    2    0    0  0.89402255077E-01  0.37409049095E+00  0.10239776400E+00  0.39802263997E+00  0.51109989000E-03 0.  1.
     -623    1    1    2    0    0  0.41541789491E+00  0.21713348724E+00  0.20882604474E+01  0.17131336945E+03  0.17130000000E+03 0. -1.
      622    1    1    2    0    0 -0.50482014999E+00 -0.59122397819E+00  0.18093417560E+01  0.35886079148E+01  0.30000000000E+01 0.  0.
</event>
<event>
 5   0  0.7495800E-05  0.9118800E+02  0.7818608E-02  0.1180000E+00
       11   -1    0    0    0    0  0.00000000000E+00  0.00000000000E+00  0.39999999673E+01  0.40000000000E+01  0.51109989000E-03 0.  1.
     -623   -1    0    0    0    0  0.00000000000E+00  0.00000000000E+00  0.12525980253E-10  0.17130000000E+03  0.17130000000E+03 0. -1.
       11    1    1    2    0    0  0.12238701276E+00  0.33009171471E+00 -0.28452155158E+00  0.45264985977E+00  0.51109989000E-03 0.  1.
     -623    1    1    2    0    0 -0.38455189939E+00 -0.49429147637E+00  0.24526748139E+01  0.17131870248E+03  0.17130000000E+03 0. -1.
      622    1    1    2    0    0  0.26216488662E+00  0.16419976166E+00  0.18318467050E+01  0.35286476645E+01  0.30000000000E+01 0.  1.
</event>
<event>
 5   0  0.7495800E-05  0.9118800E+02  0.7818608E-02  0.1180000E+00
       11   -1    0    0    0    0  0.00000000000E+00  0.00000000000E+00  0.39999999673E+01  0.40000000000E+01  0.51109989000E-03 0.  1.
     -623   -1    0    0    0    0  0.00000000000E+00  0.00000000000E+00  0.12525980253E-10  0.17130000000E+03  0.17130000000E+03 0. -1.
       11    1    1    2    0    0  0.48880041750E+00  0.44579020386E-01 -0.35067231168E+00  0.60322837185E+00  0.51109989000E-03 0.  1.
     -623    1    1    2    0    0 -0.12786132416E+01  0.44865204640E+00  0.31511433918E+01  0.17133433936E+03  0.17130000000E+03 0.  1.
      622    1    1    2    0    0  0.78981282414E+00 -0.49323106678E+00  0.11995288873E+01  0.33624322646E+01  0.30000000000E+01 0.  0.
</event>
<event>
 5   0  0.7495800E-05  0.9118800E+02  0.7818608E-02  0.1180000E+00
       11   -1    0    0    0    0  0.00000000000E+00  0.00000000000E+00  0.39999999673E+01  0.40000000000E+01  0.51109989000E-03 0. -1.
     -623   -1    0    0    0    0  0.00000000000E+00  0.00000000000E+00  0.12525980253E-10  0.17130000000E+03  0.17130000000E+03 0.  1.
       11    1    1    2    0    0  0.21736395590E+00 -0.26719045658E+00  0.15825884212E+00  0.37905666033E+00  0.51109989000E-03 0. -1.
     -623    1    1    2    0    0 -0.11789206475E+00  0.31272712135E+00  0.18352997498E+01  0.17131015738E+03  0.17130000000E+03 0.  1.
      622    1    1    2    0    0 -0.99471891155E-01 -0.45536664766E-01  0.20064413754E+01  0.36107859585E+01  0.30000000000E+01 0. -1.
</event>
<event>
 5   0  0.7495800E-05  0.9118800E+02  0.7818608E-02  0.1180000E+00
       11   -1    0    0    0    0  0.00000000000E+00  0.00000000000E+00  0.39999999673E+01  0.40000000000E+01  0.51109989000E-03 0. -1.
     -623   -1    0    0    0    0  0.00000000000E+00  0.00000000000E+00  0.12525980253E-10  0.17130000000E+03  0.17130000000E+03 0.  1.
       11    1    1    2    0    0 -0.31305326580E-01  0.19234511450E+00  0.24388540006E-01  0.19639686518E+00  0.51109989000E-03 0. -1.
     -623    1    1    2    0    0 -0.86762849970E+00 -0.86529454527E+00  0.19535783302E+01  0.17131552172E+03  0.17130000000E+03 0.  1.
      622    1    1    2    0    0  0.89893382628E+00  0.67294943077E+00  0.20220330971E+01  0.37880814149E+01  0.30000000000E+01 0.  0.
</event>
<event>
 5   0  0.7495800E-05  0.9118800E+02  0.7818608E-02  0.1180000E+00
       11   -1    0    0    0    0  0.00000000000E+00  0.00000000000E+00  0.39999999673E+01  0.40000000000E+01  0.51109989000E-03 0. -1.
     -623   -1    0    0    0    0  0.00000000000E+00  0.00000000000E+00  0.12525980253E-10  0.17130000000E+03  0.17130000000E+03 0. -1.
       11    1    1    2    0    0  0.82001262304E-01  0.28585503162E-01  0.13278976944E-01  0.87851752755E-01  0.51109989000E-03 0. -1.
     -623    1    1    2    0    0  0.15776481412E+00  0.13198357837E+00  0.15029484780E+01  0.17130671663E+03  0.17130000000E+03 0. -1.
      622    1    1    2    0    0 -0.23976607642E+00 -0.16056908153E+00  0.24837725124E+01  0.39054316144E+01  0.30000000000E+01 0. -1.
</event>
<event>
 5   0  0.7495800E-05  0.9118800E+02  0.7818608E-02  0.1180000E+00
       11   -1    0    0    0    0  0.00000000000E+00  0.00000000000E+00  0.39999999673E+01  0.40000000000E+01  0.51109989000E-03 0. -1.
     -623   -1    0    0    0    0  0.00000000000E+00  0.00000000000E+00  0.12525980253E-10  0.17130000000E+03  0.17130000000E+03 0. -1.
       11    1    1    2    0    0 -0.16869374982E+00  0.17754692130E+00 -0.56079866154E-01  0.25124828975E+00  0.51109989000E-03 0. -1.
     -623    1    1    2    0    0 -0.36833510254E+00 -0.11021059601E+01  0.21110487344E+01  0.17131694848E+03  0.17130000000E+03 0. -1.
      622    1    1    2    0    0  0.53702885236E+00  0.92455903879E+00  0.19450310991E+01  0.37318032345E+01  0.30000000000E+01 0. -1.
</event>
<event>
 5   0  0.7495800E-05  0.9118800E+02  0.7818608E-02  0.1180000E+00
       11   -1    0    0    0    0  0.00000000000E+00  0.00000000000E+00  0.39999999673E+01  0.40000000000E+01  0.51109989000E-03 0. -1.
     -623   -1    0    0    0    0  0.00000000000E+00  0.00000000000E+00  0.12525980253E-10  0.17130000000E+03  0.17130000000E+03 0.  1.
       11    1    1    2    0    0 -0.69911315262E-01 -0.47381237900E-01 -0.16304592919E+00  0.18362137663E+00  0.51109989000E-03 0. -1.
     -623    1    1    2    0    0 -0.20589341209E+00 -0.76581663614E-01  0.18399192474E+01  0.17131002177E+03  0.17130000000E+03 0.  1.
      622    1    1    2    0    0  0.27580472735E+00  0.12396290151E+00  0.23231266491E+01  0.38063568509E+01  0.30000000000E+01 0. -1.
</event>
<event>
 5   0  0.7495800E-05  0.9118800E+02  0.7818608E-02  0.1180000E+00
       11   -1    0    0    0    0  0.00000000000E+00  0.00000000000E+00  0.39999999673E+01  0.40000000000E+01  0.51109989000E-03 0.  1.
     -623   -1    0    0    0    0  0.00000000000E+00  0.00000000000E+00  0.12525980253E-10  0.17130000000E+03  0.17130000000E+03 0. -1.
       11    1    1    2    0    0  0.76511712671E-01 -0.30619051769E+00 -0.27544385075E-01  0.31680534982E+00  0.51109989000E-03 0.  1.
     -623    1    1    2    0    0 -0.56354522648E-01 -0.27318271707E+00  0.19921121897E+01  0.17131181020E+03  0.17130000000E+03 0. -1.
      622    1    1    2    0    0 -0.20157190022E-01  0.57937323476E+00  0.20354321628E+01  0.36713844455E+01  0.30000000000E+01 0.  1.
</event>
<event>
 5   0  0.7495800E-05  0.9118800E+02  0.7818608E-02  0.1180000E+00
       11   -1    0    0    0    0  0.00000000000E+00  0.00000000000E+00  0.39999999673E+01  0.40000000000E+01  0.51109989000E-03 0.  1.
     -623   -1    0    0    0    0  0.00000000000E+00  0.00000000000E+00  0.12525980253E-10  0.17130000000E+03  0.17130000000E+03 0.  1.
       11    1    1    2    0    0  0.23810516396E+00 -0.21749716647E+00 -0.21325932655E+00  0.38662499675E+00  0.51109989000E-03 0.  1.
     -623    1    1    2    0    0 -0.66929739189E+00 -0.21659064693E+00  0.23270573495E+01  0.17131724976E+03  0.17130000000E+03 0.  1.
      622    1    1    2    0    0  0.43119222793E+00  0.43408781340E+00  0.18862019444E+01  0.35961252401E+01  0.30000000000E+01 0.  1.
</event>
<event>
 5   0  0.7495800E-05  0.9118800E+02  0.7818608E-02  0.1180000E+00
       11   -1    0    0    0    0  0.00000000000E+00  0.00000000000E+00  0.39999999673E+01  0.40000000000E+01  0.51109989000E-03 0.  1.
     -623   -1    0    0    0    0  0.00000000000E+00  0.00000000000E+00  0.12525980253E-10  0.17130000000E+03  0.17130000000E+03 0.  1.
       11    1    1    2    0    0  0.41042191544E+00  0.33169895596E+00 -0.23532234451E-01  0.52822757723E+00  0.51109989000E-03 0.  1.
     -623    1    1    2    0    0 -0.25945511978E+00 -0.61454687480E+00  0.23410881221E+01  0.17131729533E+03  0.17130000000E+03 0.  1.
      622    1    1    2    0    0 -0.15096679566E+00  0.28284791884E+00  0.16824440797E+01  0.34544770950E+01  0.30000000000E+01 0.  1.
</event>
<event>
 5   0  0.7495800E-05  0.9118800E+02  0.7818608E-02  0.1180000E+00
       11   -1    0    0    0    0  0.00000000000E+00  0.00000000000E+00  0.39999999673E+01  0.40000000000E+01  0.51109989000E-03 0. -1.
     -623   -1    0    0    0    0  0.00000000000E+00  0.00000000000E+00  0.12525980253E-10  0.17130000000E+03  0.17130000000E+03 0.  1.
       11    1    1    2    0    0 -0.24693903737E-01 -0.18442963446E+00  0.70312737701E-01  0.19891762429E+00  0.51109989000E-03 0. -1.
     -623    1    1    2    0    0 -0.21427970031E-01  0.11757381127E+00  0.16093639437E+01  0.17130760151E+03  0.17130000000E+03 0.  1.
      622    1    1    2    0    0  0.46121873768E-01  0.66855823187E-01  0.23203232859E+01  0.37934808658E+01  0.30000000000E+01 0. -1.
</event>
<event>
 5   0  0.7495800E-05  0.9118800E+02  0.7818608E-02  0.1180000E+00
       11   -1    0    0    0    0  0.00000000000E+00  0.00000000000E+00  0.39999999673E+01  0.40000000000E+01  0.51109989000E-03 0. -1.
     -623   -1    0    0    0    0  0.00000000000E+00  0.00000000000E+00  0.12525980253E-10  0.17130000000E+03  0.17130000000E+03 0.  1.
       11    1    1    2    0    0  0.48445602809E+00  0.19446408053E+00  0.24111173545E+00  0.57502091437E+00  0.51109989000E-03 0. -1.
     -623    1    1    2    0    0  0.24494307842E+00 -0.38731151498E+00  0.23274423522E+01  0.17131642360E+03  0.17130000000E+03 0.  1.
      622    1    1    2    0    0 -0.72939910651E+00  0.19284743445E+00  0.14314458797E+01  0.34085554853E+01  0.30000000000E+01 0. -1.
</event>
<event>
 5   0  0.7495800E-05  0.9118800E+02  0.7818608E-02  0.1180000E+00
       11   -1    0    0    0    0  0.00000000000E+00  0.00000000000E+00  0.39999999673E+01  0.40000000000E+01  0.51109989000E-03 0.  1.
     -623   -1    0    0    0    0  0.00000000000E+00  0.00000000000E+00  0.12525980253E-10  0.17130000000E+03  0.17130000000E+03 0.  1.
       11    1    1    2    0    0 -0.78132864500E-01 -0.13104194746E+00  0.10456832062E+00  0.18496359482E+00  0.51109989000E-03 0.  1.
     -623    1    1    2    0    0  0.10111918717E+01  0.21016055564E+00  0.17540498162E+01  0.17131209346E+03  0.17130000000E+03 0.  1.
      622    1    1    2    0    0 -0.93305900722E+00 -0.79118608181E-01  0.21413818306E+01  0.38029429406E+01  0.30000000000E+01 0.  1.
</event>
<event>
 5   0  0.7495800E-05  0.9118800E+02  0.7818608E-02  0.1180000E+00
       11   -1    0    0    0    0  0.00000000000E+00  0.00000000000E+00  0.39999999673E+01  0.40000000000E+01  0.51109989000E-03 0.  1.
     -623   -1    0    0    0    0  0.00000000000E+00  0.00000000000E+00  0.12525980253E-10  0.17130000000E+03  0.17130000000E+03 0.  1.
       11    1    1    2    0    0 -0.29256492507E+00  0.10359370667E+00 -0.20347418969E+00  0.37111709546E+00  0.51109989000E-03 0.  1.
     -623    1    1    2    0    0  0.47267022872E+00 -0.89569468416E+00  0.23680480654E+01  0.17131936066E+03  0.17130000000E+03 0.  1.
      622    1    1    2    0    0 -0.18010530365E+00  0.79210097749E+00  0.18354260917E+01  0.36095222422E+01  0.30000000000E+01 0.  1.
</event>
<event>
 5   0  0.7495800E-05  0.9118800E+02  0.7818608E-02  0.1180000E+00
       11   -1    0    0    0    0  0.00000000000E+00  0.00000000000E+00  0.39999999673E+01  0.40000000000E+01  0.51109989000E-03 0.  1.
     -623   -1    0    0    0    0  0.00000000000E+00  0.00000000000E+00  0.12525980253E-10  0.17130000000E+03  0.17130000000E+03 0.  1.
       11    1    1    2    0    0  0.13817156377E+00 -0.26866506234E+00 -0.91127300436E-01  0.31555782808E+00  0.51109989000E-03 0.  1.
     -623    1    1    2    0    0 -0.46651981912E+00  0.10309891208E+00  0.20057969375E+01  0.17131240904E+03  0.17130000000E+03 0.  1.
      622    1    1    2    0    0  0.32834825534E+00  0.16556615025E+00  0.20853303303E+01  0.36720331308E+01  0.30000000000E+01 0.  1.
</event>
<event>
 5   0  0.7495800E-05  0.9118800E+02  0.7818608E-02  0.1180000E+00
       11   -1    0    0    0    0  0.00000000000E+00  0.00000000000E+00  0.39999999673E+01  0.40000000000E+01  0.51109989000E-03 0. -1.
     -623   -1    0    0    0    0  0.00000000000E+00  0.00000000000E+00  0.12525980253E-10  0.17130000000E+03  0.17130000000E+03 0.  1.
       11    1    1    2    0    0 -0.17921447248E+00  0.11555929952E+00 -0.16173110884E+00  0.26763593115E+00  0.51109989000E-03 0. -1.
     -623    1    1    2    0    0 -0.70912615816E+00  0.29897536749E+00  0.21992004808E+01  0.17131584494E+03  0.17130000000E+03 0.  1.
      622    1    1    2    0    0  0.88834063065E+00 -0.41453466701E+00  0.19625305954E+01  0.37165191247E+01  0.30000000000E+01 0.  0.
</event>
<event>
 5   0  0.7495800E-05  0.9118800E+02  0.7818608E-02  0.1180000E+00
       11   -1    0    0    0    0  0.00000000000E+00  0.00000000000E+00  0.39999999673E+01  0.40000000000E+01  0.51109989000E-03 0. -1.
     -623   -1    0    0    0    0  0.00000000000E+00  0.00000000000E+00  0.12525980253E-10  0.17130000000E+03  0.17130000000E+03 0. -1.
       11    1    1    2    0    0  0.40676789090E+00  0.20421750350E+00  0.10655224520E+00  0.46745967525E+00  0.51109989000E-03 0. -1.
     -623    1    1    2    0    0 -0.19285688916E+00  0.36317930936E+00  0.21579866710E+01  0.17131408582E+03  0.17130000000E+03 0. -1.
      622    1    1    2    0    0 -0.21391100174E+00 -0.56739681287E+00  0.17354610512E+01  0.35184545073E+01  0.30000000000E+01 0. -1.
</event>
<event>
 5   0  0.7495800E-05  0.9118800E+02  0.7818608E-02  0.1180000E+00
       11   -1    0    0    0    0  0.00000000000E+00  0.00000000000E+00  0.39999999673E+01  0.40000000000E+01  0.51109989000E-03 0. -1.
     -623   -1    0    0    0    0  0.00000000000E+00  0.00000000000E+00  0.12525980253E-10  0.17130000000E+03  0.17130000000E+03 0.  1.
       11    1    1    2    0    0 -0.34476378022E+00  0.38172534022E+00  0.19893843046E+00  0.55150073422E+00  0.51109989000E-03 0. -1.
     -623    1    1    2    0    0  0.37615323970E+00 -0.85632772884E+00  0.22039377083E+01  0.17131673044E+03  0.17130000000E+03 0.  1.
      622    1    1    2    0    0 -0.31389459479E-01  0.47460238862E+00  0.15971238286E+01  0.34317688222E+01  0.30000000000E+01 0. -1.
</event>
<event>
 5   0  0.7495800E-05  0.9118800E+02  0.7818608E-02  0.1180000E+00
       11   -1    0    0    0    0  0.00000000000E+00  0.00000000000E+00  0.39999999673E+01  0.40000000000E+01  0.51109989000E-03 0.  1.
     -623   -1    0    0    0    0  0.00000000000E+00  0.00000000000E+00  0.12525980253E-10  0.17130000000E+03  0.17130000000E+03 0. -1.
       11    1    1    2    0    0 -0.11799768822E+00 -0.16965673769E+00 -0.30746693957E+00  0.37046328188E+00  0.51109989000E-03 0.  1.
     -623    1    1    2    0    0  0.18424087220E+00 -0.14671084147E-01  0.23018677804E+01  0.17131556484E+03  0.17130000000E+03 0. -1.
      622    1    1    2    0    0 -0.66243183976E-01  0.18432782184E+00  0.20055991266E+01  0.36139718817E+01  0.30000000000E+01 0.  1.
</event>
<event>
 5   0  0.7495800E-05  0.9118800E+02  0.7818608E-02  0.1180000E+00
       11   -1    0    0    0    0  0.00000000000E+00  0.00000000000E+00  0.39999999673E+01  0.40000000000E+01  0.51109989000E-03 0.  1.
     -623   -1    0    0    0    0  0.00000000000E+00  0.00000000000E+00  0.12525980253E-10  0.17130000000E+03  0.17130000000E+03 0.  1.
       11    1    1    2    0    0  0.32574601083E-01 -0.16658605324E-01 -0.17392674741E+00  0.17773403854E+00  0.51109989000E-03 0.  1.
     -623    1    1    2    0    0  0.15467208166E+00  0.10367460086E+01  0.20729918804E+01  0.17131574960E+03  0.17130000000E+03 0.  1.
      622    1    1    2    0    0 -0.18724668275E+00 -0.10200874033E+01  0.21009348343E+01  0.38065163613E+01  0.30000000000E+01 0.  1.
</event>
<event>
 5   0  0.7495800E-05  0.9118800E+02  0.7818608E-02  0.1180000E+00
       11   -1    0    0    0    0  0.00000000000E+00  0.00000000000E+00  0.39999999673E+01  0.40000000000E+01  0.51109989000E-03 0.  1.
     -623   -1    0    0    0    0  0.00000000000E+00  0.00000000000E+00  0.12525980253E-10  0.17130000000E+03  0.17130000000E+03 0. -1.
       11    1    1    2    0    0  0.87920311028E-01 -0.68457360387E-01 -0.25071140461E-01  0.11421564948E+00  0.51109989000E-03 0.  1.
     -623    1    1    2    0    0 -0.23622927700E+00 -0.79436512152E+00  0.17339581542E+01  0.17131078025E+03  0.17130000000E+03 0. -1.
      622    1    1    2    0    0  0.14830896598E+00  0.86282248190E+00  0.22911129537E+01  0.38750040969E+01  0.30000000000E+01 0.  0.
</event>
<event>
 5   0  0.7495800E-05  0.9118800E+02  0.7818608E-02  0.1180000E+00
       11   -1    0    0    0    0  0.00000000000E+00  0.00000000000E+00  0.39999999673E+01  0.40000000000E+01  0.51109989000E-03 0. -1.
     -623   -1    0    0    0    0  0.00000000000E+00  0.00000000000E+00  0.12525980253E-10  0.17130000000E+03  0.17130000000E+03 0.  1.
       11    1    1    2    0    0  0.14166557174E+00 -0.96756758581E-01  0.26248491396E+00  0.31357550259E+00  0.51109989000E-03 0. -1.
     -623    1    1    2    0    0 -0.10797347923E+01 -0.71584064484E-01  0.18445879467E+01  0.17131334874E+03  0.17130000000E+03 0.  1.
      622    1    1    2    0    0  0.93806922059E+00  0.16834082306E+00  0.18929271067E+01  0.36730757583E+01  0.30000000000E+01 0. -1.
</event>
<event>
 5   0  0.7495800E-05  0.9118800E+02  0.7818608E-02  0.1180000E+00
       11   -1    0    0    0    0  0.00000000000E+00  0.00000000000E+00  0.39999999673E+01  0.40000000000E+01  0.51109989000E-03 0. -1.
     -623   -1    0    0    0    0  0.00000000000E+00  0.00000000000E+00  0.12525980253E-10  0.17130000000E+03  0.17130000000E+03 0. -1.
       11    1    1    2    0    0  0.68975898764E-01  0.28158951114E+00 -0.65141716937E-01  0.29714311687E+00  0.51109989000E-03 0. -1.
     -623    1    1    2    0    0  0.25866841543E+00 -0.22808795111E-01  0.19549542305E+01  0.17131135186E+03  0.17130000000E+03 0. -1.
      622    1    1    2    0    0 -0.32764431420E+00 -0.25878071603E+00  0.21101874538E+01  0.36915050245E+01  0.30000000000E+01 0. -1.
</event>
<event>
 5   0  0.7495800E-05  0.9118800E+02  0.7818608E-02  0.1180000E+00
       11   -1    0    0    0    0  0.00000000000E+00  0.00000000000E+00  0.39999999673E+01  0.40000000000E+01  0.51109989000E-03 0. -1.
     -623   -1    0    0    0    0  0.00000000000E+00  0.00000000000E+00  0.12525980253E-10  0.17130000000E+03  0.17130000000E+03 0. -1.
       11    1    1    2    0    0  0.12865085352E+00 -0.13791168853E-01  0.14178436515E+00  0.19194870636E+00  0.51109989000E-03 0. -1.
     -623    1    1    2    0    0 -0.15253486847E+00 -0.15067175750E+00  0.15299919243E+01  0.17130696671E+03  0.17130000000E+03 0. -1.
      622    1    1    2    0    0  0.23884014947E-01  0.16446292635E+00  0.23282236779E+01  0.38010845814E+01  0.30000000000E+01 0. -1.
</event>
<event>
 5   0  0.7495800E-05  0.9118800E+02  0.7818608E-02  0.1180000E+00
       11   -1    0    0    0    0  0.00000000000E+00  0.00000000000E+00  0.39999999673E+01  0.40000000000E+01  0.51109989000E-03 0. -1.
     -623   -1    0    0    0    0  0.00000000000E+00  0.00000000000E+00  0.12525980253E-10  0.17130000000E+03  0.17130000000E+03 0.  1.
       11    1    1    2    0    0  0.52505181579E-01  0.15039584248E+00  0.20317425178E+00  0.25817773207E+00  0.51109989000E-03 0. -1.
     -623    1    1    2    0    0 -0.63774250640E+00 -0.38024541134E+00  0.16676937679E+01  0.17130972682E+03  0.17130000000E+03 0.  1.
      622    1    1    2    0    0  0.58523732482E+00  0.22984956886E+00  0.21291319476E+01  0.37320954437E+01  0.30000000000E+01 0. -1.
</event>
<event>
 5   0  0.7495800E-05  0.9118800E+02  0.7818608E-02  0.1180000E+00
       11   -1    0    0    0    0  0.00000000000E+00  0.00000000000E+00  0.39999999673E+01  0.40000000000E+01  0.51109989000E-03 0.  1.
     -623   -1    0    0    0    0  0.00000000000E+00  0.00000000000E+00  0.12525980253E-10  0.17130000000E+03  0.17130000000E+03 0.  1.
       11    1    1    2    0    0 -0.23191969481E+00 -0.47915282911E-02 -0.77022466765E-01  0.24442263641E+00  0.51109989000E-03 0.  1.
     -623    1    1    2    0    0  0.15191111554E+00  0.55505232713E+00  0.19071591546E+01  0.17131158284E+03  0.17130000000E+03 0.  1.
      622    1    1    2    0    0  0.80008579270E-01 -0.55026079884E+00  0.21698632796E+01  0.37439945208E+01  0.30000000000E+01 0.  1.
</event>
<event>
 5   0  0.7495800E-05  0.9118800E+02  0.7818608E-02  0.1180000E+00
       11   -1    0    0    0    0  0.00000000000E+00  0.00000000000E+00  0.39999999673E+01  0.40000000000E+01  0.51109989000E-03 0. -1.
     -623   -1    0    0    0    0  0.00000000000E+00  0.00000000000E+00  0.12525980253E-10  0.17130000000E+03  0.17130000000E+03 0. -1.
       11    1    1    2    0    0  0.36514699872E+00 -0.64104109940E-02  0.14615226826E-01  0.36549595090E+00  0.51109989000E-03 0. -1.
     -623    1    1    2    0    0 -0.58880067263E+00 -0.61382523734E+00  0.20699565882E+01  0.17131461755E+03  0.17130000000E+03 0. -1.
      622    1    1    2    0    0  0.22365367391E+00  0.62023564833E+00  0.19154281523E+01  0.36198864944E+01  0.30000000000E+01 0. -1.
</event>
<event>
 5   0  0.7495800E-05  0.9118800E+02  0.7818608E-02  0.1180000E+00
       11   -1    0    0    0    0  0.00000000000E+00  0.00000000000E+00  0.39999999673E+01  0.40000000000E+01  0.51109989000E-03 0. -1.
     -623   -1    0    0    0    0  0.00000000000E+00  0.00000000000E+00  0.12525980253E-10  0.17130000000E+03  0.17130000000E+03 0.  1.
       11    1    1    2    0    0 -0.38353413233E+00  0.13080346580E+00 -0.29108994837E+00  0.49894047400E+00  0.51109989000E-03 0. -1.
     -623    1    1    2    0    0  0.34827510362E+00  0.22354266968E+00  0.25609262992E+01  0.17131964164E+03  0.17130000000E+03 0.  1.
      622    1    1    2    0    0  0.35259028706E-01 -0.35434613548E+00  0.17301636166E+01  0.34814178897E+01  0.30000000000E+01 0. -1.
</event>
<event>
 5   0  0.7495800E-05  0.9118800E+02  0.7818608E-02  0.1180000E+00
       11   -1    0    0    0    0  0.00000000000E+00  0.00000000000E+00  0.39999999673E+01  0.40000000000E+01  0.51109989000E-03 0.  1.
     -623   -1    0    0    0    0  0.00000000000E+00  0.00000000000E+00  0.12525980253E-10  0.17130000000E+03  0.17130000000E+03 0. -1.
       11    1    1    2    0    0  0.81674669112E-01  0.46698267287E-01 -0.74748742112E-01  0.12016287036E+00  0.51109989000E-03 0.  1.
     -623    1    1    2    0    0 -0.52019493798E+00  0.84870032694E+00  0.18477566102E+01  0.17131285737E+03  0.17130000000E+03 0. -1.
      622    1    1    2    0    0  0.43852026886E+00 -0.89539859423E+00  0.22269920992E+01  0.38669797619E+01  0.30000000000E+01 0.  0.
</event>
<event>
 5   0  0.7495800E-05  0.9118800E+02  0.7818608E-02  0.1180000E+00
       11   -1    0    0    0    0  0.00000000000E+00  0.00000000000E+00  0.39999999673E+01  0.40000000000E+01  0.51109989000E-03 0.  1.
     -623   -1    0    0    0    0  0.00000000000E+00  0.00000000000E+00  0.12525980253E-10  0.17130000000E+03  0.17130000000E+03 0.  1.
       11    1    1    2    0    0 -0.12979153353E+00 -0.12162413087E+00 -0.67649657385E-01  0.19030241395E+00  0.51109989000E-03 0.  1.
     -623    1    1    2    0    0 -0.25774162274E+00 -0.66159508636E-01  0.17748769084E+01  0.17130940136E+03  0.17130000000E+03 0.  1.
      622    1    1    2    0    0  0.38753315628E+00  0.18778363951E+00  0.22927727164E+01  0.38002962215E+01  0.30000000000E+01 0.  1.
</event>
<event>
 5   0  0.7495800E-05  0.9118800E+02  0.7818608E-02  0.1180000E+00
       11   -1    0    0    0    0  0.00000000000E+00  0.00000000000E+00  0.39999999673E+01  0.40000000000E+01  0.51109989000E-03 0. -1.
     -623   -1    0    0    0    0  0.00000000000E+00  0.00000000000E+00  0.12525980253E-10  0.17130000000E+03  0.17130000000E+03 0. -1.
       11    1    1    2    0    0  0.19887705559E-01  0.19262146235E+00  0.41448811161E+00  0.45749229991E+00  0.51109989000E-03 0. -1.
     -623    1    1    2    0    0  0.27267236092E+00 -0.28192542000E+00  0.17443776473E+01  0.17130933041E+03  0.17130000000E+03 0. -1.
      622    1    1    2    0    0 -0.29256006648E+00  0.89303957650E-01  0.18411342085E+01  0.35331772901E+01  0.30000000000E+01 0. -1.
</event>
<event>
 5   0  0.7495800E-05  0.9118800E+02  0.7818608E-02  0.1180000E+00
       11   -1    0    0    0    0  0.00000000000E+00  0.00000000000E+00  0.39999999673E+01  0.40000000000E+01  0.51109989000E-03 0. -1.
     -623   -1    0    0    0    0  0.00000000000E+00  0.00000000000E+00  0.12525980253E-10  0.17130000000E+03  0.17130000000E+03 0. -1.
       11    1    1    2    0    0  0.14404711435E+00 -0.13765299089E+00 -0.53433410122E-01  0.20628453067E+00  0.51109989000E-03 0. -1.
     -623    1    1    2    0    0 -0.34557728598E+00 -0.89279758313E-01  0.17668867491E+01  0.17130948393E+03  0.17130000000E+03 0. -1.
      622    1    1    2    0    0  0.20153017163E+00  0.22693274921E+00  0.22865466283E+01  0.37842315424E+01  0.30000000000E+01 0. -1.
</event>
<event>
 5   0  0.7495800E-05  0.9118800E+02  0.7818608E-02  0.1180000E+00
       11   -1    0    0    0    0  0.00000000000E+00  0.00000000000E+00  0.39999999673E+01  0.40000000000E+01  0.51109989000E-03 0.  1.
     -623   -1    0    0    0    0  0.00000000000E+00  0.00000000000E+00  0.12525980253E-10  0.17130000000E+03  0.17130000000E+03 0.  1.
       11    1    1    2    0    0 -0.91884343609E-01  0.34812927378E+00  0.33683973641E+00  0.49304968624E+00  0.51109989000E-03 0.  1.
     -623    1    1    2    0    0 -0.31028685425E-01 -0.39383688246E+00  0.18724489207E+01  0.17131068891E+03  0.17130000000E+03 0.  1.
      622    1    1    2    0    0  0.12291302903E+00  0.45707608684E-01  0.17907113103E+01  0.34962614026E+01  0.30000000000E+01 0.  1.
</event>
<event>
 5   0  0.7495800E-05  0.9118800E+02  0.7818608E-02  0.1180000E+00
       11   -1    0    0    0    0  0.00000000000E+00  0.00000000000E+00  0.39999999673E+01  0.40000000000E+01  0.51109989000E-03 0. -1.
     -623   -1    0    0    0    0  0.00000000000E+00  0.00000000000E+00  0.12525980253E-10  0.17130000000E+03  0.17130000000E+03 0.  1.
       11    1    1    2    0    0 -0.42341176620E+00  0.42963023520E-01 -0.17933124101E+00  0.46182604990E+00  0.51109989000E-03 0. -1.
     -623    1    1    2    0    0  0.87488909394E+00 -0.18372342742E+00  0.24017623734E+01  0.17131916894E+03  0.17130000000E+03 0.  1.
      622    1    1    2    0    0 -0.45147732774E+00  0.14076040390E+00  0.17775688349E+01  0.35190050059E+01  0.30000000000E+01 0. -1.
</event>
<event>
 5   0  0.7495800E-05  0.9118800E+02  0.7818608E-02  0.1180000E+00
       11   -1    0    0    0    0  0.00000000000E+00  0.00000000000E+00  0.39999999673E+01  0.40000000000E+01  0.51109989000E-03 0. -1.
     -623   -1    0    0    0    0  0.00000000000E+00  0.00000000000E+00  0.12525980253E-10  0.17130000000E+03  0.17130000000E+03 0.  1.
       11    1    1    2    0    0 -0.75134987777E+00 -0.21143727205E+00  0.15804880859E+00  0.79637431271E+00  0.51109989000E-03 0. -1.
     -623    1    1    2    0    0  0.40076779087E+00  0.88062789840E+00  0.31408784296E+01  0.17133152435E+03  0.17130000000E+03 0.  1.
      622    1    1    2    0    0  0.35058208690E+00 -0.66919062635E+00  0.70107272917E+00  0.31721013328E+01  0.30000000000E+01 0.  0.
</event>
<event>
 5   0  0.7495800E-05  0.9118800E+02  0.7818608E-02  0.1180000E+00
       11   -1    0    0    0    0  0.00000000000E+00  0.00000000000E+00  0.39999999673E+01  0.40000000000E+01  0.51109989000E-03 0.  1.
     -623   -1    0    0    0    0  0.00000000000E+00  0.00000000000E+00  0.12525980253E-10  0.17130000000E+03  0.17130000000E+03 0.  1.
       11    1    1    2    0    0  0.10240064323E+00 -0.16425846105E+00 -0.99323882748E-02  0.19381859384E+00  0.51109989000E-03 0.  1.
     -623    1    1    2    0    0 -0.70120131242E+00  0.91622877314E+00  0.18996122366E+01  0.17131441762E+03  0.17130000000E+03 0.  1.
      622    1    1    2    0    0  0.59880066919E+00 -0.75197031210E+00  0.21103201190E+01  0.37917637844E+01  0.30000000000E+01 0.  1.
</event>
<event>
 5   0  0.7495800E-05  0.9118800E+02  0.7818608E-02  0.1180000E+00
       11   -1    0    0    0    0  0.00000000000E+00  0.00000000000E+00  0.39999999673E+01  0.40000000000E+01  0.51109989000E-03 0.  1.
     -623   -1    0    0    0    0  0.00000000000E+00  0.00000000000E+00  0.12525980253E-10  0.17130000000E+03  0.17130000000E+03 0. -1.
       11    1    1    2    0    0  0.43303709382E+00  0.17290729260E+00  0.24152199346E+00  0.52512016815E+00  0.51109989000E-03 0.  1.
     -623    1    1    2    0    0 -0.11742094847E+01  0.26995572063E+00  0.22768919059E+01  0.17131936808E+03  0.17130000000E+03 0. -1.
      622    1    1    2    0    0  0.74117239093E+00 -0.44286301323E+00  0.14815860680E+01  0.34555117477E+01  0.30000000000E+01 0.  1.
</event>
<event>
 5   0  0.7495800E-05  0.9118800E+02  0.7818608E-02  0.1180000E+00
       11   -1    0    0    0    0  0.00000000000E+00  0.00000000000E+00  0.39999999673E+01  0.40000000000E+01  0.51109989000E-03 0. -1.
     -623   -1    0    0    0    0  0.00000000000E+00  0.00000000000E+00  0.12525980253E-10  0.17130000000E+03  0.17130000000E+03 0.  1.
       11    1    1    2    0    0  0.17430124779E+00  0.20757443415E+00 -0.15492583669E+00  0.31220241317E+00  0.51109989000E-03 0. -1.
     -623    1    1    2    0    0  0.29024592161E+00 -0.64196915699E+00  0.21333155771E+01  0.17131473201E+03  0.17130000000E+03 0.  1.
      622    1    1    2    0    0 -0.46454716941E+00  0.43439472284E+00  0.20216102270E+01  0.36730655804E+01  0.30000000000E+01 0. -1.
</event>
<event>
 5   0  0.7495800E-05  0.9118800E+02  0.7818608E-02  0.1180000E+00
       11   -1    0    0    0    0  0.00000000000E+00  0.00000000000E+00  0.39999999673E+01  0.40000000000E+01  0.51109989000E-03 0.  1.
     -623   -1    0    0    0    0  0.00000000000E+00  0.00000000000E+00  0.12525980253E-10  0.17130000000E+03  0.17130000000E+03 0.  1.
       11    1    1    2    0    0  0.46486343787E-01 -0.25344150546E-01 -0.17577341111E+00  0.18357521456E+00  0.51109989000E-03 0.  1.
     -623    1    1    2    0    0 -0.11955687569E+00 -0.58393343819E+00  0.19177141278E+01  0.17131177105E+03  0.17130000000E+03 0.  1.
      622    1    1    2    0    0  0.73070531903E-01  0.60927758873E+00  0.22580592507E+01  0.38046537375E+01  0.30000000000E+01 0.  1.
</event>
<event>
 5   0  0.7495800E-05  0.9118800E+02  0.7818608E-02  0.1180000E+00
       11   -1    0    0    0    0  0.00000000000E+00  0.00000000000E+00  0.39999999673E+01  0.40000000000E+01  0.51109989000E-03 0.  1.
     -623   -1    0    0    0    0  0.00000000000E+00  0.00000000000E+00  0.12525980253E-10  0.17130000000E+03  0.17130000000E+03 0. -1.
       11    1    1    2    0    0  0.32247473501E+00 -0.44366839575E+00  0.53362303620E-01  0.55107113586E+00  0.51109989000E-03 0.  1.
     -623    1    1    2    0    0 -0.10323963384E+01 -0.49317696244E+00  0.27930610089E+01  0.17132658946E+03  0.17130000000E+03 0. -1.
      622    1    1    2    0    0  0.70992160337E+00  0.93684535819E+00  0.11535766549E+01  0.34223394055E+01  0.30000000000E+01 0.  1.
</event>
<event>
 5   0  0.7495800E-05  0.9118800E+02  0.7818608E-02  0.1180000E+00
       11   -1    0    0    0    0  0.00000000000E+00  0.00000000000E+00  0.39999999673E+01  0.40000000000E+01  0.51109989000E-03 0.  1.
     -623   -1    0    0    0    0  0.00000000000E+00  0.00000000000E+00  0.12525980253E-10  0.17130000000E+03  0.17130000000E+03 0.  1.
       11    1    1    2    0    0  0.46386149544E+00 -0.58288294959E+00  0.10127601997E+00  0.75178262372E+00  0.51109989000E-03 0.  1.
     -623    1    1    2    0    0 -0.68861568777E+00  0.14307739851E+01  0.31600226979E+01  0.17133650238E+03  0.17130000000E+03 0.  1.
      622    1    1    2    0    0  0.22475419233E+00 -0.84789103550E+00  0.73870124951E+00  0.32117149922E+01  0.30000000000E+01 0.  0.
</event>
<event>
 5   0  0.7495800E-05  0.9118800E+02  0.7818608E-02  0.1180000E+00
       11   -1    0    0    0    0  0.00000000000E+00  0.00000000000E+00  0.39999999673E+01  0.40000000000E+01  0.51109989000E-03 0.  1.
     -623   -1    0    0    0    0  0.00000000000E+00  0.00000000000E+00  0.12525980253E-10  0.17130000000E+03  0.17130000000E+03 0.  1.
       11    1    1    2    0    0 -0.41296241791E+00 -0.30891559815E+00  0.19428162928E+00  0.55110109606E+00  0.51109989000E-03 0.  1.
     -623    1    1    2    0    0 -0.70429472047E-01  0.90538647754E+00  0.23292493575E+01  0.17131824213E+03  0.17130000000E+03 0.  1.
      622    1    1    2    0    0  0.48339188996E+00 -0.59647087939E+00  0.14764689805E+01  0.34306567709E+01  0.30000000000E+01 0.  1.
</event>
<event>
 5   0  0.7495800E-05  0.9118800E+02  0.7818608E-02  0.1180000E+00
       11   -1    0    0    0    0  0.00000000000E+00  0.00000000000E+00  0.39999999673E+01  0.40000000000E+01  0.51109989000E-03 0.  1.
     -623   -1    0    0    0    0  0.00000000000E+00  0.00000000000E+00  0.12525980253E-10  0.17130000000E+03  0.17130000000E+03 0. -1.
       11    1    1    2    0    0  0.61870997564E-01  0.39662045045E-01  0.17479202189E+00  0.18961437259E+00  0.51109989000E-03 0.  1.
     -623    1    1    2    0    0  0.43190095329E-01 -0.27421542101E+00  0.15011614043E+01  0.17130680239E+03  0.17130000000E+03 0. -1.
      622    1    1    2    0    0 -0.10506109289E+00  0.23455337596E+00  0.23240465412E+01  0.38035832375E+01  0.30000000000E+01 0.  1.
</event>
<event>
 5   0  0.7495800E-05  0.9118800E+02  0.7818608E-02  0.1180000E+00
       11   -1    0    0    0    0  0.00000000000E+00  0.00000000000E+00  0.39999999673E+01  0.40000000000E+01  0.51109989000E-03 0. -1.
     -623   -1    0    0    0    0  0.00000000000E+00  0.00000000000E+00  0.12525980253E-10  0.17130000000E+03  0.17130000000E+03 0.  1.
       11    1    1    2    0    0  0.24969507538E+00  0.48035829133E+00 -0.30782371618E-01  0.54225412340E+00  0.51109989000E-03 0. -1.
     -623    1    1    2    0    0 -0.57593232850E+00 -0.10594809921E+00  0.24232130446E+01  0.17131813939E+03  0.17130000000E+03 0.  1.
      622    1    1    2    0    0  0.32623725311E+00 -0.37441019212E+00  0.16075692944E+01  0.34396064853E+01  0.30000000000E+01 0. -1.
</event>
<event>
 5   0  0.7495800E-05  0.9118800E+02  0.7818608E-02  0.1180000E+00
       11   -1    0    0    0    0  0.00000000000E+00  0.00000000000E+00  0.39999999673E+01  0.40000000000E+01  0.51109989000E-03 0.  1.
     -623   -1    0    0    0    0  0.00000000000E+00  0.00000000000E+00  0.12525980253E-10  0.17130000000E+03  0.17130000000E+03 0.  1.
       11    1    1    2    0    0 -0.50259127384E-02  0.32391650394E+00  0.10084545553E+00  0.33928929905E+00  0.51109989000E-03 0.  1.
     -623    1    1    2    0    0  0.80817803994E+00  0.78829801796E+00  0.23586982638E+01  0.17131995804E+03  0.17130000000E+03 0.  1.
      622    1    1    2    0    0 -0.80315212720E+00 -0.11122145219E+01  0.15404562481E+01  0.36407526604E+01  0.30000000000E+01 0.  1.
</event>
<event>
 5   0  0.7495800E-05  0.9118800E+02  0.7818608E-02  0.1180000E+00
       11   -1    0    0    0    0  0.00000000000E+00  0.00000000000E+00  0.39999999673E+01  0.40000000000E+01  0.51109989000E-03 0.  1.
     -623   -1    0    0    0    0  0.00000000000E+00  0.00000000000E+00  0.12525980253E-10  0.17130000000E+03  0.17130000000E+03 0. -1.
       11    1    1    2    0    0  0.16775266177E+00  0.16021489576E-01  0.45153411856E+00  0.48195535592E+00  0.51109989000E-03 0.  1.
     -623    1    1    2    0    0 -0.95330163340E-01  0.18082295474E+00  0.17402421225E+01  0.17130896132E+03  0.17130000000E+03 0. -1.
      622    1    1    2    0    0 -0.72422498431E-01 -0.19684444432E+00  0.18082237264E+01  0.35090833273E+01  0.30000000000E+01 0.  1.
</event>
<event>
 5   0  0.7495800E-05  0.9118800E+02  0.7818608E-02  0.1180000E+00
       11   -1    0    0    0    0  0.00000000000E+00  0.00000000000E+00  0.39999999673E+01  0.40000000000E+01  0.51109989000E-03 0.  1.
     -623   -1    0    0    0    0  0.00000000000E+00  0.00000000000E+00  0.12525980253E-10  0.17130000000E+03  0.17130000000E+03 0.  1.
       11    1    1    2    0    0 -0.53173319605E+00  0.12399812156E+00  0.46101056056E+00  0.71459549684E+00  0.51109989000E-03 0.  1.
     -623    1    1    2    0    0  0.78893472429E+00 -0.62937665881E+00  0.23794252832E+01  0.17131949742E+03  0.17130000000E+03 0.  1.
      622    1    1    2    0    0 -0.25720152824E+00  0.50537853725E+00  0.11595641236E+01  0.32659070790E+01  0.30000000000E+01 0.  1.
</event>
<event>
 5   0  0.7495800E-05  0.9118800E+02  0.7818608E-02  0.1180000E+00
       11   -1    0    0    0    0  0.00000000000E+00  0.00000000000E+00  0.39999999673E+01  0.40000000000E+01  0.51109989000E-03 0. -1.
     -623   -1    0    0    0    0  0.00000000000E+00  0.00000000000E+00  0.12525980253E-10  0.17130000000E+03  0.17130000000E+03 0. -1.
       11    1    1    2    0    0  0.75161559762E-01  0.10542885278E-01  0.34313919971E-01  0.83295370956E-01  0.51109989000E-03 0. -1.
     -623    1    1    2    0    0 -0.34241692036E+00 -0.52069083699E+00  0.15270874214E+01  0.17130794017E+03  0.17130000000E+03 0. -1.
      622    1    1    2    0    0  0.26725536060E+00  0.51014795172E+00  0.24385986260E+01  0.39087644620E+01  0.30000000000E+01 0. -1.
</event>
<event>
 5   0  0.7495800E-05  0.9118800E+02  0.7818608E-02  0.1180000E+00
       11   -1    0    0    0    0  0.00000000000E+00  0.00000000000E+00  0.39999999673E+01  0.40000000000E+01  0.51109989000E-03 0.  1.
     -623   -1    0    0    0    0  0.00000000000E+00  0.00000000000E+00  0.12525980253E-10  0.17130000000E+03  0.17130000000E+03 0. -1.
       11    1    1    2    0    0  0.15342371403E-01  0.23512446021E+00 -0.63962305543E-01  0.24415228424E+00  0.51109989000E-03 0.  1.
     -623    1    1    2    0    0  0.49138585743E-01 -0.18025662057E+00  0.18221417646E+01  0.17130979280E+03  0.17130000000E+03 0. -1.
      622    1    1    2    0    0 -0.64480957147E-01 -0.54867839636E-01  0.22418205083E+01  0.37460549202E+01  0.30000000000E+01 0.  1.
</event>
<event>
 5   0  0.7495800E-05  0.9118800E+02  0.7818608E-02  0.1180000E+00
       11   -1    0    0    0    0  0.00000000000E+00  0.00000000000E+00  0.39999999673E+01  0.40000000000E+01  0.51109989000E-03 0.  1.
     -623   -1    0    0    0    0  0.00000000000E+00  0.00000000000E+00  0.12525980253E-10  0.17130000000E+03  0.17130000000E+03 0. -1.
       11    1    1    2    0    0 -0.16263077737E-01 -0.10912552778E+00  0.88096324292E-01  0.14118814429E+00  0.51109989000E-03 0.  1.
     -623    1    1    2    0    0  0.92296654214E-01  0.14922788997E+00  0.14969687006E+01  0.17130663064E+03  0.17130000000E+03 0. -1.
      622    1    1    2    0    0 -0.76033576477E-01 -0.40102362189E-01  0.24149349425E+01  0.38521812108E+01  0.30000000000E+01 0.  1.
</event>
<event>
 5   0  0.7495800E-05  0.9118800E+02  0.7818608E-02  0.1180000E+00
       11   -1    0    0    0    0  0.00000000000E+00  0.00000000000E+00  0.39999999673E+01  0.40000000000E+01  0.51109989000E-03 0.  1.
     -623   -1    0    0    0    0  0.00000000000E+00  0.00000000000E+00  0.12525980253E-10  0.17130000000E+03  0.17130000000E+03 0. -1.
       11    1    1    2    0    0  0.11211981511E+00 -0.14452125311E+00 -0.35830061427E-01  0.18639018232E+00  0.51109989000E-03 0.  1.
     -623    1    1    2    0    0  0.88232831346E+00  0.22603482984E+00  0.19270179232E+01  0.17131325983E+03  0.17130000000E+03 0. -1.
      622    1    1    2    0    0 -0.99444812857E+00 -0.81513576729E-01  0.21088121056E+01  0.38003499892E+01  0.30000000000E+01 0.  0.
</event>
<event>
 5   0  0.7495800E-05  0.9118800E+02  0.7818608E-02  0.1180000E+00
       11   -1    0    0    0    0  0.00000000000E+00  0.00000000000E+00  0.39999999673E+01  0.40000000000E+01  0.51109989000E-03 0. -1.
     -623   -1    0    0    0    0  0.00000000000E+00  0.00000000000E+00  0.12525980253E-10  0.17130000000E+03  0.17130000000E+03 0.  1.
       11    1    1    2    0    0  0.24085208483E+00  0.65004782301E-01 -0.22107398001E+00  0.33333063818E+00  0.51109989000E-03 0. -1.
     -623    1    1    2    0    0  0.14393974132E+00  0.69901581547E-01  0.21774591469E+01  0.17131391343E+03  0.17130000000E+03 0.  1.
      622    1    1    2    0    0 -0.38479182615E+00 -0.13490636385E+00  0.20436148005E+01  0.36527559362E+01  0.30000000000E+01 0. -1.
</event>
<event>
 5   0  0.7495800E-05  0.9118800E+02  0.7818608E-02  0.1180000E+00
       11   -1    0    0    0    0  0.00000000000E+00  0.00000000000E+00  0.39999999673E+01  0.40000000000E+01  0.51109989000E-03 0. -1.
     -623   -1    0    0    0    0  0.00000000000E+00  0.00000000000E+00  0.12525980253E-10  0.17130000000E+03  0.17130000000E+03 0.  1.
       11    1    1    2    0    0  0.82734521126E-01 -0.45653945274E+00  0.32568951256E+00  0.56687493569E+00  0.51109989000E-03 0. -1.
     -623    1    1    2    0    0  0.93053476429E+00  0.66921598404E+00  0.24208905374E+01  0.17132093992E+03  0.17130000000E+03 0.  1.
      622    1    1    2    0    0 -0.10132692854E+01 -0.21267653130E+00  0.12534199174E+01  0.34121851417E+01  0.30000000000E+01 0. -1.
</event>
<event>
 5   0  0.7495800E-05  0.9118800E+02  0.7818608E-02  0.1180000E+00
       11   -1    0    0    0    0  0.00000000000E+00  0.00000000000E+00  0.39999999673E+01  0.40000000000E+01  0.51109989000E-03 0. -1.
     -623   -1    0    0    0    0  0.00000000000E+00  0.00000000000E+00  0.12525980253E-10  0.17130000000E+03  0.17130000000E+03 0. -1.
       11    1    1    2    0    0 -0.18131221500E+00 -0.17798894914E+00  0.24581117928E+00  0.35352168591E+00  0.51109989000E-03 0. -1.
     -623    1    1    2    0    0 -0.47449329895E+00  0.41613059066E+00  0.18226250514E+01  0.17131085859E+03  0.17130000000E+03 0. -1.
      622    1    1    2    0    0  0.65580551395E+00 -0.23814164152E+00  0.19315637367E+01  0.36356197247E+01  0.30000000000E+01 0. -1.
</event>
<event>
 5   0  0.7495800E-05  0.9118800E+02  0.7818608E-02  0.1180000E+00
       11   -1    0    0    0    0  0.00000000000E+00  0.00000000000E+00  0.39999999673E+01  0.40000000000E+01  0.51109989000E-03 0. -1.
     -623   -1    0    0    0    0  0.00000000000E+00  0.00000000000E+00  0.12525980253E-10  0.17130000000E+03  0.17130000000E+03 0.  1.
       11    1    1    2    0    0 -0.92127636212E-01  0.15200634633E+00  0.12592588015E+00  0.21783254851E+00  0.51109989000E-03 0. -1.
     -623    1    1    2    0    0  0.83393932987E+00  0.25969721933E-01  0.17194749321E+01  0.17131066144E+03  0.17130000000E+03 0.  1.
      622    1    1    2    0    0 -0.74181169366E+00 -0.17797606826E+00  0.21545991551E+01  0.37715060107E+01  0.30000000000E+01 0. -1.
</event>
<event>
 5   0  0.7495800E-05  0.9118800E+02  0.7818608E-02  0.1180000E+00
       11   -1    0    0    0    0  0.00000000000E+00  0.00000000000E+00  0.39999999673E+01  0.40000000000E+01  0.51109989000E-03 0. -1.
     -623   -1    0    0    0    0  0.00000000000E+00  0.00000000000E+00  0.12525980253E-10  0.17130000000E+03  0.17130000000E+03 0. -1.
       11    1    1    2    0    0  0.54605023300E+00  0.87226796271E-01  0.63825099040E-01  0.55664465814E+00  0.51109989000E-03 0. -1.
     -623    1    1    2    0    0 -0.34650775089E+00 -0.10713279318E+01  0.26386491776E+01  0.17132402132E+03  0.17130000000E+03 0. -1.
      622    1    1    2    0    0 -0.19954248211E+00  0.98410113553E+00  0.12975256908E+01  0.34193340236E+01  0.30000000000E+01 0. -1.
</event>
<event>
 5   0  0.7495800E-05  0.9118800E+02  0.7818608E-02  0.1180000E+00
       11   -1    0    0    0    0  0.00000000000E+00  0.00000000000E+00  0.39999999673E+01  0.40000000000E+01  0.51109989000E-03 0. -1.
     -623   -1    0    0    0    0  0.00000000000E+00  0.00000000000E+00  0.12525980253E-10  0.17130000000E+03  0.17130000000E+03 0.  1.
       11    1    1    2    0    0 -0.11795638461E+00 -0.22873788050E+00 -0.33998624598E-01  0.25959756228E+00  0.51109989000E-03 0. -1.
     -623    1    1    2    0    0  0.21583600881E+00  0.42656796567E+00  0.18285495989E+01  0.17131042624E+03  0.17130000000E+03 0.  1.
      622    1    1    2    0    0 -0.97879624203E-01 -0.19783008517E+00  0.22054489930E+01  0.37299761962E+01  0.30000000000E+01 0. -1.
</event>
<event>
 5   0  0.7495800E-05  0.9118800E+02  0.7818608E-02  0.1180000E+00
       11   -1    0    0    0    0  0.00000000000E+00  0.00000000000E+00  0.39999999673E+01  0.40000000000E+01  0.51109989000E-03 0. -1.
     -623   -1    0    0    0    0  0.00000000000E+00  0.00000000000E+00  0.12525980253E-10  0.17130000000E+03  0.17130000000E+03 0.  1.
       11    1    1    2    0    0 -0.25477542632E+00 -0.11755355893E+00  0.14300859705E+00  0.31493027344E+00  0.51109989000E-03 0. -1.
     -623    1    1    2    0    0 -0.67199822022E+00 -0.55120914727E-02  0.19559851618E+01  0.17131248492E+03  0.17130000000E+03 0.  1.
      622    1    1    2    0    0  0.92677364654E+00  0.12306565041E+00  0.19010062085E+01  0.36725848052E+01  0.30000000000E+01 0. -1.
</event>
<event>
 5   0  0.7495800E-05  0.9118800E+02  0.7818608E-02  0.1180000E+00
       11   -1    0    0    0    0  0.00000000000E+00  0.00000000000E+00  0.39999999673E+01  0.40000000000E+01  0.51109989000E-03 0. -1.
     -623   -1    0    0    0    0  0.00000000000E+00  0.00000000000E+00  0.12525980253E-10  0.17130000000E+03  0.17130000000E+03 0. -1.
       11    1    1    2    0    0 -0.96724286733E-01  0.31717704891E+00 -0.29272603018E-01  0.33288739014E+00  0.51109989000E-03 0. -1.
     -623    1    1    2    0    0 -0.23283689547E+00  0.19552559828E+00  0.20327866803E+01  0.17131233074E+03  0.17130000000E+03 0. -1.
      622    1    1    2    0    0  0.32956118220E+00 -0.51270264720E+00  0.19964858901E+01  0.36547818658E+01  0.30000000000E+01 0. -1.
</event>
<event>
 5   0  0.7495800E-05  0.9118800E+02  0.7818608E-02  0.1180000E+00
       11   -1    0    0    0    0  0.00000000000E+00  0.00000000000E+00  0.39999999673E+01  0.40000000000E+01  0.51109989000E-03 0.  1.
     -623   -1    0    0    0    0  0.00000000000E+00  0.00000000000E+00  0.12525980253E-10  0.17130000000E+03  0.17130000000E+03 0. -1.
       11    1    1    2    0    0 -0.72846506993E-01 -0.17944502869E+00  0.15151718620E+00  0.24589601631E+00  0.51109989000E-03 0.  1.
     -623    1    1    2    0    0 -0.16649823480E-01 -0.32902982251E+00  0.16659124512E+01  0.17130841720E+03  0.17130000000E+03 0. -1.
      622    1    1    2    0    0  0.89496330473E-01  0.50847485120E+00  0.21825703300E+01  0.37456867879E+01  0.30000000000E+01 0.  1.
</event>
<event>
 5   0  0.7495800E-05  0.9118800E+02  0.7818608E-02  0.1180000E+00
       11   -1    0    0    0    0  0.00000000000E+00  0.00000000000E+00  0.39999999673E+01  0.40000000000E+01  0.51109989000E-03 0.  1.
     -623   -1    0    0    0    0  0.00000000000E+00  0.00000000000E+00  0.12525980253E-10  0.17130000000E+03  0.17130000000E+03 0. -1.
       11    1    1    2    0    0  0.10113871185E+00  0.16139221767E+00  0.46095062079E-01  0.19596301419E+00  0.51109989000E-03 0.  1.
     -623    1    1    2    0    0 -0.95871624940E+00 -0.45679371054E+00  0.18209519736E+01  0.17131296992E+03  0.17130000000E+03 0. -1.
      622    1    1    2    0    0  0.85757753755E+00  0.29540149287E+00  0.21329529317E+01  0.37910670640E+01  0.30000000000E+01 0.  1.
</event>
<event>
 5   0  0.7495800E-05  0.9118800E+02  0.7818608E-02  0.1180000E+00
       11   -1    0    0    0    0  0.00000000000E+00  0.00000000000E+00  0.39999999673E+01  0.40000000000E+01  0.51109989000E-03 0. -1.
     -623   -1    0    0    0    0  0.00000000000E+00  0.00000000000E+00  0.12525980253E-10  0.17130000000E+03  0.17130000000E+03 0.  1.
       11    1    1    2    0    0 -0.30003465442E-01  0.29435430352E+00 -0.30112536791E+00  0.42216277947E+00  0.51109989000E-03 0. -1.
     -623    1    1    2    0    0 -0.34665965208E-01  0.81776681049E+00  0.27558422372E+01  0.17132412151E+03  0.17130000000E+03 0.  1.
      622    1    1    2    0    0  0.64669430650E-01 -0.11121211140E+01  0.15452830981E+01  0.35537157119E+01  0.30000000000E+01 0.  0.
</event>
<event>
 5   0  0.7495800E-05  0.9118800E+02  0.7818608E-02  0.1180000E+00
       11   -1    0    0    0    0  0.00000000000E+00  0.00000000000E+00  0.39999999673E+01  0.40000000000E+01  0.51109989000E-03 0.  1.
     -623   -1    0    0    0    0  0.00000000000E+00  0.00000000000E+00  0.12525980253E-10  0.17130000000E+03  0.17130000000E+03 0.  1.
       11    1    1    2    0    0  0.53381036429E-01  0.13716360236E+00 -0.45749212679E+00  0.48058578440E+00  0.51109989000E-03 0.  1.
     -623    1    1    2    0    0 -0.14546711381E-02 -0.33336571357E+00  0.26695200673E+01  0.17132112384E+03  0.17130000000E+03 0.  1.
      622    1    1    2    0    0 -0.51926365290E-01  0.19620211121E+00  0.17879720268E+01  0.34982903803E+01  0.30000000000E+01 0.  1.
</event>
<event>
 5   0  0.7495800E-05  0.9118800E+02  0.7818608E-02  0.1180000E+00
       11   -1    0    0    0    0  0.00000000000E+00  0.00000000000E+00  0.39999999673E+01  0.40000000000E+01  0.51109989000E-03 0. -1.
     -623   -1    0    0    0    0  0.00000000000E+00  0.00000000000E+00  0.12525980253E-10  0.17130000000E+03  0.17130000000E+03 0.  1.
       11    1    1    2    0    0  0.17951965861E+00 -0.18369776787E+00  0.48930492801E-01  0.26147013615E+00  0.51109989000E-03 0. -1.
     -623    1    1    2    0    0 -0.73690567059E+00  0.93991811499E+00  0.19561628569E+01  0.17131533221E+03  0.17130000000E+03 0. -1.
      622    1    1    2    0    0  0.55738601198E+00 -0.75622034712E+00  0.19949066176E+01  0.37231976570E+01  0.30000000000E+01 0. -1.
</event>
<event>
 5   0  0.7495800E-05  0.9118800E+02  0.7818608E-02  0.1180000E+00
       11   -1    0    0    0    0  0.00000000000E+00  0.00000000000E+00  0.39999999673E+01  0.40000000000E+01  0.51109989000E-03 0. -1.
     -623   -1    0    0    0    0  0.00000000000E+00  0.00000000000E+00  0.12525980253E-10  0.17130000000E+03  0.17130000000E+03 0. -1.
       11    1    1    2    0    0 -0.11648624691E+00 -0.89617176778E-02 -0.17902957112E+00  0.21377840551E+00  0.51109989000E-03 0. -1.
     -623    1    1    2    0    0 -0.76717169352E+00  0.13701654635E+01  0.25982812647E+01  0.17132690090E+03  0.17130000000E+03 0. -1.
      622    1    1    2    0    0  0.88365794043E+00 -0.13612037459E+01  0.15807482738E+01  0.37593206964E+01  0.30000000000E+01 0. -1.
</event>
<event>
 5   0  0.7495800E-05  0.9118800E+02  0.7818608E-02  0.1180000E+00
       11   -1    0    0    0    0  0.00000000000E+00  0.00000000000E+00  0.39999999673E+01  0.40000000000E+01  0.51109989000E-03 0.  1.
     -623   -1    0    0    0    0  0.00000000000E+00  0.00000000000E+00  0.12525980253E-10  0.17130000000E+03  0.17130000000E+03 0. -1.
       11    1    1    2    0    0 -0.33992907130E-01  0.32588764010E+00  0.10734754300E+00  0.34479273182E+00  0.51109989000E-03 0.  1.
     -623    1    1    2    0    0  0.10464613204E+00 -0.11757481635E+00  0.18335287320E+01  0.17130988472E+03  0.17130000000E+03 0. -1.
      622    1    1    2    0    0 -0.70653224907E-01 -0.20831282375E+00  0.20591236924E+01  0.36453225497E+01  0.30000000000E+01 0.  1.
</event>
<event>
 5   0  0.7495800E-05  0.9118800E+02  0.7818608E-02  0.1180000E+00
       11   -1    0    0    0    0  0.00000000000E+00  0.00000000000E+00  0.39999999673E+01  0.40000000000E+01  0.51109989000E-03 0. -1.
     -623   -1    0    0    0    0  0.00000000000E+00  0.00000000000E+00  0.12525980253E-10  0.17130000000E+03  0.17130000000E+03 0.  1.
       11    1    1    2    0    0 -0.82505195403E-01 -0.34394762392E-01 -0.23080101595E+00  0.24750651938E+00  0.51109989000E-03 0. -1.
     -623    1    1    2    0    0  0.50750614134E-01 -0.45549215226E+00  0.20528517889E+01  0.17131291326E+03  0.17130000000E+03 0.  1.
      622    1    1    2    0    0  0.31754581269E-01  0.48988691465E+00  0.21779491944E+01  0.37395802219E+01  0.30000000000E+01 0. -1.
</event>
<event>
 5   0  0.7495800E-05  0.9118800E+02  0.7818608E-02  0.1180000E+00
       11   -1    0    0    0    0  0.00000000000E+00  0.00000000000E+00  0.39999999673E+01  0.40000000000E+01  0.51109989000E-03 0. -1.
     -623   -1    0    0    0    0  0.00000000000E+00  0.00000000000E+00  0.12525980253E-10  0.17130000000E+03  0.17130000000E+03 0. -1.
       11    1    1    2    0    0 -0.73442138117E-01 -0.66864184556E-01 -0.25679294276E+00  0.27533151563E+00  0.51109989000E-03 0. -1.
     -623    1    1    2    0    0 -0.32093149235E-01 -0.85525575443E+00  0.22864053719E+01  0.17131739591E+03  0.17130000000E+03 0. -1.
      622    1    1    2    0    0  0.10553528735E+00  0.92211993899E+00  0.19703875382E+01  0.37072725729E+01  0.30000000000E+01 0. -1.
</event>
<event>
 5   0  0.7495800E-05  0.9118800E+02  0.7818608E-02  0.1180000E+00
       11   -1    0    0    0    0  0.00000000000E+00  0.00000000000E+00  0.39999999673E+01  0.40000000000E+01  0.51109989000E-03 0.  1.
     -623   -1    0    0    0    0  0.00000000000E+00  0.00000000000E+00  0.12525980253E-10  0.17130000000E+03  0.17130000000E+03 0.  1.
       11    1    1    2    0    0  0.39841648709E+00 -0.33674950450E+00  0.77106845355E-02  0.52172372176E+00  0.51109989000E-03 0.  1.
     -623    1    1    2    0    0 -0.24532985351E+00 -0.93302951346E-01  0.23252249250E+01  0.17131598163E+03  0.17130000000E+03 0.  1.
      622    1    1    2    0    0 -0.15308663358E+00  0.43005245584E+00  0.16670643579E+01  0.34622946445E+01  0.30000000000E+01 0.  1.
</event>
<event>
 5   0  0.7495800E-05  0.9118800E+02  0.7818608E-02  0.1180000E+00
       11   -1    0    0    0    0  0.00000000000E+00  0.00000000000E+00  0.39999999673E+01  0.40000000000E+01  0.51109989000E-03 0.  1.
     -623   -1    0    0    0    0  0.00000000000E+00  0.00000000000E+00  0.12525980253E-10  0.17130000000E+03  0.17130000000E+03 0. -1.
       11    1    1    2    0    0 -0.11163201750E+00  0.54488986310E-01 -0.23660114956E-01  0.12645481099E+00  0.51109989000E-03 0.  1.
     -623    1    1    2    0    0 -0.55075561654E+00 -0.99702043971E+00  0.18864597309E+01  0.17131417370E+03  0.17130000000E+03 0. -1.
      622    1    1    2    0    0  0.66238763404E+00  0.94253145340E+00  0.21372003515E+01  0.38593714852E+01  0.30000000000E+01 0.  1.
</event>
<event>
 5   0  0.7495800E-05  0.9118800E+02  0.7818608E-02  0.1180000E+00
       11   -1    0    0    0    0  0.00000000000E+00  0.00000000000E+00  0.39999999673E+01  0.40000000000E+01  0.51109989000E-03 0. -1.
     -623   -1    0    0    0    0  0.00000000000E+00  0.00000000000E+00  0.12525980253E-10  0.17130000000E+03  0.17130000000E+03 0. -1.
       11    1    1    2    0    0 -0.88415880243E-01 -0.49164808555E+00  0.52457499697E+00  0.72437172540E+00  0.51109989000E-03 0. -1.
     -623    1    1    2    0    0  0.28117178591E+00  0.13693869933E+01  0.26061883607E+01  0.17132552786E+03  0.17130000000E+03 0. -1.
      622    1    1    2    0    0 -0.19275590567E+00 -0.87773890775E+00  0.86923660972E+00  0.32501004158E+01  0.30000000000E+01 0.  0.
</event>
<event>
 5   0  0.7495800E-05  0.9118800E+02  0.7818608E-02  0.1180000E+00
       11   -1    0    0    0    0  0.00000000000E+00  0.00000000000E+00  0.39999999673E+01  0.40000000000E+01  0.51109989000E-03 0.  1.
     -623   -1    0    0    0    0  0.00000000000E+00  0.00000000000E+00  0.12525980253E-10  0.17130000000E+03  0.17130000000E+03 0.  1.
       11    1    1    2    0    0  0.63051801962E-01  0.48727718971E-01 -0.20020080126E-01  0.82164378881E-01  0.51109989000E-03 0.  1.
     -623    1    1    2    0    0 -0.26190606674E+00  0.18750428666E-01  0.15198235105E+01  0.17130694326E+03  0.17130000000E+03 0.  1.
      622    1    1    2    0    0  0.19885426478E+00 -0.67478147637E-01  0.25001965369E+01  0.39108923588E+01  0.30000000000E+01 0.  1.
</event>
<event>
 5   0  0.7495800E-05  0.9118800E+02  0.7818608E-02  0.1180000E+00
       11   -1    0    0    0    0  0.00000000000E+00  0.00000000000E+00  0.39999999673E+01  0.40000000000E+01  0.51109989000E-03 0. -1.
     -623   -1    0    0    0    0  0.00000000000E+00  0.00000000000E+00  0.12525980253E-10  0.17130000000E+03  0.17130000000E+03 0.  1.
       11    1    1    2    0    0 -0.18357178429E-01  0.10281818458E+00  0.62680784912E-01  0.12181012725E+00  0.51109989000E-03 0. -1.
     -623    1    1    2    0    0  0.32345171310E+00 -0.52540998488E+00  0.15486284860E+01  0.17130811109E+03  0.17130000000E+03 0.  1.
      622    1    1    2    0    0 -0.30509453467E+00  0.42259180029E+00  0.23886906964E+01  0.38700787780E+01  0.30000000000E+01 0. -1.
</event>
<event>
 5   0  0.7495800E-05  0.9118800E+02  0.7818608E-02  0.1180000E+00
       11   -1    0    0    0    0  0.00000000000E+00  0.00000000000E+00  0.39999999673E+01  0.40000000000E+01  0.51109989000E-03 0. -1.
     -623   -1    0    0    0    0  0.00000000000E+00  0.00000000000E+00  0.12525980253E-10  0.17130000000E+03  0.17130000000E+03 0. -1.
       11    1    1    2    0    0  0.24393133726E+00  0.27446357034E-01  0.40980926794E+00  0.47770251949E+00  0.51109989000E-03 0. -1.
     -623    1    1    2    0    0 -0.66874750143E+00  0.41255345189E+00  0.18732726091E+01  0.17131204445E+03  0.17130000000E+03 0. -1.
      622    1    1    2    0    0  0.42481616417E+00 -0.43999980892E+00  0.17169180903E+01  0.35102530299E+01  0.30000000000E+01 0. -1.
</event>
<event>
 5   0  0.7495800E-05  0.9118800E+02  0.7818608E-02  0.1180000E+00
       11   -1    0    0    0    0  0.00000000000E+00  0.00000000000E+00  0.39999999673E+01  0.40000000000E+01  0.51109989000E-03 0.  1.
     -623   -1    0    0    0    0  0.00000000000E+00  0.00000000000E+00  0.12525980253E-10  0.17130000000E+03  0.17130000000E+03 0.  1.
       11    1    1    2    0    0 -0.26522004788E+00  0.53224939099E-02  0.86200912106E-01  0.27892805741E+00  0.51109989000E-03 0.  1.
     -623    1    1    2    0    0  0.39496465944E+00  0.34268432472E+00  0.17608379197E+01  0.17130984788E+03  0.17130000000E+03 0.  1.
      622    1    1    2    0    0 -0.12974461156E+00 -0.34800681863E+00  0.21529611356E+01  0.37112240651E+01  0.30000000000E+01 0.  1.
</event>
<event>
 5   0  0.7495800E-05  0.9118800E+02  0.7818608E-02  0.1180000E+00
       11   -1    0    0    0    0  0.00000000000E+00  0.00000000000E+00  0.39999999673E+01  0.40000000000E+01  0.51109989000E-03 0.  1.
     -623   -1    0    0    0    0  0.00000000000E+00  0.00000000000E+00  0.12525980253E-10  0.17130000000E+03  0.17130000000E+03 0. -1.
       11    1    1    2    0    0 -0.13430989047E+00 -0.23196048771E+00 -0.13595815099E-01  0.26838390776E+00  0.51109989000E-03 0.  1.
     -623    1    1    2    0    0  0.45384346987E+00  0.28468850954E+00  0.18363309039E+01  0.17131068015E+03  0.17130000000E+03 0. -1.
      622    1    1    2    0    0 -0.31953357940E+00 -0.52728021833E-01  0.21772648786E+01  0.37209359446E+01  0.30000000000E+01 0.  1.
</event>
<event>
 5   0  0.7495800E-05  0.9118800E+02  0.7818608E-02  0.1180000E+00
       11   -1    0    0    0    0  0.00000000000E+00  0.00000000000E+00  0.39999999673E+01  0.40000000000E+01  0.51109989000E-03 0.  1.
     -623   -1    0    0    0    0  0.00000000000E+00  0.00000000000E+00  0.12525980253E-10  0.17130000000E+03  0.17130000000E+03 0.  1.
       11    1    1    2    0    0  0.69500930021E-01  0.16681266046E-01 -0.10318683282E+00  0.12552460955E+00  0.51109989000E-03 0.  1.
     -623    1    1    2    0    0  0.30988409557E+00  0.28731376353E+00  0.17147237290E+01  0.17130910325E+03  0.17130000000E+03 0.  1.
      622    1    1    2    0    0 -0.37938502560E+00 -0.30399502957E+00  0.23884630712E+01  0.38653721448E+01  0.30000000000E+01 0.  1.
</event>
<event>
 5   0  0.7495800E-05  0.9118800E+02  0.7818608E-02  0.1180000E+00
       11   -1    0    0    0    0  0.00000000000E+00  0.00000000000E+00  0.39999999673E+01  0.40000000000E+01  0.51109989000E-03 0.  1.
     -623   -1    0    0    0    0  0.00000000000E+00  0.00000000000E+00  0.12525980253E-10  0.17130000000E+03  0.17130000000E+03 0.  1.
       11    1    1    2    0    0 -0.37271912514E-01 -0.97045878257E-02  0.23870927605E-01  0.45315084613E-01  0.51109989000E-03 0.  1.
     -623    1    1    2    0    0  0.41842570678E+00 -0.57113147561E-01  0.14388227447E+01  0.17130656308E+03  0.17130000000E+03 0.  1.
      622    1    1    2    0    0 -0.38115379427E+00  0.66817735387E-01  0.25373062950E+01  0.39481218395E+01  0.30000000000E+01 0.  1.
</event>
<event>
 5   0  0.7495800E-05  0.9118800E+02  0.7818608E-02  0.1180000E+00
       11   -1    0    0    0    0  0.00000000000E+00  0.00000000000E+00  0.39999999673E+01  0.40000000000E+01  0.51109989000E-03 0.  1.
     -623   -1    0    0    0    0  0.00000000000E+00  0.00000000000E+00  0.12525980253E-10  0.17130000000E+03  0.17130000000E+03 0. -1.
       11    1    1    2    0    0 -0.70063435994E+00 -0.16671678837E+00  0.36366775735E+00  0.80680697370E+00  0.51109989000E-03 0.  1.
     -623    1    1    2    0    0  0.13756135669E+00  0.18951911341E+00  0.27793514533E+01  0.17132270613E+03  0.17130000000E+03 0. -1.
      622    1    1    2    0    0  0.56307300325E+00 -0.22802325038E-01  0.85698075674E+00  0.31704868980E+01  0.30000000000E+01 0.  0.
</event>
<event>
 5   0  0.7495800E-05  0.9118800E+02  0.7818608E-02  0.1180000E+00
       11   -1    0    0    0    0  0.00000000000E+00  0.00000000000E+00  0.39999999673E+01  0.40000000000E+01  0.51109989000E-03 0. -1.
     -623   -1    0    0    0    0  0.00000000000E+00  0.00000000000E+00  0.12525980253E-10  0.17130000000E+03  0.17130000000E+03 0.  1.
       11    1    1    2    0    0 -0.80139448214E-02 -0.17075252107E+00  0.90285614080E-01  0.19331942503E+00  0.51109989000E-03 0. -1.
     -623    1    1    2    0    0  0.69498707906E+00  0.47622744675E+00  0.17085692553E+01  0.17131059223E+03  0.17130000000E+03 0.  1.
      622    1    1    2    0    0 -0.68697313424E+00 -0.30547492568E+00  0.22011450980E+01  0.37960883498E+01  0.30000000000E+01 0. -1.
</event>
<event>
 5   0  0.7495800E-05  0.9118800E+02  0.7818608E-02  0.1180000E+00
       11   -1    0    0    0    0  0.00000000000E+00  0.00000000000E+00  0.39999999673E+01  0.40000000000E+01  0.51109989000E-03 0. -1.
     -623   -1    0    0    0    0  0.00000000000E+00  0.00000000000E+00  0.12525980253E-10  0.17130000000E+03  0.17130000000E+03 0. -1.
       11    1    1    2    0    0 -0.39113755145E+00  0.26640430356E+00  0.15272969892E-01  0.47349061442E+00  0.51109989000E-03 0. -1.
     -623    1    1    2    0    0 -0.11660152543E+00 -0.90251458945E+00  0.23591302840E+01  0.17131866105E+03  0.17130000000E+03 0. -1.
      622    1    1    2    0    0  0.50773907689E+00  0.63611028590E+00  0.16255967134E+01  0.35078483349E+01  0.30000000000E+01 0. -1.
</event>
<event>
 5   0  0.7495800E-05  0.9118800E+02  0.7818608E-02  0.1180000E+00
       11   -1    0    0    0    0  0.00000000000E+00  0.00000000000E+00  0.39999999673E+01  0.40000000000E+01  0.51109989000E-03 0.  1.
     -623   -1    0    0    0    0  0.00000000000E+00  0.00000000000E+00  0.12525980253E-10  0.17130000000E+03  0.17130000000E+03 0.  1.
       11    1    1    2    0    0 -0.11083080810E+00  0.25398413439E+00  0.84317851303E-01  0.28965698648E+00  0.51109989000E-03 0.  1.
     -623    1    1    2    0    0  0.44313444425E+00 -0.26196553444E+00  0.17750581555E+01  0.17130997001E+03  0.17130000000E+03 0.  1.
      622    1    1    2    0    0 -0.33230363616E+00  0.79814000491E-02  0.21406239606E+01  0.37003730015E+01  0.30000000000E+01 0.  1.
</event>
<event>
 5   0  0.7495800E-05  0.9118800E+02  0.7818608E-02  0.1180000E+00
       11   -1    0    0    0    0  0.00000000000E+00  0.00000000000E+00  0.39999999673E+01  0.40000000000E+01  0.51109989000E-03 0. -1.
     -623   -1    0    0    0    0  0.00000000000E+00  0.00000000000E+00  0.12525980253E-10  0.17130000000E+03  0.17130000000E+03 0. -1.
       11    1    1    2    0    0  0.63125763240E-01  0.21372364065E+00  0.29548767974E+00  0.37010253533E+00  0.51109989000E-03 0. -1.
     -623    1    1    2    0    0 -0.10774361000E+01 -0.18725834924E+01  0.35091032353E+01  0.17134955863E+03  0.17130000000E+03 0. -1.
      622    1    1    2    0    0  0.10143103368E+01  0.16588598517E+01  0.19540905236E+00  0.35803388338E+01  0.30000000000E+01 0.  0.
</event>
<event>
 5   0  0.7495800E-05  0.9118800E+02  0.7818608E-02  0.1180000E+00
       11   -1    0    0    0    0  0.00000000000E+00  0.00000000000E+00  0.39999999673E+01  0.40000000000E+01  0.51109989000E-03 0.  1.
     -623   -1    0    0    0    0  0.00000000000E+00  0.00000000000E+00  0.12525980253E-10  0.17130000000E+03  0.17130000000E+03 0. -1.
       11    1    1    2    0    0  0.85838928279E-01  0.31500962977E+00 -0.12283612255E+00  0.34883859116E+00  0.51109989000E-03 0.  1.
     -623    1    1    2    0    0  0.66379969100E-01  0.41143181315E+00  0.22063676672E+01  0.17131471548E+03  0.17130000000E+03 0. -1.
      622    1    1    2    0    0 -0.15221889738E+00 -0.72644144291E+00  0.19164684227E+01  0.36364459267E+01  0.30000000000E+01 0.  1.
</event>
<event>
 5   0  0.7495800E-05  0.9118800E+02  0.7818608E-02  0.1180000E+00
       11   -1    0    0    0    0  0.00000000000E+00  0.00000000000E+00  0.39999999673E+01  0.40000000000E+01  0.51109989000E-03 0. -1.
     -623   -1    0    0    0    0  0.00000000000E+00  0.00000000000E+00  0.12525980253E-10  0.17130000000E+03  0.17130000000E+03 0. -1.
       11    1    1    2    0    0 -0.68613541916E-01  0.21503961615E-01 -0.13295239836E+00  0.15115171171E+00  0.51109989000E-03 0. -1.
     -623    1    1    2    0    0  0.10595135685E+00  0.36692095703E+00  0.17690863391E+01  0.17130956051E+03  0.17130000000E+03 0. -1.
      622    1    1    2    0    0 -0.37337814934E-01 -0.38842491865E+00  0.23638660266E+01  0.38392877753E+01  0.30000000000E+01 0. -1.
</event>
<event>
 5   0  0.7495800E-05  0.9118800E+02  0.7818608E-02  0.1180000E+00
       11   -1    0    0    0    0  0.00000000000E+00  0.00000000000E+00  0.39999999673E+01  0.40000000000E+01  0.51109989000E-03 0.  1.
     -623   -1    0    0    0    0  0.00000000000E+00  0.00000000000E+00  0.12525980253E-10  0.17130000000E+03  0.17130000000E+03 0.  1.
       11    1    1    2    0    0  0.25224545213E+00  0.26460291903E-01 -0.11146807708E+00  0.27704387486E+00  0.51109989000E-03 0.  1.
     -623    1    1    2    0    0 -0.70938157269E+00  0.14105179780E+00  0.19838792576E+01  0.17131301438E+03  0.17130000000E+03 0.  1.
      622    1    1    2    0    0  0.45713612056E+00 -0.16751208970E+00  0.21275887869E+01  0.37099417487E+01  0.30000000000E+01 0.  1.
</event>
<event>
 5   0  0.7495800E-05  0.9118800E+02  0.7818608E-02  0.1180000E+00
       11   -1    0    0    0    0  0.00000000000E+00  0.00000000000E+00  0.39999999673E+01  0.40000000000E+01  0.51109989000E-03 0. -1.
     -623   -1    0    0    0    0  0.00000000000E+00  0.00000000000E+00  0.12525980253E-10  0.17130000000E+03  0.17130000000E+03 0. -1.
       11    1    1    2    0    0  0.61522727158E+00 -0.71093272961E-01  0.30783093650E+00  0.69160609876E+00  0.51109989000E-03 0. -1.
     -623    1    1    2    0    0 -0.12331478166E+01 -0.41734317891E+00  0.26147027620E+01  0.17132490041E+03  0.17130000000E+03 0.  1.
      622    1    1    2    0    0  0.61792054501E+00  0.48843645187E+00  0.10774662689E+01  0.32834934944E+01  0.30000000000E+01 0. -1.
</event>
<event>
 5   0  0.7495800E-05  0.9118800E+02  0.7818608E-02  0.1180000E+00
       11   -1    0    0    0    0  0.00000000000E+00  0.00000000000E+00  0.39999999673E+01  0.40000000000E+01  0.51109989000E-03 0.  1.
     -623   -1    0    0    0    0  0.00000000000E+00  0.00000000000E+00  0.12525980253E-10  0.17130000000E+03  0.17130000000E+03 0. -1.
       11    1    1    2    0    0  0.14277253577E+00  0.61409723986E-01 -0.15684546031E+00  0.22080740661E+00  0.51109989000E-03 0.  1.
     -623    1    1    2    0    0 -0.66919199821E+00  0.44028314836E-01  0.19430242969E+01  0.17131233201E+03  0.17130000000E+03 0. -1.
      622    1    1    2    0    0  0.52641946244E+00 -0.10543803882E+00  0.22138211308E+01  0.37668605801E+01  0.30000000000E+01 0.  1.
</event>
<event>
 5   0  0.7495800E-05  0.9118800E+02  0.7818608E-02  0.1180000E+00
       11   -1    0    0    0    0  0.00000000000E+00  0.00000000000E+00  0.39999999673E+01  0.40000000000E+01  0.51109989000E-03 0. -1.
     -623   -1    0    0    0    0  0.00000000000E+00  0.00000000000E+00  0.12525980253E-10  0.17130000000E+03  0.17130000000E+03 0. -1.
       11    1    1    2    0    0 -0.11468831849E+00  0.13556111136E+00  0.37462245194E-01  0.18147701328E+00  0.51109989000E-03 0. -1.
     -623    1    1    2    0    0 -0.27825663496E+00 -0.29719699419E+00  0.16525401737E+01  0.17130845467E+03  0.17130000000E+03 0. -1.
      622    1    1    2    0    0  0.39294495345E+00  0.16163588283E+00  0.23099975485E+01  0.38100683155E+01  0.30000000000E+01 0. -1.
</event>
<event>
 5   0  0.7495800E-05  0.9118800E+02  0.7818608E-02  0.1180000E+00
       11   -1    0    0    0    0  0.00000000000E+00  0.00000000000E+00  0.39999999673E+01  0.40000000000E+01  0.51109989000E-03 0.  1.
     -623   -1    0    0    0    0  0.00000000000E+00  0.00000000000E+00  0.12525980253E-10  0.17130000000E+03  0.17130000000E+03 0.  1.
       11    1    1    2    0    0 -0.11178427142E+00 -0.21494735242E+00  0.22334777815E+00  0.32951870793E+00  0.51109989000E-03 0.  1.
     -623    1    1    2    0    0  0.41966152473E+00  0.32861650031E+00  0.17038474692E+01  0.17130930273E+03  0.17130000000E+03 0.  1.
      622    1    1    2    0    0 -0.30787725331E+00 -0.11366914789E+00  0.20728047200E+01  0.36611785651E+01  0.30000000000E+01 0.  1.
</event>
<event>
 5   0  0.7495800E-05  0.9118800E+02  0.7818608E-02  0.1180000E+00
       11   -1    0    0    0    0  0.00000000000E+00  0.00000000000E+00  0.39999999673E+01  0.40000000000E+01  0.51109989000E-03 0. -1.
     -623   -1    0    0    0    0  0.00000000000E+00  0.00000000000E+00  0.12525980253E-10  0.17130000000E+03  0.17130000000E+03 0. -1.
       11    1    1    2    0    0 -0.21378969489E+00 -0.94884300711E-01 -0.13586276910E-01  0.23429449909E+00  0.51109989000E-03 0. -1.
     -623    1    1    2    0    0  0.32259955430E+00  0.63894964268E+00  0.18253653745E+01  0.17131122055E+03  0.17130000000E+03 0. -1.
      622    1    1    2    0    0 -0.10880985941E+00 -0.54406534197E+00  0.21882208698E+01  0.37544849523E+01  0.30000000000E+01 0. -1.
</event>
<event>
 5   0  0.7495800E-05  0.9118800E+02  0.7818608E-02  0.1180000E+00
       11   -1    0    0    0    0  0.00000000000E+00  0.00000000000E+00  0.39999999673E+01  0.40000000000E+01  0.51109989000E-03 0. -1.
     -623   -1    0    0    0    0  0.00000000000E+00  0.00000000000E+00  0.12525980253E-10  0.17130000000E+03  0.17130000000E+03 0.  1.
       11    1    1    2    0    0  0.84440630118E-01 -0.13258272038E+00 -0.56247658551E-01  0.16695046593E+00  0.51109989000E-03 0. -1.
     -623    1    1    2    0    0 -0.34805185055E+00 -0.51743722553E+00  0.17935764213E+01  0.17131052448E+03  0.17130000000E+03 0.  1.
      622    1    1    2    0    0  0.26361122043E+00  0.65001994591E+00  0.22626712046E+01  0.38225250537E+01  0.30000000000E+01 0. -1.
</event>
<event>
 5   0  0.7495800E-05  0.9118800E+02  0.7818608E-02  0.1180000E+00
       11   -1    0    0    0    0  0.00000000000E+00  0.00000000000E+00  0.39999999673E+01  0.40000000000E+01  0.51109989000E-03 0. -1.
     -623   -1    0    0    0    0  0.00000000000E+00  0.00000000000E+00  0.12525980253E-10  0.17130000000E+03  0.17130000000E+03 0. -1.
       11    1    1    2    0    0  0.10111769407E+00 -0.26536524130E+00  0.30357184324E+00  0.41569174224E+00  0.51109989000E-03 0. -1.
     -623    1    1    2    0    0  0.35952319147E+00  0.45780970887E+00  0.18197892458E+01  0.17131065489E+03  0.17130000000E+03 0. -1.
      622    1    1    2    0    0 -0.46064088553E+00 -0.19244446757E+00  0.18766388783E+01  0.35736533657E+01  0.30000000000E+01 0. -1.
</event>
<event>
 5   0  0.7495800E-05  0.9118800E+02  0.7818608E-02  0.1180000E+00
       11   -1    0    0    0    0  0.00000000000E+00  0.00000000000E+00  0.39999999673E+01  0.40000000000E+01  0.51109989000E-03 0.  1.
     -623   -1    0    0    0    0  0.00000000000E+00  0.00000000000E+00  0.12525980253E-10  0.17130000000E+03  0.17130000000E+03 0.  1.
       11    1    1    2    0    0 -0.27488221689E-02  0.77681157663E-01 -0.38493387591E-01  0.86740534866E-01  0.51109989000E-03 0.  1.
     -623    1    1    2    0    0  0.65272637965E-01 -0.60371710021E+00  0.15958621214E+01  0.17130850974E+03  0.17130000000E+03 0.  1.
      622    1    1    2    0    0 -0.62523815796E-01  0.52603594255E+00  0.24426312335E+01  0.39047497210E+01  0.30000000000E+01 0.  1.
</event>
<event>
 5   0  0.7495800E-05  0.9118800E+02  0.7818608E-02  0.1180000E+00
       11   -1    0    0    0    0  0.00000000000E+00  0.00000000000E+00  0.39999999673E+01  0.40000000000E+01  0.51109989000E-03 0. -1.
     -623   -1    0    0    0    0  0.00000000000E+00  0.00000000000E+00  0.12525980253E-10  0.17130000000E+03  0.17130000000E+03 0.  1.
       11    1    1    2    0    0 -0.39120909364E+00  0.12246901711E+00  0.36849454029E+00  0.55120930919E+00  0.51109989000E-03 0. -1.
     -623    1    1    2    0    0  0.84592154328E+00 -0.22933039251E+00  0.20258633201E+01  0.17131422094E+03  0.17130000000E+03 0.  1.
      622    1    1    2    0    0 -0.45471244964E+00  0.10686137540E+00  0.16056421070E+01  0.34345697461E+01  0.30000000000E+01 0. -1.
</event>
<event>
 5   0  0.7495800E-05  0.9118800E+02  0.7818608E-02  0.1180000E+00
       11   -1    0    0    0    0  0.00000000000E+00  0.00000000000E+00  0.39999999673E+01  0.40000000000E+01  0.51109989000E-03 0.  1.
     -623   -1    0    0    0    0  0.00000000000E+00  0.00000000000E+00  0.12525980253E-10  0.17130000000E+03  0.17130000000E+03 0.  1.
       11    1    1    2    0    0  0.24750307434E+00 -0.11793179041E+00  0.15469209511E+00  0.31479451157E+00  0.51109989000E-03 0.  1.
     -623    1    1    2    0    0  0.62993369558E+00 -0.57126275079E+00  0.20480114733E+01  0.17131435290E+03  0.17130000000E+03 0.  1.
      622    1    1    2    0    0 -0.87743676992E+00  0.68919454121E+00  0.17972963990E+01  0.36708525912E+01  0.30000000000E+01 0.  1.
</event>
<event>
 5   0  0.7495800E-05  0.9118800E+02  0.7818608E-02  0.1180000E+00
       11   -1    0    0    0    0  0.00000000000E+00  0.00000000000E+00  0.39999999673E+01  0.40000000000E+01  0.51109989000E-03 0. -1.
     -623   -1    0    0    0    0  0.00000000000E+00  0.00000000000E+00  0.12525980253E-10  0.17130000000E+03  0.17130000000E+03 0. -1.
       11    1    1    2    0    0 -0.40721126595E+00  0.49147643369E+00 -0.27339954062E+00  0.69434693780E+00  0.51109989000E-03 0. -1.
     -623    1    1    2    0    0 -0.35762906165E+00 -0.12983485800E+01  0.36387496277E+01  0.17134393513E+03  0.17130000000E+03 0. -1.
      622    1    1    2    0    0  0.76484032760E+00  0.80687214635E+00  0.63464988028E+00  0.32617179305E+01  0.30000000000E+01 0. -1.
</event>
<event>
 5   0  0.7495800E-05  0.9118800E+02  0.7818608E-02  0.1180000E+00
       11   -1    0    0    0    0  0.00000000000E+00  0.00000000000E+00  0.39999999673E+01  0.40000000000E+01  0.51109989000E-03 0. -1.
     -623   -1    0    0    0    0  0.00000000000E+00  0.00000000000E+00  0.12525980253E-10  0.17130000000E+03  0.17130000000E+03 0. -1.
       11    1    1    2    0    0 -0.86426627524E-02  0.43045143650E+00  0.88910633827E-01  0.43962313046E+00  0.51109989000E-03 0. -1.
     -623    1    1    2    0    0 -0.82799387762E+00 -0.97329789793E+00  0.23184797403E+01  0.17132045479E+03  0.17130000000E+03 0. -1.
      622    1    1    2    0    0  0.83663654038E+00  0.54284646143E+00  0.15926095933E+01  0.35399220751E+01  0.30000000000E+01 0. -1.
</event>
<event>
 5   0  0.7495800E-05  0.9118800E+02  0.7818608E-02  0.1180000E+00
       11   -1    0    0    0    0  0.00000000000E+00  0.00000000000E+00  0.39999999673E+01  0.40000000000E+01  0.51109989000E-03 0. -1.
     -623   -1    0    0    0    0  0.00000000000E+00  0.00000000000E+00  0.12525980253E-10  0.17130000000E+03  0.17130000000E+03 0.  1.
       11    1    1    2    0    0 -0.12966272892E+00 -0.11279868636E+00 -0.39507845518E+00  0.43084012567E+00  0.51109989000E-03 0. -1.
     -623    1    1    2    0    0 -0.67122682796E+00 -0.38145479785E+00  0.27571004341E+01  0.17132392610E+03  0.17130000000E+03 0.  1.
      622    1    1    2    0    0  0.80088955688E+00  0.49425348421E+00  0.16379779884E+01  0.35452337694E+01  0.30000000000E+01 0. -1.
</event>
<event>
 5   0  0.7495800E-05  0.9118800E+02  0.7818608E-02  0.1180000E+00
       11   -1    0    0    0    0  0.00000000000E+00  0.00000000000E+00  0.39999999673E+01  0.40000000000E+01  0.51109989000E-03 0. -1.
     -623   -1    0    0    0    0  0.00000000000E+00  0.00000000000E+00  0.12525980253E-10  0.17130000000E+03  0.17130000000E+03 0. -1.
       11    1    1    2    0    0  0.38196338696E-01  0.68780492021E-01 -0.15194438005E+00  0.17110544183E+00  0.51109989000E-03 0. -1.
     -623    1    1    2    0    0  0.26691999551E+00 -0.64075846207E-01  0.18083065203E+01  0.17130976424E+03  0.17130000000E+03 0. -1.
      622    1    1    2    0    0 -0.30511633421E+00 -0.47046458139E-02  0.23436378271E+01  0.38191303167E+01  0.30000000000E+01 0. -1.
</event>
<event>
 5   0  0.7495800E-05  0.9118800E+02  0.7818608E-02  0.1180000E+00
       11   -1    0    0    0    0  0.00000000000E+00  0.00000000000E+00  0.39999999673E+01  0.40000000000E+01  0.51109989000E-03 0. -1.
     -623   -1    0    0    0    0  0.00000000000E+00  0.00000000000E+00  0.12525980253E-10  0.17130000000E+03  0.17130000000E+03 0.  1.
       11    1    1    2    0    0 -0.64845685879E-02  0.26652941140E+00 -0.23722208685E+00  0.35686770165E+00  0.51109989000E-03 0. -1.
     -623    1    1    2    0    0  0.52420082460E+00 -0.32055711325E+00  0.22663175460E+01  0.17131609305E+03  0.17130000000E+03 0.  1.
      622    1    1    2    0    0 -0.51771625602E+00  0.54027701853E-01  0.19709045082E+01  0.36270392464E+01  0.30000000000E+01 0. -1.
</event>
<event>
 5   0  0.7495800E-05  0.9118800E+02  0.7818608E-02  0.1180000E+00
       11   -1    0    0    0    0  0.00000000000E+00  0.00000000000E+00  0.39999999673E+01  0.40000000000E+01  0.51109989000E-03 0. -1.
     -623   -1    0    0    0    0  0.00000000000E+00  0.00000000000E+00  0.12525980253E-10  0.17130000000E+03  0.17130000000E+03 0.  1.
       11    1    1    2    0    0  0.11061304532E-01 -0.25129965580E+00  0.28659493885E-01  0.25317088553E+00  0.51109989000E-03 0. -1.
     -623    1    1    2    0    0  0.70341231161E-01  0.49594635657E+00  0.17579118602E+01  0.17130975210E+03  0.17130000000E+03 0.  1.
      622    1    1    2    0    0 -0.81402535693E-01 -0.24464670076E+00  0.22134286133E+01  0.37370770138E+01  0.30000000000E+01 0. -1.
</event>
<event>
 5   0  0.7495800E-05  0.9118800E+02  0.7818608E-02  0.1180000E+00
       11   -1    0    0    0    0  0.00000000000E+00  0.00000000000E+00  0.39999999673E+01  0.40000000000E+01  0.51109989000E-03 0.  1.
     -623   -1    0    0    0    0  0.00000000000E+00  0.00000000000E+00  0.12525980253E-10  0.17130000000E+03  0.17130000000E+03 0.  1.
       11    1    1    2    0    0  0.12813413099E+00  0.96345056467E-01  0.13700637676E-01  0.16089963992E+00  0.51109989000E-03 0.  1.
     -623    1    1    2    0    0  0.53989611200E+00 -0.15899115123E+00  0.17023232203E+01  0.17130938290E+03  0.17130000000E+03 0.  1.
      622    1    1    2    0    0 -0.66803024300E+00  0.62646094758E-01  0.22839761094E+01  0.38297174579E+01  0.30000000000E+01 0.  1.
</event>
<event>
 5   0  0.7495800E-05  0.9118800E+02  0.7818608E-02  0.1180000E+00
       11   -1    0    0    0    0  0.00000000000E+00  0.00000000000E+00  0.39999999673E+01  0.40000000000E+01  0.51109989000E-03 0.  1.
     -623   -1    0    0    0    0  0.00000000000E+00  0.00000000000E+00  0.12525980253E-10  0.17130000000E+03  0.17130000000E+03 0.  1.
       11    1    1    2    0    0 -0.88970209581E-01  0.22408301776E+00  0.20077218530E+00  0.31374930861E+00  0.51109989000E-03 0.  1.
     -623    1    1    2    0    0 -0.14937460915E+00 -0.36651620379E+00  0.16905418756E+01  0.17130879889E+03  0.17130000000E+03 0.  1.
      622    1    1    2    0    0  0.23834481874E+00  0.14243318602E+00  0.21086859065E+01  0.36774517967E+01  0.30000000000E+01 0.  1.
</event>
<event>
 5   0  0.7495800E-05  0.9118800E+02  0.7818608E-02  0.1180000E+00
       11   -1    0    0    0    0  0.00000000000E+00  0.00000000000E+00  0.39999999673E+01  0.40000000000E+01  0.51109989000E-03 0.  1.
     -623   -1    0    0    0    0  0.00000000000E+00  0.00000000000E+00  0.12525980253E-10  0.17130000000E+03  0.17130000000E+03 0.  1.
       11    1    1    2    0    0  0.18678065919E-01  0.21055407845E-01 -0.46440070591E-01  0.54306000822E-01  0.51109989000E-03 0.  1.
     -623    1    1    2    0    0  0.45564902862E+00  0.13423344834E+00  0.15445786934E+01  0.17130762201E+03  0.17130000000E+03 0.  1.
      622    1    1    2    0    0 -0.47432709454E+00 -0.15528885618E+00  0.25018613445E+01  0.39380719913E+01  0.30000000000E+01 0.  0.
</event>
<event>
 5   0  0.7495800E-05  0.9118800E+02  0.7818608E-02  0.1180000E+00
       11   -1    0    0    0    0  0.00000000000E+00  0.00000000000E+00  0.39999999673E+01  0.40000000000E+01  0.51109989000E-03 0.  1.
     -623   -1    0    0    0    0  0.00000000000E+00  0.00000000000E+00  0.12525980253E-10  0.17130000000E+03  0.17130000000E+03 0.  1.
       11    1    1    2    0    0 -0.53709246283E-01 -0.79513129389E-01 -0.24929409329E+00  0.26712324319E+00  0.51109989000E-03 0.  1.
     -623    1    1    2    0    0 -0.35179487873E+00 -0.94391371620E-01  0.20949162406E+01  0.17131319664E+03  0.17130000000E+03 0.  1.
      622    1    1    2    0    0  0.40550412502E+00  0.17390450101E+00  0.21543778201E+01  0.37196801156E+01  0.30000000000E+01 0.  1.
</event>
<event>
 5   0  0.7495800E-05  0.9118800E+02  0.7818608E-02  0.1180000E+00
       11   -1    0    0    0    0  0.00000000000E+00  0.00000000000E+00  0.39999999673E+01  0.40000000000E+01  0.51109989000E-03 0. -1.
     -623   -1    0    0    0    0  0.00000000000E+00  0.00000000000E+00  0.12525980253E-10  0.17130000000E+03  0.17130000000E+03 0. -1.
       11    1    1    2    0    0  0.63629142506E-01  0.33329744540E-01 -0.82625463753E-01  0.10948409989E+00  0.51109989000E-03 0. -1.
     -623    1    1    2    0    0 -0.78516964732E+00 -0.49782090041E-01  0.17303332730E+01  0.17131054557E+03  0.17130000000E+03 0. -1.
      622    1    1    2    0    0  0.72154050481E+00  0.16452345501E-01  0.23522921581E+01  0.38799703319E+01  0.30000000000E+01 0. -1.
</event>
<event>
 5   0  0.7495800E-05  0.9118800E+02  0.7818608E-02  0.1180000E+00
       11   -1    0    0    0    0  0.00000000000E+00  0.00000000000E+00  0.39999999673E+01  0.40000000000E+01  0.51109989000E-03 0.  1.
     -623   -1    0    0    0    0  0.00000000000E+00  0.00000000000E+00  0.12525980253E-10  0.17130000000E+03  0.17130000000E+03 0.  1.
       11    1    1    2    0    0 -0.20605859102E+00 -0.23850101407E+00  0.26228723109E+00  0.41004600896E+00  0.51109989000E-03 0.  1.
     -623    1    1    2    0    0  0.17701981790E+00  0.72463725917E+00  0.18489486201E+01  0.17131160219E+03  0.17130000000E+03 0.  1.
      622    1    1    2    0    0  0.29038773122E-01 -0.48613624511E+00  0.18887641161E+01  0.35783517973E+01  0.30000000000E+01 0.  1.
</event>
<event>
 5   0  0.7495800E-05  0.9118800E+02  0.7818608E-02  0.1180000E+00
       11   -1    0    0    0    0  0.00000000000E+00  0.00000000000E+00  0.39999999673E+01  0.40000000000E+01  0.51109989000E-03 0. -1.
     -623   -1    0    0    0    0  0.00000000000E+00  0.00000000000E+00  0.12525980253E-10  0.17130000000E+03  0.17130000000E+03 0. -1.
       11    1    1    2    0    0  0.20046485217E-01  0.34004060143E+00 -0.15011669087E+00  0.37224287003E+00  0.51109989000E-03 0. -1.
     -623    1    1    2    0    0  0.26906446403E+00 -0.25411785318E+00  0.21580513532E+01  0.17131399288E+03  0.17130000000E+03 0. -1.
      622    1    1    2    0    0 -0.28911094925E+00 -0.85922748253E-01  0.19920653050E+01  0.36137642479E+01  0.30000000000E+01 0. -1.
</event>
<event>
 5   0  0.7495800E-05  0.9118800E+02  0.7818608E-02  0.1180000E+00
       11   -1    0    0    0    0  0.00000000000E+00  0.00000000000E+00  0.39999999673E+01  0.40000000000E+01  0.51109989000E-03 0. -1.
     -623   -1    0    0    0    0  0.00000000000E+00  0.00000000000E+00  0.12525980253E-10  0.17130000000E+03  0.17130000000E+03 0.  1.
       11    1    1    2    0    0 -0.22608746401E+00  0.33128745701E+00  0.10966801150E+00  0.41580554893E+00  0.51109989000E-03 0. -1.
     -623    1    1    2    0    0  0.13940272512E+01 -0.14216803475E+01  0.28708685790E+01  0.17133562494E+03  0.17130000000E+03 0.  1.
      622    1    1    2    0    0 -0.11679397872E+01  0.10903928905E+01  0.10194633769E+01  0.35485695116E+01  0.30000000000E+01 0. -1.
</event>
<event>
 5   0  0.7495800E-05  0.9118800E+02  0.7818608E-02  0.1180000E+00
       11   -1    0    0    0    0  0.00000000000E+00  0.00000000000E+00  0.39999999673E+01  0.40000000000E+01  0.51109989000E-03 0. -1.
     -623   -1    0    0    0    0  0.00000000000E+00  0.00000000000E+00  0.12525980253E-10  0.17130000000E+03  0.17130000000E+03 0.  1.
       11    1    1    2    0    0 -0.11263565948E+00 -0.30259211987E+00  0.13511837547E+00  0.35000859904E+00  0.51109989000E-03 0. -1.
     -623    1    1    2    0    0 -0.82424313136E+00  0.52544362436E-01  0.20543795349E+01  0.17131430942E+03  0.17130000000E+03 0.  1.
      622    1    1    2    0    0  0.93687879084E+00  0.25004775743E+00  0.18105020570E+01  0.36356819784E+01  0.30000000000E+01 0. -1.
</event>
<event>
 5   0  0.7495800E-05  0.9118800E+02  0.7818608E-02  0.1180000E+00
       11   -1    0    0    0    0  0.00000000000E+00  0.00000000000E+00  0.39999999673E+01  0.40000000000E+01  0.51109989000E-03 0. -1.
     -623   -1    0    0    0    0  0.00000000000E+00  0.00000000000E+00  0.12525980253E-10  0.17130000000E+03  0.17130000000E+03 0.  1.
       11    1    1    2    0    0  0.15177147557E+00 -0.28842021492E+00  0.12978065926E+00  0.35080490577E+00  0.51109989000E-03 0. -1.
     -623    1    1    2    0    0 -0.31542579086E+00  0.26858667853E+00  0.18170356313E+01  0.17131013762E+03  0.17130000000E+03 0.  1.
      622    1    1    2    0    0  0.16365431529E+00  0.19833536397E-01  0.20531836768E+01  0.36390574762E+01  0.30000000000E+01 0. -1.
</event>
<event>
 5   0  0.7495800E-05  0.9118800E+02  0.7818608E-02  0.1180000E+00
       11   -1    0    0    0    0  0.00000000000E+00  0.00000000000E+00  0.39999999673E+01  0.40000000000E+01  0.51109989000E-03 0.  1.
     -623   -1    0    0    0    0  0.00000000000E+00  0.00000000000E+00  0.12525980253E-10  0.17130000000E+03  0.17130000000E+03 0. -1.
       11    1    1    2    0    0 -0.23797843559E+00 -0.26639220623E+00  0.11055342298E+00  0.37392628137E+00  0.51109989000E-03 0.  1.
     -623    1    1    2    0    0  0.10350108588E+01  0.69609155856E+00  0.20998810012E+01  0.17131741094E+03  0.17130000000E+03 0. -1.
      622    1    1    2    0    0 -0.79703242322E+00 -0.42969935232E+00  0.17895655432E+01  0.36086627787E+01  0.30000000000E+01 0.  1.
</event>
<event>
 5   0  0.7495800E-05  0.9118800E+02  0.7818608E-02  0.1180000E+00
       11   -1    0    0    0    0  0.00000000000E+00  0.00000000000E+00  0.39999999673E+01  0.40000000000E+01  0.51109989000E-03 0. -1.
     -623   -1    0    0    0    0  0.00000000000E+00  0.00000000000E+00  0.12525980253E-10  0.17130000000E+03  0.17130000000E+03 0. -1.
       11    1    1    2    0    0 -0.70956260572E-02 -0.87034408557E-01  0.15048167154E+00  0.17398370863E+00  0.51109989000E-03 0. -1.
     -623    1    1    2    0    0 -0.83893807015E-02  0.77487744674E+00  0.15922904121E+01  0.17130915298E+03  0.17130000000E+03 0. -1.
      622    1    1    2    0    0  0.15485006759E-01 -0.68784303818E+00  0.22572278837E+01  0.38168633129E+01  0.30000000000E+01 0. -1.
</event>
<event>
 5   0  0.7495800E-05  0.9118800E+02  0.7818608E-02  0.1180000E+00
       11   -1    0    0    0    0  0.00000000000E+00  0.00000000000E+00  0.39999999673E+01  0.40000000000E+01  0.51109989000E-03 0. -1.
     -623   -1    0    0    0    0  0.00000000000E+00  0.00000000000E+00  0.12525980253E-10  0.17130000000E+03  0.17130000000E+03 0.  1.
       11    1    1    2    0    0 -0.11440540887E+00  0.15599659703E+00  0.12750291399E-01  0.19387203774E+00  0.51109989000E-03 0. -1.
     -623    1    1    2    0    0  0.77495902120E-01 -0.36319049077E+00  0.16683087278E+01  0.17130852625E+03  0.17130000000E+03 0.  1.
      622    1    1    2    0    0  0.36909506746E-01  0.20719389373E+00  0.23189409482E+01  0.37976017093E+01  0.30000000000E+01 0. -1.
</event>
<event>
 5   0  0.7495800E-05  0.9118800E+02  0.7818608E-02  0.1180000E+00
       11   -1    0    0    0    0  0.00000000000E+00  0.00000000000E+00  0.39999999673E+01  0.40000000000E+01  0.51109989000E-03 0. -1.
     -623   -1    0    0    0    0  0.00000000000E+00  0.00000000000E+00  0.12525980253E-10  0.17130000000E+03  0.17130000000E+03 0.  1.
       11    1    1    2    0    0 -0.73521696358E-01  0.18731896519E-01 -0.11966512907E-01  0.76810041250E-01  0.51109989000E-03 0. -1.
     -623    1    1    2    0    0 -0.27502954257E+00  0.18824739254E+00  0.15277881968E+01  0.17130713708E+03  0.17130000000E+03 0.  1.
      622    1    1    2    0    0  0.34855123893E+00 -0.20697928906E+00  0.24841782835E+01  0.39160528771E+01  0.30000000000E+01 0. -1.
</event>
<event>
 5   0  0.7495800E-05  0.9118800E+02  0.7818608E-02  0.1180000E+00
       11   -1    0    0    0    0  0.00000000000E+00  0.00000000000E+00  0.39999999673E+01  0.40000000000E+01  0.51109989000E-03 0. -1.
     -623   -1    0    0    0    0  0.00000000000E+00  0.00000000000E+00  0.12525980253E-10  0.17130000000E+03  0.17130000000E+03 0.  1.
       11    1    1    2    0    0 -0.43012097684E+00 -0.18356826579E-01 -0.41449449188E-01  0.43250357902E+00  0.51109989000E-03 0. -1.
     -623    1    1    2    0    0 -0.32591058172E+00 -0.70040535673E+00  0.24600749227E+01  0.17131940566E+03  0.17130000000E+03 0.  1.
      622    1    1    2    0    0  0.75603155856E+00  0.71876218331E+00  0.15813744938E+01  0.35480907659E+01  0.30000000000E+01 0. -1.
</event>
<event>
 5   0  0.7495800E-05  0.9118800E+02  0.7818608E-02  0.1180000E+00
       11   -1    0    0    0    0  0.00000000000E+00  0.00000000000E+00  0.39999999673E+01  0.40000000000E+01  0.51109989000E-03 0. -1.
     -623   -1    0    0    0    0  0.00000000000E+00  0.00000000000E+00  0.12525980253E-10  0.17130000000E+03  0.17130000000E+03 0. -1.
       11    1    1    2    0    0 -0.27122294095E-01 -0.99111785686E-01 -0.84120568997E-01  0.13279795273E+00  0.51109989000E-03 0. -1.
     -623    1    1    2    0    0  0.43841353061E-01  0.87338490120E-01  0.16566265100E+01  0.17130803823E+03  0.17130000000E+03 0. -1.
      622    1    1    2    0    0 -0.16719058966E-01  0.11773295566E-01  0.24274940263E+01  0.38591638194E+01  0.30000000000E+01 0. -1.
</event>
<event>
 5   0  0.7495800E-05  0.9118800E+02  0.7818608E-02  0.1180000E+00
       11   -1    0    0    0    0  0.00000000000E+00  0.00000000000E+00  0.39999999673E+01  0.40000000000E+01  0.51109989000E-03 0. -1.
     -623   -1    0    0    0    0  0.00000000000E+00  0.00000000000E+00  0.12525980253E-10  0.17130000000E+03  0.17130000000E+03 0.  1.
       11    1    1    2    0    0 -0.81129893590E-02 -0.37712809096E+00  0.64353387058E-01  0.38266569906E+00  0.51109989000E-03 0. -1.
     -623    1    1    2    0    0  0.78899036575E+00  0.93052735441E+00  0.21931095714E+01  0.17131838231E+03  0.17130000000E+03 0.  1.
      622    1    1    2    0    0 -0.78087737639E+00 -0.55339926345E+00  0.17425370089E+01  0.35989519932E+01  0.30000000000E+01 0.  0.
</event>
<event>
 5   0  0.7495800E-05  0.9118800E+02  0.7818608E-02  0.1180000E+00
       11   -1    0    0    0    0  0.00000000000E+00  0.00000000000E+00  0.39999999673E+01  0.40000000000E+01  0.51109989000E-03 0. -1.
     -623   -1    0    0    0    0  0.00000000000E+00  0.00000000000E+00  0.12525980253E-10  0.17130000000E+03  0.17130000000E+03 0. -1.
       11    1    1    2    0    0  0.15148225486E+00  0.14272209051E+00 -0.12538616680E+00  0.24297823093E+00  0.51109989000E-03 0. -1.
     -623    1    1    2    0    0 -0.38968167233E+00  0.22827287193E+00  0.19265008704E+01  0.17131142801E+03  0.17130000000E+03 0. -1.
      622    1    1    2    0    0  0.23819941747E+00 -0.37099496245E+00  0.21988852638E+01  0.37455937617E+01  0.30000000000E+01 0. -1.
</event>
<event>
 5   0  0.7495800E-05  0.9118800E+02  0.7818608E-02  0.1180000E+00
       11   -1    0    0    0    0  0.00000000000E+00  0.00000000000E+00  0.39999999673E+01  0.40000000000E+01  0.51109989000E-03 0.  1.
     -623   -1    0    0    0    0  0.00000000000E+00  0.00000000000E+00  0.12525980253E-10  0.17130000000E+03  0.17130000000E+03 0.  1.
       11    1    1    2    0    0  0.15098230540E+00 -0.12508445991E+00  0.22592988526E-01  0.19736383410E+00  0.51109989000E-03 0.  1.
     -623    1    1    2    0    0 -0.86527106826E+00 -0.65795278260E+00  0.19210162220E+01  0.17131421978E+03  0.17130000000E+03 0.  1.
      622    1    1    2    0    0  0.71428876286E+00  0.78303724251E+00  0.20563907568E+01  0.37884163848E+01  0.30000000000E+01 0.  1.
</event>
<event>
 5   0  0.7495800E-05  0.9118800E+02  0.7818608E-02  0.1180000E+00
       11   -1    0    0    0    0  0.00000000000E+00  0.00000000000E+00  0.39999999673E+01  0.40000000000E+01  0.51109989000E-03 0. -1.
     -623   -1    0    0    0    0  0.00000000000E+00  0.00000000000E+00  0.12525980253E-10  0.17130000000E+03  0.17130000000E+03 0. -1.
       11    1    1    2    0    0  0.15882718010E+00  0.19748881886E+00  0.37880132772E+00  0.45576157562E+00  0.51109989000E-03 0. -1.
     -623    1    1    2    0    0 -0.11301109522E+00 -0.47774325081E+00  0.17743200805E+01  0.17130989236E+03  0.17130000000E+03 0. -1.
      622    1    1    2    0    0 -0.45816084885E-01  0.28025443195E+00  0.18468785591E+01  0.35343460601E+01  0.30000000000E+01 0. -1.
</event>
<event>
 5   0  0.7495800E-05  0.9118800E+02  0.7818608E-02  0.1180000E+00
       11   -1    0    0    0    0  0.00000000000E+00  0.00000000000E+00  0.39999999673E+01  0.40000000000E+01  0.51109989000E-03 0.  1.
     -623   -1    0    0    0    0  0.00000000000E+00  0.00000000000E+00  0.12525980253E-10  0.17130000000E+03  0.17130000000E+03 0.  1.
       11    1    1    2    0    0 -0.73566281226E-01 -0.11546407719E+00 -0.86796657521E-01  0.16210450898E+00  0.51109989000E-03 0.  1.
     -623    1    1    2    0    0  0.10152915470E+01  0.20827016068E+00  0.19123600383E+01  0.17131380947E+03  0.17130000000E+03 0.  1.
      622    1    1    2    0    0 -0.94172526574E+00 -0.92806083489E-01  0.21744365866E+01  0.38240860234E+01  0.30000000000E+01 0.  1.
</event>
<event>
 5   0  0.7495800E-05  0.9118800E+02  0.7818608E-02  0.1180000E+00
       11   -1    0    0    0    0  0.00000000000E+00  0.00000000000E+00  0.39999999673E+01  0.40000000000E+01  0.51109989000E-03 0.  1.
     -623   -1    0    0    0    0  0.00000000000E+00  0.00000000000E+00  0.12525980253E-10  0.17130000000E+03  0.17130000000E+03 0.  1.
       11    1    1    2    0    0  0.49206227001E+00  0.40766462033E+00  0.53896438821E+00  0.83594174032E+00  0.51109989000E-03 0.  1.
     -623    1    1    2    0    0 -0.44001291935E+00 -0.72132576333E+00  0.25810299987E+01  0.17132152707E+03  0.17130000000E+03 0.  1.
      622    1    1    2    0    0 -0.52049350660E-01  0.31366114300E+00  0.88000558048E+00  0.31425311883E+01  0.30000000000E+01 0.  0.
</event>
<event>
 5   0  0.7495800E-05  0.9118800E+02  0.7818608E-02  0.1180000E+00
       11   -1    0    0    0    0  0.00000000000E+00  0.00000000000E+00  0.39999999673E+01  0.40000000000E+01  0.51109989000E-03 0. -1.
     -623   -1    0    0    0    0  0.00000000000E+00  0.00000000000E+00  0.12525980253E-10  0.17130000000E+03  0.17130000000E+03 0.  1.
       11    1    1    2    0    0  0.24800297096E-01  0.86571990064E-02 -0.48943385458E-01  0.55549239723E-01  0.51109989000E-03 0. -1.
     -623    1    1    2    0    0  0.11105779154E+00 -0.37697199364E+00  0.15295776772E+01  0.17130727962E+03  0.17130000000E+03 0.  1.
      622    1    1    2    0    0 -0.13585808863E+00  0.36831479464E+00  0.25193656756E+01  0.39371711438E+01  0.30000000000E+01 0. -1.
</event>
<event>
 5   0  0.7495800E-05  0.9118800E+02  0.7818608E-02  0.1180000E+00
       11   -1    0    0    0    0  0.00000000000E+00  0.00000000000E+00  0.39999999673E+01  0.40000000000E+01  0.51109989000E-03 0. -1.
     -623   -1    0    0    0    0  0.00000000000E+00  0.00000000000E+00  0.12525980253E-10  0.17130000000E+03  0.17130000000E+03 0.  1.
       11    1    1    2    0    0  0.13046514365E+00 -0.75992682252E-01 -0.25796581525E+00  0.29890243312E+00  0.51109989000E-03 0. -1.
     -623    1    1    2    0    0  0.44019206015E+00 -0.20644877072E+00  0.22129687067E+01  0.17131498364E+03  0.17130000000E+03 0.  1.
      622    1    1    2    0    0 -0.57065720381E+00  0.28244145297E+00  0.20449970759E+01  0.36861139238E+01  0.30000000000E+01 0. -1.
</event>
<event>
 5   0  0.7495800E-05  0.9118800E+02  0.7818608E-02  0.1180000E+00
       11   -1    0    0    0    0  0.00000000000E+00  0.00000000000E+00  0.39999999673E+01  0.40000000000E+01  0.51109989000E-03 0. -1.
     -623   -1    0    0    0    0  0.00000000000E+00  0.00000000000E+00  0.12525980253E-10  0.17130000000E+03  0.17130000000E+03 0.  1.
       11    1    1    2    0    0  0.10401165287E+00 -0.68671435062E+00  0.16864081236E-01  0.69475152518E+00  0.51109989000E-03 0. -1.
     -623    1    1    2    0    0  0.97589118818E+00  0.46277185196E+00  0.32917650986E+01  0.17133502922E+03  0.17130000000E+03 0.  1.
      622    1    1    2    0    0 -0.10799028410E+01  0.22394249866E+00  0.69137078753E+00  0.32702192518E+01  0.30000000000E+01 0. -1.
</event>
<event>
 5   0  0.7495800E-05  0.9118800E+02  0.7818608E-02  0.1180000E+00
       11   -1    0    0    0    0  0.00000000000E+00  0.00000000000E+00  0.39999999673E+01  0.40000000000E+01  0.51109989000E-03 0. -1.
     -623   -1    0    0    0    0  0.00000000000E+00  0.00000000000E+00  0.12525980253E-10  0.17130000000E+03  0.17130000000E+03 0. -1.
       11    1    1    2    0    0  0.86206258512E-01  0.66953550146E-01 -0.24377320329E-01  0.11184279973E+00  0.51109989000E-03 0. -1.
     -623    1    1    2    0    0 -0.10355293596E+00 -0.53582654501E-01  0.15623401026E+01  0.17130716418E+03  0.17130000000E+03 0. -1.
      622    1    1    2    0    0  0.17346677448E-01 -0.13370895645E-01  0.24620371851E+01  0.38809930158E+01  0.30000000000E+01 0. -1.
</event>
<event>
 5   0  0.7495800E-05  0.9118800E+02  0.7818608E-02  0.1180000E+00
       11   -1    0    0    0    0  0.00000000000E+00  0.00000000000E+00  0.39999999673E+01  0.40000000000E+01  0.51109989000E-03 0. -1.
     -623   -1    0    0    0    0  0.00000000000E+00  0.00000000000E+00  0.12525980253E-10  0.17130000000E+03  0.17130000000E+03 0.  1.
       11    1    1    2    0    0  0.14370901593E+00 -0.10081653756E+00  0.50872601394E+00  0.53816231193E+00  0.51109989000E-03 0. -1.
     -623    1    1    2    0    0 -0.31492277993E+00 -0.14990621143E+00  0.18109436863E+01  0.17130992722E+03  0.17130000000E+03 0.  1.
      622    1    1    2    0    0  0.17121376400E+00  0.25072274899E+00  0.16803302671E+01  0.34519104647E+01  0.30000000000E+01 0. -1.
</event>
<event>
 5   0  0.7495800E-05  0.9118800E+02  0.7818608E-02  0.1180000E+00
       11   -1    0    0    0    0  0.00000000000E+00  0.00000000000E+00  0.39999999673E+01  0.40000000000E+01  0.51109989000E-03 0. -1.
     -623   -1    0    0    0    0  0.00000000000E+00  0.00000000000E+00  0.12525980253E-10  0.17130000000E+03  0.17130000000E+03 0.  1.
       11    1    1    2    0    0  0.23697150353E-01  0.38070987154E-01 -0.21398100411E-01  0.49689988147E-01  0.51109989000E-03 0. -1.
     -623    1    1    2    0    0  0.14984714004E+00  0.79309794307E-01  0.14698077323E+01  0.17130638949E+03  0.17130000000E+03 0.  1.
      622    1    1    2    0    0 -0.17354429039E+00 -0.11738078146E+00  0.25515903354E+01  0.39439205251E+01  0.30000000000E+01 0. -1.
</event>
<event>
 5   0  0.7495800E-05  0.9118800E+02  0.7818608E-02  0.1180000E+00
       11   -1    0    0    0    0  0.00000000000E+00  0.00000000000E+00  0.39999999673E+01  0.40000000000E+01  0.51109989000E-03 0. -1.
     -623   -1    0    0    0    0  0.00000000000E+00  0.00000000000E+00  0.12525980253E-10  0.17130000000E+03  0.17130000000E+03 0.  1.
       11    1    1    2    0    0 -0.77182353477E-01  0.61026285798E-01 -0.96047914081E-01  0.13750195006E+00  0.51109989000E-03 0. -1.
     -623    1    1    2    0    0  0.91143102780E-01  0.15557067689E+00  0.16862750969E+01  0.17130839452E+03  0.17130000000E+03 0.  1.
      622    1    1    2    0    0 -0.13960749304E-01 -0.21659696269E+00  0.24097727845E+01  0.38541035300E+01  0.30000000000E+01 0. -1.
</event>
<event>
 5   0  0.7495800E-05  0.9118800E+02  0.7818608E-02  0.1180000E+00
       11   -1    0    0    0    0  0.00000000000E+00  0.00000000000E+00  0.39999999673E+01  0.40000000000E+01  0.51109989000E-03 0. -1.
     -623   -1    0    0    0    0  0.00000000000E+00  0.00000000000E+00  0.12525980253E-10  0.17130000000E+03  0.17130000000E+03 0.  1.
       11    1    1    2    0    0 -0.37062478694E+00  0.25237494159E+00 -0.10802303951E+00  0.46122129409E+00  0.51109989000E-03 0. -1.
     -623    1    1    2    0    0  0.41205976144E+00 -0.19816712575E+00  0.22617986709E+01  0.17131554161E+03  0.17130000000E+03 0.  1.
      622    1    1    2    0    0 -0.41434974505E-01 -0.54207815841E-01  0.18462243360E+01  0.35232370972E+01  0.30000000000E+01 0. -1.
</event>
<event>
 5   0  0.7495800E-05  0.9118800E+02  0.7818608E-02  0.1180000E+00
       11   -1    0    0    0    0  0.00000000000E+00  0.00000000000E+00  0.39999999673E+01  0.40000000000E+01  0.51109989000E-03 0.  1.
     -623   -1    0    0    0    0  0.00000000000E+00  0.00000000000E+00  0.12525980253E-10  0.17130000000E+03  0.17130000000E+03 0.  1.
       11    1    1    2    0    0 -0.20996934263E+00  0.11900763089E+00  0.11682567795E+00  0.26813884707E+00  0.51109989000E-03 0.  1.
     -623    1    1    2    0    0  0.28735154223E+00 -0.14985929205E+01  0.21912349443E+01  0.17132080978E+03  0.17130000000E+03 0. -1.
      622    1    1    2    0    0 -0.77382199598E-01  0.13795852896E+01  0.16919393452E+01  0.37110513771E+01  0.30000000000E+01 0.  1.
</event>
<event>
 5   0  0.7495800E-05  0.9118800E+02  0.7818608E-02  0.1180000E+00
       11   -1    0    0    0    0  0.00000000000E+00  0.00000000000E+00  0.39999999673E+01  0.40000000000E+01  0.51109989000E-03 0.  1.
     -623   -1    0    0    0    0  0.00000000000E+00  0.00000000000E+00  0.12525980253E-10  0.17130000000E+03  0.17130000000E+03 0.  1.
       11    1    1    2    0    0 -0.29183854196E+00 -0.22508135665E-01  0.95092123785E-01  0.30776472178E+00  0.51109989000E-03 0.  1.
     -623    1    1    2    0    0  0.87315301371E+00  0.11306249451E+01  0.21963410275E+01  0.17132003567E+03  0.17130000000E+03 0.  1.
      622    1    1    2    0    0 -0.58131447175E+00 -0.11081168094E+01  0.17085668161E+01  0.36721996056E+01  0.30000000000E+01 0.  0.
</event>
<event>
 5   0  0.7495800E-05  0.9118800E+02  0.7818608E-02  0.1180000E+00
       11   -1    0    0    0    0  0.00000000000E+00  0.00000000000E+00  0.39999999673E+01  0.40000000000E+01  0.51109989000E-03 0.  1.
     -623   -1    0    0    0    0  0.00000000000E+00  0.00000000000E+00  0.12525980253E-10  0.17130000000E+03  0.17130000000E+03 0.  1.
       11    1    1    2    0    0  0.38952543517E-01  0.24677901366E+00  0.13559573605E+00  0.28425982320E+00  0.51109989000E-03 0.  1.
     -623    1    1    2    0    0 -0.35510506075E+00  0.11383634501E+00  0.17411902697E+01  0.17130925486E+03  0.17130000000E+03 0.  1.
      622    1    1    2    0    0  0.31615251723E+00 -0.36061535867E+00  0.21232139616E+01  0.37064853133E+01  0.30000000000E+01 0.  1.
</event>
<event>
 5   0  0.7495800E-05  0.9118800E+02  0.7818608E-02  0.1180000E+00
       11   -1    0    0    0    0  0.00000000000E+00  0.00000000000E+00  0.39999999673E+01  0.40000000000E+01  0.51109989000E-03 0. -1.
     -623   -1    0    0    0    0  0.00000000000E+00  0.00000000000E+00  0.12525980253E-10  0.17130000000E+03  0.17130000000E+03 0.  1.
       11    1    1    2    0    0 -0.34564897415E-01  0.28345636868E+00 -0.36240201924E+00  0.46138674651E+00  0.51109989000E-03 0. -1.
     -623    1    1    2    0    0  0.91119398017E+00 -0.45684183063E+00  0.27673344520E+01  0.17132538376E+03  0.17130000000E+03 0.  1.
      622    1    1    2    0    0 -0.87662908275E+00  0.17338546195E+00  0.15950675346E+01  0.35132294982E+01  0.30000000000E+01 0. -1.
</event>
<event>
 5   0  0.7495800E-05  0.9118800E+02  0.7818608E-02  0.1180000E+00
       11   -1    0    0    0    0  0.00000000000E+00  0.00000000000E+00  0.39999999673E+01  0.40000000000E+01  0.51109989000E-03 0.  1.
     -623   -1    0    0    0    0  0.00000000000E+00  0.00000000000E+00  0.12525980253E-10  0.17130000000E+03  0.17130000000E+03 0.  1.
       11    1    1    2    0    0  0.55151584196E+00 -0.23302700833E-01  0.37720898259E+00  0.66858030001E+00  0.51109989000E-03 0.  1.
     -623    1    1    2    0    0 -0.71781040678E+00  0.76825558177E+00  0.46602870426E+01  0.17136660627E+03  0.17130000000E+03 0.  1.
      622    1    1    2    0    0  0.16629456482E+00 -0.74495288094E+00 -0.10374960578E+01  0.32648134322E+01  0.30000000000E+01 0.  0.
</event>
<event>
 5   0  0.7495800E-05  0.9118800E+02  0.7818608E-02  0.1180000E+00
       11   -1    0    0    0    0  0.00000000000E+00  0.00000000000E+00  0.39999999673E+01  0.40000000000E+01  0.51109989000E-03 0.  1.
     -623   -1    0    0    0    0  0.00000000000E+00  0.00000000000E+00  0.12525980253E-10  0.17130000000E+03  0.17130000000E+03 0. -1.
       11    1    1    2    0    0 -0.46906080527E+00  0.51407958517E-01  0.58186606268E+00  0.74915231653E+00  0.51109989000E-03 0.  1.
     -623    1    1    2    0    0  0.21080051843E+00  0.39020395097E+00  0.23224756328E+01  0.17131631735E+03  0.17130000000E+03 0. -1.
      622    1    1    2    0    0  0.25826028684E+00 -0.44161190949E+00  0.10956582719E+01  0.32345303373E+01  0.30000000000E+01 0.  1.
</event>
<event>
 5   0  0.7495800E-05  0.9118800E+02  0.7818608E-02  0.1180000E+00
       11   -1    0    0    0    0  0.00000000000E+00  0.00000000000E+00  0.39999999673E+01  0.40000000000E+01  0.51109989000E-03 0. -1.
     -623   -1    0    0    0    0  0.00000000000E+00  0.00000000000E+00  0.12525980253E-10  0.17130000000E+03  0.17130000000E+03 0.  1.
       11    1    1    2    0    0 -0.90709121003E-01 -0.23056207037E+00 -0.22973373964E+00  0.33788291652E+00  0.51109989000E-03 0. -1.
     -623    1    1    2    0    0 -0.20766856473E+00 -0.47029257826E-01  0.21947210832E+01  0.17131419129E+03  0.17130000000E+03 0.  1.
      622    1    1    2    0    0  0.29837768574E+00  0.27759132820E+00  0.20350126237E+01  0.36479257898E+01  0.30000000000E+01 0. -1.
</event>
<event>
 5   0  0.7495800E-05  0.9118800E+02  0.7818608E-02  0.1180000E+00
       11   -1    0    0    0    0  0.00000000000E+00  0.00000000000E+00  0.39999999673E+01  0.40000000000E+01  0.51109989000E-03 0.  1.
     -623   -1    0    0    0    0  0.00000000000E+00  0.00000000000E+00  0.12525980253E-10  0.17130000000E+03  0.17130000000E+03 0.  1.
       11    1    1    2    0    0 -0.11996186830E+00 -0.17831398503E+00  0.13412666402E+00  0.25333170020E+00  0.51109989000E-03 0.  1.
     -623    1    1    2    0    0  0.37727928831E-01  0.14221805514E-01  0.16421646279E+01  0.17130787586E+03  0.17130000000E+03 0.  1.
      622    1    1    2    0    0  0.82233939470E-01  0.16409217952E+00  0.22237086754E+01  0.37387924437E+01  0.30000000000E+01 0.  1.
</event>
<event>
 5   0  0.7495800E-05  0.9118800E+02  0.7818608E-02  0.1180000E+00
       11   -1    0    0    0    0  0.00000000000E+00  0.00000000000E+00  0.39999999673E+01  0.40000000000E+01  0.51109989000E-03 0.  1.
     -623   -1    0    0    0    0  0.00000000000E+00  0.00000000000E+00  0.12525980253E-10  0.17130000000E+03  0.17130000000E+03 0. -1.
       11    1    1    2    0    0  0.36058846223E+00  0.12094142639E-01  0.29475227177E+00  0.46588568374E+00  0.51109989000E-03 0.  1.
     -623    1    1    2    0    0 -0.24004412099E+00 -0.51075982420E+00  0.19323110519E+01  0.17131182774E+03  0.17130000000E+03 0. -1.
      622    1    1    2    0    0 -0.12054434124E+00  0.49866568156E+00  0.17729366436E+01  0.35222865787E+01  0.30000000000E+01 0.  1.
</event>
<event>
 5   0  0.7495800E-05  0.9118800E+02  0.7818608E-02  0.1180000E+00
       11   -1    0    0    0    0  0.00000000000E+00  0.00000000000E+00  0.39999999673E+01  0.40000000000E+01  0.51109989000E-03 0.  1.
     -623   -1    0    0    0    0  0.00000000000E+00  0.00000000000E+00  0.12525980253E-10  0.17130000000E+03  0.17130000000E+03 0. -1.
       11    1    1    2    0    0 -0.12239255676E+00  0.33092173261E+00 -0.31740795919E+00  0.47459161902E+00  0.51109989000E-03 0.  1.
     -623    1    1    2    0    0 -0.43260857868E-01 -0.50099509472E+00  0.25182982962E+01  0.17131924788E+03  0.17130000000E+03 0. -1.
      622    1    1    2    0    0  0.16565341463E+00  0.17007336210E+00  0.17991096303E+01  0.35061605018E+01  0.30000000000E+01 0.  1.
</event>
<event>
 5   0  0.7495800E-05  0.9118800E+02  0.7818608E-02  0.1180000E+00
       11   -1    0    0    0    0  0.00000000000E+00  0.00000000000E+00  0.39999999673E+01  0.40000000000E+01  0.51109989000E-03 0.  1.
     -623   -1    0    0    0    0  0.00000000000E+00  0.00000000000E+00  0.12525980253E-10  0.17130000000E+03  0.17130000000E+03 0. -1.
       11    1    1    2    0    0  0.11934274651E+00 -0.11944594672E-01  0.10754010269E+00  0.16109158697E+00  0.51109989000E-03 0.  1.
     -623    1    1    2    0    0 -0.26335388302E+00 -0.20689644922E-01  0.15128363676E+01  0.17130688386E+03  0.17130000000E+03 0. -1.
      622    1    1    2    0    0  0.14401113652E+00  0.32634239594E-01  0.23796234971E+01  0.38320245548E+01  0.30000000000E+01 0.  1.
</event>
<event>
 5   0  0.7495800E-05  0.9118800E+02  0.7818608E-02  0.1180000E+00
       11   -1    0    0    0    0  0.00000000000E+00  0.00000000000E+00  0.39999999673E+01  0.40000000000E+01  0.51109989000E-03 0.  1.
     -623   -1    0    0    0    0  0.00000000000E+00  0.00000000000E+00  0.12525980253E-10  0.17130000000E+03  0.17130000000E+03 0. -1.
       11    1    1    2    0    0  0.82768618784E+00 -0.15899428680E-01 -0.13683320339E+00  0.83907139395E+00  0.51109989000E-03 0.  1.
     -623    1    1    2    0    0 -0.23537668541E+00  0.43381389141E+00  0.36742057983E+01  0.17134011026E+03  0.17130000000E+03 0. -1.
      622    1    1    2    0    0 -0.59230950243E+00 -0.41791446273E+00  0.46262737240E+00  0.31208183431E+01  0.30000000000E+01 0.  1.
</event>
<event>
 5   0  0.7495800E-05  0.9118800E+02  0.7818608E-02  0.1180000E+00
       11   -1    0    0    0    0  0.00000000000E+00  0.00000000000E+00  0.39999999673E+01  0.40000000000E+01  0.51109989000E-03 0.  1.
     -623   -1    0    0    0    0  0.00000000000E+00  0.00000000000E+00  0.12525980253E-10  0.17130000000E+03  0.17130000000E+03 0. -1.
       11    1    1    2    0    0 -0.17118873276E+00  0.18737763176E+00 -0.22065898432E+00  0.33631325828E+00  0.51109989000E-03 0.  1.
     -623    1    1    2    0    0  0.57722787492E-01 -0.65777089324E+00  0.22018259561E+01  0.17131542263E+03  0.17130000000E+03 0. -1.
      622    1    1    2    0    0  0.11346594526E+00  0.47039326149E+00  0.20188329956E+01  0.36482641085E+01  0.30000000000E+01 0.  1.
</event>
<event>
 5   0  0.7495800E-05  0.9118800E+02  0.7818608E-02  0.1180000E+00
       11   -1    0    0    0    0  0.00000000000E+00  0.00000000000E+00  0.39999999673E+01  0.40000000000E+01  0.51109989000E-03 0.  1.
     -623   -1    0    0    0    0  0.00000000000E+00  0.00000000000E+00  0.12525980253E-10  0.17130000000E+03  0.17130000000E+03 0.  1.
       11    1    1    2    0    0 -0.10807097414E+00  0.27272433652E+00  0.85956299006E-01  0.30569044104E+00  0.51109989000E-03 0.  1.
     -623    1    1    2    0    0 -0.23282942996E+00  0.37829485046E+00  0.19077368525E+01  0.17131119863E+03  0.17130000000E+03 0.  1.
      622    1    1    2    0    0  0.34090040410E+00 -0.65101918698E+00  0.20063068159E+01  0.36831109278E+01  0.30000000000E+01 0.  1.
</event>
<event>
 5   0  0.7495800E-05  0.9118800E+02  0.7818608E-02  0.1180000E+00
       11   -1    0    0    0    0  0.00000000000E+00  0.00000000000E+00  0.39999999673E+01  0.40000000000E+01  0.51109989000E-03 0.  1.
     -623   -1    0    0    0    0  0.00000000000E+00  0.00000000000E+00  0.12525980253E-10  0.17130000000E+03  0.17130000000E+03 0.  1.
       11    1    1    2    0    0  0.21611620078E+00 -0.16158167173E+00  0.16837358863E+00  0.31806410588E+00  0.51109989000E-03 0.  1.
     -623    1    1    2    0    0  0.26480965354E+00 -0.36292810677E+00  0.18382900305E+01  0.17131045255E+03  0.17130000000E+03 0.  1.
      622    1    1    2    0    0 -0.48092585432E+00  0.52450977850E+00  0.19933363482E+01  0.36714833490E+01  0.30000000000E+01 0.  1.
</event>
<event>
 5   0  0.7495800E-05  0.9118800E+02  0.7818608E-02  0.1180000E+00
       11   -1    0    0    0    0  0.00000000000E+00  0.00000000000E+00  0.39999999673E+01  0.40000000000E+01  0.51109989000E-03 0.  1.
     -623   -1    0    0    0    0  0.00000000000E+00  0.00000000000E+00  0.12525980253E-10  0.17130000000E+03  0.17130000000E+03 0.  1.
       11    1    1    2    0    0 -0.73593511626E-01 -0.24115731693E-01 -0.15262026710E+00  0.17114549548E+00  0.51109989000E-03 0.  1.
     -623    1    1    2    0    0 -0.98295755297E-01 -0.56414343908E-01  0.17964008507E+01  0.17130945654E+03  0.17130000000E+03 0.  1.
      622    1    1    2    0    0  0.17188926692E+00  0.80530075601E-01  0.23562193838E+01  0.38193979627E+01  0.30000000000E+01 0.  1.
</event>
<event>
 5   0  0.7495800E-05  0.9118800E+02  0.7818608E-02  0.1180000E+00
       11   -1    0    0    0    0  0.00000000000E+00  0.00000000000E+00  0.39999999673E+01  0.40000000000E+01  0.51109989000E-03 0. -1.
     -623   -1    0    0    0    0  0.00000000000E+00  0.00000000000E+00  0.12525980253E-10  0.17130000000E+03  0.17130000000E+03 0. -1.
       11    1    1    2    0    0  0.15290102396E-01  0.15539967490E+00 -0.38165890845E-01  0.16074744986E+00  0.51109989000E-03 0. -1.
     -623    1    1    2    0    0 -0.20047107768E+00  0.34594401645E+00  0.17176924735E+01  0.17130907837E+03  0.17130000000E+03 0. -1.
      622    1    1    2    0    0  0.18518097528E+00 -0.50134369135E+00  0.23204733847E+01  0.38301741761E+01  0.30000000000E+01 0. -1.
</event>
<event>
 5   0  0.7495800E-05  0.9118800E+02  0.7818608E-02  0.1180000E+00
       11   -1    0    0    0    0  0.00000000000E+00  0.00000000000E+00  0.39999999673E+01  0.40000000000E+01  0.51109989000E-03 0. -1.
     -623   -1    0    0    0    0  0.00000000000E+00  0.00000000000E+00  0.12525980253E-10  0.17130000000E+03  0.17130000000E+03 0.  1.
       11    1    1    2    0    0  0.39252032705E+00  0.58162980203E-01 -0.42890871137E-01  0.39911781151E+00  0.51109989000E-03 0. -1.
     -623    1    1    2    0    0 -0.75264324731E+00 -0.22916539229E+00  0.21192941654E+01  0.17131491586E+03  0.17130000000E+03 0.  1.
      622    1    1    2    0    0  0.36012292025E+00  0.17100241209E+00  0.19235966731E+01  0.35859663277E+01  0.30000000000E+01 0. -1.
</event>
<event>
 5   0  0.7495800E-05  0.9118800E+02  0.7818608E-02  0.1180000E+00
       11   -1    0    0    0    0  0.00000000000E+00  0.00000000000E+00  0.39999999673E+01  0.40000000000E+01  0.51109989000E-03 0.  1.
     -623   -1    0    0    0    0  0.00000000000E+00  0.00000000000E+00  0.12525980253E-10  0.17130000000E+03  0.17130000000E+03 0.  1.
       11    1    1    2    0    0 -0.13226844104E+00 -0.86412323287E-01 -0.12586275006E+00  0.20199931482E+00  0.51109989000E-03 0.  1.
     -623    1    1    2    0    0  0.74136064126E+00 -0.14215509174E+00  0.19104228508E+01  0.17131231578E+03  0.17130000000E+03 0.  1.
      622    1    1    2    0    0 -0.60909220022E+00  0.22856741502E+00  0.22154398666E+01  0.37856849016E+01  0.30000000000E+01 0.  1.
</event>
<event>
 5   0  0.7495800E-05  0.9118800E+02  0.7818608E-02  0.1180000E+00
       11   -1    0    0    0    0  0.00000000000E+00  0.00000000000E+00  0.39999999673E+01  0.40000000000E+01  0.51109989000E-03 0.  1.
     -623   -1    0    0    0    0  0.00000000000E+00  0.00000000000E+00  0.12525980253E-10  0.17130000000E+03  0.17130000000E+03 0. -1.
       11    1    1    2    0    0 -0.25592862171E+00  0.63970772590E+00  0.32014215760E+00  0.75974778466E+00  0.51109989000E-03 0.  1.
     -623    1    1    2    0    0  0.76474671004E+00 -0.10020755114E+01  0.27099340138E+01  0.17132607138E+03  0.17130000000E+03 0. -1.
      622    1    1    2    0    0 -0.50881808832E+00  0.36236778548E+00  0.96992379593E+00  0.32141808333E+01  0.30000000000E+01 0.  1.
</event>
<event>
 5   0  0.7495800E-05  0.9118800E+02  0.7818608E-02  0.1180000E+00
       11   -1    0    0    0    0  0.00000000000E+00  0.00000000000E+00  0.39999999673E+01  0.40000000000E+01  0.51109989000E-03 0.  1.
     -623   -1    0    0    0    0  0.00000000000E+00  0.00000000000E+00  0.12525980253E-10  0.17130000000E+03  0.17130000000E+03 0. -1.
       11    1    1    2    0    0 -0.15990385121E+00 -0.37782874101E+00  0.10325382435E+00  0.42306667634E+00  0.51109989000E-03 0.  1.
     -623    1    1    2    0    0  0.27896501827E+00 -0.29814557601E-01  0.20185750234E+01  0.17131212262E+03  0.17130000000E+03 0. -1.
      622    1    1    2    0    0 -0.11906116705E+00  0.40764329861E+00  0.18781711196E+01  0.35648107067E+01  0.30000000000E+01 0.  1.
</event>
<event>
 5   0  0.7495800E-05  0.9118800E+02  0.7818608E-02  0.1180000E+00
       11   -1    0    0    0    0  0.00000000000E+00  0.00000000000E+00  0.39999999673E+01  0.40000000000E+01  0.51109989000E-03 0.  1.
     -623   -1    0    0    0    0  0.00000000000E+00  0.00000000000E+00  0.12525980253E-10  0.17130000000E+03  0.17130000000E+03 0.  1.
       11    1    1    2    0    0  0.44131290458E+00  0.10327254397E+00  0.44045587171E+00  0.63199994797E+00  0.51109989000E-03 0.  1.
     -623    1    1    2    0    0 -0.50084202118E+00 -0.54282201040E-01  0.20597948489E+01  0.17131312426E+03  0.17130000000E+03 0.  1.
      622    1    1    2    0    0  0.59529116595E-01 -0.48990342926E-01  0.14997492467E+01  0.33548757909E+01  0.30000000000E+01 0.  1.
</event>
<event>
 5   0  0.7495800E-05  0.9118800E+02  0.7818608E-02  0.1180000E+00
       11   -1    0    0    0    0  0.00000000000E+00  0.00000000000E+00  0.39999999673E+01  0.40000000000E+01  0.51109989000E-03 0. -1.
     -623   -1    0    0    0    0  0.00000000000E+00  0.00000000000E+00  0.12525980253E-10  0.17130000000E+03  0.17130000000E+03 0. -1.
       11    1    1    2    0    0 -0.74674759915E+00  0.79881230173E-01  0.76323424113E-01  0.75487648927E+00  0.51109989000E-03 0. -1.
     -623    1    1    2    0    0  0.10011586274E+01  0.25348743230E+00  0.28359631226E+01  0.17132658656E+03  0.17130000000E+03 0. -1.
      622    1    1    2    0    0 -0.25441102827E+00 -0.33336866247E+00  0.10877134206E+01  0.32185369536E+01  0.30000000000E+01 0. -1.
</event>
<event>
 5   0  0.7495800E-05  0.9118800E+02  0.7818608E-02  0.1180000E+00
       11   -1    0    0    0    0  0.00000000000E+00  0.00000000000E+00  0.39999999673E+01  0.40000000000E+01  0.51109989000E-03 0.  1.
     -623   -1    0    0    0    0  0.00000000000E+00  0.00000000000E+00  0.12525980253E-10  0.17130000000E+03  0.17130000000E+03 0. -1.
       11    1    1    2    0    0  0.17291282472E+00 -0.52168273093E+00 -0.88711342650E-01  0.55670609862E+00  0.51109989000E-03 0.  1.
     -623    1    1    2    0    0 -0.12330098767E+01 -0.12046582441E+00  0.30376199400E+01  0.17133140973E+03  0.17130000000E+03 0. -1.
      622    1    1    2    0    0  0.10600970520E+01  0.64214855534E+00  0.10510913700E+01  0.34118841708E+01  0.30000000000E+01 0.  1.
</event>
<event>
 5   0  0.7495800E-05  0.9118800E+02  0.7818608E-02  0.1180000E+00
       11   -1    0    0    0    0  0.00000000000E+00  0.00000000000E+00  0.39999999673E+01  0.40000000000E+01  0.51109989000E-03 0. -1.
     -623   -1    0    0    0    0  0.00000000000E+00  0.00000000000E+00  0.12525980253E-10  0.17130000000E+03  0.17130000000E+03 0. -1.
       11    1    1    2    0    0 -0.21093394001E+00  0.49396056847E+00  0.19216805685E+00  0.57045507584E+00  0.51109989000E-03 0. -1.
     -623    1    1    2    0    0  0.17654020075E+00  0.20367078828E+00  0.23369906251E+01  0.17131615269E+03  0.17130000000E+03 0. -1.
      622    1    1    2    0    0  0.34393739259E-01 -0.69763135675E+00  0.14708412854E+01  0.34133922315E+01  0.30000000000E+01 0. -1.
</event>
<event>
 5   0  0.7495800E-05  0.9118800E+02  0.7818608E-02  0.1180000E+00
       11   -1    0    0    0    0  0.00000000000E+00  0.00000000000E+00  0.39999999673E+01  0.40000000000E+01  0.51109989000E-03 0. -1.
     -623   -1    0    0    0    0  0.00000000000E+00  0.00000000000E+00  0.12525980253E-10  0.17130000000E+03  0.17130000000E+03 0.  1.
       11    1    1    2    0    0  0.10834062879E+00  0.15293875983E+00 -0.67518397012E-01  0.19921584089E+00  0.51109989000E-03 0. -1.
     -623    1    1    2    0    0 -0.13850406662E+00 -0.81903921251E+00  0.18516379735E+01  0.17131202110E+03  0.17130000000E+03 0.  1.
      622    1    1    2    0    0  0.30163437822E-01  0.66610045268E+00  0.22158803909E+01  0.37887630637E+01  0.30000000000E+01 0. -1.
</event>
<event>
 5   0  0.7495800E-05  0.9118800E+02  0.7818608E-02  0.1180000E+00
       11   -1    0    0    0    0  0.00000000000E+00  0.00000000000E+00  0.39999999673E+01  0.40000000000E+01  0.51109989000E-03 0.  1.
     -623   -1    0    0    0    0  0.00000000000E+00  0.00000000000E+00  0.12525980253E-10  0.17130000000E+03  0.17130000000E+03 0.  1.
       11    1    1    2    0    0 -0.16173059526E+00  0.22511777939E-01  0.23996159911E+00  0.29025057426E+00  0.51109989000E-03 0.  1.
     -623    1    1    2    0    0  0.72715338192E+00  0.47242705988E+00  0.17311194676E+01  0.17131094161E+03  0.17130000000E+03 0.  1.
      622    1    1    2    0    0 -0.56542278665E+00 -0.49493883782E+00  0.20289189007E+01  0.36988078196E+01  0.30000000000E+01 0.  0.
</event>
<event>
 5   0  0.7495800E-05  0.9118800E+02  0.7818608E-02  0.1180000E+00
       11   -1    0    0    0    0  0.00000000000E+00  0.00000000000E+00  0.39999999673E+01  0.40000000000E+01  0.51109989000E-03 0. -1.
     -623   -1    0    0    0    0  0.00000000000E+00  0.00000000000E+00  0.12525980253E-10  0.17130000000E+03  0.17130000000E+03 0. -1.
       11    1    1    2    0    0  0.16733122089E+00 -0.44995389627E+00 -0.24309345343E+00  0.53810123079E+00  0.51109989000E-03 0. -1.
     -623    1    1    2    0    0 -0.42498004468E+00 -0.46802951132E-01  0.26537447669E+01  0.17132108790E+03  0.17130000000E+03 0. -1.
      622    1    1    2    0    0  0.25764882379E+00  0.49675684741E+00  0.15893486539E+01  0.34408108674E+01  0.30000000000E+01 0.  0.
</event>
<event>
 5   0  0.7495800E-05  0.9118800E+02  0.7818608E-02  0.1180000E+00
       11   -1    0    0    0    0  0.00000000000E+00  0.00000000000E+00  0.39999999673E+01  0.40000000000E+01  0.51109989000E-03 0.  1.
     -623   -1    0    0    0    0  0.00000000000E+00  0.00000000000E+00  0.12525980253E-10  0.17130000000E+03  0.17130000000E+03 0. -1.
       11    1    1    2    0    0  0.50039255062E+00 -0.27798730102E+00  0.14464699570E+00  0.59041735987E+00  0.51109989000E-03 0.  1.
     -623    1    1    2    0    0 -0.78680061225E+00  0.32221459669E+00  0.22990802606E+01  0.17131753748E+03  0.17130000000E+03 0. -1.
      622    1    1    2    0    0  0.28640806164E+00 -0.44227295661E-01  0.15562727110E+01  0.33920451622E+01  0.30000000000E+01 0.  1.
</event>
<event>
 5   0  0.7495800E-05  0.9118800E+02  0.7818608E-02  0.1180000E+00
       11   -1    0    0    0    0  0.00000000000E+00  0.00000000000E+00  0.39999999673E+01  0.40000000000E+01  0.51109989000E-03 0. -1.
     -623   -1    0    0    0    0  0.00000000000E+00  0.00000000000E+00  0.12525980253E-10  0.17130000000E+03  0.17130000000E+03 0. -1.
       11    1    1    2    0    0  0.34244688058E+00 -0.26108414006E-01  0.30443686578E+00  0.45894834325E+00  0.51109989000E-03 0. -1.
     -623    1    1    2    0    0  0.42628451156E-01  0.30714082155E+00  0.18968018539E+01  0.17131078194E+03  0.17130000000E+03 0. -1.
      622    1    1    2    0    0 -0.38507533173E+00 -0.28103240755E+00  0.17987612477E+01  0.35302697137E+01  0.30000000000E+01 0. -1.
</event>
<event>
 5   0  0.7495800E-05  0.9118800E+02  0.7818608E-02  0.1180000E+00
       11   -1    0    0    0    0  0.00000000000E+00  0.00000000000E+00  0.39999999673E+01  0.40000000000E+01  0.51109989000E-03 0. -1.
     -623   -1    0    0    0    0  0.00000000000E+00  0.00000000000E+00  0.12525980253E-10  0.17130000000E+03  0.17130000000E+03 0.  1.
       11    1    1    2    0    0  0.13426218507E+00  0.27553394573E+00  0.15933246296E+00  0.34544519763E+00  0.51109989000E-03 0. -1.
     -623    1    1    2    0    0  0.10117543963E+01  0.38803317580E+00  0.22698479013E+01  0.17131846493E+03  0.17130000000E+03 0.  1.
      622    1    1    2    0    0 -0.11460165814E+01 -0.66356712153E+00  0.15708196031E+01  0.36360898717E+01  0.30000000000E+01 0. -1.
</event>
<event>
 5   0  0.7495800E-05  0.9118800E+02  0.7818608E-02  0.1180000E+00
       11   -1    0    0    0    0  0.00000000000E+00  0.00000000000E+00  0.39999999673E+01  0.40000000000E+01  0.51109989000E-03 0. -1.
     -623   -1    0    0    0    0  0.00000000000E+00  0.00000000000E+00  0.12525980253E-10  0.17130000000E+03  0.17130000000E+03 0.  1.
       11    1    1    2    0    0  0.62653269796E-01  0.27349256103E-02 -0.21968977816E-01  0.66451555615E-01  0.51109989000E-03 0. -1.
     -623    1    1    2    0    0  0.20391086734E+00  0.17632081491E+00  0.15088458621E+01  0.17130685709E+03  0.17130000000E+03 0.  1.
      622    1    1    2    0    0 -0.26656413713E+00 -0.17905574052E+00  0.25131230831E+01  0.39266913589E+01  0.30000000000E+01 0. -1.
</event>
<event>
 5   0  0.7495800E-05  0.9118800E+02  0.7818608E-02  0.1180000E+00
       11   -1    0    0    0    0  0.00000000000E+00  0.00000000000E+00  0.39999999673E+01  0.40000000000E+01  0.51109989000E-03 0. -1.
     -623   -1    0    0    0    0  0.00000000000E+00  0.00000000000E+00  0.12525980253E-10  0.17130000000E+03  0.17130000000E+03 0.  1.
       11    1    1    2    0    0  0.36952470415E+00  0.23162140755E-01  0.52444076244E+00  0.64196835302E+00  0.51109989000E-03 0. -1.
     -623    1    1    2    0    0 -0.48143821524E+00  0.55430887093E+00  0.21221373944E+01  0.17131471772E+03  0.17130000000E+03 0.  1.
      622    1    1    2    0    0  0.11191351108E+00 -0.57747101169E+00  0.13534218105E+01  0.33433139249E+01  0.30000000000E+01 0. -1.
</event>
<event>
 5   0  0.7495800E-05  0.9118800E+02  0.7818608E-02  0.1180000E+00
       11   -1    0    0    0    0  0.00000000000E+00  0.00000000000E+00  0.39999999673E+01  0.40000000000E+01  0.51109989000E-03 0.  1.
     -623   -1    0    0    0    0  0.00000000000E+00  0.00000000000E+00  0.12525980253E-10  0.17130000000E+03  0.17130000000E+03 0. -1.
       11    1    1    2    0    0 -0.23149930580E+00  0.34437103960E+00 -0.39212063926E+00  0.57091347721E+00  0.51109989000E-03 0.  1.
     -623    1    1    2    0    0 -0.58615527413E+00  0.28989339599E+00  0.31762975089E+01  0.17133069334E+03  0.17130000000E+03 0. -1.
      622    1    1    2    0    0  0.81765457993E+00 -0.63426443559E+00  0.12158230978E+01  0.33983931779E+01  0.30000000000E+01 0.  0.
</event>
<event>
 5   0  0.7495800E-05  0.9118800E+02  0.7818608E-02  0.1180000E+00
       11   -1    0    0    0    0  0.00000000000E+00  0.00000000000E+00  0.39999999673E+01  0.40000000000E+01  0.51109989000E-03 0. -1.
     -623   -1    0    0    0    0  0.00000000000E+00  0.00000000000E+00  0.12525980253E-10  0.17130000000E+03  0.17130000000E+03 0.  1.
       11    1    1    2    0    0  0.31952480274E+00 -0.40417585149E+00  0.26805499324E+00  0.58078219594E+00  0.51109989000E-03 0. -1.
     -623    1    1    2    0    0 -0.32480665996E+00  0.32647541911E+00  0.21222734173E+01  0.17131376515E+03  0.17130000000E+03 0.  1.
      622    1    1    2    0    0  0.52818572199E-02  0.77700432379E-01  0.16096715568E+01  0.34054526536E+01  0.30000000000E+01 0. -1.
</event>
<event>
 5   0  0.7495800E-05  0.9118800E+02  0.7818608E-02  0.1180000E+00
       11   -1    0    0    0    0  0.00000000000E+00  0.00000000000E+00  0.39999999673E+01  0.40000000000E+01  0.51109989000E-03 0.  1.
     -623   -1    0    0    0    0  0.00000000000E+00  0.00000000000E+00  0.12525980253E-10  0.17130000000E+03  0.17130000000E+03 0.  1.
       11    1    1    2    0    0 -0.11831287048E+00  0.44494300845E+00  0.60447271353E-01  0.46435584407E+00  0.51109989000E-03 0.  1.
     -623    1    1    2    0    0  0.67117719850E+00 -0.84460083093E+00  0.22340655190E+01  0.17131796426E+03  0.17130000000E+03 0.  1.
      622    1    1    2    0    0 -0.55286432802E+00  0.39965782248E+00  0.17054871770E+01  0.35176798961E+01  0.30000000000E+01 0.  1.
</event>
<event>
 5   0  0.7495800E-05  0.9118800E+02  0.7818608E-02  0.1180000E+00
       11   -1    0    0    0    0  0.00000000000E+00  0.00000000000E+00  0.39999999673E+01  0.40000000000E+01  0.51109989000E-03 0. -1.
     -623   -1    0    0    0    0  0.00000000000E+00  0.00000000000E+00  0.12525980253E-10  0.17130000000E+03  0.17130000000E+03 0.  1.
       11    1    1    2    0    0 -0.32454665130E+00 -0.25047034427E-01 -0.47185966725E+00  0.57324487752E+00  0.51109989000E-03 0. -1.
     -623    1    1    2    0    0  0.90326900803E+00  0.49096026436E+00  0.30637816158E+01  0.17133048093E+03  0.17130000000E+03 0.  1.
      622    1    1    2    0    0 -0.57872235673E+00 -0.46591322993E+00  0.14080780188E+01  0.33962741955E+01  0.30000000000E+01 0. -1.
</event>
<event>
 5   0  0.7495800E-05  0.9118800E+02  0.7818608E-02  0.1180000E+00
       11   -1    0    0    0    0  0.00000000000E+00  0.00000000000E+00  0.39999999673E+01  0.40000000000E+01  0.51109989000E-03 0. -1.
     -623   -1    0    0    0    0  0.00000000000E+00  0.00000000000E+00  0.12525980253E-10  0.17130000000E+03  0.17130000000E+03 0.  1.
       11    1    1    2    0    0 -0.63899333198E-01  0.10261433622E+00 -0.12777789306E+00  0.17589848766E+00  0.51109989000E-03 0. -1.
     -623    1    1    2    0    0  0.13123762538E+01  0.12503308320E+01  0.27143567805E+01  0.17133109289E+03  0.17130000000E+03 0.  1.
      622    1    1    2    0    0 -0.12484769206E+01 -0.13529451682E+01  0.14134210800E+01  0.37930086210E+01  0.30000000000E+01 0. -1.
</event>
<event>
 5   0  0.7495800E-05  0.9118800E+02  0.7818608E-02  0.1180000E+00
       11   -1    0    0    0    0  0.00000000000E+00  0.00000000000E+00  0.39999999673E+01  0.40000000000E+01  0.51109989000E-03 0.  1.
     -623   -1    0    0    0    0  0.00000000000E+00  0.00000000000E+00  0.12525980253E-10  0.17130000000E+03  0.17130000000E+03 0. -1.
       11    1    1    2    0    0 -0.20710027266E+00 -0.66369312034E-01  0.14062526541E+00  0.25898095491E+00  0.51109989000E-03 0.  1.
     -623    1    1    2    0    0  0.24595957887E+00 -0.30109818277E+00  0.16697243795E+01  0.17130857870E+03  0.17130000000E+03 0. -1.
      622    1    1    2    0    0 -0.38859306212E-01  0.36746749480E+00  0.21896503225E+01  0.37324403465E+01  0.30000000000E+01 0.  1.
</event>
<event>
 5   0  0.7495800E-05  0.9118800E+02  0.7818608E-02  0.1180000E+00
       11   -1    0    0    0    0  0.00000000000E+00  0.00000000000E+00  0.39999999673E+01  0.40000000000E+01  0.51109989000E-03 0.  1.
     -623   -1    0    0    0    0  0.00000000000E+00  0.00000000000E+00  0.12525980253E-10  0.17130000000E+03  0.17130000000E+03 0.  1.
       11    1    1    2    0    0  0.61884127896E-01  0.35057022818E+00 -0.34034183994E+00  0.49250579632E+00  0.51109989000E-03 0.  1.
     -623    1    1    2    0    0 -0.16389977110E+00 -0.98532202884E+00  0.26907628217E+01  0.17132404363E+03  0.17130000000E+03 0.  1.
      622    1    1    2    0    0  0.10201564320E+00  0.63475180065E+00  0.16495789856E+01  0.34834505694E+01  0.30000000000E+01 0.  0.
</event>
<event>
 5   0  0.7495800E-05  0.9118800E+02  0.7818608E-02  0.1180000E+00
       11   -1    0    0    0    0  0.00000000000E+00  0.00000000000E+00  0.39999999673E+01  0.40000000000E+01  0.51109989000E-03 0.  1.
     -623   -1    0    0    0    0  0.00000000000E+00  0.00000000000E+00  0.12525980253E-10  0.17130000000E+03  0.17130000000E+03 0.  1.
       11    1    1    2    0    0  0.19972583882E+00  0.11129161850E+00 -0.18144260514E-01  0.22935934785E+00  0.51109989000E-03 0.  1.
     -623    1    1    2    0    0  0.26291381344E-01 -0.77315629466E-02  0.17625719109E+01  0.17130906984E+03  0.17130000000E+03 0.  1.
      622    1    1    2    0    0 -0.22601722016E+00 -0.10356005555E+00  0.22555723170E+01  0.37615708083E+01  0.30000000000E+01 0.  1.
</event>
<event>
 5   0  0.7495800E-05  0.9118800E+02  0.7818608E-02  0.1180000E+00
       11   -1    0    0    0    0  0.00000000000E+00  0.00000000000E+00  0.39999999673E+01  0.40000000000E+01  0.51109989000E-03 0.  1.
     -623   -1    0    0    0    0  0.00000000000E+00  0.00000000000E+00  0.12525980253E-10  0.17130000000E+03  0.17130000000E+03 0.  1.
       11    1    1    2    0    0  0.16154362346E+00  0.56393355649E-01  0.56122426017E-01  0.18007370926E+00  0.51109989000E-03 0.  1.
     -623    1    1    2    0    0 -0.39011965509E+00 -0.72202288098E-01  0.16032417234E+01  0.17130796184E+03  0.17130000000E+03 0.  1.
      622    1    1    2    0    0  0.22857603163E+00  0.15808932449E-01  0.23406358179E+01  0.38119644485E+01  0.30000000000E+01 0.  1.
</event>
<event>
 5   0  0.7495800E-05  0.9118800E+02  0.7818608E-02  0.1180000E+00
       11   -1    0    0    0    0  0.00000000000E+00  0.00000000000E+00  0.39999999673E+01  0.40000000000E+01  0.51109989000E-03 0.  1.
     -623   -1    0    0    0    0  0.00000000000E+00  0.00000000000E+00  0.12525980253E-10  0.17130000000E+03  0.17130000000E+03 0.  1.
       11    1    1    2    0    0 -0.10981607805E+00  0.15728958720E-02 -0.25972636980E+00  0.28199307331E+00  0.51109989000E-03 0.  1.
     -623    1    1    2    0    0 -0.24048080521E+00 -0.75321027021E+00  0.22567064142E+01  0.17131668886E+03  0.17130000000E+03 0.  1.
      622    1    1    2    0    0  0.35029688326E+00  0.75163737433E+00  0.20030199230E+01  0.37013180707E+01  0.30000000000E+01 0.  1.
</event>
<event>
 5   0  0.7495800E-05  0.9118800E+02  0.7818608E-02  0.1180000E+00
       11   -1    0    0    0    0  0.00000000000E+00  0.00000000000E+00  0.39999999673E+01  0.40000000000E+01  0.51109989000E-03 0.  1.
     -623   -1    0    0    0    0  0.00000000000E+00  0.00000000000E+00  0.12525980253E-10  0.17130000000E+03  0.17130000000E+03 0.  1.
       11    1    1    2    0    0  0.18837043660E+00  0.13442672305E+00 -0.36408008063E-01  0.23426431552E+00  0.51109989000E-03 0.  1.
     -623    1    1    2    0    0  0.10673511010E+00  0.10846627275E+00  0.18087759699E+01  0.17130961686E+03  0.17130000000E+03 0.  1.
      622    1    1    2    0    0 -0.29510554669E+00 -0.24289299580E+00  0.22276320055E+01  0.37561188271E+01  0.30000000000E+01 0.  1.
</event>
<event>
 5   0  0.7495800E-05  0.9118800E+02  0.7818608E-02  0.1180000E+00
       11   -1    0    0    0    0  0.00000000000E+00  0.00000000000E+00  0.39999999673E+01  0.40000000000E+01  0.51109989000E-03 0.  1.
     -623   -1    0    0    0    0  0.00000000000E+00  0.00000000000E+00  0.12525980253E-10  0.17130000000E+03  0.17130000000E+03 0.  1.
       11    1    1    2    0    0 -0.27634316157E+00 -0.99994337607E-01  0.60740137741E+00  0.67476003512E+00  0.51109989000E-03 0.  1.
     -623    1    1    2    0    0  0.69840822970E+00 -0.52630342627E+00  0.22192865965E+01  0.17131660749E+03  0.17130000000E+03 0.  1.
      622    1    1    2    0    0 -0.42206506813E+00  0.62629776388E+00  0.11733119935E+01  0.33086324735E+01  0.30000000000E+01 0.  1.
</event>
<event>
 5   0  0.7495800E-05  0.9118800E+02  0.7818608E-02  0.1180000E+00
       11   -1    0    0    0    0  0.00000000000E+00  0.00000000000E+00  0.39999999673E+01  0.40000000000E+01  0.51109989000E-03 0. -1.
     -623   -1    0    0    0    0  0.00000000000E+00  0.00000000000E+00  0.12525980253E-10  0.17130000000E+03  0.17130000000E+03 0. -1.
       11    1    1    2    0    0 -0.19725165618E+00  0.59667583218E+00 -0.31254178097E+00  0.70186386903E+00  0.51109989000E-03 0. -1.
     -623    1    1    2    0    0  0.84291700173E+00 -0.16175202457E+01  0.41482831867E+01  0.17135992861E+03  0.17130000000E+03 0. -1.
      622    1    1    2    0    0 -0.64566534555E+00  0.10208444135E+01  0.16425856161E+00  0.32382075181E+01  0.30000000000E+01 0.  0.
</event>
<event>
 5   0  0.7495800E-05  0.9118800E+02  0.7818608E-02  0.1180000E+00
       11   -1    0    0    0    0  0.00000000000E+00  0.00000000000E+00  0.39999999673E+01  0.40000000000E+01  0.51109989000E-03 0.  1.
     -623   -1    0    0    0    0  0.00000000000E+00  0.00000000000E+00  0.12525980253E-10  0.17130000000E+03  0.17130000000E+03 0. -1.
       11    1    1    2    0    0 -0.25061195594E+00  0.11569793763E-01  0.85908985759E-01  0.26518074523E+00  0.51109989000E-03 0.  1.
     -623    1    1    2    0    0  0.21938750900E+00 -0.90796217361E+00  0.19024697764E+01  0.17131311076E+03  0.17130000000E+03 0. -1.
      622    1    1    2    0    0  0.31224446932E-01  0.89639237984E+00  0.20116212052E+01  0.37217084972E+01  0.30000000000E+01 0.  1.
</event>
<event>
 5   0  0.7495800E-05  0.9118800E+02  0.7818608E-02  0.1180000E+00
       11   -1    0    0    0    0  0.00000000000E+00  0.00000000000E+00  0.39999999673E+01  0.40000000000E+01  0.51109989000E-03 0.  1.
     -623   -1    0    0    0    0  0.00000000000E+00  0.00000000000E+00  0.12525980253E-10  0.17130000000E+03  0.17130000000E+03 0. -1.
       11    1    1    2    0    0 -0.17489836029E+00 -0.60363504944E+00  0.59038196196E-01  0.63122933960E+00  0.51109989000E-03 0.  1.
     -623    1    1    2    0    0  0.20105849983E-01  0.43388495963E+00  0.24669228546E+01  0.17131831300E+03  0.17130000000E+03 0. -1.
      622    1    1    2    0    0  0.15479251031E+00  0.16975008980E+00  0.14740389166E+01  0.33504576615E+01  0.30000000000E+01 0.  1.
</event>
<event>
 5   0  0.7495800E-05  0.9118800E+02  0.7818608E-02  0.1180000E+00
       11   -1    0    0    0    0  0.00000000000E+00  0.00000000000E+00  0.39999999673E+01  0.40000000000E+01  0.51109989000E-03 0. -1.
     -623   -1    0    0    0    0  0.00000000000E+00  0.00000000000E+00  0.12525980253E-10  0.17130000000E+03  0.17130000000E+03 0. -1.
       11    1    1    2    0    0 -0.70304038900E-02 -0.23823759035E+00 -0.25320539283E-01  0.23968305524E+00  0.51109989000E-03 0. -1.
     -623    1    1    2    0    0 -0.22761833692E+00 -0.15241944506E+00  0.18212444299E+01  0.17130990039E+03  0.17130000000E+03 0. -1.
      622    1    1    2    0    0  0.23464874081E+00  0.39065703541E+00  0.22040760767E+01  0.37504165506E+01  0.30000000000E+01 0. -1.
</event>
<event>
 5   0  0.7495800E-05  0.9118800E+02  0.7818608E-02  0.1180000E+00
       11   -1    0    0    0    0  0.00000000000E+00  0.00000000000E+00  0.39999999673E+01  0.40000000000E+01  0.51109989000E-03 0.  1.
     -623   -1    0    0    0    0  0.00000000000E+00  0.00000000000E+00  0.12525980253E-10  0.17130000000E+03  0.17130000000E+03 0. -1.
       11    1    1    2    0    0 -0.44307736551E+00 -0.12725552890E-01 -0.11556009577E+00  0.45807629111E+00  0.51109989000E-03 0.  1.
     -623    1    1    2    0    0  0.17796351993E+00 -0.37566376463E+00  0.23241642313E+01  0.17131627049E+03  0.17130000000E+03 0. -1.
      622    1    1    2    0    0  0.26511384557E+00  0.38838931752E+00  0.17913958318E+01  0.35256532217E+01  0.30000000000E+01 0.  1.
</event>
<event>
 5   0  0.7495800E-05  0.9118800E+02  0.7818608E-02  0.1180000E+00
       11   -1    0    0    0    0  0.00000000000E+00  0.00000000000E+00  0.39999999673E+01  0.40000000000E+01  0.51109989000E-03 0.  1.
     -623   -1    0    0    0    0  0.00000000000E+00  0.00000000000E+00  0.12525980253E-10  0.17130000000E+03  0.17130000000E+03 0.  1.
       11    1    1    2    0    0  0.19376073966E+00 -0.10973445651E+00 -0.64150235963E+00  0.67905111282E+00  0.51109989000E-03 0.  1.
     -623    1    1    2    0    0 -0.14559848572E+00 -0.30066190129E+00  0.33617246333E+01  0.17133330905E+03  0.17130000000E+03 0.  1.
      622    1    1    2    0    0 -0.48162253945E-01  0.41039635780E+00  0.12797776937E+01  0.32876398401E+01  0.30000000000E+01 0.  1.
</event>
<event>
 5   0  0.7495800E-05  0.9118800E+02  0.7818608E-02  0.1180000E+00
       11   -1    0    0    0    0  0.00000000000E+00  0.00000000000E+00  0.39999999673E+01  0.40000000000E+01  0.51109989000E-03 0. -1.
     -623   -1    0    0    0    0  0.00000000000E+00  0.00000000000E+00  0.12525980253E-10  0.17130000000E+03  0.17130000000E+03 0.  1.
       11    1    1    2    0    0 -0.14338194673E-01  0.18798323891E+00 -0.20706653623E+00  0.28003587911E+00  0.51109989000E-03 0. -1.
     -623    1    1    2    0    0 -0.31388296209E+00  0.31355597687E+00  0.21147814644E+01  0.17131362801E+03  0.17130000000E+03 0.  1.
      622    1    1    2    0    0  0.32822115676E+00 -0.50153921577E+00  0.20922850392E+01  0.37063361151E+01  0.30000000000E+01 0. -1.
</event>
<event>
 5   0  0.7495800E-05  0.9118800E+02  0.7818608E-02  0.1180000E+00
       11   -1    0    0    0    0  0.00000000000E+00  0.00000000000E+00  0.39999999673E+01  0.40000000000E+01  0.51109989000E-03 0.  1.
     -623   -1    0    0    0    0  0.00000000000E+00  0.00000000000E+00  0.12525980253E-10  0.17130000000E+03  0.17130000000E+03 0.  1.
       11    1    1    2    0    0  0.80429395166E-01  0.20629616403E+00  0.51315566564E-01  0.22728955870E+00  0.51109989000E-03 0.  1.
     -623    1    1    2    0    0 -0.18517753056E+00 -0.41394169548E+00  0.16876942970E+01  0.17130891381E+03  0.17130000000E+03 0.  1.
      622    1    1    2    0    0  0.10474813539E+00  0.20764553145E+00  0.22609901037E+01  0.37637966321E+01  0.30000000000E+01 0.  1.
</event>
<event>
 5   0  0.7495800E-05  0.9118800E+02  0.7818608E-02  0.1180000E+00
       11   -1    0    0    0    0  0.00000000000E+00  0.00000000000E+00  0.39999999673E+01  0.40000000000E+01  0.51109989000E-03 0.  1.
     -623   -1    0    0    0    0  0.00000000000E+00  0.00000000000E+00  0.12525980253E-10  0.17130000000E+03  0.17130000000E+03 0. -1.
       11    1    1    2    0    0  0.33987951336E+00  0.26562027852E-01  0.13086359245E+00  0.36517005077E+00  0.51109989000E-03 0.  1.
     -623    1    1    2    0    0 -0.71859215896E+00  0.93114642917E+00  0.21295732813E+01  0.17131727435E+03  0.17130000000E+03 0. -1.
      622    1    1    2    0    0  0.37871264560E+00 -0.95770845702E+00  0.17395630936E+01  0.36175555992E+01  0.30000000000E+01 0.  1.
</event>
<event>
 5   0  0.7495800E-05  0.9118800E+02  0.7818608E-02  0.1180000E+00
       11   -1    0    0    0    0  0.00000000000E+00  0.00000000000E+00  0.39999999673E+01  0.40000000000E+01  0.51109989000E-03 0.  1.
     -623   -1    0    0    0    0  0.00000000000E+00  0.00000000000E+00  0.12525980253E-10  0.17130000000E+03  0.17130000000E+03 0. -1.
       11    1    1    2    0    0 -0.44425955231E-01  0.42257066705E-01 -0.30835105880E-02  0.61392951104E-01  0.51109989000E-03 0.  1.
     -623    1    1    2    0    0 -0.26938703414E+00  0.12364548634E+00  0.14863689311E+01  0.17130670492E+03  0.17130000000E+03 0. -1.
      622    1    1    2    0    0  0.31381298937E+00 -0.16590255304E+00  0.25167145468E+01  0.39319021300E+01  0.30000000000E+01 0.  1.
</event>
<event>
 5   0  0.7495800E-05  0.9118800E+02  0.7818608E-02  0.1180000E+00
       11   -1    0    0    0    0  0.00000000000E+00  0.00000000000E+00  0.39999999673E+01  0.40000000000E+01  0.51109989000E-03 0. -1.
     -623   -1    0    0    0    0  0.00000000000E+00  0.00000000000E+00  0.12525980253E-10  0.17130000000E+03  0.17130000000E+03 0.  1.
       11    1    1    2    0    0 -0.33679615994E+00  0.22404867825E+00  0.28532509999E+00  0.49501529015E+00  0.51109989000E-03 0. -1.
     -623    1    1    2    0    0  0.27165597005E+00 -0.55352678914E+00  0.19579579269E+01  0.17131229900E+03  0.17130000000E+03 0.  1.
      622    1    1    2    0    0  0.65140189891E-01  0.32947811090E+00  0.17567169405E+01  0.34926857115E+01  0.30000000000E+01 0. -1.
</event>
<event>
 5   0  0.7495800E-05  0.9118800E+02  0.7818608E-02  0.1180000E+00
       11   -1    0    0    0    0  0.00000000000E+00  0.00000000000E+00  0.39999999673E+01  0.40000000000E+01  0.51109989000E-03 0.  1.
     -623   -1    0    0    0    0  0.00000000000E+00  0.00000000000E+00  0.12525980253E-10  0.17130000000E+03  0.17130000000E+03 0. -1.
       11    1    1    2    0    0 -0.21465556541E+00 -0.16034001250E+00 -0.19856346561E+00  0.33348709490E+00  0.51109989000E-03 0.  1.
     -623    1    1    2    0    0  0.95248191719E+00  0.21910652721E+00  0.22578857524E+01  0.17131766773E+03  0.17130000000E+03 0.  1.
      622    1    1    2    0    0 -0.73782635178E+00 -0.58766514711E-01  0.19406776806E+01  0.36488451719E+01  0.30000000000E+01 0.  1.
</event>
<event>
 5   0  0.7495800E-05  0.9118800E+02  0.7818608E-02  0.1180000E+00
       11   -1    0    0    0    0  0.00000000000E+00  0.00000000000E+00  0.39999999673E+01  0.40000000000E+01  0.51109989000E-03 0.  1.
     -623   -1    0    0    0    0  0.00000000000E+00  0.00000000000E+00  0.12525980253E-10  0.17130000000E+03  0.17130000000E+03 0. -1.
       11    1    1    2    0    0  0.28742802155E+00  0.25390958087E+00  0.35885038547E+00  0.52522262252E+00  0.51109989000E-03 0.  1.
     -623    1    1    2    0    0 -0.26268809865E+00 -0.34910959337E+00  0.19130221472E+01  0.17131123879E+03  0.17130000000E+03 0. -1.
      622    1    1    2    0    0 -0.24739922902E-01  0.95200012495E-01  0.17281274346E+01  0.34635385860E+01  0.30000000000E+01 0.  1.
</event>
<event>
 5   0  0.7495800E-05  0.9118800E+02  0.7818608E-02  0.1180000E+00
       11   -1    0    0    0    0  0.00000000000E+00  0.00000000000E+00  0.39999999673E+01  0.40000000000E+01  0.51109989000E-03 0. -1.
     -623   -1    0    0    0    0  0.00000000000E+00  0.00000000000E+00  0.12525980253E-10  0.17130000000E+03  0.17130000000E+03 0. -1.
       11    1    1    2    0    0 -0.17403592038E+00 -0.11279317577E+00 -0.51999349534E-01  0.21381065375E+00  0.51109989000E-03 0. -1.
     -623    1    1    2    0    0  0.82555174748E+00  0.97806002496E-01  0.18567297604E+01  0.17131207940E+03  0.17130000000E+03 0. -1.
      622    1    1    2    0    0 -0.65151582710E+00  0.14987173279E-01  0.21952695565E+01  0.37741099499E+01  0.30000000000E+01 0. -1.
</event>
<event>
 5   0  0.7495800E-05  0.9118800E+02  0.7818608E-02  0.1180000E+00
       11   -1    0    0    0    0  0.00000000000E+00  0.00000000000E+00  0.39999999673E+01  0.40000000000E+01  0.51109989000E-03 0. -1.
     -623   -1    0    0    0    0  0.00000000000E+00  0.00000000000E+00  0.12525980253E-10  0.17130000000E+03  0.17130000000E+03 0. -1.
       11    1    1    2    0    0  0.36478146164E+00  0.16270633276E+00 -0.68710269494E-01  0.40529030069E+00  0.51109989000E-03 0. -1.
     -623    1    1    2    0    0  0.91526205799E+00  0.87088338264E-01  0.26340608825E+01  0.17132271760E+03  0.17130000000E+03 0. -1.
      622    1    1    2    0    0 -0.12800435196E+01 -0.24979467102E+00  0.14346493543E+01  0.35719920996E+01  0.30000000000E+01 0. -1.
</event>
<event>
 5   0  0.7495800E-05  0.9118800E+02  0.7818608E-02  0.1180000E+00
       11   -1    0    0    0    0  0.00000000000E+00  0.00000000000E+00  0.39999999673E+01  0.40000000000E+01  0.51109989000E-03 0. -1.
     -623   -1    0    0    0    0  0.00000000000E+00  0.00000000000E+00  0.12525980253E-10  0.17130000000E+03  0.17130000000E+03 0. -1.
       11    1    1    2    0    0  0.47926125080E+00 -0.15666850506E+00  0.15961876834E+00  0.52888068544E+00  0.51109989000E-03 0. -1.
     -623    1    1    2    0    0 -0.19450791027E+00  0.70636346482E+00  0.22426006487E+01  0.17131624570E+03  0.17130000000E+03 0. -1.
      622    1    1    2    0    0 -0.28475334053E+00 -0.54969495975E+00  0.15977805503E+01  0.34548736157E+01  0.30000000000E+01 0. -1.
</event>
<event>
 5   0  0.7495800E-05  0.9118800E+02  0.7818608E-02  0.1180000E+00
       11   -1    0    0    0    0  0.00000000000E+00  0.00000000000E+00  0.39999999673E+01  0.40000000000E+01  0.51109989000E-03 0.  1.
     -623   -1    0    0    0    0  0.00000000000E+00  0.00000000000E+00  0.12525980253E-10  0.17130000000E+03  0.17130000000E+03 0. -1.
       11    1    1    2    0    0  0.49196665379E-01 -0.47562257880E-01  0.27106551099E+00  0.27956976361E+00  0.51109989000E-03 0.  1.
     -623    1    1    2    0    0 -0.48881374584E-01  0.60227547236E+00  0.16148377201E+01  0.17130867703E+03  0.17130000000E+03 0. -1.
      622    1    1    2    0    0 -0.31529079474E-03 -0.55471321448E+00  0.21140967363E+01  0.37117532057E+01  0.30000000000E+01 0.  1.
</event>
<event>
 5   0  0.7495800E-05  0.9118800E+02  0.7818608E-02  0.1180000E+00
       11   -1    0    0    0    0  0.00000000000E+00  0.00000000000E+00  0.39999999673E+01  0.40000000000E+01  0.51109989000E-03 0. -1.
     -623   -1    0    0    0    0  0.00000000000E+00  0.00000000000E+00  0.12525980253E-10  0.17130000000E+03  0.17130000000E+03 0.  1.
       11    1    1    2    0    0  0.45832900179E+00  0.56389993141E-01  0.14785700870E+00  0.48487860487E+00  0.51109989000E-03 0. -1.
     -623    1    1    2    0    0 -0.36392803020E+00  0.20125926373E+00  0.20661399771E+01  0.17131296473E+03  0.17130000000E+03 0.  1.
      622    1    1    2    0    0 -0.94400971590E-01 -0.25764925687E+00  0.17860029816E+01  0.35021566689E+01  0.30000000000E+01 0. -1.
</event>
</LesHouchesEvents>
