<LesHouchesEvents version="1.0">
<header>
<!--
#*********************************************************************
#                                                                    *
#                       MadGraph/MadEvent                            *
#                                                                    *
#                      The new web generation                        *
#                                                                    *
#                   http://madgraph.hep.uiuc.edu                     *
#                   http://madgraph.phys.ucl.ac.be                   *
#                   http://madgraph.roma2.infn.it                    *
#                                                                    *
#            CP3 team                      Tim Stelzer               *
#      Universite de Louvain          University of Illinois         *
#                                                                    *
#....................................................................*
#                                                                    *
# This file contains all the information necessary to reproduce      *
# the events generated:                                              *
#                                                                    *
# 1. software version                                                *
# 2. proc_card.dat      : code generation info including model       *
# 3. param_card.dat     : model primary parameters in the LH format  *
# 4. run_card.dat       : running parameters (collider and cuts)     *
# 5. pythia_card.dat    : present only in the pythia event file      *
# 6. pgs_card.dat       : present only in the pgs event file         *
#                                                                    *
#                                                                    *
#*********************************************************************
-->
<MGVersion>
# MG/ME version    : 4.4.17
# madgraph version : 4.4.2
# template version : 2.4.8
# helas version    : 3.5
# model version    : usrmod_1.0.4
</MGVersion>
<MGProcCard>
#*********************************************************************
#                        MadGraph/MadEvent                           *
#                   http://madgraph.hep.uiuc.edu                     *
#                                                                    *
#                          proc_card.dat                             *
#                                                                    *
# This file is used to generate the code for a specific process.     *
# Some notation/conventions:                                         *
#                                                                    *
# 0. Do not modify the TAGS and their order.                         *
# 1. hash/pound is a comment.                                        *
# 2. The number after the @ is used as an identifier for the class   *
#    of processes. It can be any positive integer.                   *
# 3. The number of lines for the max couplings depends on how many   *
#    different classes of couplings are present in the model         *
#    In the SM these are just two: QED (which include EW) and QCD    *
# 4. Write "end_coup" after  the couplings list,                     *
#    to tell MG that the couplings input is over.                    *
# 5. Write "done" after the proc list to                             *
#    to tell MG that the proc input is over.                         *
# 6. Some model names available at present are:                      *
#    sm     =  Standard Model                                        *
#    smckm =  Standard Model with Cabibbo matrix                     *
#    mssm   =  Minimal Supersymmetric Standard Model                 *
#    2hdm   =  Generic Two Higgs Doublet model                       *
#    heft   =  Higgs EFT (+Standard Model)                           *
#    usrmod =  User Model                                            *
# 7. Don't leave spaces between the particles name in the            *
#    definition of the multiparticles.                               *
#*********************************************************************
#*********************************************************************
# Process(es) requested : mg2 input                                  *
#*********************************************************************
# Begin PROCESS # This is TAG. Do not modify this line
e- N+ > e- N+ x      # Radiative
QCD=0             # Max QCD couplings
QED=1             # Max QED couplings
QFD=0 
QND=1
QWD=9
QDS=2
end_coup           # End the couplings input
done               # this tells MG there are no more procs
# End PROCESS  # This is TAG. Do not modify this line
#*********************************************************************
# Model information                                                  *
#*********************************************************************
# Begin MODEL  # This is TAG. Do not modify this line
fixedAP2     
# End   MODEL  # This is TAG. Do not modify this line
#*********************************************************************
# Start multiparticle definitions                                    *
#*********************************************************************
# Begin MULTIPARTICLES # This is TAG. Do not modify this line
P uu~cc~dd~ss~gf+f-
J uu~cc~dd~ss~gf+f-
L+ e+mu+
L- e-mu-
vl vevm
vl~ ve~vm~
# End  MULTIPARTICLES # This is TAG. Do not modify this line
</MGProcCard>
<slha>
#*********************************************************************
#                        MadGraph/MadEvent                           *
#                   http://madgraph.hep.uiuc.edu                     *
#                                                                    *
#                         param_card.dat                             *
#                                                                    *
#   Les Houches friendly file for the SM parameters of MadGraph      *
#        Spectrum and decay widths produced by SMCalc                *
#                                                                    *
#  Please note the following IMPORTANT issues:                       *
#                                                                    *
# 0. REFRAIN from editing this file by hand! Some of the parame-     *
#    ters are not independent                                        *
#    (such as G_Fermi, alpha_em, sin(theta_W),MZ,MW) and serious     *
#    problems might be encountered (such as violation of unitarity   *
#    or gauge invariance).  Always use a calculator.                 *
#                                                                    *
# 1. alpha_S(MZ) has been used in the calculation of the parameters  *
#    but, for consistency, it will be reset by madgraph to the       *
#    value expected IF the pdfs for collisions with hadrons are      *
#    used. This value is KEPT by madgraph when no pdf are used       *
#    lpp(i)=0 .                                                      *
#                                                                    *
#  2. Values of the charm and bottom kinematic (pole) masses are     *
#     those used in the matrix elements and phase space UNLESS they  *
#     are set to ZERO from the start in the model (particles.dat)    *
#     This happens, for example,  when using 5-flavor QCD where      *
#     charm and bottom are treated as partons in the initial state   *
#     and a zero mass might be hardwired in the model definition.    *
#                                                                    *
##********************************************************************
Block MODSEL # Select Model
     0   1   #  0 1 = SM
Block SMINPUTS      # Standard Model inputs
     1         1.27900000E+02   # alpha_em(MZ)(-1) SM MSbar
     2         1.16600000E-05   # G_Fermi
     3         1.18000000E-01   # alpha_s(MZ) SM MSbar
     4         9.15445065E+01   # Z mass (as input parameter)
Block MGYUKAWA     # Yukawa masses m/v=y/sqrt(2)
#    PDG          YMASS
     5         4.20000000E+00   # mbottom for the Yukawa  y_b
     4         1.25000000E+00   # mcharm  for the Yukawa  y_c
     6         1.74300000E+02   # mtop    for the Yukawa  y_t
    15         1.77700000E+00   # mtau    for the Yukawa  y_ta
Block MGCKM     # CKM elements for MadGraph
     1   1     9.75000000E-01   # Vud for Cabibbo matrix
#===========================================================
# QUANTUM NUMBERS OF NEW STATE(S) (NON SM PDG CODE) IF ANY
# (see below for masses and decay tables)
# These blocks are automatically created by the MadGraph
# qnumbers.pl script from the particles.dat model file
#===========================================================
BLOCK QNUMBERS 611 # f-
         1  -3 # 3 times electric charge
         2  2 # number of spin states (2S+1)
         3  1 # colour rep (1: singlet, 3: triplet, 8: octet)
         4  1 # Particle/Antiparticle distinction (0=own anti)
BLOCK QNUMBERS 622 # x
         1  0 # 3 times electric charge
         2  3 # number of spin states (2S+1)
         3  1 # colour rep (1: singlet, 3: triplet, 8: octet)
         4  0 # Particle/Antiparticle distinction (0=own anti)
BLOCK QNUMBERS 623 # N-
         1  0 # 3 times electric charge
         2  2 # number of spin states (2S+1)
         3  1 # colour rep (1: singlet, 3: triplet, 8: octet)
         4  1 # Particle/Antiparticle distinction (0=own anti)
# END of QNUMBERS blocks
#===========================================================
Block MASS      #  Mass spectrum (kinematic masses)
#       PDG       Mass
         4     1.40000000E+00   # charm    pole mass
         5     4.20000000E+00   # bottom   pole mass
         6     1.74300000E+02   # top      pole mass
        11     0.51109989E-03   # electron mass
        13     0.10565837E+00   # muon     mass
        15     1.77700000E+00   # tau      mass
        23     9.15445065E+01   # Z        mass
        24     8.02673592E+01   # W        mass
        25     1.20000000E+02   # H        mass
       611 0.002 # FMASS
       622 0.006 # APMASS
       623     1.71300000e+02   # HPMASS (tungsten)
#            PDG       Width
DECAY       611     0.00000000e+00   # ELWIDTH
DECAY 622 0.0001821981315 # APWIDTH
DECAY       623     0.00000000e+00   # HPWIDTH
DECAY         6     1.51013490E+00   # top width
DECAY        23     2.44639985E+00   # Z   width
DECAY        24     2.03535570E+00   # W   width
DECAY        25     6.79485838E-03   # H   width
#        BR           NDA        ID1       ID2
     7.00588389E-02    2           4        -4   # BR( H -> c  cbar  )
     7.61074375E-01    2           5        -5   # BR( H -> b  bbar  )
     0.00000000E+00    2           6        -6   # BR( H -> t  tbar  )
     3.65529942E-02    2          15       -15   # BR( H -> tau- tau+)
     5.84716539E-03    2          23        23   # BR( H -> Z   Z^(*))
     6.31545979E-02    2          24       -24   # BR( H -> W   W^(*))
     2.55499652E-02    2          21        21   # BR( H -> g   g    )
     1.20906932E-03    2          22        22   # BR( H -> A   A    )
BLOCK MGUSER
         1     1.00000000e-00   # epsilon ,mixing coefficient
         2     74.0000000e+00   # Znuc    ,nuclear charge
</slha>
<MGRunCard>
#*********************************************************************
#                       MadGraph/MadEvent                            *
#                  http://madgraph.hep.uiuc.edu                      *
#                                                                    *
#                        run_card.dat                                *
#                                                                    *
#  This file is used to set the parameters of the run.               *
#                                                                    *
#  Some notation/conventions:                                        *
#                                                                    *
#   Lines starting with a '# ' are info or comments                  *
#                                                                    *
#   mind the format:   value    = variable     ! comment             *
#*********************************************************************
#
#*******************                                                 
# Running parameters
#*******************                                                 
#                                                                    
#*********************************************************************
# Tag name for the run (one word)                                    *
#*********************************************************************
  'HPS'     = run_tag ! name of the run 
#*********************************************************************
# Run to generate the grid pack                                      *
#*********************************************************************
  .false.     = gridpack  !True = setting up the grid pack
#*********************************************************************
# Number of events and rnd seed                                      *
#*********************************************************************
   1000      = nevents ! Number of unweighted events requested 
188700 = iseed ! rnd seed (0=assigned automatically=default))
#*********************************************************************
# Collider type and energy                                           *
#*********************************************************************
        0     = lpp1  ! beam 1 type (0=NO PDF)
        0     = lpp2  ! beam 2 type (0=NO PDF)
4 = ebeam1  ! beam 1 energy in GeV
    171.3    = ebeam2  ! beam 2 energy in GeV
    0.000511  = mbeam1  ! beam 1 energy in GeV
    171.3    = mbeam2  ! beam 2 energy in GeV
#*********************************************************************
# Beam polarization from -100 (left-handed) to 100 (right-handed)    *
#*********************************************************************
        0     = polbeam1 ! beam polarization for beam 1
        0     = polbeam2 ! beam polarization for beam 2
#*********************************************************************
# PDF CHOICE: this automatically fixes also alpha_s and its evol.    *
#*********************************************************************
 'cteq6l1'    = pdlabel     ! PDF set                                     
#*********************************************************************
# Renormalization and factorization scales                           *
#*********************************************************************
 F        = fixed_ren_scale  ! if .true. use fixed ren scale
 F        = fixed_fac_scale  ! if .true. use fixed fac scale
 91.1880  = scale            ! fixed ren scale
 91.1880  = dsqrt_q2fact1    ! fixed fact scale for pdf1
 91.1880  = dsqrt_q2fact2    ! fixed fact scale for pdf2
 1        = scalefact        ! scale factor for event-by-event scales
 F        = fixed_couplings  ! if .false. calc. coupl. for every event
#*********************************************************************
# Matching - Warning! ickkw > 0 is still beta
#*********************************************************************
 0        = ickkw            ! 0 no matching, 1 MLM, 2 CKKW matching
#*********************************************************************
#                                                                    
#**********************************
32.9311829414 = bwcutoff*Gamma)
#**********************************
32.9311829414 = bwcutoff
#*******************                                                 
# Fixed-Target Cuts
#*******************                                                 
#
 0.0 = ef        ! minimum E for all f's
 100.0 = efmax     ! maximum E for all f's
 0.0 = thetafmin ! min angle for both f's
 100.0 = thetafmax ! max angle for both f's
 0.0 = thetaxfmin ! min angle (x direction) for both f's
 100.0 = thetaxfmax ! max angle (x direction) for both f's 
 0.0 = thetayfmin ! min angle (y direction) for both f's
 100.0 = thetayfmax ! max angle (y direction) for both f's 
 0.0 = xthetaxfmin ! min angle (x direction) for >=1 f's
 100.0 = xthetaxfmax ! max angle (x direction) for >=1 f's 
 0.0 = xthetayfmin ! min angle (y direction) for >=1 f's
 100.0 = xthetayfmax ! max angle (y direction) for >=1 f's 
 0.0 = mmff      ! min invariant mass of f+f- lepton pair
 100.0 = mmffmax  ! max invariant mass of f+f- lepton pair
 0.0 = xef       ! min. energy for at least one f
 0.0 = xthetaf   ! minimum angle for at least one f
 0.0 = eftot     ! minimum energy for the two f's
 0d0 = efrat     ! min. ratio Emin/Emax for the two f's
 0.0  = el     !!! 0.2 = el  !!! was 0.05 with normal cuts! minimum E for the charged leptons 
 0.0  = drll  !!! was 0.1  ! min distance between leptons 
 0.0  = mmll    ! min invariant mass of l+l- (same flavour) lepton pair
#
#*******************                                                 
# Standard Cuts
#*******************                                                 
#                                                                    
#*********************************************************************
# Minimum and maximum pt's                                           *
#*********************************************************************
  0  = ptj       ! minimum pt for the jets 
  0  = ptb       ! minimum pt for the b 
  0  = pta       ! minimum pt for the photons 
  0  = ptl       ! minimum pt for the charged leptons 
  0  = misset    ! minimum missing Et (sum of neutrino's momenta)
  0  = ptheavy   ! minimum pt for one heavy final state
 1.0 = ptonium   ! minimum pt for the quarkonium states
 1d5 = ptjmax    ! maximum pt for the jets
 1d5 = ptbmax    ! maximum pt for the b
 1d5 = ptamax    ! maximum pt for the photons
 1d9 = ptlmax    ! maximum pt for the charged leptons
 1d9 = missetmax ! maximum missing Et (sum of neutrino's momenta)
#*********************************************************************
# Minimum and maximum E's (in the lab frame)                         *
#*********************************************************************
  0  = ej     ! minimum E for the jets 
  0  = eb     ! minimum E for the b 
  0  = ea     ! minimum E for the photons 
 1d5  = ejmax ! maximum E for the jets
 1d5  = ebmax ! maximum E for the b
 1d5  = eamax ! maximum E for the photons
 1.2  = elmax ! maximum E for the charged leptons
#*********************************************************************
# Maximum and minimum rapidity                                       *
#*********************************************************************
 1d5  = etaj    ! max rap for the jets 
 1d5  = etab    ! max rap for the b 
 1d5  = etaa    ! max rap for the photons 
 1d5  = etal     !!! 1(2) wth cuts ! max rap for the charged leptons 
 1d5  = etafl     !!! 0(1) wth cuts ! max rap for the charged leptons 
 0.0  = etaonium ! max rap for the quarkonium states
 0d0  = etajmin ! min rap for the jets
 0d0  = etabmin ! min rap for the b
 0d0  = etaamin ! min rap for the photons
 0d0  = etalmin ! main rap for the charged lepton
#*********************************************************************
# Minimum and maximum DeltaR distance                                *
#*********************************************************************
 0   = drjj    ! min distance between jets 
 0   = drbb    ! min distance between b's 
 0   = draa    ! min distance between gammas 
 0   = drbj    ! min distance between b and jet 
 0   = draj    ! min distance between gamma and jet 
 0   = drjl    ! min distance between jet and lepton 
 0   = drab    ! min distance between gamma and b 
 0   = drbl    ! min distance between b and lepton 
 0   = dral    ! min distance between gamma and lepton 
 1d2 = drjjmax ! max distance between jets
 1d2 = drbbmax ! max distance between b's
 1d9 = drllmax ! max distance between leptons
 1d2 = draamax ! max distance between gammas
 1d2 = drbjmax ! max distance between b and jet
 1d2 = drajmax ! max distance between gamma and jet
 1d2 = drjlmax ! max distance between jet and lepton
 1d2 = drabmax ! max distance between gamma and b
 1d2 = drblmax ! max distance between b and lepton
 1d2 = dralmax ! maxdistance between gamma and lepton
#*********************************************************************
# Minimum and maximum invariant mass for pairs                       *
#*********************************************************************
 0   = mmjj    ! min invariant mass of a jet pair 
 0   = mmbb    ! min invariant mass of a b pair 
 0   = mmaa    ! min invariant mass of gamma gamma pair
 1d5 = mmjjmax ! max invariant mass of a jet pair
 1d5 = mmbbmax ! max invariant mass of a b pair
 1d5 = mmaamax ! max invariant mass of gamma gamma pair
 1d5 = mmllmax ! max invariant mass of l+l- (same flavour) lepton pair
#*********************************************************************
# Minimum and maximum invariant mass for all letpons                 *
#*********************************************************************
 0   = mmnl    ! min invariant mass for all letpons (l+- and vl) 
 1d9 = mmnlmax ! max invariant mass for all letpons (l+- and vl) 
#*********************************************************************
# Inclusive cuts                                                     *
#*********************************************************************
 0  = xptj ! minimum pt for at least one jet  
 0  = xptb ! minimum pt for at least one b 
 0  = xpta ! minimum pt for at least one photon 
 0  = xptl ! minimum pt for at least one charged lepton 
#*********************************************************************
# Control the pt's of the jets sorted by pt                          *
#*********************************************************************
 0   = ptj1min ! minimum pt for the leading jet in pt
 0   = ptj2min ! minimum pt for the second jet in pt
 0   = ptj3min ! minimum pt for the third jet in pt
 0   = ptj4min ! minimum pt for the fourth jet in pt
 1d5 = ptj1max ! maximum pt for the leading jet in pt 
 1d5 = ptj2max ! maximum pt for the second jet in pt
 1d5 = ptj3max ! maximum pt for the third jet in pt
 1d5 = ptj4max ! maximum pt for the fourth jet in pt
 0   = cutuse  ! reject event if fails any (0) / all (1) jet pt cuts
#*********************************************************************
# Control the Ht(k)=Sum of k leading jets                            *
#*********************************************************************
 0   = htjmin ! minimum jet HT=Sum(jet pt)
 1d5 = htjmax ! maximum jet HT=Sum(jet pt)
 0   = ht2min ! minimum Ht for the two leading jets
 0   = ht3min ! minimum Ht for the three leading jets
 0   = ht4min ! minimum Ht for the four leading jets
 1d5 = ht2max ! maximum Ht for the two leading jets
 1d5 = ht3max ! maximum Ht for the three leading jets
 1d5 = ht4max ! maximum Ht for the four leading jets
#*********************************************************************
# WBF cuts                                                           *
#*********************************************************************
 0   = xetamin ! minimum rapidity for two jets in the WBF case  
 0   = deltaeta ! minimum rapidity for two jets in the WBF case 
#*********************************************************************
# maximal pdg code for quark to be considered as a jet               *
# otherwise b cuts are applied                                       *
#*********************************************************************
 4 = maxjetflavor
#*********************************************************************
# Jet measure cuts                                                   *
#*********************************************************************
 0   = xqcut   ! minimum kt jet measure between partons
#*********************************************************************
</MGRunCard>
<MGGenerationInfo>
#  Number of Events        :        1000
#  Integrated weight (pb)  :  .12118E+13
#  Truncated wgt (pb)      :  .16829E+10
#  Unit wgt                :  .12118E+10
</MGGenerationInfo>
</header>
<init>
       11     -623  0.40000000000E+01  0.17130000000E+03 0 0     0     0 3  1
  0.12117918282E+13  0.11362923373E+11  0.12118000000E+10   0
</init>
<event>
 5   0  0.1211800E+10  0.9118800E+02  0.7818608E-02  0.1180000E+00
       11   -1    0    0    0    0  0.00000000000E+00  0.00000000000E+00  0.39999999673E+01  0.40000000000E+01  0.51109989000E-03 0. -1.
     -623   -1    0    0    0    0  0.00000000000E+00  0.00000000000E+00  0.12525980253E-10  0.17130000000E+03  0.17130000000E+03 0.  1.
       11    1    1    2    0    0 -0.24012216586E-02  0.53158718955E-02  0.15791516734E+00  0.15802368701E+00  0.51109989000E-03 0. -1.
     -623    1    1    2    0    0  0.42866761430E-03 -0.10015877399E-02  0.11610433251E-03  0.17130000000E+03  0.17130000000E+03 0.  1.
      622    1    1    2    0    0  0.19725540443E-02 -0.43142841556E-02  0.38419686957E+01  0.38419763095E+01  0.60000000000E-02 0. -1.
</event>
<event>
 5   0  0.1211800E+10  0.9118800E+02  0.7818608E-02  0.1180000E+00
       11   -1    0    0    0    0  0.00000000000E+00  0.00000000000E+00  0.39999999673E+01  0.40000000000E+01  0.51109989000E-03 0. -1.
     -623   -1    0    0    0    0  0.00000000000E+00  0.00000000000E+00  0.12525980253E-10  0.17130000000E+03  0.17130000000E+03 0. -1.
       11    1    1    2    0    0 -0.39772631784E-02 -0.15594942248E-03  0.76465457523E+00  0.76466510551E+00  0.51109989000E-03 0. -1.
     -623    1    1    2    0    0 -0.58978330180E-05  0.15948893800E-03  0.18513214576E-04  0.17130000000E+03  0.17130000000E+03 0. -1.
      622    1    1    2    0    0  0.39831610114E-02 -0.35395155246E-05  0.32353268789E+01  0.32353348944E+01  0.60000000000E-02 0. -1.
</event>
<event>
 5   0  0.1211800E+10  0.9118800E+02  0.7818608E-02  0.1180000E+00
       11   -1    0    0    0    0  0.00000000000E+00  0.00000000000E+00  0.39999999673E+01  0.40000000000E+01  0.51109989000E-03 0.  1.
     -623   -1    0    0    0    0  0.00000000000E+00  0.00000000000E+00  0.12525980253E-10  0.17130000000E+03  0.17130000000E+03 0. -1.
       11    1    1    2    0    0  0.15614684515E-02 -0.28436212987E-02  0.47199015255E+00  0.47200157806E+00  0.51109989000E-03 0.  1.
     -623    1    1    2    0    0 -0.87961932970E-05 -0.56098324010E-04  0.18028260556E-04  0.17130000000E+03  0.17130000000E+03 0. -1.
      622    1    1    2    0    0 -0.15526722581E-02  0.28997196230E-02  0.35279918116E+01  0.35279984470E+01  0.60000000000E-02 0.  0.
</event>
<event>
 5   0  0.1211800E+10  0.9118800E+02  0.7818608E-02  0.1180000E+00
       11   -1    0    0    0    0  0.00000000000E+00  0.00000000000E+00  0.39999999673E+01  0.40000000000E+01  0.51109989000E-03 0.  1.
     -623   -1    0    0    0    0  0.00000000000E+00  0.00000000000E+00  0.12525980253E-10  0.17130000000E+03  0.17130000000E+03 0. -1.
       11    1    1    2    0    0 -0.10006181545E-02 -0.25982773200E-02  0.51475974451E+00  0.51476752818E+00  0.51109989000E-03 0.  1.
     -623    1    1    2    0    0  0.69161959557E-03  0.27930775980E-03  0.13702494749E-04  0.17130000000E+03  0.17130000000E+03 0. -1.
      622    1    1    2    0    0  0.30899855888E-03  0.23189695602E-02  0.34852265204E+01  0.34852324702E+01  0.60000000000E-02 0.  1.
</event>
<event>
 5   0  0.1211800E+10  0.9118800E+02  0.7818608E-02  0.1180000E+00
       11   -1    0    0    0    0  0.00000000000E+00  0.00000000000E+00  0.39999999673E+01  0.40000000000E+01  0.51109989000E-03 0.  1.
     -623   -1    0    0    0    0  0.00000000000E+00  0.00000000000E+00  0.12525980253E-10  0.17130000000E+03  0.17130000000E+03 0.  1.
       11    1    1    2    0    0  0.10796777908E-02 -0.28950339598E-02  0.97631388550E+00  0.97631890854E+00  0.51109989000E-03 0.  1.
     -623    1    1    2    0    0  0.21029529374E-04  0.42824993948E-05  0.12525595460E-04  0.17130000000E+03  0.17130000000E+03 0.  1.
      622    1    1    2    0    0 -0.11007073202E-02  0.28907514604E-02  0.30236735514E+01  0.30236810866E+01  0.60000000000E-02 0.  1.
</event>
<event>
 5   0  0.1211800E+10  0.9118800E+02  0.7818608E-02  0.1180000E+00
       11   -1    0    0    0    0  0.00000000000E+00  0.00000000000E+00  0.39999999673E+01  0.40000000000E+01  0.51109989000E-03 0. -1.
     -623   -1    0    0    0    0  0.00000000000E+00  0.00000000000E+00  0.12525980253E-10  0.17130000000E+03  0.17130000000E+03 0. -1.
       11    1    1    2    0    0 -0.17470650263E-02 -0.16044042433E-02  0.15115711159E+00  0.15117658535E+00  0.51109989000E-03 0. -1.
     -623    1    1    2    0    0 -0.49304834790E-04  0.20134337685E-03  0.24792946618E-04  0.17130000000E+03  0.17130000000E+03 0. -1.
      622    1    1    2    0    0  0.17963698611E-02  0.14030608665E-02  0.38488180628E+01  0.38488234145E+01  0.60000000000E-02 0. -1.
</event>
<event>
 5   0  0.1211800E+10  0.9118800E+02  0.7818608E-02  0.1180000E+00
       11   -1    0    0    0    0  0.00000000000E+00  0.00000000000E+00  0.39999999673E+01  0.40000000000E+01  0.51109989000E-03 0. -1.
     -623   -1    0    0    0    0  0.00000000000E+00  0.00000000000E+00  0.12525980253E-10  0.17130000000E+03  0.17130000000E+03 0.  1.
       11    1    1    2    0    0 -0.81764335361E-03 -0.15096781178E-02  0.52701037571E+00  0.52701342013E+00  0.51109989000E-03 0. -1.
     -623    1    1    2    0    0 -0.44105608735E-03  0.23631908119E-03  0.86569039222E-05  0.17130000000E+03  0.17130000000E+03 0.  1.
      622    1    1    2    0    0  0.12586994466E-02  0.12733590335E-02  0.34729809862E+01  0.34729866306E+01  0.60000000000E-02 0. -1.
</event>
<event>
 5   0  0.1211800E+10  0.9118800E+02  0.7818608E-02  0.1180000E+00
       11   -1    0    0    0    0  0.00000000000E+00  0.00000000000E+00  0.39999999673E+01  0.40000000000E+01  0.51109989000E-03 0. -1.
     -623   -1    0    0    0    0  0.00000000000E+00  0.00000000000E+00  0.12525980253E-10  0.17130000000E+03  0.17130000000E+03 0.  1.
       11    1    1    2    0    0 -0.77232302259E-04 -0.21055044558E-02  0.45501715437E+00  0.45502231935E+00  0.51109989000E-03 0. -1.
     -623    1    1    2    0    0  0.41533505062E-03 -0.18494396734E-03  0.10966620114E-04  0.17130000000E+03  0.17130000000E+03 0.  1.
      622    1    1    2    0    0 -0.33810274836E-03  0.22904484232E-02  0.35449718464E+01  0.35449776801E+01  0.60000000000E-02 0. -1.
</event>
<event>
 5   0  0.1211800E+10  0.9118800E+02  0.7818608E-02  0.1180000E+00
       11   -1    0    0    0    0  0.00000000000E+00  0.00000000000E+00  0.39999999673E+01  0.40000000000E+01  0.51109989000E-03 0.  1.
     -623   -1    0    0    0    0  0.00000000000E+00  0.00000000000E+00  0.12525980253E-10  0.17130000000E+03  0.17130000000E+03 0.  1.
       11    1    1    2    0    0  0.20247054796E-02 -0.18461370432E-03  0.31435875131E+00  0.31436574123E+00  0.51109989000E-03 0.  1.
     -623    1    1    2    0    0 -0.18817580255E-02 -0.52429811927E-03  0.11923202966E-04  0.17130000001E+03  0.17130000000E+03 0.  1.
      622    1    1    2    0    0 -0.14294745402E-03  0.70891182359E-03  0.36856292929E+01  0.36856342476E+01  0.60000000000E-02 0.  1.
</event>
<event>
 5   0  0.1211800E+10  0.9118800E+02  0.7818608E-02  0.1180000E+00
       11   -1    0    0    0    0  0.00000000000E+00  0.00000000000E+00  0.39999999673E+01  0.40000000000E+01  0.51109989000E-03 0. -1.
     -623   -1    0    0    0    0  0.00000000000E+00  0.00000000000E+00  0.12525980253E-10  0.17130000000E+03  0.17130000000E+03 0.  1.
       11    1    1    2    0    0 -0.97638862198E-03 -0.72315240783E-03  0.74856142484E+00  0.74856258541E+00  0.51109989000E-03 0. -1.
     -623    1    1    2    0    0  0.60801004111E-03 -0.17436593779E-02  0.76305289758E-05  0.17130000001E+03  0.17130000000E+03 0.  1.
      622    1    1    2    0    0  0.36837857539E-03  0.24668118015E-02  0.32514309481E+01  0.32514374407E+01  0.60000000000E-02 0. -1.
</event>
<event>
 5   0  0.1211800E+10  0.9118800E+02  0.7818608E-02  0.1180000E+00
       11   -1    0    0    0    0  0.00000000000E+00  0.00000000000E+00  0.39999999673E+01  0.40000000000E+01  0.51109989000E-03 0. -1.
     -623   -1    0    0    0    0  0.00000000000E+00  0.00000000000E+00  0.12525980253E-10  0.17130000000E+03  0.17130000000E+03 0. -1.
       11    1    1    2    0    0 -0.20578062217E-03  0.68051456965E-03  0.22309346025E-01  0.22326522096E-01  0.51109989000E-03 0. -1.
     -623    1    1    2    0    0  0.41118353213E-03 -0.70042462772E-04  0.21721350414E-04  0.17130000000E+03  0.17130000000E+03 0. -1.
      622    1    1    2    0    0 -0.20540291076E-03 -0.61047210674E-03  0.39776689077E+01  0.39776734852E+01  0.60000000000E-02 0. -1.
</event>
<event>
 5   0  0.1211800E+10  0.9118800E+02  0.7818608E-02  0.1180000E+00
       11   -1    0    0    0    0  0.00000000000E+00  0.00000000000E+00  0.39999999673E+01  0.40000000000E+01  0.51109989000E-03 0.  1.
     -623   -1    0    0    0    0  0.00000000000E+00  0.00000000000E+00  0.12525980253E-10  0.17130000000E+03  0.17130000000E+03 0.  1.
       11    1    1    2    0    0 -0.61695517812E-02  0.57187837146E-02  0.11356759739E+01  0.11357072452E+01  0.51109989000E-03 0.  1.
     -623    1    1    2    0    0 -0.39736763760E-03  0.28172657975E-03  0.51336972384E-04  0.17130000000E+03  0.17130000000E+03 0.  1.
      622    1    1    2    0    0  0.65669194197E-02 -0.60005102950E-02  0.28642726653E+01  0.28642927629E+01  0.60000000000E-02 0.  1.
</event>
<event>
 5   0  0.1211800E+10  0.9118800E+02  0.7818608E-02  0.1180000E+00
       11   -1    0    0    0    0  0.00000000000E+00  0.00000000000E+00  0.39999999673E+01  0.40000000000E+01  0.51109989000E-03 0. -1.
     -623   -1    0    0    0    0  0.00000000000E+00  0.00000000000E+00  0.12525980253E-10  0.17130000000E+03  0.17130000000E+03 0. -1.
       11    1    1    2    0    0  0.67263095694E-03  0.20411960500E-02  0.64411387357E+00  0.64411766181E+00  0.51109989000E-03 0. -1.
     -623    1    1    2    0    0 -0.97977531382E-03 -0.13161971553E-02  0.92195515529E-05  0.17130000001E+03  0.17130000000E+03 0. -1.
      622    1    1    2    0    0  0.30714435687E-03 -0.72499889462E-03  0.33558768742E+01  0.33558823303E+01  0.60000000000E-02 0.  0.
</event>
<event>
 5   0  0.1211800E+10  0.9118800E+02  0.7818608E-02  0.1180000E+00
       11   -1    0    0    0    0  0.00000000000E+00  0.00000000000E+00  0.39999999673E+01  0.40000000000E+01  0.51109989000E-03 0.  1.
     -623   -1    0    0    0    0  0.00000000000E+00  0.00000000000E+00  0.12525980253E-10  0.17130000000E+03  0.17130000000E+03 0. -1.
       11    1    1    2    0    0 -0.12497136606E-02 -0.43217528160E-02  0.35649144647E+00  0.35652019853E+00  0.51109989000E-03 0.  1.
     -623    1    1    2    0    0 -0.44651948208E-04 -0.66568405227E-04  0.36532412794E-04  0.17130000000E+03  0.17130000000E+03 0. -1.
      622    1    1    2    0    0  0.12943656088E-02  0.43883212212E-02  0.36434719885E+01  0.36434798015E+01  0.60000000000E-02 0.  1.
</event>
<event>
 5   0  0.1211800E+10  0.9118800E+02  0.7818608E-02  0.1180000E+00
       11   -1    0    0    0    0  0.00000000000E+00  0.00000000000E+00  0.39999999673E+01  0.40000000000E+01  0.51109989000E-03 0. -1.
     -623   -1    0    0    0    0  0.00000000000E+00  0.00000000000E+00  0.12525980253E-10  0.17130000000E+03  0.17130000000E+03 0.  1.
       11    1    1    2    0    0  0.67294263411E-03  0.83558374926E-03  0.15076028026E+00  0.15076496402E+00  0.51109989000E-03 0. -1.
     -623    1    1    2    0    0 -0.19835457924E-03 -0.12670159378E-02  0.93856132497E-05  0.17130000000E+03  0.17130000000E+03 0.  1.
      622    1    1    2    0    0 -0.47458805487E-03  0.43143218854E-03  0.38492303015E+01  0.38492350312E+01  0.60000000000E-02 0. -1.
</event>
<event>
 5   0  0.1211800E+10  0.9118800E+02  0.7818608E-02  0.1180000E+00
       11   -1    0    0    0    0  0.00000000000E+00  0.00000000000E+00  0.39999999673E+01  0.40000000000E+01  0.51109989000E-03 0. -1.
     -623   -1    0    0    0    0  0.00000000000E+00  0.00000000000E+00  0.12525980253E-10  0.17130000000E+03  0.17130000000E+03 0. -1.
       11    1    1    2    0    0  0.28561438460E-03 -0.11628939823E-03  0.28450818802E+00  0.28450881423E+00  0.51109989000E-03 0. -1.
     -623    1    1    2    0    0  0.12267514169E-03 -0.58471384125E-04  0.54647462475E-05  0.17130000000E+03  0.17130000000E+03 0. -1.
      622    1    1    2    0    0 -0.40828952629E-03  0.17476078236E-03  0.37154863146E+01  0.37154911857E+01  0.60000000000E-02 0. -1.
</event>
<event>
 5   0  0.1211800E+10  0.9118800E+02  0.7818608E-02  0.1180000E+00
       11   -1    0    0    0    0  0.00000000000E+00  0.00000000000E+00  0.39999999673E+01  0.40000000000E+01  0.51109989000E-03 0. -1.
     -623   -1    0    0    0    0  0.00000000000E+00  0.00000000000E+00  0.12525980253E-10  0.17130000000E+03  0.17130000000E+03 0.  1.
       11    1    1    2    0    0  0.11098417503E-02 -0.47212664610E-03  0.26402873823E+00  0.26403198762E+00  0.51109989000E-03 0. -1.
     -623    1    1    2    0    0  0.34628492579E-04 -0.35791692728E-03  0.83026650954E-05  0.17130000000E+03  0.17130000000E+03 0.  1.
      622    1    1    2    0    0 -0.11444702432E-02  0.83004357598E-03  0.37359629555E+01  0.37359680411E+01  0.60000000000E-02 0.  0.
</event>
<event>
 5   0  0.1211800E+10  0.9118800E+02  0.7818608E-02  0.1180000E+00
       11   -1    0    0    0    0  0.00000000000E+00  0.00000000000E+00  0.39999999673E+01  0.40000000000E+01  0.51109989000E-03 0.  1.
     -623   -1    0    0    0    0  0.00000000000E+00  0.00000000000E+00  0.12525980253E-10  0.17130000000E+03  0.17130000000E+03 0.  1.
       11    1    1    2    0    0 -0.31681432055E-03 -0.26448402067E-02  0.10531108847E+01  0.10531143775E+01  0.51109989000E-03 0.  1.
     -623    1    1    2    0    0  0.18437532461E-03  0.23809808116E-05  0.10756199317E-04  0.17130000000E+03  0.17130000000E+03 0.  1.
      622    1    1    2    0    0  0.13243899594E-03  0.26424592259E-02  0.29468783265E+01  0.29468856224E+01  0.60000000000E-02 0.  1.
</event>
<event>
 5   0  0.1211800E+10  0.9118800E+02  0.7818608E-02  0.1180000E+00
       11   -1    0    0    0    0  0.00000000000E+00  0.00000000000E+00  0.39999999673E+01  0.40000000000E+01  0.51109989000E-03 0. -1.
     -623   -1    0    0    0    0  0.00000000000E+00  0.00000000000E+00  0.12525980253E-10  0.17130000000E+03  0.17130000000E+03 0.  1.
       11    1    1    2    0    0  0.11665020599E-02 -0.16003522032E-02  0.49662130877E-01  0.49704228397E-01  0.51109989000E-03 0. -1.
     -623    1    1    2    0    0  0.77038203305E-04  0.12014633119E-03  0.47094623527E-04  0.17130000000E+03  0.17130000000E+03 0.  1.
      622    1    1    2    0    0 -0.12435402633E-02  0.14802058719E-02  0.39502907452E+01  0.39502957749E+01  0.60000000000E-02 0. -1.
</event>
<event>
 5   0  0.1211800E+10  0.9118800E+02  0.7818608E-02  0.1180000E+00
       11   -1    0    0    0    0  0.00000000000E+00  0.00000000000E+00  0.39999999673E+01  0.40000000000E+01  0.51109989000E-03 0.  1.
     -623   -1    0    0    0    0  0.00000000000E+00  0.00000000000E+00  0.12525980253E-10  0.17130000000E+03  0.17130000000E+03 0. -1.
       11    1    1    2    0    0  0.53625948493E-02 -0.57395157386E-03  0.15441688826E+00  0.15451188772E+00  0.51109989000E-03 0.  1.
     -623    1    1    2    0    0  0.89494328981E-03 -0.15316105280E-02  0.10532456068E-03  0.17130000001E+03  0.17130000000E+03 0. -1.
      622    1    1    2    0    0 -0.62575381391E-02  0.21055621018E-02  0.38454777545E+01  0.38454881031E+01  0.60000000000E-02 0.  1.
</event>
<event>
 5   0  0.1211800E+10  0.9118800E+02  0.7818608E-02  0.1180000E+00
       11   -1    0    0    0    0  0.00000000000E+00  0.00000000000E+00  0.39999999673E+01  0.40000000000E+01  0.51109989000E-03 0.  1.
     -623   -1    0    0    0    0  0.00000000000E+00  0.00000000000E+00  0.12525980253E-10  0.17130000000E+03  0.17130000000E+03 0. -1.
       11    1    1    2    0    0  0.16277505741E-02  0.28013526447E-02  0.83025787700E-01  0.83090551764E-01  0.51109989000E-03 0.  1.
     -623    1    1    2    0    0 -0.29081257725E-02 -0.49254057211E-02  0.70207578158E-04  0.17130000010E+03  0.17130000000E+03 0. -1.
      622    1    1    2    0    0  0.12803751984E-02  0.21240530764E-02  0.39169039721E+01  0.39169093527E+01  0.60000000000E-02 0.  1.
</event>
<event>
 5   0  0.1211800E+10  0.9118800E+02  0.7818608E-02  0.1180000E+00
       11   -1    0    0    0    0  0.00000000000E+00  0.00000000000E+00  0.39999999673E+01  0.40000000000E+01  0.51109989000E-03 0. -1.
     -623   -1    0    0    0    0  0.00000000000E+00  0.00000000000E+00  0.12525980253E-10  0.17130000000E+03  0.17130000000E+03 0.  1.
       11    1    1    2    0    0 -0.25512601456E-02 -0.10229396009E-02  0.93311721897E+00  0.93312140737E+00  0.51109989000E-03 0. -1.
     -623    1    1    2    0    0  0.25684323217E-02 -0.15471363656E-02  0.11128094493E-04  0.17130000003E+03  0.17130000000E+03 0.  1.
      622    1    1    2    0    0 -0.17172175153E-04  0.25700759660E-02  0.30668716189E+01  0.30668785650E+01  0.60000000000E-02 0. -1.
</event>
<event>
 5   0  0.1211800E+10  0.9118800E+02  0.7818608E-02  0.1180000E+00
       11   -1    0    0    0    0  0.00000000000E+00  0.00000000000E+00  0.39999999673E+01  0.40000000000E+01  0.51109989000E-03 0.  1.
     -623   -1    0    0    0    0  0.00000000000E+00  0.00000000000E+00  0.12525980253E-10  0.17130000000E+03  0.17130000000E+03 0. -1.
       11    1    1    2    0    0  0.13889542134E-02 -0.13349229538E-02  0.41152300406E+00  0.41152783053E+00  0.51109989000E-03 0.  1.
     -623    1    1    2    0    0  0.45055502765E-04  0.10068763497E-03  0.10308720169E-04  0.17130000000E+03  0.17130000000E+03 0. -1.
      622    1    1    2    0    0 -0.14340097162E-02  0.12342353186E-02  0.35884666627E+01  0.35884721775E+01  0.60000000000E-02 0.  1.
</event>
<event>
 5   0  0.1211800E+10  0.9118800E+02  0.7818608E-02  0.1180000E+00
       11   -1    0    0    0    0  0.00000000000E+00  0.00000000000E+00  0.39999999673E+01  0.40000000000E+01  0.51109989000E-03 0. -1.
     -623   -1    0    0    0    0  0.00000000000E+00  0.00000000000E+00  0.12525980253E-10  0.17130000000E+03  0.17130000000E+03 0.  1.
       11    1    1    2    0    0  0.34769714408E-03  0.62989116436E-03  0.26217604359E+00  0.26217752900E+00  0.51109989000E-03 0. -1.
     -623    1    1    2    0    0  0.13403622793E-03  0.31959632082E-04  0.63581029717E-05  0.17130000000E+03  0.17130000000E+03 0.  1.
      622    1    1    2    0    0 -0.48173337201E-03 -0.66185079644E-03  0.37378175657E+01  0.37378224709E+01  0.60000000000E-02 0. -1.
</event>
<event>
 5   0  0.1211800E+10  0.9118800E+02  0.7818608E-02  0.1180000E+00
       11   -1    0    0    0    0  0.00000000000E+00  0.00000000000E+00  0.39999999673E+01  0.40000000000E+01  0.51109989000E-03 0.  1.
     -623   -1    0    0    0    0  0.00000000000E+00  0.00000000000E+00  0.12525980253E-10  0.17130000000E+03  0.17130000000E+03 0. -1.
       11    1    1    2    0    0  0.18846021140E-03  0.94221646522E-03  0.15626757852E-01  0.15664612130E-01  0.51109989000E-03 0.  1.
     -623    1    1    2    0    0 -0.51345036616E-03 -0.30385032597E-03  0.42404770130E-04  0.17130000000E+03  0.17130000000E+03 0. -1.
      622    1    1    2    0    0  0.32499015412E-03 -0.63836613963E-03  0.39843307997E+01  0.39843353818E+01  0.60000000000E-02 0.  1.
</event>
<event>
 5   0  0.1211800E+10  0.9118800E+02  0.7818608E-02  0.1180000E+00
       11   -1    0    0    0    0  0.00000000000E+00  0.00000000000E+00  0.39999999673E+01  0.40000000000E+01  0.51109989000E-03 0.  1.
     -623   -1    0    0    0    0  0.00000000000E+00  0.00000000000E+00  0.12525980253E-10  0.17130000000E+03  0.17130000000E+03 0.  1.
       11    1    1    2    0    0  0.56309263636E-02  0.59106453243E-02  0.51304992187E+00  0.51311512023E+00  0.51109989000E-03 0.  1.
     -623    1    1    2    0    0 -0.12496825339E-03 -0.40925256335E-05  0.79677759893E-04  0.17130000000E+03  0.17130000000E+03 0.  1.
      622    1    1    2    0    0 -0.55059581103E-02 -0.59065527987E-02  0.34868703677E+01  0.34868848797E+01  0.60000000000E-02 0.  1.
</event>
<event>
 5   0  0.1211800E+10  0.9118800E+02  0.7818608E-02  0.1180000E+00
       11   -1    0    0    0    0  0.00000000000E+00  0.00000000000E+00  0.39999999673E+01  0.40000000000E+01  0.51109989000E-03 0.  1.
     -623   -1    0    0    0    0  0.00000000000E+00  0.00000000000E+00  0.12525980253E-10  0.17130000000E+03  0.17130000000E+03 0.  1.
       11    1    1    2    0    0 -0.88784609867E-03  0.96684738435E-03  0.31442324462E-01  0.31473863049E-01  0.51109989000E-03 0.  1.
     -623    1    1    2    0    0 -0.10437499139E-03  0.91896078963E-04  0.36306966211E-04  0.17130000000E+03  0.17130000000E+03 0.  1.
      622    1    1    2    0    0  0.99222109042E-03 -0.10587434636E-02  0.39685213494E+01  0.39685261504E+01  0.60000000000E-02 0.  1.
</event>
<event>
 5   0  0.1211800E+10  0.9118800E+02  0.7818608E-02  0.1180000E+00
       11   -1    0    0    0    0  0.00000000000E+00  0.00000000000E+00  0.39999999673E+01  0.40000000000E+01  0.51109989000E-03 0.  1.
     -623   -1    0    0    0    0  0.00000000000E+00  0.00000000000E+00  0.12525980253E-10  0.17130000000E+03  0.17130000000E+03 0.  1.
       11    1    1    2    0    0  0.31474841621E-03  0.20721218827E-02  0.25536008083E+00  0.25536919324E+00  0.51109989000E-03 0.  1.
     -623    1    1    2    0    0  0.11618177980E-02 -0.10706855834E-02  0.14318970797E-04  0.17130000001E+03  0.17130000000E+03 0.  1.
      622    1    1    2    0    0 -0.14765662142E-02 -0.10014362993E-02  0.37446255676E+01  0.37446307995E+01  0.60000000000E-02 0.  1.
</event>
<event>
 5   0  0.1211800E+10  0.9118800E+02  0.7818608E-02  0.1180000E+00
       11   -1    0    0    0    0  0.00000000000E+00  0.00000000000E+00  0.39999999673E+01  0.40000000000E+01  0.51109989000E-03 0.  1.
     -623   -1    0    0    0    0  0.00000000000E+00  0.00000000000E+00  0.12525980253E-10  0.17130000000E+03  0.17130000000E+03 0.  1.
       11    1    1    2    0    0 -0.36899471724E-03 -0.13704290731E-02  0.25450671224E+00  0.25451118252E+00  0.51109989000E-03 0. -1.
     -623    1    1    2    0    0 -0.51334543806E-04 -0.40359025863E-03  0.96876242335E-05  0.17130000000E+03  0.17130000000E+03 0.  1.
      622    1    1    2    0    0  0.42032926104E-03  0.17740193317E-02  0.37454835675E+01  0.37454888170E+01  0.60000000000E-02 0.  1.
</event>
<event>
 5   0  0.1211800E+10  0.9118800E+02  0.7818608E-02  0.1180000E+00
       11   -1    0    0    0    0  0.00000000000E+00  0.00000000000E+00  0.39999999673E+01  0.40000000000E+01  0.51109989000E-03 0.  1.
     -623   -1    0    0    0    0  0.00000000000E+00  0.00000000000E+00  0.12525980253E-10  0.17130000000E+03  0.17130000000E+03 0. -1.
       11    1    1    2    0    0  0.42371985102E-03 -0.24265317309E-03  0.91804089745E-01  0.91806810937E-01  0.51109989000E-03 0. -1.
     -623    1    1    2    0    0  0.59924490556E-04 -0.18037116867E-04  0.73328951196E-05  0.17130000000E+03  0.17130000000E+03 0. -1.
      622    1    1    2    0    0 -0.48364434158E-03  0.26069028996E-03  0.39081885447E+01  0.39081931891E+01  0.60000000000E-02 0.  1.
</event>
<event>
 5   0  0.1211800E+10  0.9118800E+02  0.7818608E-02  0.1180000E+00
       11   -1    0    0    0    0  0.00000000000E+00  0.00000000000E+00  0.39999999673E+01  0.40000000000E+01  0.51109989000E-03 0.  1.
     -623   -1    0    0    0    0  0.00000000000E+00  0.00000000000E+00  0.12525980253E-10  0.17130000000E+03  0.17130000000E+03 0.  1.
       11    1    1    2    0    0  0.16322050375E-02  0.14313356723E-02  0.58904617139E+00  0.58905039348E+00  0.51109989000E-03 0.  1.
     -623    1    1    2    0    0  0.41341814470E-04  0.47475961088E-04  0.10197719239E-04  0.17130000000E+03  0.17130000000E+03 0.  1.
      622    1    1    2    0    0 -0.16735468524E-02 -0.14788116338E-02  0.34109436333E+01  0.34109496416E+01  0.60000000000E-02 0.  0.
</event>
<event>
 5   0  0.1211800E+10  0.9118800E+02  0.7818608E-02  0.1180000E+00
       11   -1    0    0    0    0  0.00000000000E+00  0.00000000000E+00  0.39999999673E+01  0.40000000000E+01  0.51109989000E-03 0.  1.
     -623   -1    0    0    0    0  0.00000000000E+00  0.00000000000E+00  0.12525980253E-10  0.17130000000E+03  0.17130000000E+03 0.  1.
       11    1    1    2    0    0 -0.67732530173E-03 -0.30229565266E-02  0.21433376713E+00  0.21435676334E+00  0.51109989000E-03 0.  1.
     -623    1    1    2    0    0 -0.52094543097E-03 -0.10533042504E-03  0.29201388132E-04  0.17130000000E+03  0.17130000000E+03 0.  1.
      622    1    1    2    0    0  0.11982707327E-02  0.31282869516E-02  0.37856369988E+01  0.37856432358E+01  0.60000000000E-02 0.  1.
</event>
<event>
 5   0  0.1211800E+10  0.9118800E+02  0.7818608E-02  0.1180000E+00
       11   -1    0    0    0    0  0.00000000000E+00  0.00000000000E+00  0.39999999673E+01  0.40000000000E+01  0.51109989000E-03 0.  1.
     -623   -1    0    0    0    0  0.00000000000E+00  0.00000000000E+00  0.12525980253E-10  0.17130000000E+03  0.17130000000E+03 0.  1.
       11    1    1    2    0    0 -0.86975842116E-03  0.11973322563E-02  0.77136195129E+00  0.77136354023E+00  0.51109989000E-03 0.  1.
     -623    1    1    2    0    0  0.39488025363E-04 -0.21961007614E-03  0.73863616472E-05  0.17130000000E+03  0.17130000000E+03 0.  1.
      622    1    1    2    0    0  0.83027039579E-03 -0.97772218014E-03  0.32286306297E+01  0.32286364596E+01  0.60000000000E-02 0.  1.
</event>
<event>
 5   0  0.1211800E+10  0.9118800E+02  0.7818608E-02  0.1180000E+00
       11   -1    0    0    0    0  0.00000000000E+00  0.00000000000E+00  0.39999999673E+01  0.40000000000E+01  0.51109989000E-03 0.  1.
     -623   -1    0    0    0    0  0.00000000000E+00  0.00000000000E+00  0.12525980253E-10  0.17130000000E+03  0.17130000000E+03 0. -1.
       11    1    1    2    0    0 -0.84449023516E-03 -0.27730768926E-02  0.22709577983E+00  0.22711485543E+00  0.51109989000E-03 0.  1.
     -623    1    1    2    0    0 -0.40044017248E-03  0.58296221921E-03  0.24656372595E-04  0.17130000000E+03  0.17130000000E+03 0. -1.
      622    1    1    2    0    0  0.12449304076E-02  0.21901146734E-02  0.37728795312E+01  0.37728851431E+01  0.60000000000E-02 0.  1.
</event>
<event>
 5   0  0.1211800E+10  0.9118800E+02  0.7818608E-02  0.1180000E+00
       11   -1    0    0    0    0  0.00000000000E+00  0.00000000000E+00  0.39999999673E+01  0.40000000000E+01  0.51109989000E-03 0.  1.
     -623   -1    0    0    0    0  0.00000000000E+00  0.00000000000E+00  0.12525980253E-10  0.17130000000E+03  0.17130000000E+03 0. -1.
       11    1    1    2    0    0 -0.24086580049E-02 -0.85058394442E-03  0.15092723631E+00  0.15094971682E+00  0.51109989000E-03 0.  1.
     -623    1    1    2    0    0  0.61789981606E-03  0.60838367626E-03  0.27550746460E-04  0.17130000000E+03  0.17130000000E+03 0. -1.
      622    1    1    2    0    0  0.17907581889E-02  0.24220026825E-03  0.38490451797E+01  0.38490502804E+01  0.60000000000E-02 0.  0.
</event>
<event>
 5   0  0.1211800E+10  0.9118800E+02  0.7818608E-02  0.1180000E+00
       11   -1    0    0    0    0  0.00000000000E+00  0.00000000000E+00  0.39999999673E+01  0.40000000000E+01  0.51109989000E-03 0.  1.
     -623   -1    0    0    0    0  0.00000000000E+00  0.00000000000E+00  0.12525980253E-10  0.17130000000E+03  0.17130000000E+03 0. -1.
       11    1    1    2    0    0 -0.75092738453E-03 -0.24369594105E-03  0.98371458388E+00  0.98371503345E+00  0.51109989000E-03 0.  1.
     -623    1    1    2    0    0  0.43031253490E-04  0.27901614231E-04  0.64753390339E-05  0.17130000000E+03  0.17130000000E+03 0. -1.
      622    1    1    2    0    0  0.70789613104E-03  0.21579432682E-03  0.30162789081E+01  0.30162849665E+01  0.60000000000E-02 0.  0.
</event>
<event>
 5   0  0.1211800E+10  0.9118800E+02  0.7818608E-02  0.1180000E+00
       11   -1    0    0    0    0  0.00000000000E+00  0.00000000000E+00  0.39999999673E+01  0.40000000000E+01  0.51109989000E-03 0. -1.
     -623   -1    0    0    0    0  0.00000000000E+00  0.00000000000E+00  0.12525980253E-10  0.17130000000E+03  0.17130000000E+03 0.  1.
       11    1    1    2    0    0 -0.89166252283E-03 -0.14922165242E-02  0.25913846164E-01  0.25977113343E-01  0.51109989000E-03 0. -1.
     -623    1    1    2    0    0  0.50685909249E-03  0.36726468667E-03  0.67942968054E-04  0.17130000000E+03  0.17130000000E+03 0.  1.
      622    1    1    2    0    0  0.38480343034E-03  0.11249518375E-02  0.39740181782E+01  0.39740228855E+01  0.60000000000E-02 0. -1.
</event>
<event>
 5   0  0.1211800E+10  0.9118800E+02  0.7818608E-02  0.1180000E+00
       11   -1    0    0    0    0  0.00000000000E+00  0.00000000000E+00  0.39999999673E+01  0.40000000000E+01  0.51109989000E-03 0. -1.
     -623   -1    0    0    0    0  0.00000000000E+00  0.00000000000E+00  0.12525980253E-10  0.17130000000E+03  0.17130000000E+03 0. -1.
       11    1    1    2    0    0  0.10233386635E-02 -0.23762585063E-02  0.19291593003E+00  0.19293395530E+00  0.51109989000E-03 0. -1.
     -623    1    1    2    0    0 -0.16009969718E-03 -0.12590921015E-02  0.24558947344E-04  0.17130000000E+03  0.17130000000E+03 0. -1.
      622    1    1    2    0    0 -0.86323896633E-03  0.36353506078E-02  0.38070594784E+01  0.38070660400E+01  0.60000000000E-02 0. -1.
</event>
<event>
 5   0  0.1211800E+10  0.9118800E+02  0.7818608E-02  0.1180000E+00
       11   -1    0    0    0    0  0.00000000000E+00  0.00000000000E+00  0.39999999673E+01  0.40000000000E+01  0.51109989000E-03 0. -1.
     -623   -1    0    0    0    0  0.00000000000E+00  0.00000000000E+00  0.12525980253E-10  0.17130000000E+03  0.17130000000E+03 0. -1.
       11    1    1    2    0    0  0.10956544809E-02 -0.80169856365E-04  0.41553747885E-01  0.41571409284E-01  0.51109989000E-03 0. -1.
     -623    1    1    2    0    0 -0.16202640867E-02 -0.29019212886E-03  0.22236019384E-04  0.17130000001E+03  0.17130000000E+03 0. -1.
      622    1    1    2    0    0  0.52460960587E-03  0.37036198522E-03  0.39584239835E+01  0.39584285828E+01  0.60000000000E-02 0. -1.
</event>
<event>
 5   0  0.1211800E+10  0.9118800E+02  0.7818608E-02  0.1180000E+00
       11   -1    0    0    0    0  0.00000000000E+00  0.00000000000E+00  0.39999999673E+01  0.40000000000E+01  0.51109989000E-03 0.  1.
     -623   -1    0    0    0    0  0.00000000000E+00  0.00000000000E+00  0.12525980253E-10  0.17130000000E+03  0.17130000000E+03 0. -1.
       11    1    1    2    0    0  0.12550014129E-02 -0.34500050139E-02  0.58028128159E+00  0.58029311951E+00  0.51109989000E-03 0.  1.
     -623    1    1    2    0    0 -0.47425166263E-03 -0.29458901607E-03  0.19209105251E-04  0.17130000000E+03  0.17130000000E+03 0. -1.
      622    1    1    2    0    0 -0.78074975029E-03  0.37445940300E-02  0.34196994767E+01  0.34197068796E+01  0.60000000000E-02 0.  1.
</event>
<event>
 5   0  0.1211800E+10  0.9118800E+02  0.7818608E-02  0.1180000E+00
       11   -1    0    0    0    0  0.00000000000E+00  0.00000000000E+00  0.39999999673E+01  0.40000000000E+01  0.51109989000E-03 0.  1.
     -623   -1    0    0    0    0  0.00000000000E+00  0.00000000000E+00  0.12525980253E-10  0.17130000000E+03  0.17130000000E+03 0. -1.
       11    1    1    2    0    0 -0.85306519421E-03  0.63104117650E-03  0.81915067009E-01  0.81923533611E-01  0.51109989000E-03 0.  1.
     -623    1    1    2    0    0  0.42657303181E-04 -0.20106075887E-02  0.13366548159E-04  0.17130000001E+03  0.17130000000E+03 0. -1.
      622    1    1    2    0    0  0.81040789082E-03  0.13795664223E-02  0.39180715538E+01  0.39180764746E+01  0.60000000000E-02 0.  1.
</event>
<event>
 5   0  0.1211800E+10  0.9118800E+02  0.7818608E-02  0.1180000E+00
       11   -1    0    0    0    0  0.00000000000E+00  0.00000000000E+00  0.39999999673E+01  0.40000000000E+01  0.51109989000E-03 0. -1.
     -623   -1    0    0    0    0  0.00000000000E+00  0.00000000000E+00  0.12525980253E-10  0.17130000000E+03  0.17130000000E+03 0. -1.
       11    1    1    2    0    0  0.14060170528E-03  0.91543833877E-03  0.41651836779E+00  0.41651971109E+00  0.51109989000E-03 0. -1.
     -623    1    1    2    0    0 -0.72674608720E-03 -0.26027242602E-02  0.68001924913E-05  0.17130000002E+03  0.17130000000E+03 0. -1.
      622    1    1    2    0    0  0.58614438192E-03  0.16872859214E-02  0.35834747994E+01  0.35834802676E+01  0.60000000000E-02 0. -1.
</event>
<event>
 5   0  0.1211800E+10  0.9118800E+02  0.7818608E-02  0.1180000E+00
       11   -1    0    0    0    0  0.00000000000E+00  0.00000000000E+00  0.39999999673E+01  0.40000000000E+01  0.51109989000E-03 0. -1.
     -623   -1    0    0    0    0  0.00000000000E+00  0.00000000000E+00  0.12525980253E-10  0.17130000000E+03  0.17130000000E+03 0. -1.
       11    1    1    2    0    0 -0.21339776611E-03  0.27882973736E-03  0.83212839511E-01  0.83215149866E-01  0.51109989000E-03 0. -1.
     -623    1    1    2    0    0 -0.36361310178E-04 -0.98239725682E-04  0.68854818331E-05  0.17130000000E+03  0.17130000000E+03 0. -1.
      622    1    1    2    0    0  0.24975907688E-03 -0.18059001008E-03  0.39167803077E+01  0.39167849154E+01  0.60000000000E-02 0. -1.
</event>
<event>
 5   0  0.1211800E+10  0.9118800E+02  0.7818608E-02  0.1180000E+00
       11   -1    0    0    0    0  0.00000000000E+00  0.00000000000E+00  0.39999999673E+01  0.40000000000E+01  0.51109989000E-03 0. -1.
     -623   -1    0    0    0    0  0.00000000000E+00  0.00000000000E+00  0.12525980253E-10  0.17130000000E+03  0.17130000000E+03 0.  1.
       11    1    1    2    0    0 -0.72992308340E-03  0.59445439069E-03  0.11741659895E-01  0.11790418288E-01  0.51109989000E-03 0.  1.
     -623    1    1    2    0    0 -0.43967338184E-04  0.14383542861E-03  0.53382553904E-04  0.17130000000E+03  0.17130000000E+03 0.  1.
      622    1    1    2    0    0  0.77389042159E-03 -0.73828981931E-03  0.39882049249E+01  0.39882095816E+01  0.60000000000E-02 0. -1.
</event>
<event>
 5   0  0.1211800E+10  0.9118800E+02  0.7818608E-02  0.1180000E+00
       11   -1    0    0    0    0  0.00000000000E+00  0.00000000000E+00  0.39999999673E+01  0.40000000000E+01  0.51109989000E-03 0. -1.
     -623   -1    0    0    0    0  0.00000000000E+00  0.00000000000E+00  0.12525980253E-10  0.17130000000E+03  0.17130000000E+03 0.  1.
       11    1    1    2    0    0  0.54087776685E-03  0.49180008494E-02  0.13060382685E+00  0.13069850837E+00  0.51109989000E-03 0. -1.
     -623    1    1    2    0    0  0.77942066867E-03  0.45566136683E-03  0.10326002291E-03  0.17130000000E+03  0.17130000000E+03 0.  1.
      622    1    1    2    0    0 -0.13202984361E-02 -0.53736622166E-02  0.38692928834E+01  0.38693014921E+01  0.60000000000E-02 0. -1.
</event>
<event>
 5   0  0.1211800E+10  0.9118800E+02  0.7818608E-02  0.1180000E+00
       11   -1    0    0    0    0  0.00000000000E+00  0.00000000000E+00  0.39999999673E+01  0.40000000000E+01  0.51109989000E-03 0.  1.
     -623   -1    0    0    0    0  0.00000000000E+00  0.00000000000E+00  0.12525980253E-10  0.17130000000E+03  0.17130000000E+03 0.  1.
       11    1    1    2    0    0  0.12127341182E-02 -0.87480186196E-03  0.12152258618E+00  0.12153286048E+00  0.51109989000E-03 0.  1.
     -623    1    1    2    0    0  0.64126627105E-04  0.42217852883E-04  0.15182231772E-04  0.17130000000E+03  0.17130000000E+03 0.  1.
      622    1    1    2    0    0 -0.12768607453E-02  0.83258400908E-03  0.38784621989E+01  0.38784671395E+01  0.60000000000E-02 0.  1.
</event>
<event>
 5   0  0.1211800E+10  0.9118800E+02  0.7818608E-02  0.1180000E+00
       11   -1    0    0    0    0  0.00000000000E+00  0.00000000000E+00  0.39999999673E+01  0.40000000000E+01  0.51109989000E-03 0.  1.
     -623   -1    0    0    0    0  0.00000000000E+00  0.00000000000E+00  0.12525980253E-10  0.17130000000E+03  0.17130000000E+03 0.  1.
       11    1    1    2    0    0  0.13090481377E-03 -0.96795354645E-03  0.79344326399E+00  0.79344402982E+00  0.51109989000E-03 0.  1.
     -623    1    1    2    0    0 -0.24667268390E-03 -0.38511638348E-03  0.66348764332E-05  0.17130000000E+03  0.17130000000E+03 0.  1.
      622    1    1    2    0    0  0.11576787013E-03  0.13530699299E-02  0.32065500685E+01  0.32065559696E+01  0.60000000000E-02 0.  1.
</event>
<event>
 5   0  0.1211800E+10  0.9118800E+02  0.7818608E-02  0.1180000E+00
       11   -1    0    0    0    0  0.00000000000E+00  0.00000000000E+00  0.39999999673E+01  0.40000000000E+01  0.51109989000E-03 0. -1.
     -623   -1    0    0    0    0  0.00000000000E+00  0.00000000000E+00  0.12525980253E-10  0.17130000000E+03  0.17130000000E+03 0.  1.
       11    1    1    2    0    0  0.11048485822E-02 -0.25805893563E-03  0.25037574538E+00  0.25037883772E+00  0.51109989000E-03 0. -1.
     -623    1    1    2    0    0 -0.16484546827E-03  0.30190882900E-03  0.79786202289E-05  0.17130000000E+03  0.17130000000E+03 0.  1.
      622    1    1    2    0    0 -0.94000311390E-03 -0.43849893370E-04  0.37496162434E+01  0.37496211619E+01  0.60000000000E-02 0. -1.
</event>
<event>
 5   0  0.1211800E+10  0.9118800E+02  0.7818608E-02  0.1180000E+00
       11   -1    0    0    0    0  0.00000000000E+00  0.00000000000E+00  0.39999999673E+01  0.40000000000E+01  0.51109989000E-03 0. -1.
     -623   -1    0    0    0    0  0.00000000000E+00  0.00000000000E+00  0.12525980253E-10  0.17130000000E+03  0.17130000000E+03 0. -1.
       11    1    1    2    0    0  0.35086942834E-03 -0.13724368101E-02  0.59682297112E-01  0.59701293981E-01  0.51109989000E-03 0. -1.
     -623    1    1    2    0    0  0.33761777733E-03  0.13057590639E-04  0.23827386957E-04  0.17130000000E+03  0.17130000000E+03 0. -1.
      622    1    1    2    0    0 -0.68848720566E-03  0.13593792194E-02  0.39402938429E+01  0.39402987057E+01  0.60000000000E-02 0. -1.
</event>
<event>
 5   0  0.1211800E+10  0.9118800E+02  0.7818608E-02  0.1180000E+00
       11   -1    0    0    0    0  0.00000000000E+00  0.00000000000E+00  0.39999999673E+01  0.40000000000E+01  0.51109989000E-03 0. -1.
     -623   -1    0    0    0    0  0.00000000000E+00  0.00000000000E+00  0.12525980253E-10  0.17130000000E+03  0.17130000000E+03 0.  1.
       11    1    1    2    0    0  0.21803417009E-02 -0.20108826538E-03  0.49363257330E-01  0.49414438414E-01  0.51109989000E-03 0. -1.
     -623    1    1    2    0    0 -0.11216090956E-03 -0.86665485410E-04  0.56256640259E-04  0.17130000000E+03  0.17130000000E+03 0.  1.
      622    1    1    2    0    0 -0.20681807912E-02  0.28775375096E-03  0.39505804613E+01  0.39505855694E+01  0.60000000000E-02 0. -1.
</event>
<event>
 5   0  0.1211800E+10  0.9118800E+02  0.7818608E-02  0.1180000E+00
       11   -1    0    0    0    0  0.00000000000E+00  0.00000000000E+00  0.39999999673E+01  0.40000000000E+01  0.51109989000E-03 0.  1.
     -623   -1    0    0    0    0  0.00000000000E+00  0.00000000000E+00  0.12525980253E-10  0.17130000000E+03  0.17130000000E+03 0. -1.
       11    1    1    2    0    0 -0.26092837344E-04  0.17040686636E-02  0.11929093504E+01  0.11929106773E+01  0.51109989000E-03 0.  1.
     -623    1    1    2    0    0 -0.10253103032E-03 -0.15087528129E-03  0.81393508373E-05  0.17130000000E+03  0.17130000000E+03 0. -1.
      622    1    1    2    0    0  0.12862386766E-03 -0.15531933823E-02  0.28070824776E+01  0.28070893226E+01  0.60000000000E-02 0.  0.
</event>
<event>
 5   0  0.1211800E+10  0.9118800E+02  0.7818608E-02  0.1180000E+00
       11   -1    0    0    0    0  0.00000000000E+00  0.00000000000E+00  0.39999999673E+01  0.40000000000E+01  0.51109989000E-03 0. -1.
     -623   -1    0    0    0    0  0.00000000000E+00  0.00000000000E+00  0.12525980253E-10  0.17130000000E+03  0.17130000000E+03 0. -1.
       11    1    1    2    0    0  0.14282994581E-03 -0.12673474575E-02  0.95165816471E+00  0.95165915655E+00  0.51109989000E-03 0. -1.
     -623    1    1    2    0    0  0.55262471134E-03  0.10233195269E-02  0.69571076717E-05  0.17130000000E+03  0.17130000000E+03 0. -1.
      622    1    1    2    0    0 -0.69545465716E-03  0.24402793063E-03  0.30483348455E+01  0.30483408395E+01  0.60000000000E-02 0. -1.
</event>
<event>
 5   0  0.1211800E+10  0.9118800E+02  0.7818608E-02  0.1180000E+00
       11   -1    0    0    0    0  0.00000000000E+00  0.00000000000E+00  0.39999999673E+01  0.40000000000E+01  0.51109989000E-03 0. -1.
     -623   -1    0    0    0    0  0.00000000000E+00  0.00000000000E+00  0.12525980253E-10  0.17130000000E+03  0.17130000000E+03 0.  1.
       11    1    1    2    0    0 -0.33702391400E-03  0.38848478976E-03  0.18451742954E+00  0.18451885414E+00  0.51109989000E-03 0. -1.
     -623    1    1    2    0    0  0.14047377539E-03  0.23821061063E-03  0.61663377275E-05  0.17130000000E+03  0.17130000000E+03 0.  1.
      622    1    1    2    0    0  0.19655013905E-03 -0.62669539963E-03  0.38154763588E+01  0.38154811329E+01  0.60000000000E-02 0. -1.
</event>
<event>
 5   0  0.1211800E+10  0.9118800E+02  0.7818608E-02  0.1180000E+00
       11   -1    0    0    0    0  0.00000000000E+00  0.00000000000E+00  0.39999999673E+01  0.40000000000E+01  0.51109989000E-03 0.  1.
     -623   -1    0    0    0    0  0.00000000000E+00  0.00000000000E+00  0.12525980253E-10  0.17130000000E+03  0.17130000000E+03 0. -1.
       11    1    1    2    0    0  0.40623760783E-02  0.69758590810E-04  0.10739605569E+01  0.10739683640E+01  0.51109989000E-03 0.  1.
     -623    1    1    2    0    0 -0.62536660004E-03 -0.28949333856E-02  0.17334212541E-04  0.17130000003E+03  0.17130000000E+03 0. -1.
      622    1    1    2    0    0 -0.34370094783E-02  0.28251747948E-02  0.29260220762E+01  0.29260316104E+01  0.60000000000E-02 0.  1.
</event>
<event>
 5   0  0.1211800E+10  0.9118800E+02  0.7818608E-02  0.1180000E+00
       11   -1    0    0    0    0  0.00000000000E+00  0.00000000000E+00  0.39999999673E+01  0.40000000000E+01  0.51109989000E-03 0. -1.
     -623   -1    0    0    0    0  0.00000000000E+00  0.00000000000E+00  0.12525980253E-10  0.17130000000E+03  0.17130000000E+03 0. -1.
       11    1    1    2    0    0 -0.55064570104E-03  0.53322836516E-03  0.32473197739E+00  0.32473328426E+00  0.51109989000E-03 0. -1.
     -623    1    1    2    0    0  0.15318888640E-02 -0.27468648619E-03  0.63189864639E-05  0.17130000001E+03  0.17130000000E+03 0. -1.
      622    1    1    2    0    0 -0.98124316298E-03 -0.25854187898E-03  0.36752616710E+01  0.36752667087E+01  0.60000000000E-02 0. -1.
</event>
<event>
 5   0  0.1211800E+10  0.9118800E+02  0.7818608E-02  0.1180000E+00
       11   -1    0    0    0    0  0.00000000000E+00  0.00000000000E+00  0.39999999673E+01  0.40000000000E+01  0.51109989000E-03 0.  1.
     -623   -1    0    0    0    0  0.00000000000E+00  0.00000000000E+00  0.12525980253E-10  0.17130000000E+03  0.17130000000E+03 0. -1.
       11    1    1    2    0    0  0.81456851207E-02 -0.49345248388E-04  0.62660541798E+00  0.62665857186E+00  0.51109989000E-03 0.  1.
     -623    1    1    2    0    0 -0.41155361822E-02 -0.27708778221E-02  0.62115385171E-04  0.17130000007E+03  0.17130000000E+03 0. -1.
      622    1    1    2    0    0 -0.40301489385E-02  0.28202230705E-02  0.33733324340E+01  0.33733413563E+01  0.60000000000E-02 0.  1.
</event>
<event>
 5   0  0.1211800E+10  0.9118800E+02  0.7818608E-02  0.1180000E+00
       11   -1    0    0    0    0  0.00000000000E+00  0.00000000000E+00  0.39999999673E+01  0.40000000000E+01  0.51109989000E-03 0. -1.
     -623   -1    0    0    0    0  0.00000000000E+00  0.00000000000E+00  0.12525980253E-10  0.17130000000E+03  0.17130000000E+03 0.  1.
       11    1    1    2    0    0 -0.67590171868E-05  0.91167238556E-04  0.15972690310E-01  0.15981126869E-01  0.51109989000E-03 0. -1.
     -623    1    1    2    0    0  0.22201188756E-04  0.55403199149E-04  0.12924708702E-04  0.17130000000E+03  0.17130000000E+03 0.  1.
      622    1    1    2    0    0 -0.15442171642E-04 -0.14657043788E-03  0.39840143654E+01  0.39840188862E+01  0.60000000000E-02 0. -1.
</event>
<event>
 5   0  0.1211800E+10  0.9118800E+02  0.7818608E-02  0.1180000E+00
       11   -1    0    0    0    0  0.00000000000E+00  0.00000000000E+00  0.39999999673E+01  0.40000000000E+01  0.51109989000E-03 0. -1.
     -623   -1    0    0    0    0  0.00000000000E+00  0.00000000000E+00  0.12525980253E-10  0.17130000000E+03  0.17130000000E+03 0.  1.
       11    1    1    2    0    0  0.10868157865E-03  0.43112130300E-04  0.82063414850E+00  0.82063431599E+00  0.51109989000E-03 0. -1.
     -623    1    1    2    0    0 -0.35160999255E-03  0.15170117560E-03  0.58120365076E-05  0.17130000000E+03  0.17130000000E+03 0.  1.
      622    1    1    2    0    0  0.24292841390E-03 -0.19481330590E-03  0.31793600068E+01  0.31793656836E+01  0.60000000000E-02 0.  1.
</event>
<event>
 5   0  0.1211800E+10  0.9118800E+02  0.7818608E-02  0.1180000E+00
       11   -1    0    0    0    0  0.00000000000E+00  0.00000000000E+00  0.39999999673E+01  0.40000000000E+01  0.51109989000E-03 0. -1.
     -623   -1    0    0    0    0  0.00000000000E+00  0.00000000000E+00  0.12525980253E-10  0.17130000000E+03  0.17130000000E+03 0.  1.
       11    1    1    2    0    0  0.16838744309E-03 -0.28311596713E-03  0.47591928701E+00  0.47591967545E+00  0.51109989000E-03 0. -1.
     -623    1    1    2    0    0 -0.38664039247E-04  0.48933289646E-05  0.54768936479E-05  0.17130000000E+03  0.17130000000E+03 0.  1.
      622    1    1    2    0    0 -0.12972340351E-03  0.27822263813E-03  0.35240752381E+01  0.35240803592E+01  0.60000000000E-02 0. -1.
</event>
<event>
 5   0  0.1211800E+10  0.9118800E+02  0.7818608E-02  0.1180000E+00
       11   -1    0    0    0    0  0.00000000000E+00  0.00000000000E+00  0.39999999673E+01  0.40000000000E+01  0.51109989000E-03 0. -1.
     -623   -1    0    0    0    0  0.00000000000E+00  0.00000000000E+00  0.12525980253E-10  0.17130000000E+03  0.17130000000E+03 0.  1.
       11    1    1    2    0    0  0.47057932654E-03  0.39836022715E-04  0.10053805608E+00  0.10054046436E+00  0.51109989000E-03 0. -1.
     -623    1    1    2    0    0 -0.23736642841E-04  0.18744693674E-04  0.70177179521E-05  0.17130000000E+03  0.17130000000E+03 0.  1.
      622    1    1    2    0    0 -0.44684268370E-03 -0.58580716389E-04  0.38994548936E+01  0.38994595356E+01  0.60000000000E-02 0. -1.
</event>
<event>
 5   0  0.1211800E+10  0.9118800E+02  0.7818608E-02  0.1180000E+00
       11   -1    0    0    0    0  0.00000000000E+00  0.00000000000E+00  0.39999999673E+01  0.40000000000E+01  0.51109989000E-03 0.  1.
     -623   -1    0    0    0    0  0.00000000000E+00  0.00000000000E+00  0.12525980253E-10  0.17130000000E+03  0.17130000000E+03 0. -1.
       11    1    1    2    0    0 -0.19661603130E-02 -0.60329714670E-03  0.35190441699E+00  0.35191079790E+00  0.51109989000E-03 0.  1.
     -623    1    1    2    0    0  0.13040806085E-02 -0.98296951856E-04  0.11414893076E-04  0.17130000000E+03  0.17130000000E+03 0. -1.
      622    1    1    2    0    0  0.66207969608E-03  0.70159409920E-03  0.36480841614E+01  0.36480892231E+01  0.60000000000E-02 0.  1.
</event>
<event>
 5   0  0.1211800E+10  0.9118800E+02  0.7818608E-02  0.1180000E+00
       11   -1    0    0    0    0  0.00000000000E+00  0.00000000000E+00  0.39999999673E+01  0.40000000000E+01  0.51109989000E-03 0.  1.
     -623   -1    0    0    0    0  0.00000000000E+00  0.00000000000E+00  0.12525980253E-10  0.17130000000E+03  0.17130000000E+03 0. -1.
       11    1    1    2    0    0  0.17220315844E-02  0.21898320744E-03  0.42243915868E-01  0.42282655988E-01  0.51109989000E-03 0.  1.
     -623    1    1    2    0    0  0.26548392722E-03  0.78145023802E-03  0.43883050486E-04  0.17130000000E+03  0.17130000000E+03 0. -1.
      622    1    1    2    0    0 -0.19875155122E-02 -0.10004334473E-02  0.39577121777E+01  0.39577173513E+01  0.60000000000E-02 0.  1.
</event>
<event>
 5   0  0.1211800E+10  0.9118800E+02  0.7818608E-02  0.1180000E+00
       11   -1    0    0    0    0  0.00000000000E+00  0.00000000000E+00  0.39999999673E+01  0.40000000000E+01  0.51109989000E-03 0. -1.
     -623   -1    0    0    0    0  0.00000000000E+00  0.00000000000E+00  0.12525980253E-10  0.17130000000E+03  0.17130000000E+03 0.  1.
       11    1    1    2    0    0 -0.23175792958E-03 -0.43592662182E-03  0.82172915433E-01  0.82175987962E-01  0.51109989000E-03 0. -1.
     -623    1    1    2    0    0 -0.60361062555E-04  0.51204111992E-03  0.76466849075E-05  0.17130000000E+03  0.17130000000E+03 0.  1.
      622    1    1    2    0    0  0.29211899284E-03 -0.76114504110E-04  0.39178194522E+01  0.39178240582E+01  0.60000000000E-02 0. -1.
</event>
<event>
 5   0  0.1211800E+10  0.9118800E+02  0.7818608E-02  0.1180000E+00
       11   -1    0    0    0    0  0.00000000000E+00  0.00000000000E+00  0.39999999673E+01  0.40000000000E+01  0.51109989000E-03 0. -1.
     -623   -1    0    0    0    0  0.00000000000E+00  0.00000000000E+00  0.12525980253E-10  0.17130000000E+03  0.17130000000E+03 0. -1.
       11    1    1    2    0    0  0.92053549053E-03 -0.21203076762E-02  0.98689586250E+00  0.98689870186E+00  0.51109989000E-03 0. -1.
     -623    1    1    2    0    0  0.99548070158E-03  0.25042901548E-02  0.94354963256E-05  0.17130000002E+03  0.17130000000E+03 0. -1.
      622    1    1    2    0    0 -0.19160161924E-02 -0.38398247944E-03  0.30130946707E+01  0.30131012782E+01  0.60000000000E-02 0. -1.
</event>
<event>
 5   0  0.1211800E+10  0.9118800E+02  0.7818608E-02  0.1180000E+00
       11   -1    0    0    0    0  0.00000000000E+00  0.00000000000E+00  0.39999999673E+01  0.40000000000E+01  0.51109989000E-03 0.  1.
     -623   -1    0    0    0    0  0.00000000000E+00  0.00000000000E+00  0.12525980253E-10  0.17130000000E+03  0.17130000000E+03 0.  1.
       11    1    1    2    0    0  0.39056286191E-02 -0.99175668165E-03  0.58981730929E-01  0.59121428625E-01  0.51109989000E-03 0.  1.
     -623    1    1    2    0    0  0.36352040708E-03 -0.91549570723E-03  0.14700937263E-03  0.17130000000E+03  0.17130000000E+03 0.  1.
      622    1    1    2    0    0 -0.42691490262E-02  0.19072523890E-02  0.39408712275E+01  0.39408785689E+01  0.60000000000E-02 0.  1.
</event>
<event>
 5   0  0.1211800E+10  0.9118800E+02  0.7818608E-02  0.1180000E+00
       11   -1    0    0    0    0  0.00000000000E+00  0.00000000000E+00  0.39999999673E+01  0.40000000000E+01  0.51109989000E-03 0. -1.
     -623   -1    0    0    0    0  0.00000000000E+00  0.00000000000E+00  0.12525980253E-10  0.17130000000E+03  0.17130000000E+03 0.  1.
       11    1    1    2    0    0 -0.47659864361E-03  0.50673844541E-03  0.15255606866E+00  0.15255851087E+00  0.51109989000E-03 0. -1.
     -623    1    1    2    0    0 -0.24907678728E-03 -0.87713593915E-03  0.71766962599E-05  0.17130000000E+03  0.17130000000E+03 0.  1.
      622    1    1    2    0    0  0.72567543185E-03  0.37039749713E-03  0.38474367375E+01  0.38474415022E+01  0.60000000000E-02 0. -1.
</event>
<event>
 5   0  0.1211800E+10  0.9118800E+02  0.7818608E-02  0.1180000E+00
       11   -1    0    0    0    0  0.00000000000E+00  0.00000000000E+00  0.39999999673E+01  0.40000000000E+01  0.51109989000E-03 0. -1.
     -623   -1    0    0    0    0  0.00000000000E+00  0.00000000000E+00  0.12525980253E-10  0.17130000000E+03  0.17130000000E+03 0. -1.
       11    1    1    2    0    0 -0.12012630772E-02  0.36856868300E-03  0.22535219905E+00  0.22535628173E+00  0.51109989000E-03 0. -1.
     -623    1    1    2    0    0 -0.34319498159E-04  0.42070219551E-03  0.91039651546E-05  0.17130000000E+03  0.17130000000E+03 0. -1.
      622    1    1    2    0    0  0.12355825754E-02 -0.78927087851E-03  0.37746386643E+01  0.37746437177E+01  0.60000000000E-02 0. -1.
</event>
<event>
 5   0  0.1211800E+10  0.9118800E+02  0.7818608E-02  0.1180000E+00
       11   -1    0    0    0    0  0.00000000000E+00  0.00000000000E+00  0.39999999673E+01  0.40000000000E+01  0.51109989000E-03 0. -1.
     -623   -1    0    0    0    0  0.00000000000E+00  0.00000000000E+00  0.12525980253E-10  0.17130000000E+03  0.17130000000E+03 0. -1.
       11    1    1    2    0    0 -0.64787709027E-03 -0.36910165839E-02  0.59631409484E+00  0.59632608887E+00  0.51109989000E-03 0. -1.
     -623    1    1    2    0    0 -0.31354180402E-04  0.17923492013E-04  0.19299505625E-04  0.17130000000E+03  0.17130000000E+03 0. -1.
      622    1    1    2    0    0  0.67923127081E-03  0.36730930918E-02  0.34036665913E+01  0.34036739294E+01  0.60000000000E-02 0. -1.
</event>
<event>
 5   0  0.1211800E+10  0.9118800E+02  0.7818608E-02  0.1180000E+00
       11   -1    0    0    0    0  0.00000000000E+00  0.00000000000E+00  0.39999999673E+01  0.40000000000E+01  0.51109989000E-03 0.  1.
     -623   -1    0    0    0    0  0.00000000000E+00  0.00000000000E+00  0.12525980253E-10  0.17130000000E+03  0.17130000000E+03 0.  1.
       11    1    1    2    0    0 -0.15788516784E-03  0.26301169576E-03  0.27478564719E-01  0.27485029470E-01  0.51109989000E-03 0.  1.
     -623    1    1    2    0    0  0.17846450327E-03 -0.35867512874E-03  0.10964922425E-04  0.17130000000E+03  0.17130000000E+03 0.  1.
      622    1    1    2    0    0 -0.20579336343E-04  0.95663434813E-04  0.39725104581E+01  0.39725149905E+01  0.60000000000E-02 0.  1.
</event>
<event>
 5   0  0.1211800E+10  0.9118800E+02  0.7818608E-02  0.1180000E+00
       11   -1    0    0    0    0  0.00000000000E+00  0.00000000000E+00  0.39999999673E+01  0.40000000000E+01  0.51109989000E-03 0. -1.
     -623   -1    0    0    0    0  0.00000000000E+00  0.00000000000E+00  0.12525980253E-10  0.17130000000E+03  0.17130000000E+03 0. -1.
       11    1    1    2    0    0  0.93936490179E-04  0.69855219660E-03  0.28571900858E+00  0.28572033509E+00  0.51109989000E-03 0. -1.
     -623    1    1    2    0    0 -0.89598838878E-04 -0.20542203541E-03  0.61729233880E-05  0.17130000000E+03  0.17130000000E+03 0. -1.
      622    1    1    2    0    0 -0.43376494582E-05 -0.49313015697E-03  0.37142748681E+01  0.37142797470E+01  0.60000000000E-02 0. -1.
</event>
<event>
 5   0  0.1211800E+10  0.9118800E+02  0.7818608E-02  0.1180000E+00
       11   -1    0    0    0    0  0.00000000000E+00  0.00000000000E+00  0.39999999673E+01  0.40000000000E+01  0.51109989000E-03 0. -1.
     -623   -1    0    0    0    0  0.00000000000E+00  0.00000000000E+00  0.12525980253E-10  0.17130000000E+03  0.17130000000E+03 0.  1.
       11    1    1    2    0    0 -0.12756580069E-02  0.13293842655E-03  0.38562811830E-01  0.38587519403E-01  0.51109989000E-03 0.  1.
     -623    1    1    2    0    0  0.45548813760E-03 -0.99339079671E-04  0.29304452591E-04  0.17130000000E+03  0.17130000000E+03 0.  1.
      622    1    1    2    0    0  0.82016986933E-03 -0.33599346875E-04  0.39614078511E+01  0.39614124800E+01  0.60000000000E-02 0. -1.
</event>
<event>
 5   0  0.1211800E+10  0.9118800E+02  0.7818608E-02  0.1180000E+00
       11   -1    0    0    0    0  0.00000000000E+00  0.00000000000E+00  0.39999999673E+01  0.40000000000E+01  0.51109989000E-03 0.  1.
     -623   -1    0    0    0    0  0.00000000000E+00  0.00000000000E+00  0.12525980253E-10  0.17130000000E+03  0.17130000000E+03 0. -1.
       11    1    1    2    0    0  0.17403660261E-04 -0.16117720193E-02  0.10101025802E+00  0.10102441071E+00  0.51109989000E-03 0.  1.
     -623    1    1    2    0    0 -0.26199943578E-03 -0.34029155858E-03  0.19233527715E-04  0.17130000000E+03  0.17130000000E+03 0. -1.
      622    1    1    2    0    0  0.24459577520E-03  0.19520635775E-02  0.38989704710E+01  0.38989755839E+01  0.60000000000E-02 0.  1.
</event>
<event>
 5   0  0.1211800E+10  0.9118800E+02  0.7818608E-02  0.1180000E+00
       11   -1    0    0    0    0  0.00000000000E+00  0.00000000000E+00  0.39999999673E+01  0.40000000000E+01  0.51109989000E-03 0. -1.
     -623   -1    0    0    0    0  0.00000000000E+00  0.00000000000E+00  0.12525980253E-10  0.17130000000E+03  0.17130000000E+03 0. -1.
       11    1    1    2    0    0  0.40420851914E-02  0.67364180474E-03  0.17177595926E-01  0.17667010782E-01  0.51109989000E-03 0. -1.
     -623    1    1    2    0    0 -0.54305155780E-02 -0.17678846426E-02  0.49439046905E-03  0.17130000010E+03  0.17130000000E+03 0. -1.
      622    1    1    2    0    0  0.13884303866E-02  0.10942428378E-02  0.39823279810E+01  0.39823328933E+01  0.60000000000E-02 0. -1.
</event>
<event>
 5   0  0.1211800E+10  0.9118800E+02  0.7818608E-02  0.1180000E+00
       11   -1    0    0    0    0  0.00000000000E+00  0.00000000000E+00  0.39999999673E+01  0.40000000000E+01  0.51109989000E-03 0. -1.
     -623   -1    0    0    0    0  0.00000000000E+00  0.00000000000E+00  0.12525980253E-10  0.17130000000E+03  0.17130000000E+03 0.  1.
       11    1    1    2    0    0 -0.20370523251E-03 -0.63089848211E-03  0.37314072188E-01  0.37323460915E-01  0.51109989000E-03 0. -1.
     -623    1    1    2    0    0 -0.38876214814E-03 -0.85438389123E-04  0.14007974269E-04  0.17130000000E+03  0.17130000000E+03 0.  1.
      622    1    1    2    0    0  0.59246738065E-03  0.71633687124E-03  0.39626718872E+01  0.39626765386E+01  0.60000000000E-02 0. -1.
</event>
<event>
 5   0  0.1211800E+10  0.9118800E+02  0.7818608E-02  0.1180000E+00
       11   -1    0    0    0    0  0.00000000000E+00  0.00000000000E+00  0.39999999673E+01  0.40000000000E+01  0.51109989000E-03 0.  1.
     -623   -1    0    0    0    0  0.00000000000E+00  0.00000000000E+00  0.12525980253E-10  0.17130000000E+03  0.17130000000E+03 0.  1.
       11    1    1    2    0    0 -0.32237810673E-03  0.15046997556E-03  0.63873050784E+00  0.63873081141E+00  0.51109989000E-03 0.  1.
     -623    1    1    2    0    0 -0.65437836260E-04 -0.61281954589E-04  0.56496280978E-05  0.17130000000E+03  0.17130000000E+03 0.  1.
      622    1    1    2    0    0  0.38781594387E-03 -0.89188020152E-04  0.33612638637E+01  0.33612692424E+01  0.60000000000E-02 0.  1.
</event>
<event>
 5   0  0.1211800E+10  0.9118800E+02  0.7818608E-02  0.1180000E+00
       11   -1    0    0    0    0  0.00000000000E+00  0.00000000000E+00  0.39999999673E+01  0.40000000000E+01  0.51109989000E-03 0. -1.
     -623   -1    0    0    0    0  0.00000000000E+00  0.00000000000E+00  0.12525980253E-10  0.17130000000E+03  0.17130000000E+03 0. -1.
       11    1    1    2    0    0 -0.40261921239E-03 -0.40677558280E-03  0.16894414011E-01  0.16911830666E-01  0.51109989000E-03 0.  1.
     -623    1    1    2    0    0 -0.47090061437E-04 -0.72957243920E-04  0.21957424684E-04  0.17130000000E+03  0.17130000000E+03 0. -1.
      622    1    1    2    0    0  0.44970927406E-03  0.47973282708E-03  0.39830836155E+01  0.39830881889E+01  0.60000000000E-02 0. -1.
</event>
<event>
 5   0  0.1211800E+10  0.9118800E+02  0.7818608E-02  0.1180000E+00
       11   -1    0    0    0    0  0.00000000000E+00  0.00000000000E+00  0.39999999673E+01  0.40000000000E+01  0.51109989000E-03 0. -1.
     -623   -1    0    0    0    0  0.00000000000E+00  0.00000000000E+00  0.12525980253E-10  0.17130000000E+03  0.17130000000E+03 0.  1.
       11    1    1    2    0    0 -0.16208349178E-02  0.93866679381E-03  0.90078424682E+00  0.90078633912E+00  0.51109989000E-03 0. -1.
     -623    1    1    2    0    0 -0.35384225332E-03 -0.10758815313E-02  0.85034583024E-05  0.17130000000E+03  0.17130000000E+03 0.  1.
      622    1    1    2    0    0  0.19746771711E-02  0.13721473745E-03  0.30992072171E+01  0.30992136571E+01  0.60000000000E-02 0. -1.
</event>
<event>
 5   0  0.1211800E+10  0.9118800E+02  0.7818608E-02  0.1180000E+00
       11   -1    0    0    0    0  0.00000000000E+00  0.00000000000E+00  0.39999999673E+01  0.40000000000E+01  0.51109989000E-03 0. -1.
     -623   -1    0    0    0    0  0.00000000000E+00  0.00000000000E+00  0.12525980253E-10  0.17130000000E+03  0.17130000000E+03 0.  1.
       11    1    1    2    0    0 -0.13135000843E-02  0.33334897785E-03  0.32181751624E+00  0.32182077525E+00  0.51109989000E-03 0. -1.
     -623    1    1    2    0    0  0.14981813939E-03  0.18226373691E-03  0.83404833848E-05  0.17130000000E+03  0.17130000000E+03 0.  1.
      622    1    1    2    0    0  0.11636819449E-02 -0.51561271476E-03  0.36781741106E+01  0.36781792246E+01  0.60000000000E-02 0. -1.
</event>
<event>
 5   0  0.1211800E+10  0.9118800E+02  0.7818608E-02  0.1180000E+00
       11   -1    0    0    0    0  0.00000000000E+00  0.00000000000E+00  0.39999999673E+01  0.40000000000E+01  0.51109989000E-03 0. -1.
     -623   -1    0    0    0    0  0.00000000000E+00  0.00000000000E+00  0.12525980253E-10  0.17130000000E+03  0.17130000000E+03 0.  1.
       11    1    1    2    0    0  0.50212049072E-03  0.12195875974E-02  0.31486997161E+00  0.31487314869E+00  0.51109989000E-03 0. -1.
     -623    1    1    2    0    0  0.14939727192E-02 -0.39289538598E-02  0.96171021648E-05  0.17130000005E+03  0.17130000000E+03 0.  1.
      622    1    1    2    0    0 -0.19960932100E-02  0.27093662624E-02  0.36851203786E+01  0.36851267997E+01  0.60000000000E-02 0. -1.
</event>
<event>
 5   0  0.1211800E+10  0.9118800E+02  0.7818608E-02  0.1180000E+00
       11   -1    0    0    0    0  0.00000000000E+00  0.00000000000E+00  0.39999999673E+01  0.40000000000E+01  0.51109989000E-03 0. -1.
     -623   -1    0    0    0    0  0.00000000000E+00  0.00000000000E+00  0.12525980253E-10  0.17130000000E+03  0.17130000000E+03 0. -1.
       11    1    1    2    0    0  0.27485439563E-02  0.41607608152E-03  0.82128003925E-01  0.82176626025E-01  0.51109989000E-03 0. -1.
     -623    1    1    2    0    0 -0.58378452745E-04  0.18575825046E-03  0.54153795303E-04  0.17130000000E+03  0.17130000000E+03 0. -1.
      622    1    1    2    0    0 -0.26901655035E-02 -0.60183433193E-03  0.39178178087E+01  0.39178233729E+01  0.60000000000E-02 0. -1.
</event>
<event>
 5   0  0.1211800E+10  0.9118800E+02  0.7818608E-02  0.1180000E+00
       11   -1    0    0    0    0  0.00000000000E+00  0.00000000000E+00  0.39999999673E+01  0.40000000000E+01  0.51109989000E-03 0. -1.
     -623   -1    0    0    0    0  0.00000000000E+00  0.00000000000E+00  0.12525980253E-10  0.17130000000E+03  0.17130000000E+03 0. -1.
       11    1    1    2    0    0  0.42180711410E-02  0.22928622151E-02  0.78345010477E-01  0.78493638157E-01  0.51109989000E-03 0. -1.
     -623    1    1    2    0    0 -0.62336173125E-03  0.29581291540E-02  0.15837504805E-03  0.17130000003E+03  0.17130000000E+03 0. -1.
      622    1    1    2    0    0 -0.35947094093E-02 -0.52509913713E-02  0.39214965848E+01  0.39215063381E+01  0.60000000000E-02 0. -1.
</event>
<event>
 5   0  0.1211800E+10  0.9118800E+02  0.7818608E-02  0.1180000E+00
       11   -1    0    0    0    0  0.00000000000E+00  0.00000000000E+00  0.39999999673E+01  0.40000000000E+01  0.51109989000E-03 0.  1.
     -623   -1    0    0    0    0  0.00000000000E+00  0.00000000000E+00  0.12525980253E-10  0.17130000000E+03  0.17130000000E+03 0.  1.
       11    1    1    2    0    0  0.38857604742E-03 -0.90774066713E-03  0.13433222865E+00  0.13433682987E+00  0.51109989000E-03 0.  1.
     -623    1    1    2    0    0 -0.10037278508E-03  0.22636824939E-05  0.93417822922E-05  0.17130000000E+03  0.17130000000E+03 0.  1.
      622    1    1    2    0    0 -0.28820326234E-03  0.90547698464E-03  0.38656583969E+01  0.38656631701E+01  0.60000000000E-02 0.  1.
</event>
<event>
 5   0  0.1211800E+10  0.9118800E+02  0.7818608E-02  0.1180000E+00
       11   -1    0    0    0    0  0.00000000000E+00  0.00000000000E+00  0.39999999673E+01  0.40000000000E+01  0.51109989000E-03 0.  1.
     -623   -1    0    0    0    0  0.00000000000E+00  0.00000000000E+00  0.12525980253E-10  0.17130000000E+03  0.17130000000E+03 0.  1.
       11    1    1    2    0    0  0.16908059085E-02  0.13748285501E-02  0.11352794054E+00  0.11355000434E+00  0.51109989000E-03 0.  1.
     -623    1    1    2    0    0  0.12290405907E-02 -0.36784530779E-02  0.28486083231E-04  0.17130000004E+03  0.17130000000E+03 0.  1.
      622    1    1    2    0    0 -0.29198465032E-02  0.23036245400E-02  0.38864435540E+01  0.38864499650E+01  0.60000000000E-02 0.  1.
</event>
<event>
 5   0  0.1211800E+10  0.9118800E+02  0.7818608E-02  0.1180000E+00
       11   -1    0    0    0    0  0.00000000000E+00  0.00000000000E+00  0.39999999673E+01  0.40000000000E+01  0.51109989000E-03 0.  1.
     -623   -1    0    0    0    0  0.00000000000E+00  0.00000000000E+00  0.12525980253E-10  0.17130000000E+03  0.17130000000E+03 0.  1.
       11    1    1    2    0    0 -0.37699981024E-03  0.65761423760E-03  0.24109307985E+00  0.24109481322E+00  0.51109989000E-03 0.  1.
     -623    1    1    2    0    0  0.11586989073E-03  0.19566523571E-04  0.65594672014E-05  0.17130000000E+03  0.17130000000E+03 0.  1.
      622    1    1    2    0    0  0.26112992002E-03 -0.67718076109E-03  0.37589003109E+01  0.37589051696E+01  0.60000000000E-02 0.  1.
</event>
<event>
 5   0  0.1211800E+10  0.9118800E+02  0.7818608E-02  0.1180000E+00
       11   -1    0    0    0    0  0.00000000000E+00  0.00000000000E+00  0.39999999673E+01  0.40000000000E+01  0.51109989000E-03 0. -1.
     -623   -1    0    0    0    0  0.00000000000E+00  0.00000000000E+00  0.12525980253E-10  0.17130000000E+03  0.17130000000E+03 0. -1.
       11    1    1    2    0    0  0.29229161096E-02  0.11333227450E-02  0.54850631702E+00  0.54851551381E+00  0.51109989000E-03 0. -1.
     -623    1    1    2    0    0  0.71875922979E-05 -0.27576416167E-02  0.16027457433E-04  0.17130000002E+03  0.17130000000E+03 0. -1.
      622    1    1    2    0    0 -0.29301037019E-02  0.16243188717E-02  0.34514776229E+01  0.34514844640E+01  0.60000000000E-02 0. -1.
</event>
<event>
 5   0  0.1211800E+10  0.9118800E+02  0.7818608E-02  0.1180000E+00
       11   -1    0    0    0    0  0.00000000000E+00  0.00000000000E+00  0.39999999673E+01  0.40000000000E+01  0.51109989000E-03 0.  1.
     -623   -1    0    0    0    0  0.00000000000E+00  0.00000000000E+00  0.12525980253E-10  0.17130000000E+03  0.17130000000E+03 0.  1.
       11    1    1    2    0    0  0.57595403718E-03 -0.36701581246E-03  0.89679720874E+00  0.89679761443E+00  0.51109989000E-03 0.  1.
     -623    1    1    2    0    0  0.65865469157E-05 -0.28601989950E-04  0.62534147469E-05  0.17130000000E+03  0.17130000000E+03 0.  1.
      622    1    1    2    0    0 -0.58254058410E-03  0.39561780241E-03  0.31031965052E+01  0.31032023856E+01  0.60000000000E-02 0. -1.
</event>
<event>
 5   0  0.1211800E+10  0.9118800E+02  0.7818608E-02  0.1180000E+00
       11   -1    0    0    0    0  0.00000000000E+00  0.00000000000E+00  0.39999999673E+01  0.40000000000E+01  0.51109989000E-03 0. -1.
     -623   -1    0    0    0    0  0.00000000000E+00  0.00000000000E+00  0.12525980253E-10  0.17130000000E+03  0.17130000000E+03 0.  1.
       11    1    1    2    0    0  0.17775163712E-02  0.94340412310E-03  0.70364501073E-01  0.70395126324E-01  0.51109989000E-03 0. -1.
     -623    1    1    2    0    0  0.10228053048E-06 -0.44638290369E-04  0.35678084846E-04  0.17130000000E+03  0.17130000000E+03 0.  1.
      622    1    1    2    0    0 -0.17776186517E-02 -0.89876583266E-03  0.39295997949E+01  0.39296048803E+01  0.60000000000E-02 0. -1.
</event>
<event>
 5   0  0.1211800E+10  0.9118800E+02  0.7818608E-02  0.1180000E+00
       11   -1    0    0    0    0  0.00000000000E+00  0.00000000000E+00  0.39999999673E+01  0.40000000000E+01  0.51109989000E-03 0. -1.
     -623   -1    0    0    0    0  0.00000000000E+00  0.00000000000E+00  0.12525980253E-10  0.17130000000E+03  0.17130000000E+03 0. -1.
       11    1    1    2    0    0 -0.57404831858E-03  0.18641530923E-02  0.65797695587E+00  0.65798004550E+00  0.51109989000E-03 0. -1.
     -623    1    1    2    0    0 -0.56366211184E-04  0.91552510070E-05  0.90274528746E-05  0.17130000000E+03  0.17130000000E+03 0. -1.
      622    1    1    2    0    0  0.63041452984E-03 -0.18733083433E-02  0.33420139894E+01  0.33420199598E+01  0.60000000000E-02 0. -1.
</event>
<event>
 5   0  0.1211800E+10  0.9118800E+02  0.7818608E-02  0.1180000E+00
       11   -1    0    0    0    0  0.00000000000E+00  0.00000000000E+00  0.39999999673E+01  0.40000000000E+01  0.51109989000E-03 0.  1.
     -623   -1    0    0    0    0  0.00000000000E+00  0.00000000000E+00  0.12525980253E-10  0.17130000000E+03  0.17130000000E+03 0. -1.
       11    1    1    2    0    0  0.18627715189E-03 -0.14312293466E-03  0.19444285935E-01  0.19452420465E-01  0.51109989000E-03 0.  1.
     -623    1    1    2    0    0 -0.16361898829E-05  0.16245824046E-03  0.12628290757E-04  0.17130000000E+03  0.17130000000E+03 0. -1.
      622    1    1    2    0    0 -0.18464096200E-03 -0.19335306526E-04  0.39805430709E+01  0.39805475972E+01  0.60000000000E-02 0.  1.
</event>
<event>
 5   0  0.1211800E+10  0.9118800E+02  0.7818608E-02  0.1180000E+00
       11   -1    0    0    0    0  0.00000000000E+00  0.00000000000E+00  0.39999999673E+01  0.40000000000E+01  0.51109989000E-03 0. -1.
     -623   -1    0    0    0    0  0.00000000000E+00  0.00000000000E+00  0.12525980253E-10  0.17130000000E+03  0.17130000000E+03 0. -1.
       11    1    1    2    0    0 -0.11903689668E-02  0.29029502651E-02  0.33223820562E+00  0.33225341322E+00  0.51109989000E-03 0. -1.
     -623    1    1    2    0    0  0.49446164715E-03  0.25703683986E-03  0.21510794892E-04  0.17130000000E+03  0.17130000000E+03 0. -1.
      622    1    1    2    0    0  0.69590731968E-03 -0.31599871049E-02  0.36677402509E+01  0.36677465859E+01  0.60000000000E-02 0. -1.
</event>
<event>
 5   0  0.1211800E+10  0.9118800E+02  0.7818608E-02  0.1180000E+00
       11   -1    0    0    0    0  0.00000000000E+00  0.00000000000E+00  0.39999999673E+01  0.40000000000E+01  0.51109989000E-03 0. -1.
     -623   -1    0    0    0    0  0.00000000000E+00  0.00000000000E+00  0.12525980253E-10  0.17130000000E+03  0.17130000000E+03 0. -1.
       11    1    1    2    0    0  0.86514808606E-02  0.28003378065E-01  0.41683555498E+00  0.41786502417E+00  0.51109989000E-03 0. -1.
     -623    1    1    2    0    0 -0.15509895997E-01 -0.27706461007E-01  0.10439854214E-02  0.17130000295E+03  0.17130000000E+03 0. -1.
      622    1    1    2    0    0  0.68584151350E-02 -0.29691705909E-03  0.35821204267E+01  0.35821320296E+01  0.60000000000E-02 0. -1.
</event>
<event>
 5   0  0.1211800E+10  0.9118800E+02  0.7818608E-02  0.1180000E+00
       11   -1    0    0    0    0  0.00000000000E+00  0.00000000000E+00  0.39999999673E+01  0.40000000000E+01  0.51109989000E-03 0. -1.
     -623   -1    0    0    0    0  0.00000000000E+00  0.00000000000E+00  0.12525980253E-10  0.17130000000E+03  0.17130000000E+03 0. -1.
       11    1    1    2    0    0  0.61362354345E-02 -0.12568985657E-01  0.79593128455E+00  0.79605433466E+00  0.51109989000E-03 0. -1.
     -623    1    1    2    0    0  0.20808188722E-03  0.27503793480E-03  0.15850425776E-03  0.17130000000E+03  0.17130000000E+03 0. -1.
      622    1    1    2    0    0 -0.63443173217E-02  0.12293947722E-01  0.32039101776E+01  0.32039456639E+01  0.60000000000E-02 0. -1.
</event>
<event>
 5   0  0.1211800E+10  0.9118800E+02  0.7818608E-02  0.1180000E+00
       11   -1    0    0    0    0  0.00000000000E+00  0.00000000000E+00  0.39999999673E+01  0.40000000000E+01  0.51109989000E-03 0. -1.
     -623   -1    0    0    0    0  0.00000000000E+00  0.00000000000E+00  0.12525980253E-10  0.17130000000E+03  0.17130000000E+03 0.  1.
       11    1    1    2    0    0  0.12048511762E-02  0.28377727166E-03  0.57031510184E+00  0.57031667414E+00  0.51109989000E-03 0. -1.
     -623    1    1    2    0    0  0.32634614256E-04 -0.25939297103E-04  0.70209129426E-05  0.17130000000E+03  0.17130000000E+03 0.  1.
      622    1    1    2    0    0 -0.12374857904E-02 -0.25783797456E-03  0.34296778446E+01  0.34296833259E+01  0.60000000000E-02 0. -1.
</event>
<event>
 5   0  0.1211800E+10  0.9118800E+02  0.7818608E-02  0.1180000E+00
       11   -1    0    0    0    0  0.00000000000E+00  0.00000000000E+00  0.39999999673E+01  0.40000000000E+01  0.51109989000E-03 0. -1.
     -623   -1    0    0    0    0  0.00000000000E+00  0.00000000000E+00  0.12525980253E-10  0.17130000000E+03  0.17130000000E+03 0.  1.
       11    1    1    2    0    0  0.79430941550E-03  0.11881569307E-02  0.61469292948E+00  0.61469480348E+00  0.51109989000E-03 0. -1.
     -623    1    1    2    0    0 -0.92562862873E-03 -0.16445119125E-02  0.72021585669E-05  0.17130000001E+03  0.17130000000E+03 0.  1.
      622    1    1    2    0    0  0.13131921324E-03  0.45635498184E-03  0.33852998357E+01  0.33853051861E+01  0.60000000000E-02 0. -1.
</event>
<event>
 5   0  0.1211800E+10  0.9118800E+02  0.7818608E-02  0.1180000E+00
       11   -1    0    0    0    0  0.00000000000E+00  0.00000000000E+00  0.39999999673E+01  0.40000000000E+01  0.51109989000E-03 0. -1.
     -623   -1    0    0    0    0  0.00000000000E+00  0.00000000000E+00  0.12525980253E-10  0.17130000000E+03  0.17130000000E+03 0. -1.
       11    1    1    2    0    0  0.38420397839E-02  0.41026573821E-02  0.75313107059E+00  0.75315221820E+00  0.51109989000E-03 0. -1.
     -623    1    1    2    0    0 -0.11643058425E-02 -0.17422242609E-02  0.28633829859E-04  0.17130000001E+03  0.17130000000E+03 0. -1.
      622    1    1    2    0    0 -0.26777339414E-02 -0.23604331212E-02  0.32468402629E+01  0.32468477690E+01  0.60000000000E-02 0. -1.
</event>
<event>
 5   0  0.1211800E+10  0.9118800E+02  0.7818608E-02  0.1180000E+00
       11   -1    0    0    0    0  0.00000000000E+00  0.00000000000E+00  0.39999999673E+01  0.40000000000E+01  0.51109989000E-03 0. -1.
     -623   -1    0    0    0    0  0.00000000000E+00  0.00000000000E+00  0.12525980253E-10  0.17130000000E+03  0.17130000000E+03 0. -1.
       11    1    1    2    0    0  0.10083389892E-02 -0.10060842967E-04  0.12436129067E+00  0.12436642911E+00  0.51109989000E-03 0. -1.
     -623    1    1    2    0    0 -0.14499715380E-02 -0.55795904811E-03  0.98240343882E-05  0.17130000001E+03  0.17130000000E+03 0. -1.
      622    1    1    2    0    0  0.44163254880E-03  0.56801989107E-03  0.38756288527E+01  0.38756335638E+01  0.60000000000E-02 0. -1.
</event>
<event>
 5   0  0.1211800E+10  0.9118800E+02  0.7818608E-02  0.1180000E+00
       11   -1    0    0    0    0  0.00000000000E+00  0.00000000000E+00  0.39999999673E+01  0.40000000000E+01  0.51109989000E-03 0. -1.
     -623   -1    0    0    0    0  0.00000000000E+00  0.00000000000E+00  0.12525980253E-10  0.17130000000E+03  0.17130000000E+03 0. -1.
       11    1    1    2    0    0  0.45172116840E-03 -0.38161277154E-03  0.25019805153E-01  0.25032010573E-01  0.51109989000E-03 0. -1.
     -623    1    1    2    0    0  0.43082837237E-03  0.37151922128E-03  0.16800053825E-04  0.17130000000E+03  0.17130000000E+03 0. -1.
      622    1    1    2    0    0 -0.88254954012E-03  0.10093550820E-04  0.39749633561E+01  0.39749679825E+01  0.60000000000E-02 0. -1.
</event>
<event>
 5   0  0.1211800E+10  0.9118800E+02  0.7818608E-02  0.1180000E+00
       11   -1    0    0    0    0  0.00000000000E+00  0.00000000000E+00  0.39999999673E+01  0.40000000000E+01  0.51109989000E-03 0. -1.
     -623   -1    0    0    0    0  0.00000000000E+00  0.00000000000E+00  0.12525980253E-10  0.17130000000E+03  0.17130000000E+03 0. -1.
       11    1    1    2    0    0 -0.48103362552E-02 -0.59366201859E-02  0.38967545448E+00  0.38975069447E+00  0.51109989000E-03 0. -1.
     -623    1    1    2    0    0  0.13177344183E-03 -0.25272216427E-03  0.88530384248E-04  0.17130000000E+03  0.17130000000E+03 0. -1.
      622    1    1    2    0    0  0.46785628134E-02  0.61893423502E-02  0.36102359825E+01  0.36102493053E+01  0.60000000000E-02 0. -1.
</event>
<event>
 5   0  0.1211800E+10  0.9118800E+02  0.7818608E-02  0.1180000E+00
       11   -1    0    0    0    0  0.00000000000E+00  0.00000000000E+00  0.39999999673E+01  0.40000000000E+01  0.51109989000E-03 0. -1.
     -623   -1    0    0    0    0  0.00000000000E+00  0.00000000000E+00  0.12525980253E-10  0.17130000000E+03  0.17130000000E+03 0. -1.
       11    1    1    2    0    0  0.25043306381E-02  0.39965958934E-03  0.12916965605E+00  0.12919555977E+00  0.51109989000E-03 0. -1.
     -623    1    1    2    0    0 -0.11368482938E-02  0.68639352972E-03  0.30920340375E-04  0.17130000001E+03  0.17130000000E+03 0. -1.
      622    1    1    2    0    0 -0.13674823443E-02 -0.10860531191E-02  0.38707993910E+01  0.38708044351E+01  0.60000000000E-02 0. -1.
</event>
<event>
 5   0  0.1211800E+10  0.9118800E+02  0.7818608E-02  0.1180000E+00
       11   -1    0    0    0    0  0.00000000000E+00  0.00000000000E+00  0.39999999673E+01  0.40000000000E+01  0.51109989000E-03 0.  1.
     -623   -1    0    0    0    0  0.00000000000E+00  0.00000000000E+00  0.12525980253E-10  0.17130000000E+03  0.17130000000E+03 0.  1.
       11    1    1    2    0    0  0.81553108252E-04  0.35650021746E-03  0.39156877852E+00  0.39156928286E+00  0.51109989000E-03 0.  1.
     -623    1    1    2    0    0 -0.14209743225E-03 -0.13110634052E-02  0.55918613566E-05  0.17130000001E+03  0.17130000000E+03 0.  1.
      622    1    1    2    0    0  0.60544323998E-04  0.95456318774E-03  0.36084255970E+01  0.36084307121E+01  0.60000000000E-02 0.  1.
</event>
<event>
 5   0  0.1211800E+10  0.9118800E+02  0.7818608E-02  0.1180000E+00
       11   -1    0    0    0    0  0.00000000000E+00  0.00000000000E+00  0.39999999673E+01  0.40000000000E+01  0.51109989000E-03 0.  1.
     -623   -1    0    0    0    0  0.00000000000E+00  0.00000000000E+00  0.12525980253E-10  0.17130000000E+03  0.17130000000E+03 0.  1.
       11    1    1    2    0    0  0.21338640573E-02 -0.17573961533E-02  0.18938958866E+00  0.18941045201E+00  0.51109989000E-03 0.  1.
     -623    1    1    2    0    0  0.31885871907E-03  0.32373820643E-03  0.26614050312E-04  0.17130000000E+03  0.17130000000E+03 0.  1.
      622    1    1    2    0    0 -0.24527227764E-02  0.14336579469E-02  0.38105837647E+01  0.38105895474E+01  0.60000000000E-02 0.  1.
</event>
<event>
 5   0  0.1211800E+10  0.9118800E+02  0.7818608E-02  0.1180000E+00
       11   -1    0    0    0    0  0.00000000000E+00  0.00000000000E+00  0.39999999673E+01  0.40000000000E+01  0.51109989000E-03 0.  1.
     -623   -1    0    0    0    0  0.00000000000E+00  0.00000000000E+00  0.12525980253E-10  0.17130000000E+03  0.17130000000E+03 0.  1.
       11    1    1    2    0    0  0.50381784189E-04  0.14379670992E-02  0.44059990410E-01  0.44086440824E-01  0.51109989000E-03 0.  1.
     -623    1    1    2    0    0  0.18829508122E-03 -0.29016162458E-04  0.31226143939E-04  0.17130000000E+03  0.17130000000E+03 0.  1.
      622    1    1    2    0    0 -0.23867686541E-03 -0.14089509368E-02  0.39559087508E+01  0.39559135591E+01  0.60000000000E-02 0.  1.
</event>
<event>
 5   0  0.1211800E+10  0.9118800E+02  0.7818608E-02  0.1180000E+00
       11   -1    0    0    0    0  0.00000000000E+00  0.00000000000E+00  0.39999999673E+01  0.40000000000E+01  0.51109989000E-03 0. -1.
     -623   -1    0    0    0    0  0.00000000000E+00  0.00000000000E+00  0.12525980253E-10  0.17130000000E+03  0.17130000000E+03 0. -1.
       11    1    1    2    0    0  0.12484748562E-03 -0.28816170083E-03  0.56650594645E-02  0.56967310433E-02  0.51109989000E-03 0. -1.
     -623    1    1    2    0    0 -0.22036329133E-04  0.72016527719E-03  0.36171562991E-04  0.17130000000E+03  0.17130000000E+03 0. -1.
      622    1    1    2    0    0 -0.10281115648E-03 -0.43200357636E-03  0.39942987363E+01  0.39943032674E+01  0.60000000000E-02 0. -1.
</event>
<event>
 5   0  0.1211800E+10  0.9118800E+02  0.7818608E-02  0.1180000E+00
       11   -1    0    0    0    0  0.00000000000E+00  0.00000000000E+00  0.39999999673E+01  0.40000000000E+01  0.51109989000E-03 0.  1.
     -623   -1    0    0    0    0  0.00000000000E+00  0.00000000000E+00  0.12525980253E-10  0.17130000000E+03  0.17130000000E+03 0. -1.
       11    1    1    2    0    0 -0.28060175892E-02 -0.15337894940E-02  0.10087217446E+01  0.10087269429E+01  0.51109989000E-03 0.  1.
     -623    1    1    2    0    0  0.10000598244E-02  0.79060237857E-03  0.11825487056E-04  0.17130000000E+03  0.17130000000E+03 0. -1.
      622    1    1    2    0    0  0.18059577648E-02  0.74318711544E-03  0.29912663973E+01  0.29912730523E+01  0.60000000000E-02 0.  0.
</event>
<event>
 5   0  0.1211800E+10  0.9118800E+02  0.7818608E-02  0.1180000E+00
       11   -1    0    0    0    0  0.00000000000E+00  0.00000000000E+00  0.39999999673E+01  0.40000000000E+01  0.51109989000E-03 0. -1.
     -623   -1    0    0    0    0  0.00000000000E+00  0.00000000000E+00  0.12525980253E-10  0.17130000000E+03  0.17130000000E+03 0. -1.
       11    1    1    2    0    0 -0.14275374752E-01  0.11212026634E-01  0.46178477476E+00  0.46214168313E+00  0.51109989000E-03 0. -1.
     -623    1    1    2    0    0  0.13240187732E-02  0.97924129569E-03  0.40668362515E-03  0.17130000001E+03  0.17130000000E+03 0. -1.
      622    1    1    2    0    0  0.12951355978E-01 -0.12191267930E-01  0.35378085090E+01  0.35378583085E+01  0.60000000000E-02 0.  1.
</event>
<event>
 5   0  0.1211800E+10  0.9118800E+02  0.7818608E-02  0.1180000E+00
       11   -1    0    0    0    0  0.00000000000E+00  0.00000000000E+00  0.39999999673E+01  0.40000000000E+01  0.51109989000E-03 0.  1.
     -623   -1    0    0    0    0  0.00000000000E+00  0.00000000000E+00  0.12525980253E-10  0.17130000000E+03  0.17130000000E+03 0. -1.
       11    1    1    2    0    0  0.91077288135E-03 -0.15567208694E-04  0.57865400915E+00  0.57865495183E+00  0.51109989000E-03 0.  1.
     -623    1    1    2    0    0 -0.14699868754E-03 -0.44462801350E-04  0.62569805870E-05  0.17130000000E+03  0.17130000000E+03 0. -1.
      622    1    1    2    0    0 -0.76377419237E-03  0.60030010479E-04  0.34213397403E+01  0.34213450872E+01  0.60000000000E-02 0.  1.
</event>
<event>
 5   0  0.1211800E+10  0.9118800E+02  0.7818608E-02  0.1180000E+00
       11   -1    0    0    0    0  0.00000000000E+00  0.00000000000E+00  0.39999999673E+01  0.40000000000E+01  0.51109989000E-03 0. -1.
     -623   -1    0    0    0    0  0.00000000000E+00  0.00000000000E+00  0.12525980253E-10  0.17130000000E+03  0.17130000000E+03 0. -1.
       11    1    1    2    0    0  0.18536871792E-02 -0.16692067835E-02  0.38509448360E+00  0.38510290174E+00  0.51109989000E-03 0. -1.
     -623    1    1    2    0    0  0.54806964851E-03  0.45699937027E-03  0.14367506892E-04  0.17130000000E+03  0.17130000000E+03 0. -1.
      622    1    1    2    0    0 -0.24017568276E-02  0.12122074133E-02  0.36148911156E+01  0.36148970961E+01  0.60000000000E-02 0. -1.
</event>
<event>
 5   0  0.1211800E+10  0.9118800E+02  0.7818608E-02  0.1180000E+00
       11   -1    0    0    0    0  0.00000000000E+00  0.00000000000E+00  0.39999999673E+01  0.40000000000E+01  0.51109989000E-03 0.  1.
     -623   -1    0    0    0    0  0.00000000000E+00  0.00000000000E+00  0.12525980253E-10  0.17130000000E+03  0.17130000000E+03 0. -1.
       11    1    1    2    0    0  0.23000984546E-03 -0.69624878535E-02  0.53555512819E+00  0.53560067745E+00  0.51109989000E-03 0.  1.
     -623    1    1    2    0    0  0.10113933527E-02  0.43086092888E-02  0.52008429585E-04  0.17130000006E+03  0.17130000000E+03 0. -1.
      622    1    1    2    0    0 -0.12414031982E-02  0.26538785647E-02  0.34643928307E+01  0.34643992654E+01  0.60000000000E-02 0.  0.
</event>
<event>
 5   0  0.1211800E+10  0.9118800E+02  0.7818608E-02  0.1180000E+00
       11   -1    0    0    0    0  0.00000000000E+00  0.00000000000E+00  0.39999999673E+01  0.40000000000E+01  0.51109989000E-03 0. -1.
     -623   -1    0    0    0    0  0.00000000000E+00  0.00000000000E+00  0.12525980253E-10  0.17130000000E+03  0.17130000000E+03 0. -1.
       11    1    1    2    0    0  0.65866213541E-03  0.30563727808E-02  0.13934225638E+00  0.13937826547E+00  0.51109989000E-03 0. -1.
     -623    1    1    2    0    0 -0.14330758257E-02  0.63652652056E-03  0.42490002493E-04  0.17130000001E+03  0.17130000000E+03 0. -1.
      622    1    1    2    0    0  0.77441369024E-03 -0.36928993014E-02  0.38606152210E+01  0.38606217273E+01  0.60000000000E-02 0. -1.
</event>
<event>
 5   0  0.1211800E+10  0.9118800E+02  0.7818608E-02  0.1180000E+00
       11   -1    0    0    0    0  0.00000000000E+00  0.00000000000E+00  0.39999999673E+01  0.40000000000E+01  0.51109989000E-03 0.  1.
     -623   -1    0    0    0    0  0.00000000000E+00  0.00000000000E+00  0.12525980253E-10  0.17130000000E+03  0.17130000000E+03 0.  1.
       11    1    1    2    0    0  0.39306201014E-02  0.50588533209E-02  0.63320908790E+00  0.63324170109E+00  0.51109989000E-03 0.  1.
     -623    1    1    2    0    0 -0.16650827608E-02  0.11770824083E-02  0.44476476015E-04  0.17130000001E+03  0.17130000000E+03 0.  1.
      622    1    1    2    0    0 -0.22655373406E-02 -0.62359357292E-02  0.33667464030E+01  0.33667582868E+01  0.60000000000E-02 0.  1.
</event>
<event>
 5   0  0.1211800E+10  0.9118800E+02  0.7818608E-02  0.1180000E+00
       11   -1    0    0    0    0  0.00000000000E+00  0.00000000000E+00  0.39999999673E+01  0.40000000000E+01  0.51109989000E-03 0. -1.
     -623   -1    0    0    0    0  0.00000000000E+00  0.00000000000E+00  0.12525980253E-10  0.17130000000E+03  0.17130000000E+03 0. -1.
       11    1    1    2    0    0  0.23714446067E-02  0.19680072265E-02  0.46695430121E+00  0.46696474968E+00  0.51109989000E-03 0. -1.
     -623    1    1    2    0    0  0.68523904345E-03 -0.44235925128E-02  0.17744733240E-04  0.17130000006E+03  0.17130000000E+03 0. -1.
      622    1    1    2    0    0 -0.30566836520E-02  0.24555852982E-02  0.35330279322E+01  0.35330352026E+01  0.60000000000E-02 0. -1.
</event>
<event>
 5   0  0.1211800E+10  0.9118800E+02  0.7818608E-02  0.1180000E+00
       11   -1    0    0    0    0  0.00000000000E+00  0.00000000000E+00  0.39999999673E+01  0.40000000000E+01  0.51109989000E-03 0.  1.
     -623   -1    0    0    0    0  0.00000000000E+00  0.00000000000E+00  0.12525980253E-10  0.17130000000E+03  0.17130000000E+03 0. -1.
       11    1    1    2    0    0 -0.10179885015E-03 -0.16052922045E-03  0.10900085410E+00  0.10900221810E+00  0.51109989000E-03 0.  1.
     -623    1    1    2    0    0  0.40156804452E-03  0.22144749890E-03  0.59700614474E-05  0.17130000000E+03  0.17130000000E+03 0. -1.
      622    1    1    2    0    0 -0.29976919657E-03 -0.60918279672E-04  0.38909931652E+01  0.38909978033E+01  0.60000000000E-02 0.  1.
</event>
<event>
 5   0  0.1211800E+10  0.9118800E+02  0.7818608E-02  0.1180000E+00
       11   -1    0    0    0    0  0.00000000000E+00  0.00000000000E+00  0.39999999673E+01  0.40000000000E+01  0.51109989000E-03 0. -1.
     -623   -1    0    0    0    0  0.00000000000E+00  0.00000000000E+00  0.12525980253E-10  0.17130000000E+03  0.17130000000E+03 0.  1.
       11    1    1    2    0    0 -0.11366940645E-02 -0.18067508528E-02  0.23294624539E-01  0.23397802793E-01  0.51109989000E-03 0. -1.
     -623    1    1    2    0    0  0.14337777345E-02 -0.59678963237E-03  0.10841664212E-03  0.17130000001E+03  0.17130000000E+03 0.  1.
      622    1    1    2    0    0 -0.29708366997E-03  0.24035404852E-02  0.39765969262E+01  0.39766021901E+01  0.60000000000E-02 0. -1.
</event>
<event>
 5   0  0.1211800E+10  0.9118800E+02  0.7818608E-02  0.1180000E+00
       11   -1    0    0    0    0  0.00000000000E+00  0.00000000000E+00  0.39999999673E+01  0.40000000000E+01  0.51109989000E-03 0.  1.
     -623   -1    0    0    0    0  0.00000000000E+00  0.00000000000E+00  0.12525980253E-10  0.17130000000E+03  0.17130000000E+03 0. -1.
       11    1    1    2    0    0 -0.43397708347E-03 -0.23405780663E-04  0.13976338014E+00  0.13976499037E+00  0.51109989000E-03 0.  1.
     -623    1    1    2    0    0 -0.71353916702E-06  0.80202343203E-04  0.62654367388E-05  0.17130000000E+03  0.17130000000E+03 0. -1.
      622    1    1    2    0    0  0.43469062264E-03 -0.56796562539E-04  0.38602303218E+01  0.38602350096E+01  0.60000000000E-02 0.  1.
</event>
<event>
 5   0  0.1211800E+10  0.9118800E+02  0.7818608E-02  0.1180000E+00
       11   -1    0    0    0    0  0.00000000000E+00  0.00000000000E+00  0.39999999673E+01  0.40000000000E+01  0.51109989000E-03 0. -1.
     -623   -1    0    0    0    0  0.00000000000E+00  0.00000000000E+00  0.12525980253E-10  0.17130000000E+03  0.17130000000E+03 0.  1.
       11    1    1    2    0    0 -0.85053233089E-03  0.48576040243E-03  0.70361825223E+00  0.70361911960E+00  0.51109989000E-03 0. -1.
     -623    1    1    2    0    0  0.22644552514E-02 -0.94363445546E-03  0.66478698817E-05  0.17130000002E+03  0.17130000000E+03 0.  1.
      622    1    1    2    0    0 -0.14139229205E-02  0.45787405303E-03  0.32963750673E+01  0.32963808628E+01  0.60000000000E-02 0. -1.
</event>
<event>
 5   0  0.1211800E+10  0.9118800E+02  0.7818608E-02  0.1180000E+00
       11   -1    0    0    0    0  0.00000000000E+00  0.00000000000E+00  0.39999999673E+01  0.40000000000E+01  0.51109989000E-03 0.  1.
     -623   -1    0    0    0    0  0.00000000000E+00  0.00000000000E+00  0.12525980253E-10  0.17130000000E+03  0.17130000000E+03 0. -1.
       11    1    1    2    0    0 -0.45949742214E-03  0.59331989508E-03  0.34649383741E-01  0.34661277845E-01  0.51109989000E-03 0.  1.
     -623    1    1    2    0    0 -0.20399492353E-02  0.17227925037E-02  0.17885752654E-04  0.17130000002E+03  0.17130000000E+03 0. -1.
      622    1    1    2    0    0  0.24994466574E-02 -0.23161123987E-02  0.39653326979E+01  0.39653387013E+01  0.60000000000E-02 0.  1.
</event>
<event>
 5   0  0.1211800E+10  0.9118800E+02  0.7818608E-02  0.1180000E+00
       11   -1    0    0    0    0  0.00000000000E+00  0.00000000000E+00  0.39999999673E+01  0.40000000000E+01  0.51109989000E-03 0. -1.
     -623   -1    0    0    0    0  0.00000000000E+00  0.00000000000E+00  0.12525980253E-10  0.17130000000E+03  0.17130000000E+03 0.  1.
       11    1    1    2    0    0  0.47214528131E-03  0.24182347067E-02  0.40825208796E+00  0.40825984291E+00  0.51109989000E-03 0. -1.
     -623    1    1    2    0    0  0.58236891929E-04  0.70274250576E-03  0.14130376937E-04  0.17130000000E+03  0.17130000000E+03 0.  1.
      622    1    1    2    0    0 -0.53038217334E-03 -0.31209772137E-02  0.35917337560E+01  0.35917401626E+01  0.60000000000E-02 0. -1.
</event>
<event>
 5   0  0.1211800E+10  0.9118800E+02  0.7818608E-02  0.1180000E+00
       11   -1    0    0    0    0  0.00000000000E+00  0.00000000000E+00  0.39999999673E+01  0.40000000000E+01  0.51109989000E-03 0. -1.
     -623   -1    0    0    0    0  0.00000000000E+00  0.00000000000E+00  0.12525980253E-10  0.17130000000E+03  0.17130000000E+03 0.  1.
       11    1    1    2    0    0 -0.36725452202E-03 -0.29355418243E-04  0.14090909250E+00  0.14091050106E+00  0.51109989000E-03 0. -1.
     -623    1    1    2    0    0 -0.27465142276E-04 -0.34056454458E-03  0.60784918814E-05  0.17130000000E+03  0.17130000000E+03 0.  1.
      622    1    1    2    0    0  0.39471966430E-03  0.36991996282E-03  0.38590847964E+01  0.38590894986E+01  0.60000000000E-02 0. -1.
</event>
<event>
 5   0  0.1211800E+10  0.9118800E+02  0.7818608E-02  0.1180000E+00
       11   -1    0    0    0    0  0.00000000000E+00  0.00000000000E+00  0.39999999673E+01  0.40000000000E+01  0.51109989000E-03 0. -1.
     -623   -1    0    0    0    0  0.00000000000E+00  0.00000000000E+00  0.12525980253E-10  0.17130000000E+03  0.17130000000E+03 0.  1.
       11    1    1    2    0    0  0.40978572892E-02  0.31201993508E-03  0.33169352489E+00  0.33171937759E+00  0.51109989000E-03 0. -1.
     -623    1    1    2    0    0 -0.11371083684E-03  0.54207830368E-04  0.32908932769E-04  0.17130000000E+03  0.17130000000E+03 0.  1.
      622    1    1    2    0    0 -0.39841464525E-02 -0.36622776537E-03  0.36682735280E+01  0.36682806168E+01  0.60000000000E-02 0. -1.
</event>
<event>
 5   0  0.1211800E+10  0.9118800E+02  0.7818608E-02  0.1180000E+00
       11   -1    0    0    0    0  0.00000000000E+00  0.00000000000E+00  0.39999999673E+01  0.40000000000E+01  0.51109989000E-03 0.  1.
     -623   -1    0    0    0    0  0.00000000000E+00  0.00000000000E+00  0.12525980253E-10  0.17130000000E+03  0.17130000000E+03 0. -1.
       11    1    1    2    0    0  0.17013461559E-02  0.83835010913E-03  0.36124091254E+00  0.36124625330E+00  0.51109989000E-03 0.  1.
     -623    1    1    2    0    0 -0.77420337295E-07  0.80900512623E-05  0.10751029349E-04  0.17130000000E+03  0.17130000000E+03 0. -1.
      622    1    1    2    0    0 -0.17012687356E-02 -0.84644016039E-03  0.36387483038E+01  0.36387537467E+01  0.60000000000E-02 0.  1.
</event>
<event>
 5   0  0.1211800E+10  0.9118800E+02  0.7818608E-02  0.1180000E+00
       11   -1    0    0    0    0  0.00000000000E+00  0.00000000000E+00  0.39999999673E+01  0.40000000000E+01  0.51109989000E-03 0. -1.
     -623   -1    0    0    0    0  0.00000000000E+00  0.00000000000E+00  0.12525980253E-10  0.17130000000E+03  0.17130000000E+03 0.  1.
       11    1    1    2    0    0  0.13352582901E-02  0.19173790180E-02  0.48668640325E+00  0.48669228018E+00  0.51109989000E-03 0. -1.
     -623    1    1    2    0    0 -0.79363617055E-03 -0.26153423120E-02  0.11100552790E-04  0.17130000002E+03  0.17130000000E+03 0.  1.
      622    1    1    2    0    0 -0.54162211954E-03  0.69796329399E-03  0.35133024636E+01  0.35133076980E+01  0.60000000000E-02 0. -1.
</event>
<event>
 5   0  0.1211800E+10  0.9118800E+02  0.7818608E-02  0.1180000E+00
       11   -1    0    0    0    0  0.00000000000E+00  0.00000000000E+00  0.39999999673E+01  0.40000000000E+01  0.51109989000E-03 0. -1.
     -623   -1    0    0    0    0  0.00000000000E+00  0.00000000000E+00  0.12525980253E-10  0.17130000000E+03  0.17130000000E+03 0.  1.
       11    1    1    2    0    0  0.20575957018E-02  0.12234424707E-02  0.52004657331E+00  0.52005233405E+00  0.51109989000E-03 0. -1.
     -623    1    1    2    0    0  0.15899518795E-03 -0.96330020088E-03  0.11619036832E-04  0.17130000000E+03  0.17130000000E+03 0.  1.
      622    1    1    2    0    0 -0.22165908898E-02 -0.26014226977E-03  0.34799417750E+01  0.34799476632E+01  0.60000000000E-02 0. -1.
</event>
<event>
 5   0  0.1211800E+10  0.9118800E+02  0.7818608E-02  0.1180000E+00
       11   -1    0    0    0    0  0.00000000000E+00  0.00000000000E+00  0.39999999673E+01  0.40000000000E+01  0.51109989000E-03 0. -1.
     -623   -1    0    0    0    0  0.00000000000E+00  0.00000000000E+00  0.12525980253E-10  0.17130000000E+03  0.17130000000E+03 0.  1.
       11    1    1    2    0    0  0.19181499443E-02  0.21384484798E-02  0.46614407898E+00  0.46615321071E+00  0.51109989000E-03 0. -1.
     -623    1    1    2    0    0  0.33488301536E-02  0.75187936590E-03  0.19334137622E-04  0.17130000003E+03  0.17130000000E+03 0.  1.
      622    1    1    2    0    0 -0.52669800922E-02 -0.28903278444E-02  0.35338365475E+01  0.35338467481E+01  0.60000000000E-02 0. -1.
</event>
<event>
 5   0  0.1211800E+10  0.9118800E+02  0.7818608E-02  0.1180000E+00
       11   -1    0    0    0    0  0.00000000000E+00  0.00000000000E+00  0.39999999673E+01  0.40000000000E+01  0.51109989000E-03 0.  1.
     -623   -1    0    0    0    0  0.00000000000E+00  0.00000000000E+00  0.12525980253E-10  0.17130000000E+03  0.17130000000E+03 0.  1.
       11    1    1    2    0    0 -0.89086907409E-03 -0.11806387586E-02  0.16242485293E-01  0.16317693071E-01  0.51109989000E-03 0.  1.
     -623    1    1    2    0    0 -0.10045463918E-02  0.45296529991E-03  0.80214511465E-04  0.17130000000E+03  0.17130000000E+03 0.  1.
      622    1    1    2    0    0  0.18954154657E-02  0.72767345873E-03  0.39836772668E+01  0.39836823026E+01  0.60000000000E-02 0.  1.
</event>
<event>
 5   0  0.1211800E+10  0.9118800E+02  0.7818608E-02  0.1180000E+00
       11   -1    0    0    0    0  0.00000000000E+00  0.00000000000E+00  0.39999999673E+01  0.40000000000E+01  0.51109989000E-03 0.  1.
     -623   -1    0    0    0    0  0.00000000000E+00  0.00000000000E+00  0.12525980253E-10  0.17130000000E+03  0.17130000000E+03 0.  1.
       11    1    1    2    0    0  0.20304774568E-02 -0.14616731286E-02  0.31111875405E-01  0.31216491475E-01  0.51109989000E-03 0.  1.
     -623    1    1    2    0    0 -0.22636430308E-04 -0.97448081389E-04  0.10993303171E-03  0.17130000000E+03  0.17130000000E+03 0.  1.
      622    1    1    2    0    0 -0.20078410265E-02  0.15591212100E-02  0.39687781589E+01  0.39687835085E+01  0.60000000000E-02 0.  1.
</event>
<event>
 5   0  0.1211800E+10  0.9118800E+02  0.7818608E-02  0.1180000E+00
       11   -1    0    0    0    0  0.00000000000E+00  0.00000000000E+00  0.39999999673E+01  0.40000000000E+01  0.51109989000E-03 0.  1.
     -623   -1    0    0    0    0  0.00000000000E+00  0.00000000000E+00  0.12525980253E-10  0.17130000000E+03  0.17130000000E+03 0. -1.
       11    1    1    2    0    0  0.96379134811E-03 -0.90718400674E-03  0.32774567439E+00  0.32774874551E+00  0.51109989000E-03 0.  1.
     -623    1    1    2    0    0 -0.63171809389E-04 -0.31425711480E-04  0.81705099348E-05  0.17130000000E+03  0.17130000000E+03 0. -1.
      622    1    1    2    0    0 -0.90061953872E-03  0.93860971822E-03  0.36722461225E+01  0.36722512545E+01  0.60000000000E-02 0.  1.
</event>
<event>
 5   0  0.1211800E+10  0.9118800E+02  0.7818608E-02  0.1180000E+00
       11   -1    0    0    0    0  0.00000000000E+00  0.00000000000E+00  0.39999999673E+01  0.40000000000E+01  0.51109989000E-03 0. -1.
     -623   -1    0    0    0    0  0.00000000000E+00  0.00000000000E+00  0.12525980253E-10  0.17130000000E+03  0.17130000000E+03 0. -1.
       11    1    1    2    0    0  0.34833419870E-02 -0.55186285969E-02  0.64552604366E+00  0.64555923291E+00  0.51109989000E-03 0. -1.
     -623    1    1    2    0    0 -0.76360492625E-04  0.93043992308E-04  0.44640634879E-04  0.17130000000E+03  0.17130000000E+03 0. -1.
      622    1    1    2    0    0 -0.34069814943E-02  0.54255846046E-02  0.33544292831E+01  0.33544407670E+01  0.60000000000E-02 0. -1.
</event>
<event>
 5   0  0.1211800E+10  0.9118800E+02  0.7818608E-02  0.1180000E+00
       11   -1    0    0    0    0  0.00000000000E+00  0.00000000000E+00  0.39999999673E+01  0.40000000000E+01  0.51109989000E-03 0. -1.
     -623   -1    0    0    0    0  0.00000000000E+00  0.00000000000E+00  0.12525980253E-10  0.17130000000E+03  0.17130000000E+03 0. -1.
       11    1    1    2    0    0  0.31532122971E-02  0.23881476354E-02  0.28694175785E+00  0.28696947506E+00  0.51109989000E-03 0. -1.
     -623    1    1    2    0    0  0.96518149397E-04  0.52343657277E-04  0.34756570164E-04  0.17130000000E+03  0.17130000000E+03 0. -1.
      622    1    1    2    0    0 -0.32497304469E-02 -0.24404912929E-02  0.37130234706E+01  0.37130305426E+01  0.60000000000E-02 0. -1.
</event>
<event>
 5   0  0.1211800E+10  0.9118800E+02  0.7818608E-02  0.1180000E+00
       11   -1    0    0    0    0  0.00000000000E+00  0.00000000000E+00  0.39999999673E+01  0.40000000000E+01  0.51109989000E-03 0. -1.
     -623   -1    0    0    0    0  0.00000000000E+00  0.00000000000E+00  0.12525980253E-10  0.17130000000E+03  0.17130000000E+03 0. -1.
       11    1    1    2    0    0 -0.88488607295E-03 -0.27480472925E-03  0.57194198708E-01  0.57203987011E-01  0.51109989000E-03 0. -1.
     -623    1    1    2    0    0  0.17766877763E-03 -0.26780044233E-04  0.14396009296E-04  0.17130000000E+03  0.17130000000E+03 0. -1.
      622    1    1    2    0    0  0.70721729531E-03  0.30158477348E-03  0.39427913728E+01  0.39427960131E+01  0.60000000000E-02 0. -1.
</event>
<event>
 5   0  0.1211800E+10  0.9118800E+02  0.7818608E-02  0.1180000E+00
       11   -1    0    0    0    0  0.00000000000E+00  0.00000000000E+00  0.39999999673E+01  0.40000000000E+01  0.51109989000E-03 0. -1.
     -623   -1    0    0    0    0  0.00000000000E+00  0.00000000000E+00  0.12525980253E-10  0.17130000000E+03  0.17130000000E+03 0. -1.
       11    1    1    2    0    0  0.92939043331E-04 -0.16852535953E-02  0.28688185630E-01  0.28742336982E-01  0.51109989000E-03 0. -1.
     -623    1    1    2    0    0  0.15563840057E-02  0.75181613342E-03  0.59112210393E-04  0.17130000001E+03  0.17130000000E+03 0. -1.
      622    1    1    2    0    0 -0.16493230491E-02  0.93343746184E-03  0.39712526698E+01  0.39712576546E+01  0.60000000000E-02 0. -1.
</event>
<event>
 5   0  0.1211800E+10  0.9118800E+02  0.7818608E-02  0.1180000E+00
       11   -1    0    0    0    0  0.00000000000E+00  0.00000000000E+00  0.39999999673E+01  0.40000000000E+01  0.51109989000E-03 0.  1.
     -623   -1    0    0    0    0  0.00000000000E+00  0.00000000000E+00  0.12525980253E-10  0.17130000000E+03  0.17130000000E+03 0. -1.
       11    1    1    2    0    0 -0.77796201684E-02 -0.56580248941E-02  0.65463262992E+00  0.65470350321E+00  0.51109989000E-03 0.  1.
     -623    1    1    2    0    0  0.62966898446E-02  0.11246161165E-01  0.81702290479E-04  0.17130000048E+03  0.17130000000E+03 0. -1.
      622    1    1    2    0    0  0.14829303110E-02 -0.55881362941E-02  0.33452856433E+01  0.33452960200E+01  0.60000000000E-02 0.  1.
</event>
<event>
 5   0  0.1211800E+10  0.9118800E+02  0.7818608E-02  0.1180000E+00
       11   -1    0    0    0    0  0.00000000000E+00  0.00000000000E+00  0.39999999673E+01  0.40000000000E+01  0.51109989000E-03 0.  1.
     -623   -1    0    0    0    0  0.00000000000E+00  0.00000000000E+00  0.12525980253E-10  0.17130000000E+03  0.17130000000E+03 0. -1.
       11    1    1    2    0    0 -0.96550171271E-03  0.77362621863E-03  0.21554173353E+00  0.21554589026E+00  0.51109989000E-03 0.  1.
     -623    1    1    2    0    0  0.17369641002E-03 -0.41543372421E-03  0.89807680546E-05  0.17130000000E+03  0.17130000000E+03 0. -1.
      622    1    1    2    0    0  0.79180530422E-03 -0.35819249808E-03  0.37844492178E+01  0.37844540739E+01  0.60000000000E-02 0.  1.
</event>
<event>
 5   0  0.1211800E+10  0.9118800E+02  0.7818608E-02  0.1180000E+00
       11   -1    0    0    0    0  0.00000000000E+00  0.00000000000E+00  0.39999999673E+01  0.40000000000E+01  0.51109989000E-03 0.  1.
     -623   -1    0    0    0    0  0.00000000000E+00  0.00000000000E+00  0.12525980253E-10  0.17130000000E+03  0.17130000000E+03 0.  1.
       11    1    1    2    0    0  0.30497270477E-03 -0.27682161904E-03  0.18384311867E+00  0.18384429048E+00  0.51109989000E-03 0.  1.
     -623    1    1    2    0    0  0.12227393239E-04 -0.98823250281E-04  0.58876668190E-05  0.17130000000E+03  0.17130000000E+03 0.  1.
      622    1    1    2    0    0 -0.31720009811E-03  0.37564487018E-03  0.38161509957E+01  0.38161557442E+01  0.60000000000E-02 0.  1.
</event>
<event>
 5   0  0.1211800E+10  0.9118800E+02  0.7818608E-02  0.1180000E+00
       11   -1    0    0    0    0  0.00000000000E+00  0.00000000000E+00  0.39999999673E+01  0.40000000000E+01  0.51109989000E-03 0. -1.
     -623   -1    0    0    0    0  0.00000000000E+00  0.00000000000E+00  0.12525980253E-10  0.17130000000E+03  0.17130000000E+03 0. -1.
       11    1    1    2    0    0  0.22020350722E-03  0.38166522310E-03  0.11573109538E+00  0.11573306277E+00  0.51109989000E-03 0. -1.
     -623    1    1    2    0    0  0.35693548292E-03 -0.69886190360E-03  0.66264495220E-05  0.17130000000E+03  0.17130000000E+03 0. -1.
      622    1    1    2    0    0 -0.57713899014E-03  0.31719668050E-03  0.38842622455E+01  0.38842669354E+01  0.60000000000E-02 0. -1.
</event>
<event>
 5   0  0.1211800E+10  0.9118800E+02  0.7818608E-02  0.1180000E+00
       11   -1    0    0    0    0  0.00000000000E+00  0.00000000000E+00  0.39999999673E+01  0.40000000000E+01  0.51109989000E-03 0.  1.
     -623   -1    0    0    0    0  0.00000000000E+00  0.00000000000E+00  0.12525980253E-10  0.17130000000E+03  0.17130000000E+03 0.  1.
       11    1    1    2    0    0  0.39291105014E-02  0.22264722149E-03  0.71776237214E+00  0.71777334275E+00  0.51109989000E-03 0.  1.
     -623    1    1    2    0    0 -0.30497945407E-02  0.12687145228E-02  0.16910510312E-04  0.17130000003E+03  0.17130000000E+03 0.  1.
      622    1    1    2    0    0 -0.87931596069E-03 -0.14913617443E-02  0.32822206847E+01  0.32822266254E+01  0.60000000000E-02 0.  0.
</event>
<event>
 5   0  0.1211800E+10  0.9118800E+02  0.7818608E-02  0.1180000E+00
       11   -1    0    0    0    0  0.00000000000E+00  0.00000000000E+00  0.39999999673E+01  0.40000000000E+01  0.51109989000E-03 0. -1.
     -623   -1    0    0    0    0  0.00000000000E+00  0.00000000000E+00  0.12525980253E-10  0.17130000000E+03  0.17130000000E+03 0.  1.
       11    1    1    2    0    0  0.27604001920E-02  0.26939063039E-02  0.16045953476E-01  0.16510929281E-01  0.51109989000E-03 0. -1.
     -623    1    1    2    0    0 -0.40107574901E-02 -0.31425658983E-03  0.47041671755E-03  0.17130000005E+03  0.17130000000E+03 0.  1.
      622    1    1    2    0    0  0.12503572981E-02 -0.23796497141E-02  0.39834835972E+01  0.39834890228E+01  0.60000000000E-02 0. -1.
</event>
<event>
 5   0  0.1211800E+10  0.9118800E+02  0.7818608E-02  0.1180000E+00
       11   -1    0    0    0    0  0.00000000000E+00  0.00000000000E+00  0.39999999673E+01  0.40000000000E+01  0.51109989000E-03 0.  1.
     -623   -1    0    0    0    0  0.00000000000E+00  0.00000000000E+00  0.12525980253E-10  0.17130000000E+03  0.17130000000E+03 0.  1.
       11    1    1    2    0    0 -0.66858469081E-03 -0.30221422183E-03  0.27251044410E-01  0.27265710764E-01  0.51109989000E-03 0.  1.
     -623    1    1    2    0    0  0.58434879306E-03 -0.74108281109E-03  0.19305087168E-04  0.17130000000E+03  0.17130000000E+03 0.  1.
      622    1    1    2    0    0  0.84235897496E-04  0.10432970332E-02  0.39727296196E+01  0.39727342884E+01  0.60000000000E-02 0.  1.
</event>
<event>
 5   0  0.1211800E+10  0.9118800E+02  0.7818608E-02  0.1180000E+00
       11   -1    0    0    0    0  0.00000000000E+00  0.00000000000E+00  0.39999999673E+01  0.40000000000E+01  0.51109989000E-03 0.  1.
     -623   -1    0    0    0    0  0.00000000000E+00  0.00000000000E+00  0.12525980253E-10  0.17130000000E+03  0.17130000000E+03 0. -1.
       11    1    1    2    0    0 -0.31088049789E-02 -0.27234058481E-03  0.19223135583E+00  0.19225736454E+00  0.51109989000E-03 0.  1.
     -623    1    1    2    0    0 -0.62001391888E-04 -0.27837748907E-03  0.32063564850E-04  0.17130000000E+03  0.17130000000E+03 0. -1.
      622    1    1    2    0    0  0.31708063708E-02  0.55071807388E-03  0.38077365480E+01  0.38077426352E+01  0.60000000000E-02 0.  1.
</event>
<event>
 5   0  0.1211800E+10  0.9118800E+02  0.7818608E-02  0.1180000E+00
       11   -1    0    0    0    0  0.00000000000E+00  0.00000000000E+00  0.39999999673E+01  0.40000000000E+01  0.51109989000E-03 0.  1.
     -623   -1    0    0    0    0  0.00000000000E+00  0.00000000000E+00  0.12525980253E-10  0.17130000000E+03  0.17130000000E+03 0. -1.
       11    1    1    2    0    0 -0.93686166400E-04 -0.43069528948E-02  0.10547595460E+01  0.10547684673E+01  0.51109989000E-03 0.  1.
     -623    1    1    2    0    0 -0.49005303313E-03  0.41977585049E-03  0.17624551630E-04  0.17130000000E+03  0.17130000000E+03 0. -1.
      622    1    1    2    0    0  0.58373919939E-03  0.38871770444E-02  0.29452227957E+01  0.29452315303E+01  0.60000000000E-02 0.  1.
</event>
<event>
 5   0  0.1211800E+10  0.9118800E+02  0.7818608E-02  0.1180000E+00
       11   -1    0    0    0    0  0.00000000000E+00  0.00000000000E+00  0.39999999673E+01  0.40000000000E+01  0.51109989000E-03 0. -1.
     -623   -1    0    0    0    0  0.00000000000E+00  0.00000000000E+00  0.12525980253E-10  0.17130000000E+03  0.17130000000E+03 0.  1.
       11    1    1    2    0    0 -0.65601829519E-04  0.22185566588E-02  0.77137955125E-01  0.77171572751E-01  0.51109989000E-03 0. -1.
     -623    1    1    2    0    0  0.17764663615E-02 -0.68187838462E-03  0.38858148061E-04  0.17130000001E+03  0.17130000000E+03 0.  1.
      622    1    1    2    0    0 -0.17108645320E-02 -0.15366782742E-02  0.39228231541E+01  0.39228284167E+01  0.60000000000E-02 0. -1.
</event>
<event>
 5   0  0.1211800E+10  0.9118800E+02  0.7818608E-02  0.1180000E+00
       11   -1    0    0    0    0  0.00000000000E+00  0.00000000000E+00  0.39999999673E+01  0.40000000000E+01  0.51109989000E-03 0. -1.
     -623   -1    0    0    0    0  0.00000000000E+00  0.00000000000E+00  0.12525980253E-10  0.17130000000E+03  0.17130000000E+03 0. -1.
       11    1    1    2    0    0  0.19156257360E-02 -0.18641179518E-03  0.88644952367E-01  0.88667317399E-01  0.51109989000E-03 0. -1.
     -623    1    1    2    0    0  0.73212162019E-04 -0.92958909975E-04  0.27450069389E-04  0.17130000000E+03  0.17130000000E+03 0. -1.
      622    1    1    2    0    0 -0.19888378984E-02  0.27937070558E-03  0.39113275835E+01  0.39113327011E+01  0.60000000000E-02 0. -1.
</event>
<event>
 5   0  0.1211800E+10  0.9118800E+02  0.7818608E-02  0.1180000E+00
       11   -1    0    0    0    0  0.00000000000E+00  0.00000000000E+00  0.39999999673E+01  0.40000000000E+01  0.51109989000E-03 0. -1.
     -623   -1    0    0    0    0  0.00000000000E+00  0.00000000000E+00  0.12525980253E-10  0.17130000000E+03  0.17130000000E+03 0. -1.
       11    1    1    2    0    0 -0.12121391354E-03 -0.16961316212E-03  0.12444953890E-01  0.12457189164E-01  0.51109989000E-03 0.  1.
     -623    1    1    2    0    0  0.21484755702E-04  0.11581588141E-04  0.16721075402E-04  0.17130000000E+03  0.17130000000E+03 0. -1.
      622    1    1    2    0    0  0.99729157828E-04  0.15803157397E-03  0.39875382936E+01  0.39875428120E+01  0.60000000000E-02 0. -1.
</event>
<event>
 5   0  0.1211800E+10  0.9118800E+02  0.7818608E-02  0.1180000E+00
       11   -1    0    0    0    0  0.00000000000E+00  0.00000000000E+00  0.39999999673E+01  0.40000000000E+01  0.51109989000E-03 0. -1.
     -623   -1    0    0    0    0  0.00000000000E+00  0.00000000000E+00  0.12525980253E-10  0.17130000000E+03  0.17130000000E+03 0.  1.
       11    1    1    2    0    0 -0.20142931857E-02 -0.28225797512E-02  0.14515380787E+00  0.14519612080E+00  0.51109989000E-03 0. -1.
     -623    1    1    2    0    0  0.78333724333E-04 -0.11467823818E-05  0.48470177801E-04  0.17130000000E+03  0.17130000000E+03 0.  1.
      622    1    1    2    0    0  0.19359594614E-02  0.28237265336E-02  0.38547976893E+01  0.38548038792E+01  0.60000000000E-02 0. -1.
</event>
<event>
 5   0  0.1211800E+10  0.9118800E+02  0.7818608E-02  0.1180000E+00
       11   -1    0    0    0    0  0.00000000000E+00  0.00000000000E+00  0.39999999673E+01  0.40000000000E+01  0.51109989000E-03 0.  1.
     -623   -1    0    0    0    0  0.00000000000E+00  0.00000000000E+00  0.12525980253E-10  0.17130000000E+03  0.17130000000E+03 0.  1.
       11    1    1    2    0    0 -0.76079757886E-03  0.21806069097E-03  0.16011497837E+00  0.16011775006E+00  0.51109989000E-03 0. -1.
     -623    1    1    2    0    0  0.17619400386E-03  0.65194154221E-04  0.74817492681E-05  0.17130000000E+03  0.17130000000E+03 0.  1.
      622    1    1    2    0    0  0.58460357500E-03 -0.28325484520E-03  0.38398775072E+01  0.38398822498E+01  0.60000000000E-02 0.  1.
</event>
<event>
 5   0  0.1211800E+10  0.9118800E+02  0.7818608E-02  0.1180000E+00
       11   -1    0    0    0    0  0.00000000000E+00  0.00000000000E+00  0.39999999673E+01  0.40000000000E+01  0.51109989000E-03 0.  1.
     -623   -1    0    0    0    0  0.00000000000E+00  0.00000000000E+00  0.12525980253E-10  0.17130000000E+03  0.17130000000E+03 0.  1.
       11    1    1    2    0    0 -0.13369327557E-02  0.10499231996E-03  0.26587115411E+00  0.26587502745E+00  0.51109989000E-03 0.  1.
     -623    1    1    2    0    0 -0.48520354189E-03  0.16329133446E-03  0.91160848452E-05  0.17130000000E+03  0.17130000000E+03 0.  1.
      622    1    1    2    0    0  0.18221362976E-02 -0.26828365441E-03  0.37341196972E+01  0.37341249718E+01  0.60000000000E-02 0.  0.
</event>
<event>
 5   0  0.1211800E+10  0.9118800E+02  0.7818608E-02  0.1180000E+00
       11   -1    0    0    0    0  0.00000000000E+00  0.00000000000E+00  0.39999999673E+01  0.40000000000E+01  0.51109989000E-03 0.  1.
     -623   -1    0    0    0    0  0.00000000000E+00  0.00000000000E+00  0.12525980253E-10  0.17130000000E+03  0.17130000000E+03 0.  1.
       11    1    1    2    0    0  0.66708112865E-03 -0.29147390846E-03  0.40920067946E-02  0.41875644255E-02  0.51109989000E-03 0. -1.
     -623    1    1    2    0    0 -0.62088015635E-03  0.90865523911E-04  0.10003619091E-03  0.17130000000E+03  0.17130000000E+03 0.  1.
      622    1    1    2    0    0 -0.46200972306E-04  0.20060838455E-03  0.39958079244E+01  0.39958124344E+01  0.60000000000E-02 0.  1.
</event>
<event>
 5   0  0.1211800E+10  0.9118800E+02  0.7818608E-02  0.1180000E+00
       11   -1    0    0    0    0  0.00000000000E+00  0.00000000000E+00  0.39999999673E+01  0.40000000000E+01  0.51109989000E-03 0. -1.
     -623   -1    0    0    0    0  0.00000000000E+00  0.00000000000E+00  0.12525980253E-10  0.17130000000E+03  0.17130000000E+03 0. -1.
       11    1    1    2    0    0  0.37577188283E-03  0.14924224292E-02  0.65380064329E-01  0.65400172507E-01  0.51109989000E-03 0. -1.
     -623    1    1    2    0    0 -0.15028165877E-03 -0.19418057635E-04  0.24932595342E-04  0.17130000000E+03  0.17130000000E+03 0. -1.
      622    1    1    2    0    0 -0.22549022406E-03 -0.14730043716E-02  0.39345949704E+01  0.39345998274E+01  0.60000000000E-02 0. -1.
</event>
<event>
 5   0  0.1211800E+10  0.9118800E+02  0.7818608E-02  0.1180000E+00
       11   -1    0    0    0    0  0.00000000000E+00  0.00000000000E+00  0.39999999673E+01  0.40000000000E+01  0.51109989000E-03 0. -1.
     -623   -1    0    0    0    0  0.00000000000E+00  0.00000000000E+00  0.12525980253E-10  0.17130000000E+03  0.17130000000E+03 0.  1.
       11    1    1    2    0    0 -0.65802555162E-03  0.29459808478E-02  0.10709482710E+01  0.10709526471E+01  0.51109989000E-03 0. -1.
     -623    1    1    2    0    0 -0.81635876880E-03 -0.10515185587E-02  0.11477647071E-04  0.17130000001E+03  0.17130000000E+03 0.  1.
      622    1    1    2    0    0  0.14743843221E-02 -0.18944622870E-02  0.29290402269E+01  0.29290473560E+01  0.60000000000E-02 0. -1.
</event>
<event>
 5   0  0.1211800E+10  0.9118800E+02  0.7818608E-02  0.1180000E+00
       11   -1    0    0    0    0  0.00000000000E+00  0.00000000000E+00  0.39999999673E+01  0.40000000000E+01  0.51109989000E-03 0.  1.
     -623   -1    0    0    0    0  0.00000000000E+00  0.00000000000E+00  0.12525980253E-10  0.17130000000E+03  0.17130000000E+03 0. -1.
       11    1    1    2    0    0  0.33511910218E-02 -0.18859884663E-05  0.79028273423E-01  0.79100946313E-01  0.51109989000E-03 0. -1.
     -623    1    1    2    0    0 -0.23620622585E-02  0.35051686367E-03  0.77387961565E-04  0.17130000002E+03  0.17130000000E+03 0. -1.
      622    1    1    2    0    0 -0.98912876328E-03 -0.34863087520E-03  0.39208943060E+01  0.39208990370E+01  0.60000000000E-02 0.  1.
</event>
<event>
 5   0  0.1211800E+10  0.9118800E+02  0.7818608E-02  0.1180000E+00
       11   -1    0    0    0    0  0.00000000000E+00  0.00000000000E+00  0.39999999673E+01  0.40000000000E+01  0.51109989000E-03 0. -1.
     -623   -1    0    0    0    0  0.00000000000E+00  0.00000000000E+00  0.12525980253E-10  0.17130000000E+03  0.17130000000E+03 0. -1.
       11    1    1    2    0    0 -0.13999578565E-02 -0.98000444644E-03  0.10982161409E+00  0.10983609805E+00  0.51109989000E-03 0. -1.
     -623    1    1    2    0    0 -0.33949825391E-03  0.26575379438E-03  0.19533384328E-04  0.17130000000E+03  0.17130000000E+03 0. -1.
      622    1    1    2    0    0  0.17394561115E-02  0.71425065118E-03  0.38901588331E+01  0.38901639146E+01  0.60000000000E-02 0. -1.
</event>
<event>
 5   0  0.1211800E+10  0.9118800E+02  0.7818608E-02  0.1180000E+00
       11   -1    0    0    0    0  0.00000000000E+00  0.00000000000E+00  0.39999999673E+01  0.40000000000E+01  0.51109989000E-03 0. -1.
     -623   -1    0    0    0    0  0.00000000000E+00  0.00000000000E+00  0.12525980253E-10  0.17130000000E+03  0.17130000000E+03 0. -1.
       11    1    1    2    0    0  0.36575838344E-02 -0.26147093615E-02  0.73939609852E+00  0.73940994472E+00  0.51109989000E-03 0.  1.
     -623    1    1    2    0    0  0.10892340765E-02  0.12570743401E-01  0.38454193354E-04  0.17130000046E+03  0.17130000000E+03 0. -1.
      622    1    1    2    0    0 -0.47468179114E-02 -0.99560340448E-02  0.32605654164E+01  0.32605895923E+01  0.60000000000E-02 0. -1.
</event>
<event>
 5   0  0.1211800E+10  0.9118800E+02  0.7818608E-02  0.1180000E+00
       11   -1    0    0    0    0  0.00000000000E+00  0.00000000000E+00  0.39999999673E+01  0.40000000000E+01  0.51109989000E-03 0.  1.
     -623   -1    0    0    0    0  0.00000000000E+00  0.00000000000E+00  0.12525980253E-10  0.17130000000E+03  0.17130000000E+03 0.  1.
       11    1    1    2    0    0  0.21631834833E-02  0.42281859513E-03  0.17853711631E+00  0.17855145270E+00  0.51109989000E-03 0.  1.
     -623    1    1    2    0    0 -0.12289358583E-04  0.23943303984E-03  0.19676872812E-04  0.17130000000E+03  0.17130000000E+03 0.  1.
      622    1    1    2    0    0 -0.21508941247E-02 -0.66225163497E-03  0.38214431742E+01  0.38214485471E+01  0.60000000000E-02 0.  1.
</event>
<event>
 5   0  0.1211800E+10  0.9118800E+02  0.7818608E-02  0.1180000E+00
       11   -1    0    0    0    0  0.00000000000E+00  0.00000000000E+00  0.39999999673E+01  0.40000000000E+01  0.51109989000E-03 0.  1.
     -623   -1    0    0    0    0  0.00000000000E+00  0.00000000000E+00  0.12525980253E-10  0.17130000000E+03  0.17130000000E+03 0. -1.
       11    1    1    2    0    0  0.88761575039E-02  0.72424937180E-03  0.10542588699E+01  0.10542966075E+01  0.51109989000E-03 0.  1.
     -623    1    1    2    0    0 -0.11506724553E-01  0.44482648629E-03  0.45609231252E-04  0.17130000039E+03  0.17130000000E+03 0. -1.
      622    1    1    2    0    0  0.26305670492E-02 -0.11690758581E-02  0.29456954883E+01  0.29457030054E+01  0.60000000000E-02 0. -1.
</event>
<event>
 5   0  0.1211800E+10  0.9118800E+02  0.7818608E-02  0.1180000E+00
       11   -1    0    0    0    0  0.00000000000E+00  0.00000000000E+00  0.39999999673E+01  0.40000000000E+01  0.51109989000E-03 0.  1.
     -623   -1    0    0    0    0  0.00000000000E+00  0.00000000000E+00  0.12525980253E-10  0.17130000000E+03  0.17130000000E+03 0. -1.
       11    1    1    2    0    0 -0.46961377421E-03 -0.83528030038E-04  0.37635591142E-01  0.37642083600E-01  0.51109989000E-03 0.  1.
     -623    1    1    2    0    0  0.51328189977E-04  0.15309840009E-03  0.11025335147E-04  0.17130000000E+03  0.17130000000E+03 0. -1.
      622    1    1    2    0    0  0.41828558380E-03 -0.69570371370E-04  0.39623533853E+01  0.39623579508E+01  0.60000000000E-02 0.  1.
</event>
<event>
 5   0  0.1211800E+10  0.9118800E+02  0.7818608E-02  0.1180000E+00
       11   -1    0    0    0    0  0.00000000000E+00  0.00000000000E+00  0.39999999673E+01  0.40000000000E+01  0.51109989000E-03 0. -1.
     -623   -1    0    0    0    0  0.00000000000E+00  0.00000000000E+00  0.12525980253E-10  0.17130000000E+03  0.17130000000E+03 0.  1.
       11    1    1    2    0    0  0.26696887064E-04 -0.27838672056E-02  0.38261575308E+00  0.38262622278E+00  0.51109989000E-03 0. -1.
     -623    1    1    2    0    0 -0.20798897147E-02 -0.43779756592E-03  0.17443546934E-04  0.17130000001E+03  0.17130000000E+03 0.  1.
      622    1    1    2    0    0  0.20531928327E-02  0.32216647726E-02  0.36173667805E+01  0.36173737738E+01  0.60000000000E-02 0. -1.
</event>
<event>
 5   0  0.1211800E+10  0.9118800E+02  0.7818608E-02  0.1180000E+00
       11   -1    0    0    0    0  0.00000000000E+00  0.00000000000E+00  0.39999999673E+01  0.40000000000E+01  0.51109989000E-03 0. -1.
     -623   -1    0    0    0    0  0.00000000000E+00  0.00000000000E+00  0.12525980253E-10  0.17130000000E+03  0.17130000000E+03 0. -1.
       11    1    1    2    0    0 -0.70409773459E-04  0.51134478779E-03  0.70091600292E-01  0.70095364224E-01  0.51109989000E-03 0. -1.
     -623    1    1    2    0    0 -0.36574233904E-03 -0.15843196250E-03  0.83520706999E-05  0.17130000000E+03  0.17130000000E+03 0. -1.
      622    1    1    2    0    0  0.43615211013E-03 -0.35291282631E-03  0.39298999891E+01  0.39299046094E+01  0.60000000000E-02 0. -1.
</event>
<event>
 5   0  0.1211800E+10  0.9118800E+02  0.7818608E-02  0.1180000E+00
       11   -1    0    0    0    0  0.00000000000E+00  0.00000000000E+00  0.39999999673E+01  0.40000000000E+01  0.51109989000E-03 0. -1.
     -623   -1    0    0    0    0  0.00000000000E+00  0.00000000000E+00  0.12525980253E-10  0.17130000000E+03  0.17130000000E+03 0. -1.
       11    1    1    2    0    0 -0.48930773042E-03  0.11991480637E-06  0.18042953869E+00  0.18043092605E+00  0.51109989000E-03 0. -1.
     -623    1    1    2    0    0  0.19103929909E-03  0.66492698403E-04  0.60796461563E-05  0.17130000000E+03  0.17130000000E+03 0. -1.
      622    1    1    2    0    0  0.29826843132E-03 -0.66612613209E-04  0.38195643490E+01  0.38195690738E+01  0.60000000000E-02 0. -1.
</event>
<event>
 5   0  0.1211800E+10  0.9118800E+02  0.7818608E-02  0.1180000E+00
       11   -1    0    0    0    0  0.00000000000E+00  0.00000000000E+00  0.39999999673E+01  0.40000000000E+01  0.51109989000E-03 0. -1.
     -623   -1    0    0    0    0  0.00000000000E+00  0.00000000000E+00  0.12525980253E-10  0.17130000000E+03  0.17130000000E+03 0. -1.
       11    1    1    2    0    0  0.10326260599E-03  0.14890316807E-03  0.23629723822E+00  0.23629786043E+00  0.51109989000E-03 0. -1.
     -623    1    1    2    0    0 -0.40075222060E-03 -0.25839214911E-03  0.53861180178E-05  0.17130000000E+03  0.17130000000E+03 0. -1.
      622    1    1    2    0    0  0.29748961461E-03  0.10948898104E-03  0.37636973430E+01  0.37637021389E+01  0.60000000000E-02 0. -1.
</event>
<event>
 5   0  0.1211800E+10  0.9118800E+02  0.7818608E-02  0.1180000E+00
       11   -1    0    0    0    0  0.00000000000E+00  0.00000000000E+00  0.39999999673E+01  0.40000000000E+01  0.51109989000E-03 0.  1.
     -623   -1    0    0    0    0  0.00000000000E+00  0.00000000000E+00  0.12525980253E-10  0.17130000000E+03  0.17130000000E+03 0. -1.
       11    1    1    2    0    0 -0.44272598423E-03 -0.69901897471E-03  0.21254689746E+00  0.21254912250E+00  0.51109989000E-03 0.  1.
     -623    1    1    2    0    0 -0.40286657625E-04 -0.10991266116E-03  0.70621690620E-05  0.17130000000E+03  0.17130000000E+03 0. -1.
      622    1    1    2    0    0  0.48301264141E-03  0.80893163466E-03  0.37874459636E+01  0.37874508333E+01  0.60000000000E-02 0.  1.
</event>
<event>
 5   0  0.1211800E+10  0.9118800E+02  0.7818608E-02  0.1180000E+00
       11   -1    0    0    0    0  0.00000000000E+00  0.00000000000E+00  0.39999999673E+01  0.40000000000E+01  0.51109989000E-03 0.  1.
     -623   -1    0    0    0    0  0.00000000000E+00  0.00000000000E+00  0.12525980253E-10  0.17130000000E+03  0.17130000000E+03 0.  1.
       11    1    1    2    0    0 -0.72411692694E-02  0.14646944048E-02  0.28438436396E+00  0.28448076834E+00  0.51109989000E-03 0.  1.
     -623    1    1    2    0    0  0.33064816605E-02 -0.55189522725E-02  0.10563246739E-03  0.17130000012E+03  0.17130000000E+03 0.  1.
      622    1    1    2    0    0  0.39346876034E-02  0.40542578768E-02  0.37155099775E+01  0.37155191174E+01  0.60000000000E-02 0.  1.
</event>
<event>
 5   0  0.1211800E+10  0.9118800E+02  0.7818608E-02  0.1180000E+00
       11   -1    0    0    0    0  0.00000000000E+00  0.00000000000E+00  0.39999999673E+01  0.40000000000E+01  0.51109989000E-03 0.  1.
     -623   -1    0    0    0    0  0.00000000000E+00  0.00000000000E+00  0.12525980253E-10  0.17130000000E+03  0.17130000000E+03 0. -1.
       11    1    1    2    0    0 -0.40671521815E-03 -0.88905385000E-03  0.28382875636E-01  0.28404307483E-01  0.51109989000E-03 0.  1.
     -623    1    1    2    0    0  0.87267941246E-03  0.69523574679E-03  0.25967092542E-04  0.17130000000E+03  0.17130000000E+03 0. -1.
      622    1    1    2    0    0 -0.46596419431E-03  0.19381810320E-03  0.39715911246E+01  0.39715956889E+01  0.60000000000E-02 0.  1.
</event>
<event>
 5   0  0.1211800E+10  0.9118800E+02  0.7818608E-02  0.1180000E+00
       11   -1    0    0    0    0  0.00000000000E+00  0.00000000000E+00  0.39999999673E+01  0.40000000000E+01  0.51109989000E-03 0.  1.
     -623   -1    0    0    0    0  0.00000000000E+00  0.00000000000E+00  0.12525980253E-10  0.17130000000E+03  0.17130000000E+03 0.  1.
       11    1    1    2    0    0 -0.10871814567E-02 -0.21345999773E-02  0.12083594596E+00  0.12086076923E+00  0.51109989000E-03 0.  1.
     -623    1    1    2    0    0 -0.10198789164E-03  0.60817554072E-04  0.30167478996E-04  0.17130000000E+03  0.17130000000E+03 0.  1.
      622    1    1    2    0    0  0.11891693487E-02  0.20737824230E-02  0.38791338702E+01  0.38791392470E+01  0.60000000000E-02 0.  1.
</event>
<event>
 5   0  0.1211800E+10  0.9118800E+02  0.7818608E-02  0.1180000E+00
       11   -1    0    0    0    0  0.00000000000E+00  0.00000000000E+00  0.39999999673E+01  0.40000000000E+01  0.51109989000E-03 0. -1.
     -623   -1    0    0    0    0  0.00000000000E+00  0.00000000000E+00  0.12525980253E-10  0.17130000000E+03  0.17130000000E+03 0. -1.
       11    1    1    2    0    0  0.16592948873E-02 -0.23499481984E-02  0.40758643929E-01  0.40863232790E-01  0.51109989000E-03 0. -1.
     -623    1    1    2    0    0  0.55049625757E-03 -0.39523942975E-03  0.11067247455E-03  0.17130000000E+03  0.17130000000E+03 0. -1.
      622    1    1    2    0    0 -0.22097911455E-02  0.27451876286E-02  0.39591306558E+01  0.39591367706E+01  0.60000000000E-02 0. -1.
</event>
<event>
 5   0  0.1211800E+10  0.9118800E+02  0.7818608E-02  0.1180000E+00
       11   -1    0    0    0    0  0.00000000000E+00  0.00000000000E+00  0.39999999673E+01  0.40000000000E+01  0.51109989000E-03 0. -1.
     -623   -1    0    0    0    0  0.00000000000E+00  0.00000000000E+00  0.12525980253E-10  0.17130000000E+03  0.17130000000E+03 0. -1.
       11    1    1    2    0    0  0.17448954767E-03 -0.19387826712E-02  0.32005438399E+00  0.32006071184E+00  0.51109989000E-03 0. -1.
     -623    1    1    2    0    0  0.35050352822E-03  0.41100608573E-02  0.11914267706E-04  0.17130000005E+03  0.17130000000E+03 0. -1.
      622    1    1    2    0    0 -0.52499307908E-03 -0.21712782235E-02  0.36799337055E+01  0.36799392749E+01  0.60000000000E-02 0. -1.
</event>
<event>
 5   0  0.1211800E+10  0.9118800E+02  0.7818608E-02  0.1180000E+00
       11   -1    0    0    0    0  0.00000000000E+00  0.00000000000E+00  0.39999999673E+01  0.40000000000E+01  0.51109989000E-03 0. -1.
     -623   -1    0    0    0    0  0.00000000000E+00  0.00000000000E+00  0.12525980253E-10  0.17130000000E+03  0.17130000000E+03 0.  1.
       11    1    1    2    0    0  0.16266914751E-02 -0.17536205694E-02  0.38081683458E+00  0.38082468937E+00  0.51109989000E-03 0. -1.
     -623    1    1    2    0    0 -0.16501233851E-02  0.48151290214E-03  0.13027929257E-04  0.17130000001E+03  0.17130000000E+03 0.  1.
      622    1    1    2    0    0  0.23431914452E-04  0.12721076660E-02  0.36191701156E+01  0.36191753128E+01  0.60000000000E-02 0. -1.
</event>
<event>
 5   0  0.1211800E+10  0.9118800E+02  0.7818608E-02  0.1180000E+00
       11   -1    0    0    0    0  0.00000000000E+00  0.00000000000E+00  0.39999999673E+01  0.40000000000E+01  0.51109989000E-03 0. -1.
     -623   -1    0    0    0    0  0.00000000000E+00  0.00000000000E+00  0.12525980253E-10  0.17130000000E+03  0.17130000000E+03 0.  1.
       11    1    1    2    0    0 -0.11759931380E-02 -0.68996591419E-02  0.33968262166E+00  0.33975510730E+00  0.51109989000E-03 0. -1.
     -623    1    1    2    0    0  0.14479323133E-02  0.26550678413E-03  0.83399329329E-04  0.17130000001E+03  0.17130000000E+03 0.  1.
      622    1    1    2    0    0 -0.27193917527E-03  0.66341523577E-02  0.36602339464E+01  0.36602448864E+01  0.60000000000E-02 0. -1.
</event>
<event>
 5   0  0.1211800E+10  0.9118800E+02  0.7818608E-02  0.1180000E+00
       11   -1    0    0    0    0  0.00000000000E+00  0.00000000000E+00  0.39999999673E+01  0.40000000000E+01  0.51109989000E-03 0. -1.
     -623   -1    0    0    0    0  0.00000000000E+00  0.00000000000E+00  0.12525980253E-10  0.17130000000E+03  0.17130000000E+03 0.  1.
       11    1    1    2    0    0  0.15619597935E-02  0.72997308120E-03  0.76376932941E+00  0.76377144641E+00  0.51109989000E-03 0. -1.
     -623    1    1    2    0    0 -0.15024978107E-02  0.84653146084E-03  0.80396128284E-05  0.17130000001E+03  0.17130000000E+03 0.  1.
      622    1    1    2    0    0 -0.59461978371E-04 -0.15765045445E-02  0.32362226101E+01  0.32362285567E+01  0.60000000000E-02 0. -1.
</event>
<event>
 5   0  0.1211800E+10  0.9118800E+02  0.7818608E-02  0.1180000E+00
       11   -1    0    0    0    0  0.00000000000E+00  0.00000000000E+00  0.39999999673E+01  0.40000000000E+01  0.51109989000E-03 0. -1.
     -623   -1    0    0    0    0  0.00000000000E+00  0.00000000000E+00  0.12525980253E-10  0.17130000000E+03  0.17130000000E+03 0. -1.
       11    1    1    2    0    0 -0.16691317450E-02 -0.51164707222E-02  0.89986174982E+00  0.89987798856E+00  0.51109989000E-03 0. -1.
     -623    1    1    2    0    0  0.47773152379E-02  0.82099190303E-02  0.25377216025E-04  0.17130000026E+03  0.17130000000E+03 0. -1.
      622    1    1    2    0    0 -0.31081834956E-02 -0.30934483128E-02  0.31001128426E+01  0.31001217504E+01  0.60000000000E-02 0. -1.
</event>
<event>
 5   0  0.1211800E+10  0.9118800E+02  0.7818608E-02  0.1180000E+00
       11   -1    0    0    0    0  0.00000000000E+00  0.00000000000E+00  0.39999999673E+01  0.40000000000E+01  0.51109989000E-03 0.  1.
     -623   -1    0    0    0    0  0.00000000000E+00  0.00000000000E+00  0.12525980253E-10  0.17130000000E+03  0.17130000000E+03 0.  1.
       11    1    1    2    0    0  0.21147319360E-02 -0.57251803865E-03  0.35574740165E+00  0.35575451490E+00  0.51109989000E-03 0.  1.
     -623    1    1    2    0    0  0.23358213413E-04  0.92305495800E-04  0.12678786869E-04  0.17130000000E+03  0.17130000000E+03 0.  1.
      622    1    1    2    0    0 -0.21380901495E-02  0.48021254259E-03  0.36442398982E+01  0.36442454963E+01  0.60000000000E-02 0.  1.
</event>
<event>
 5   0  0.1211800E+10  0.9118800E+02  0.7818608E-02  0.1180000E+00
       11   -1    0    0    0    0  0.00000000000E+00  0.00000000000E+00  0.39999999673E+01  0.40000000000E+01  0.51109989000E-03 0. -1.
     -623   -1    0    0    0    0  0.00000000000E+00  0.00000000000E+00  0.12525980253E-10  0.17130000000E+03  0.17130000000E+03 0.  1.
       11    1    1    2    0    0 -0.33482248772E-02 -0.24578254616E-02  0.48077623604E+00  0.48079444868E+00  0.51109989000E-03 0. -1.
     -623    1    1    2    0    0 -0.30062244231E-03 -0.99854413003E-03  0.26886935881E-04  0.17130000000E+03  0.17130000000E+03 0.  1.
      622    1    1    2    0    0  0.36488473208E-02  0.34563695958E-02  0.35191968612E+01  0.35192055650E+01  0.60000000000E-02 0. -1.
</event>
<event>
 5   0  0.1211800E+10  0.9118800E+02  0.7818608E-02  0.1180000E+00
       11   -1    0    0    0    0  0.00000000000E+00  0.00000000000E+00  0.39999999673E+01  0.40000000000E+01  0.51109989000E-03 0. -1.
     -623   -1    0    0    0    0  0.00000000000E+00  0.00000000000E+00  0.12525980253E-10  0.17130000000E+03  0.17130000000E+03 0. -1.
       11    1    1    2    0    0 -0.11878512121E-02  0.48394964003E-02  0.18751714969E+00  0.18758404614E+00  0.51109989000E-03 0. -1.
     -623    1    1    2    0    0  0.60311443056E-05  0.87065237302E-04  0.74951605198E-04  0.17130000000E+03  0.17130000000E+03 0. -1.
      622    1    1    2    0    0  0.11818200678E-02 -0.49265616376E-02  0.38124078661E+01  0.38124159538E+01  0.60000000000E-02 0. -1.
</event>
<event>
 5   0  0.1211800E+10  0.9118800E+02  0.7818608E-02  0.1180000E+00
       11   -1    0    0    0    0  0.00000000000E+00  0.00000000000E+00  0.39999999673E+01  0.40000000000E+01  0.51109989000E-03 0.  1.
     -623   -1    0    0    0    0  0.00000000000E+00  0.00000000000E+00  0.12525980253E-10  0.17130000000E+03  0.17130000000E+03 0. -1.
       11    1    1    2    0    0 -0.37753931040E-03 -0.35149091518E-02  0.56550552527E+00  0.56551680564E+00  0.51109989000E-03 0.  1.
     -623    1    1    2    0    0  0.22527749828E-03  0.13370577277E-03  0.18156644883E-04  0.17130000000E+03  0.17130000000E+03 0. -1.
      622    1    1    2    0    0  0.15226181213E-03  0.33812033790E-02  0.34344762854E+01  0.34344831942E+01  0.60000000000E-02 0.  1.
</event>
<event>
 5   0  0.1211800E+10  0.9118800E+02  0.7818608E-02  0.1180000E+00
       11   -1    0    0    0    0  0.00000000000E+00  0.00000000000E+00  0.39999999673E+01  0.40000000000E+01  0.51109989000E-03 0. -1.
     -623   -1    0    0    0    0  0.00000000000E+00  0.00000000000E+00  0.12525980253E-10  0.17130000000E+03  0.17130000000E+03 0.  1.
       11    1    1    2    0    0 -0.14711141621E-03  0.93630545646E-03  0.12150385382E+00  0.12150862531E+00  0.51109989000E-03 0. -1.
     -623    1    1    2    0    0 -0.81271238381E-04 -0.55556510212E-04  0.94865925608E-05  0.17130000000E+03  0.17130000000E+03 0.  1.
      622    1    1    2    0    0  0.22838265482E-03 -0.88074894609E-03  0.38784866384E+01  0.38784913862E+01  0.60000000000E-02 0. -1.
</event>
<event>
 5   0  0.1211800E+10  0.9118800E+02  0.7818608E-02  0.1180000E+00
       11   -1    0    0    0    0  0.00000000000E+00  0.00000000000E+00  0.39999999673E+01  0.40000000000E+01  0.51109989000E-03 0.  1.
     -623   -1    0    0    0    0  0.00000000000E+00  0.00000000000E+00  0.12525980253E-10  0.17130000000E+03  0.17130000000E+03 0.  1.
       11    1    1    2    0    0 -0.10985647325E-02 -0.24935964879E-03  0.32452201382E-01  0.32475769756E-01  0.51109989000E-03 0.  1.
     -623    1    1    2    0    0 -0.21184988595E-03  0.14056824340E-02  0.28463380704E-04  0.17130000001E+03  0.17130000000E+03 0.  1.
      622    1    1    2    0    0  0.13104146184E-02 -0.11563227852E-02  0.39675193026E+01  0.39675242243E+01  0.60000000000E-02 0.  1.
</event>
<event>
 5   0  0.1211800E+10  0.9118800E+02  0.7818608E-02  0.1180000E+00
       11   -1    0    0    0    0  0.00000000000E+00  0.00000000000E+00  0.39999999673E+01  0.40000000000E+01  0.51109989000E-03 0. -1.
     -623   -1    0    0    0    0  0.00000000000E+00  0.00000000000E+00  0.12525980253E-10  0.17130000000E+03  0.17130000000E+03 0.  1.
       11    1    1    2    0    0 -0.68034356459E-04 -0.97601891231E-04  0.13183945974E+00  0.13184050410E+00  0.51109989000E-03 0. -1.
     -623    1    1    2    0    0  0.96249493597E-03 -0.15865581139E-03  0.57797846078E-05  0.17130000000E+03  0.17130000000E+03 0.  1.
      622    1    1    2    0    0 -0.89446059365E-03  0.25625770495E-03  0.38681547866E+01  0.38681595519E+01  0.60000000000E-02 0. -1.
</event>
<event>
 5   0  0.1211800E+10  0.9118800E+02  0.7818608E-02  0.1180000E+00
       11   -1    0    0    0    0  0.00000000000E+00  0.00000000000E+00  0.39999999673E+01  0.40000000000E+01  0.51109989000E-03 0.  1.
     -623   -1    0    0    0    0  0.00000000000E+00  0.00000000000E+00  0.12525980253E-10  0.17130000000E+03  0.17130000000E+03 0.  1.
       11    1    1    2    0    0  0.20506255156E-03  0.13970896708E-03  0.46568653401E-03  0.73461254834E-03  0.51109989000E-03 0.  1.
     -623    1    1    2    0    0  0.17063481502E-03 -0.47260853650E-03  0.27342666068E-03  0.17130000000E+03  0.17130000000E+03 0.  1.
      622    1    1    2    0    0 -0.37569736658E-03  0.33289956942E-03  0.39992608542E+01  0.39992653865E+01  0.60000000000E-02 0.  1.
</event>
<event>
 5   0  0.1211800E+10  0.9118800E+02  0.7818608E-02  0.1180000E+00
       11   -1    0    0    0    0  0.00000000000E+00  0.00000000000E+00  0.39999999673E+01  0.40000000000E+01  0.51109989000E-03 0.  1.
     -623   -1    0    0    0    0  0.00000000000E+00  0.00000000000E+00  0.12525980253E-10  0.17130000000E+03  0.17130000000E+03 0. -1.
       11    1    1    2    0    0  0.65899360648E-03 -0.15034627004E-02  0.35848182429E+00  0.35848594707E+00  0.51109989000E-03 0.  1.
     -623    1    1    2    0    0  0.37075104628E-04 -0.20833277493E-04  0.94186943334E-05  0.17130000000E+03  0.17130000000E+03 0. -1.
      622    1    1    2    0    0 -0.69606871103E-03  0.15242959779E-02  0.36415087160E+01  0.36415140445E+01  0.60000000000E-02 0.  0.
</event>
<event>
 5   0  0.1211800E+10  0.9118800E+02  0.7818608E-02  0.1180000E+00
       11   -1    0    0    0    0  0.00000000000E+00  0.00000000000E+00  0.39999999673E+01  0.40000000000E+01  0.51109989000E-03 0.  1.
     -623   -1    0    0    0    0  0.00000000000E+00  0.00000000000E+00  0.12525980253E-10  0.17130000000E+03  0.17130000000E+03 0. -1.
       11    1    1    2    0    0  0.15301969950E-02 -0.17235093901E-02  0.59755791061E+00  0.59756257391E+00  0.51109989000E-03 0.  1.
     -623    1    1    2    0    0 -0.55975373685E-05  0.28586666752E-05  0.10697650593E-04  0.17130000000E+03  0.17130000000E+03 0. -1.
      622    1    1    2    0    0 -0.15245994577E-02  0.17206507234E-02  0.34024313392E+01  0.34024374062E+01  0.60000000000E-02 0.  1.
</event>
<event>
 5   0  0.1211800E+10  0.9118800E+02  0.7818608E-02  0.1180000E+00
       11   -1    0    0    0    0  0.00000000000E+00  0.00000000000E+00  0.39999999673E+01  0.40000000000E+01  0.51109989000E-03 0.  1.
     -623   -1    0    0    0    0  0.00000000000E+00  0.00000000000E+00  0.12525980253E-10  0.17130000000E+03  0.17130000000E+03 0.  1.
       11    1    1    2    0    0  0.65498336122E-03 -0.40760207026E-02  0.34623338864E-01  0.34872335202E-01  0.51109989000E-03 0.  1.
     -623    1    1    2    0    0 -0.23538141329E-02  0.27299541251E-02  0.25413379539E-03  0.17130000004E+03  0.17130000000E+03 0.  1.
      622    1    1    2    0    0  0.16988307717E-02  0.13460665775E-02  0.39651224947E+01  0.39651276267E+01  0.60000000000E-02 0.  1.
</event>
<event>
 5   0  0.1211800E+10  0.9118800E+02  0.7818608E-02  0.1180000E+00
       11   -1    0    0    0    0  0.00000000000E+00  0.00000000000E+00  0.39999999673E+01  0.40000000000E+01  0.51109989000E-03 0.  1.
     -623   -1    0    0    0    0  0.00000000000E+00  0.00000000000E+00  0.12525980253E-10  0.17130000000E+03  0.17130000000E+03 0. -1.
       11    1    1    2    0    0  0.14293054093E-02 -0.92510118560E-04  0.57340348443E-01  0.57360511284E-01  0.51109989000E-03 0.  1.
     -623    1    1    2    0    0 -0.17522440643E-04  0.24638145702E-04  0.24949027669E-04  0.17130000000E+03  0.17130000000E+03 0. -1.
      622    1    1    2    0    0 -0.14117829686E-02  0.67871972740E-04  0.39426346891E+01  0.39426395079E+01  0.60000000000E-02 0.  1.
</event>
<event>
 5   0  0.1211800E+10  0.9118800E+02  0.7818608E-02  0.1180000E+00
       11   -1    0    0    0    0  0.00000000000E+00  0.00000000000E+00  0.39999999673E+01  0.40000000000E+01  0.51109989000E-03 0. -1.
     -623   -1    0    0    0    0  0.00000000000E+00  0.00000000000E+00  0.12525980253E-10  0.17130000000E+03  0.17130000000E+03 0.  1.
       11    1    1    2    0    0 -0.32889525981E-02  0.60975204749E-03  0.23862662760E+00  0.23865061833E+00  0.51109989000E-03 0. -1.
     -623    1    1    2    0    0  0.66720667123E-03  0.11819638722E-02  0.30089441275E-04  0.17130000001E+03  0.17130000000E+03 0.  1.
      622    1    1    2    0    0  0.26217459246E-02 -0.17917159238E-02  0.37613432641E+01  0.37613493901E+01  0.60000000000E-02 0. -1.
</event>
<event>
 5   0  0.1211800E+10  0.9118800E+02  0.7818608E-02  0.1180000E+00
       11   -1    0    0    0    0  0.00000000000E+00  0.00000000000E+00  0.39999999673E+01  0.40000000000E+01  0.51109989000E-03 0. -1.
     -623   -1    0    0    0    0  0.00000000000E+00  0.00000000000E+00  0.12525980253E-10  0.17130000000E+03  0.17130000000E+03 0.  1.
       11    1    1    2    0    0 -0.21223930848E-03 -0.31275122644E-04  0.98488814283E-02  0.98644671495E-02  0.51109989000E-03 0. -1.
     -623    1    1    2    0    0  0.12441477961E-04 -0.35457870026E-04  0.20069774214E-04  0.17130000000E+03  0.17130000000E+03 0.  1.
      622    1    1    2    0    0  0.19979783053E-03  0.66732992614E-04  0.39901310099E+01  0.39901355266E+01  0.60000000000E-02 0. -1.
</event>
<event>
 5   0  0.1211800E+10  0.9118800E+02  0.7818608E-02  0.1180000E+00
       11   -1    0    0    0    0  0.00000000000E+00  0.00000000000E+00  0.39999999673E+01  0.40000000000E+01  0.51109989000E-03 0.  1.
     -623   -1    0    0    0    0  0.00000000000E+00  0.00000000000E+00  0.12525980253E-10  0.17130000000E+03  0.17130000000E+03 0.  1.
       11    1    1    2    0    0  0.68745378451E-03  0.99205455276E-03  0.10322277933E+01  0.10322286255E+01  0.51109989000E-03 0.  1.
     -623    1    1    2    0    0  0.11636172451E-03 -0.14612412645E-03  0.70942179105E-05  0.17130000000E+03  0.17130000000E+03 0.  1.
      622    1    1    2    0    0 -0.80381550857E-03 -0.84593042688E-03  0.29677650643E+01  0.29677713589E+01  0.60000000000E-02 0.  1.
</event>
<event>
 5   0  0.1211800E+10  0.9118800E+02  0.7818608E-02  0.1180000E+00
       11   -1    0    0    0    0  0.00000000000E+00  0.00000000000E+00  0.39999999673E+01  0.40000000000E+01  0.51109989000E-03 0. -1.
     -623   -1    0    0    0    0  0.00000000000E+00  0.00000000000E+00  0.12525980253E-10  0.17130000000E+03  0.17130000000E+03 0. -1.
       11    1    1    2    0    0 -0.61614902524E-03  0.42106777566E-02  0.67789843043E+00  0.67791198002E+00  0.51109989000E-03 0. -1.
     -623    1    1    2    0    0  0.38517082785E-03 -0.21522829817E-03  0.21346481466E-04  0.17130000000E+03  0.17130000000E+03 0. -1.
      622    1    1    2    0    0  0.23097819568E-03 -0.39954494575E-02  0.33220802083E+01  0.33220880372E+01  0.60000000000E-02 0.  1.
</event>
<event>
 5   0  0.1211800E+10  0.9118800E+02  0.7818608E-02  0.1180000E+00
       11   -1    0    0    0    0  0.00000000000E+00  0.00000000000E+00  0.39999999673E+01  0.40000000000E+01  0.51109989000E-03 0.  1.
     -623   -1    0    0    0    0  0.00000000000E+00  0.00000000000E+00  0.12525980253E-10  0.17130000000E+03  0.17130000000E+03 0.  1.
       11    1    1    2    0    0 -0.49801538668E-03  0.40583395365E-03  0.30832507991E+00  0.30832617281E+00  0.51109989000E-03 0.  1.
     -623    1    1    2    0    0 -0.13485357594E-03  0.15963339364E-03  0.60337873542E-05  0.17130000000E+03  0.17130000000E+03 0.  1.
      622    1    1    2    0    0  0.63286896263E-03 -0.56546734729E-03  0.36916688537E+01  0.36916738271E+01  0.60000000000E-02 0.  1.
</event>
<event>
 5   0  0.1211800E+10  0.9118800E+02  0.7818608E-02  0.1180000E+00
       11   -1    0    0    0    0  0.00000000000E+00  0.00000000000E+00  0.39999999673E+01  0.40000000000E+01  0.51109989000E-03 0. -1.
     -623   -1    0    0    0    0  0.00000000000E+00  0.00000000000E+00  0.12525980253E-10  0.17130000000E+03  0.17130000000E+03 0.  1.
       11    1    1    2    0    0 -0.42699510046E-02 -0.11336457531E-01  0.42856656612E+00  0.42873804423E+00  0.51109989000E-03 0. -1.
     -623    1    1    2    0    0  0.36674679931E-02  0.10734114485E-01  0.17696299108E-03  0.17130000038E+03  0.17130000000E+03 0.  1.
      622    1    1    2    0    0  0.60248300911E-03  0.60234303951E-03  0.35712564409E+01  0.35712615827E+01  0.60000000000E-02 0.  0.
</event>
<event>
 5   0  0.1211800E+10  0.9118800E+02  0.7818608E-02  0.1180000E+00
       11   -1    0    0    0    0  0.00000000000E+00  0.00000000000E+00  0.39999999673E+01  0.40000000000E+01  0.51109989000E-03 0.  1.
     -623   -1    0    0    0    0  0.00000000000E+00  0.00000000000E+00  0.12525980253E-10  0.17130000000E+03  0.17130000000E+03 0.  1.
       11    1    1    2    0    0 -0.38310646297E-03  0.12733237429E-03  0.22459049584E+00  0.22459144024E+00  0.51109989000E-03 0.  1.
     -623    1    1    2    0    0 -0.58596453480E-04 -0.12593252903E-03  0.57053535443E-05  0.17130000000E+03  0.17130000000E+03 0.  1.
      622    1    1    2    0    0  0.44170291602E-03 -0.13998461811E-05  0.37754037371E+01  0.37754085306E+01  0.60000000000E-02 0.  1.
</event>
<event>
 5   0  0.1211800E+10  0.9118800E+02  0.7818608E-02  0.1180000E+00
       11   -1    0    0    0    0  0.00000000000E+00  0.00000000000E+00  0.39999999673E+01  0.40000000000E+01  0.51109989000E-03 0.  1.
     -623   -1    0    0    0    0  0.00000000000E+00  0.00000000000E+00  0.12525980253E-10  0.17130000000E+03  0.17130000000E+03 0. -1.
       11    1    1    2    0    0 -0.21103856443E-02  0.24976940599E-03  0.30019007222E+00  0.30019802930E+00  0.51109989000E-03 0.  1.
     -623    1    1    2    0    0  0.25781714706E-03 -0.37866703932E-03  0.13256236217E-04  0.17130000000E+03  0.17130000000E+03 0. -1.
      622    1    1    2    0    0  0.18525684986E-02  0.12889763139E-03  0.36997966185E+01  0.36998019497E+01  0.60000000000E-02 0.  1.
</event>
<event>
 5   0  0.1211800E+10  0.9118800E+02  0.7818608E-02  0.1180000E+00
       11   -1    0    0    0    0  0.00000000000E+00  0.00000000000E+00  0.39999999673E+01  0.40000000000E+01  0.51109989000E-03 0.  1.
     -623   -1    0    0    0    0  0.00000000000E+00  0.00000000000E+00  0.12525980253E-10  0.17130000000E+03  0.17130000000E+03 0. -1.
       11    1    1    2    0    0  0.32007780489E-03 -0.17287208492E-02  0.23466193186E+00  0.23466907426E+00  0.51109989000E-03 0.  1.
     -623    1    1    2    0    0  0.49413898648E-03  0.23363118021E-02  0.12043915114E-04  0.17130000002E+03  0.17130000000E+03 0. -1.
      622    1    1    2    0    0 -0.81421679137E-03 -0.60759095283E-03  0.37653259916E+01  0.37653309091E+01  0.60000000000E-02 0.  1.
</event>
<event>
 5   0  0.1211800E+10  0.9118800E+02  0.7818608E-02  0.1180000E+00
       11   -1    0    0    0    0  0.00000000000E+00  0.00000000000E+00  0.39999999673E+01  0.40000000000E+01  0.51109989000E-03 0.  1.
     -623   -1    0    0    0    0  0.00000000000E+00  0.00000000000E+00  0.12525980253E-10  0.17130000000E+03  0.17130000000E+03 0. -1.
       11    1    1    2    0    0 -0.66454309173E-04  0.20600273740E-02  0.45281581908E+00  0.45282079828E+00  0.51109989000E-03 0.  1.
     -623    1    1    2    0    0 -0.22689111332E-02 -0.10356791519E-02  0.10955858792E-04  0.17130000002E+03  0.17130000000E+03 0. -1.
      622    1    1    2    0    0  0.23353654495E-02 -0.10243482189E-02  0.35471732050E+01  0.35471791962E+01  0.60000000000E-02 0.  1.
</event>
<event>
 5   0  0.1211800E+10  0.9118800E+02  0.7818608E-02  0.1180000E+00
       11   -1    0    0    0    0  0.00000000000E+00  0.00000000000E+00  0.39999999673E+01  0.40000000000E+01  0.51109989000E-03 0. -1.
     -623   -1    0    0    0    0  0.00000000000E+00  0.00000000000E+00  0.12525980253E-10  0.17130000000E+03  0.17130000000E+03 0.  1.
       11    1    1    2    0    0  0.97016883034E-03 -0.24395217998E-04  0.72655301125E-01  0.72663579786E-01  0.51109989000E-03 0. -1.
     -623    1    1    2    0    0 -0.37256107601E-03 -0.19981562754E-03  0.12881672864E-04  0.17130000000E+03  0.17130000000E+03 0.  1.
      622    1    1    2    0    0 -0.59760775311E-03  0.22421084619E-03  0.39273317976E+01  0.39273364328E+01  0.60000000000E-02 0. -1.
</event>
<event>
 5   0  0.1211800E+10  0.9118800E+02  0.7818608E-02  0.1180000E+00
       11   -1    0    0    0    0  0.00000000000E+00  0.00000000000E+00  0.39999999673E+01  0.40000000000E+01  0.51109989000E-03 0. -1.
     -623   -1    0    0    0    0  0.00000000000E+00  0.00000000000E+00  0.12525980253E-10  0.17130000000E+03  0.17130000000E+03 0.  1.
       11    1    1    2    0    0 -0.41918639941E-03  0.24269022424E-02  0.25415055427E+00  0.25416300091E+00  0.51109989000E-03 0. -1.
     -623    1    1    2    0    0  0.21709727789E-02 -0.36867518266E-02  0.17894254733E-04  0.17130000005E+03  0.17130000000E+03 0.  1.
      622    1    1    2    0    0 -0.17517863700E-02  0.12598495682E-02  0.37458315014E+01  0.37458369283E+01  0.60000000000E-02 0. -1.
</event>
<event>
 5   0  0.1211800E+10  0.9118800E+02  0.7818608E-02  0.1180000E+00
       11   -1    0    0    0    0  0.00000000000E+00  0.00000000000E+00  0.39999999673E+01  0.40000000000E+01  0.51109989000E-03 0.  1.
     -623   -1    0    0    0    0  0.00000000000E+00  0.00000000000E+00  0.12525980253E-10  0.17130000000E+03  0.17130000000E+03 0.  1.
       11    1    1    2    0    0  0.24630716435E-03  0.16397803010E-02  0.60654364997E-01  0.60679178969E-01  0.51109989000E-03 0.  1.
     -623    1    1    2    0    0 -0.79004786412E-03 -0.19830923146E-02  0.29416438857E-04  0.17130000001E+03  0.17130000000E+03 0.  1.
      622    1    1    2    0    0  0.54374069976E-03  0.34331201357E-03  0.39393161859E+01  0.39393208077E+01  0.60000000000E-02 0.  1.
</event>
<event>
 5   0  0.1211800E+10  0.9118800E+02  0.7818608E-02  0.1180000E+00
       11   -1    0    0    0    0  0.00000000000E+00  0.00000000000E+00  0.39999999673E+01  0.40000000000E+01  0.51109989000E-03 0.  1.
     -623   -1    0    0    0    0  0.00000000000E+00  0.00000000000E+00  0.12525980253E-10  0.17130000000E+03  0.17130000000E+03 0. -1.
       11    1    1    2    0    0 -0.10198074971E-03 -0.15958836125E-02  0.48294076785E-01  0.48323248238E-01  0.51109989000E-03 0.  1.
     -623    1    1    2    0    0  0.71895741126E-04  0.45897435143E-04  0.33997961997E-04  0.17130000000E+03  0.17130000000E+03 0. -1.
      622    1    1    2    0    0  0.30085008440E-04  0.15499861773E-02  0.39516719006E+01  0.39516767597E+01  0.60000000000E-02 0.  1.
</event>
<event>
 5   0  0.1211800E+10  0.9118800E+02  0.7818608E-02  0.1180000E+00
       11   -1    0    0    0    0  0.00000000000E+00  0.00000000000E+00  0.39999999673E+01  0.40000000000E+01  0.51109989000E-03 0. -1.
     -623   -1    0    0    0    0  0.00000000000E+00  0.00000000000E+00  0.12525980253E-10  0.17130000000E+03  0.17130000000E+03 0.  1.
       11    1    1    2    0    0  0.11030675924E-02 -0.18827068278E-02  0.52998807491E+00  0.52999281327E+00  0.51109989000E-03 0. -1.
     -623    1    1    2    0    0 -0.51294684693E-04 -0.56026372250E-04  0.10594041096E-04  0.17130000000E+03  0.17130000000E+03 0.  1.
      622    1    1    2    0    0 -0.10517729073E-02  0.19387332005E-02  0.34700013337E+01  0.34700072220E+01  0.60000000000E-02 0. -1.
</event>
<event>
 5   0  0.1211800E+10  0.9118800E+02  0.7818608E-02  0.1180000E+00
       11   -1    0    0    0    0  0.00000000000E+00  0.00000000000E+00  0.39999999673E+01  0.40000000000E+01  0.51109989000E-03 0. -1.
     -623   -1    0    0    0    0  0.00000000000E+00  0.00000000000E+00  0.12525980253E-10  0.17130000000E+03  0.17130000000E+03 0. -1.
       11    1    1    2    0    0  0.16496640725E-02  0.52745076612E-03  0.80348191060E-01  0.80368480299E-01  0.51109989000E-03 0. -1.
     -623    1    1    2    0    0 -0.24623446240E-02 -0.51395769281E-02  0.27741408432E-04  0.17130000009E+03  0.17130000000E+03 0. -1.
      622    1    1    2    0    0  0.81268055753E-03  0.46121261745E-02  0.39196240447E+01  0.39196314347E+01  0.60000000000E-02 0. -1.
</event>
<event>
 5   0  0.1211800E+10  0.9118800E+02  0.7818608E-02  0.1180000E+00
       11   -1    0    0    0    0  0.00000000000E+00  0.00000000000E+00  0.39999999673E+01  0.40000000000E+01  0.51109989000E-03 0.  1.
     -623   -1    0    0    0    0  0.00000000000E+00  0.00000000000E+00  0.12525980253E-10  0.17130000000E+03  0.17130000000E+03 0.  1.
       11    1    1    2    0    0 -0.93075726684E-04 -0.49983444217E-04  0.13194872136E+00  0.13194975350E+00  0.51109989000E-03 0.  1.
     -623    1    1    2    0    0 -0.34167794090E-03 -0.50900743220E-03  0.57189363245E-05  0.17130000000E+03  0.17130000000E+03 0.  1.
      622    1    1    2    0    0  0.43475366759E-03  0.55899087641E-03  0.38680455271E+01  0.38680502454E+01  0.60000000000E-02 0.  1.
</event>
<event>
 5   0  0.1211800E+10  0.9118800E+02  0.7818608E-02  0.1180000E+00
       11   -1    0    0    0    0  0.00000000000E+00  0.00000000000E+00  0.39999999673E+01  0.40000000000E+01  0.51109989000E-03 0. -1.
     -623   -1    0    0    0    0  0.00000000000E+00  0.00000000000E+00  0.12525980253E-10  0.17130000000E+03  0.17130000000E+03 0. -1.
       11    1    1    2    0    0  0.14962148175E-02 -0.28870556306E-03  0.36847960450E+00  0.36848310974E+00  0.51109989000E-03 0. -1.
     -623    1    1    2    0    0 -0.15248532706E-02 -0.80950889468E-03  0.86040813101E-05  0.17130000001E+03  0.17130000000E+03 0. -1.
      622    1    1    2    0    0  0.28638472702E-04  0.10982144682E-02  0.36315118104E+01  0.36315169332E+01  0.60000000000E-02 0. -1.
</event>
<event>
 5   0  0.1211800E+10  0.9118800E+02  0.7818608E-02  0.1180000E+00
       11   -1    0    0    0    0  0.00000000000E+00  0.00000000000E+00  0.39999999673E+01  0.40000000000E+01  0.51109989000E-03 0.  1.
     -623   -1    0    0    0    0  0.00000000000E+00  0.00000000000E+00  0.12525980253E-10  0.17130000000E+03  0.17130000000E+03 0.  1.
       11    1    1    2    0    0  0.82838670278E-03  0.20918116745E-02  0.27169030185E+00  0.27170009798E+00  0.51109989000E-03 0.  1.
     -623    1    1    2    0    0  0.36791790345E-04 -0.87583897084E-04  0.15230553307E-04  0.17130000000E+03  0.17130000000E+03 0.  1.
      622    1    1    2    0    0 -0.86517849308E-03 -0.20042277775E-02  0.37282944307E+01  0.37282998977E+01  0.60000000000E-02 0.  1.
</event>
<event>
 5   0  0.1211800E+10  0.9118800E+02  0.7818608E-02  0.1180000E+00
       11   -1    0    0    0    0  0.00000000000E+00  0.00000000000E+00  0.39999999673E+01  0.40000000000E+01  0.51109989000E-03 0. -1.
     -623   -1    0    0    0    0  0.00000000000E+00  0.00000000000E+00  0.12525980253E-10  0.17130000000E+03  0.17130000000E+03 0. -1.
       11    1    1    2    0    0 -0.14216063599E-01  0.46962028680E-02  0.89923317584E+00  0.89935794684E+00  0.51109989000E-03 0. -1.
     -623    1    1    2    0    0  0.26101612132E-01  0.31548629485E-02  0.16528151866E-03  0.17130000202E+03  0.17130000000E+03 0. -1.
      622    1    1    2    0    0 -0.11885548546E-01 -0.78510658181E-02  0.31006015120E+01  0.31006400374E+01  0.60000000000E-02 0. -1.
</event>
<event>
 5   0  0.1211800E+10  0.9118800E+02  0.7818608E-02  0.1180000E+00
       11   -1    0    0    0    0  0.00000000000E+00  0.00000000000E+00  0.39999999673E+01  0.40000000000E+01  0.51109989000E-03 0.  1.
     -623   -1    0    0    0    0  0.00000000000E+00  0.00000000000E+00  0.12525980253E-10  0.17130000000E+03  0.17130000000E+03 0.  1.
       11    1    1    2    0    0 -0.10465787489E-01 -0.68964645423E-02  0.11394023675E+01  0.11394714170E+01  0.51109989000E-03 0.  1.
     -623    1    1    2    0    0  0.52403746524E-03 -0.46635430813E-03  0.10206304704E-03  0.17130000000E+03  0.17130000000E+03 0.  1.
      622    1    1    2    0    0  0.99417500240E-02  0.73628188505E-02  0.28604955368E+01  0.28605285815E+01  0.60000000000E-02 0.  1.
</event>
<event>
 5   0  0.1211800E+10  0.9118800E+02  0.7818608E-02  0.1180000E+00
       11   -1    0    0    0    0  0.00000000000E+00  0.00000000000E+00  0.39999999673E+01  0.40000000000E+01  0.51109989000E-03 0. -1.
     -623   -1    0    0    0    0  0.00000000000E+00  0.00000000000E+00  0.12525980253E-10  0.17130000000E+03  0.17130000000E+03 0.  1.
       11    1    1    2    0    0 -0.97492131482E-03  0.12762621271E-02  0.86990409651E+00  0.86990572919E+00  0.51109989000E-03 0. -1.
     -623    1    1    2    0    0  0.48848835827E-04 -0.26747609706E-04  0.77370667899E-05  0.17130000000E+03  0.17130000000E+03 0.  1.
      622    1    1    2    0    0  0.92607247908E-03 -0.12495145174E-02  0.31300881268E+01  0.31300942638E+01  0.60000000000E-02 0. -1.
</event>
<event>
 5   0  0.1211800E+10  0.9118800E+02  0.7818608E-02  0.1180000E+00
       11   -1    0    0    0    0  0.00000000000E+00  0.00000000000E+00  0.39999999673E+01  0.40000000000E+01  0.51109989000E-03 0.  1.
     -623   -1    0    0    0    0  0.00000000000E+00  0.00000000000E+00  0.12525980253E-10  0.17130000000E+03  0.17130000000E+03 0.  1.
       11    1    1    2    0    0 -0.25160079709E-03  0.17934606393E-02  0.36796136539E+00  0.36796617704E+00  0.51109989000E-03 0.  1.
     -623    1    1    2    0    0 -0.39414060947E-03 -0.92713721042E-03  0.98986013306E-05  0.17130000000E+03  0.17130000000E+03 0.  1.
      622    1    1    2    0    0  0.64574140911E-03 -0.86632342286E-03  0.36320287292E+01  0.36320338458E+01  0.60000000000E-02 0.  1.
</event>
<event>
 5   0  0.1211800E+10  0.9118800E+02  0.7818608E-02  0.1180000E+00
       11   -1    0    0    0    0  0.00000000000E+00  0.00000000000E+00  0.39999999673E+01  0.40000000000E+01  0.51109989000E-03 0. -1.
     -623   -1    0    0    0    0  0.00000000000E+00  0.00000000000E+00  0.12525980253E-10  0.17130000000E+03  0.17130000000E+03 0. -1.
       11    1    1    2    0    0 -0.38318729654E-03 -0.36172970332E-02  0.85564553373E+00  0.85565341833E+00  0.51109989000E-03 0. -1.
     -623    1    1    2    0    0 -0.20126906686E-03  0.23608061741E-03  0.15449085645E-04  0.17130000000E+03  0.17130000000E+03 0. -1.
      622    1    1    2    0    0  0.58445636340E-03  0.33812164158E-02  0.31443389845E+01  0.31443465814E+01  0.60000000000E-02 0. -1.
</event>
<event>
 5   0  0.1211800E+10  0.9118800E+02  0.7818608E-02  0.1180000E+00
       11   -1    0    0    0    0  0.00000000000E+00  0.00000000000E+00  0.39999999673E+01  0.40000000000E+01  0.51109989000E-03 0. -1.
     -623   -1    0    0    0    0  0.00000000000E+00  0.00000000000E+00  0.12525980253E-10  0.17130000000E+03  0.17130000000E+03 0. -1.
       11    1    1    2    0    0  0.11482020897E-02 -0.63268253002E-03  0.45815497983E+00  0.45815714053E+00  0.51109989000E-03 0. -1.
     -623    1    1    2    0    0  0.84904913998E-04 -0.14353264424E-03  0.75099598349E-05  0.17130000000E+03  0.17130000000E+03 0. -1.
      622    1    1    2    0    0 -0.12331070037E-02  0.77621517426E-03  0.35418374776E+01  0.35418428594E+01  0.60000000000E-02 0. -1.
</event>
<event>
 5   0  0.1211800E+10  0.9118800E+02  0.7818608E-02  0.1180000E+00
       11   -1    0    0    0    0  0.00000000000E+00  0.00000000000E+00  0.39999999673E+01  0.40000000000E+01  0.51109989000E-03 0.  1.
     -623   -1    0    0    0    0  0.00000000000E+00  0.00000000000E+00  0.12525980253E-10  0.17130000000E+03  0.17130000000E+03 0.  1.
       11    1    1    2    0    0  0.87481226980E-03 -0.72665790031E-03  0.84294260470E+00  0.84294352679E+00  0.51109989000E-03 0.  1.
     -623    1    1    2    0    0 -0.22160889739E-03 -0.31854996816E-03  0.68320083129E-05  0.17130000000E+03  0.17130000000E+03 0.  1.
      622    1    1    2    0    0 -0.65320337242E-03  0.10452078685E-02  0.31570505307E+01  0.31570564728E+01  0.60000000000E-02 0. -1.
</event>
<event>
 5   0  0.1211800E+10  0.9118800E+02  0.7818608E-02  0.1180000E+00
       11   -1    0    0    0    0  0.00000000000E+00  0.00000000000E+00  0.39999999673E+01  0.40000000000E+01  0.51109989000E-03 0.  1.
     -623   -1    0    0    0    0  0.00000000000E+00  0.00000000000E+00  0.12525980253E-10  0.17130000000E+03  0.17130000000E+03 0.  1.
       11    1    1    2    0    0 -0.11854637282E-03 -0.50597086353E-03  0.64092366655E-01  0.64096511187E-01  0.51109989000E-03 0.  1.
     -623    1    1    2    0    0  0.21116218717E-03  0.48361760016E-03  0.86871431368E-05  0.17130000000E+03  0.17130000000E+03 0.  1.
      622    1    1    2    0    0 -0.92615815560E-04  0.22353260603E-04  0.39358989364E+01  0.39359035109E+01  0.60000000000E-02 0.  1.
</event>
<event>
 5   0  0.1211800E+10  0.9118800E+02  0.7818608E-02  0.1180000E+00
       11   -1    0    0    0    0  0.00000000000E+00  0.00000000000E+00  0.39999999673E+01  0.40000000000E+01  0.51109989000E-03 0. -1.
     -623   -1    0    0    0    0  0.00000000000E+00  0.00000000000E+00  0.12525980253E-10  0.17130000000E+03  0.17130000000E+03 0.  1.
       11    1    1    2    0    0  0.50517892407E-02 -0.44793231429E-02  0.14272618629E+00  0.14288670472E+00  0.51109989000E-03 0. -1.
     -623    1    1    2    0    0 -0.15336887455E-02  0.13363723702E-03  0.16921201694E-03  0.17130000001E+03  0.17130000000E+03 0.  1.
      622    1    1    2    0    0 -0.35181004952E-02  0.43456859059E-02  0.38571045691E+01  0.38571132883E+01  0.60000000000E-02 0. -1.
</event>
<event>
 5   0  0.1211800E+10  0.9118800E+02  0.7818608E-02  0.1180000E+00
       11   -1    0    0    0    0  0.00000000000E+00  0.00000000000E+00  0.39999999673E+01  0.40000000000E+01  0.51109989000E-03 0.  1.
     -623   -1    0    0    0    0  0.00000000000E+00  0.00000000000E+00  0.12525980253E-10  0.17130000000E+03  0.17130000000E+03 0.  1.
       11    1    1    2    0    0  0.34266430513E-03  0.12214127008E-02  0.27160344747E-01  0.27194757120E-01  0.51109989000E-03 0.  1.
     -623    1    1    2    0    0 -0.49966413190E-03 -0.22733499911E-02  0.39068728155E-04  0.17130000002E+03  0.17130000000E+03 0.  1.
      622    1    1    2    0    0  0.15699982678E-03  0.10519372903E-02  0.39728005539E+01  0.39728052271E+01  0.60000000000E-02 0.  1.
</event>
<event>
 5   0  0.1211800E+10  0.9118800E+02  0.7818608E-02  0.1180000E+00
       11   -1    0    0    0    0  0.00000000000E+00  0.00000000000E+00  0.39999999673E+01  0.40000000000E+01  0.51109989000E-03 0. -1.
     -623   -1    0    0    0    0  0.00000000000E+00  0.00000000000E+00  0.12525980253E-10  0.17130000000E+03  0.17130000000E+03 0.  1.
       11    1    1    2    0    0 -0.77416472417E-03 -0.74650709095E-03  0.27325024886E+00  0.27325284322E+00  0.51109989000E-03 0. -1.
     -623    1    1    2    0    0  0.12407849169E-02  0.35625136493E-03  0.74461805513E-05  0.17130000000E+03  0.17130000000E+03 0.  1.
      622    1    1    2    0    0 -0.46662019271E-03  0.39025572602E-03  0.37267422723E+01  0.37267471519E+01  0.60000000000E-02 0. -1.
</event>
<event>
 5   0  0.1211800E+10  0.9118800E+02  0.7818608E-02  0.1180000E+00
       11   -1    0    0    0    0  0.00000000000E+00  0.00000000000E+00  0.39999999673E+01  0.40000000000E+01  0.51109989000E-03 0. -1.
     -623   -1    0    0    0    0  0.00000000000E+00  0.00000000000E+00  0.12525980253E-10  0.17130000000E+03  0.17130000000E+03 0.  1.
       11    1    1    2    0    0  0.35024530114E-02 -0.34895539182E-02  0.54320513869E+00  0.54322787859E+00  0.51109989000E-03 0. -1.
     -623    1    1    2    0    0  0.57205196967E-03  0.11758908803E-02  0.31095038447E-04  0.17130000000E+03  0.17130000000E+03 0.  1.
      622    1    1    2    0    0 -0.40745049814E-02  0.23136630373E-02  0.34567637357E+01  0.34567721185E+01  0.60000000000E-02 0. -1.
</event>
<event>
 5   0  0.1211800E+10  0.9118800E+02  0.7818608E-02  0.1180000E+00
       11   -1    0    0    0    0  0.00000000000E+00  0.00000000000E+00  0.39999999673E+01  0.40000000000E+01  0.51109989000E-03 0.  1.
     -623   -1    0    0    0    0  0.00000000000E+00  0.00000000000E+00  0.12525980253E-10  0.17130000000E+03  0.17130000000E+03 0.  1.
       11    1    1    2    0    0  0.76782866923E-04 -0.34949372119E-02  0.68983350393E+00  0.68984255076E+00  0.51109989000E-03 0.  1.
     -623    1    1    2    0    0 -0.29463726774E-03  0.42300054082E-04  0.16260065846E-04  0.17130000000E+03  0.17130000000E+03 0.  1.
      622    1    1    2    0    0  0.21785440344E-03  0.34526371575E-02  0.33101502389E+01  0.33101574845E+01  0.60000000000E-02 0.  1.
</event>
<event>
 5   0  0.1211800E+10  0.9118800E+02  0.7818608E-02  0.1180000E+00
       11   -1    0    0    0    0  0.00000000000E+00  0.00000000000E+00  0.39999999673E+01  0.40000000000E+01  0.51109989000E-03 0. -1.
     -623   -1    0    0    0    0  0.00000000000E+00  0.00000000000E+00  0.12525980253E-10  0.17130000000E+03  0.17130000000E+03 0. -1.
       11    1    1    2    0    0 -0.31956290340E-02  0.37475019161E-03  0.45385239451E-01  0.45502018251E-01  0.51109989000E-03 0. -1.
     -623    1    1    2    0    0  0.34957098198E-02 -0.19837051341E-02  0.12168384152E-03  0.17130000005E+03  0.17130000000E+03 0. -1.
      622    1    1    2    0    0 -0.30008078582E-03  0.16089549425E-02  0.39544930441E+01  0.39544979346E+01  0.60000000000E-02 0. -1.
</event>
<event>
 5   0  0.1211800E+10  0.9118800E+02  0.7818608E-02  0.1180000E+00
       11   -1    0    0    0    0  0.00000000000E+00  0.00000000000E+00  0.39999999673E+01  0.40000000000E+01  0.51109989000E-03 0. -1.
     -623   -1    0    0    0    0  0.00000000000E+00  0.00000000000E+00  0.12525980253E-10  0.17130000000E+03  0.17130000000E+03 0. -1.
       11    1    1    2    0    0 -0.23065229950E-02 -0.14448910059E-02  0.89693039262E+00  0.89693466774E+00  0.51109989000E-03 0. -1.
     -623    1    1    2    0    0  0.16382714314E-02  0.21164283017E-02  0.10208724539E-04  0.17130000002E+03  0.17130000000E+03 0. -1.
      622    1    1    2    0    0  0.66825156361E-03 -0.67153729577E-03  0.31030593660E+01  0.31030653114E+01  0.60000000000E-02 0. -1.
</event>
<event>
 5   0  0.1211800E+10  0.9118800E+02  0.7818608E-02  0.1180000E+00
       11   -1    0    0    0    0  0.00000000000E+00  0.00000000000E+00  0.39999999673E+01  0.40000000000E+01  0.51109989000E-03 0. -1.
     -623   -1    0    0    0    0  0.00000000000E+00  0.00000000000E+00  0.12525980253E-10  0.17130000000E+03  0.17130000000E+03 0. -1.
       11    1    1    2    0    0  0.59256363878E-03  0.24409004778E-03  0.43272695798E-01  0.43280459037E-01  0.51109989000E-03 0. -1.
     -623    1    1    2    0    0  0.86919013461E-04 -0.66779729120E-03  0.12362178611E-04  0.17130000000E+03  0.17130000000E+03 0. -1.
      622    1    1    2    0    0 -0.67948265224E-03  0.42370724342E-03  0.39567149094E+01  0.39567195396E+01  0.60000000000E-02 0. -1.
</event>
<event>
 5   0  0.1211800E+10  0.9118800E+02  0.7818608E-02  0.1180000E+00
       11   -1    0    0    0    0  0.00000000000E+00  0.00000000000E+00  0.39999999673E+01  0.40000000000E+01  0.51109989000E-03 0. -1.
     -623   -1    0    0    0    0  0.00000000000E+00  0.00000000000E+00  0.12525980253E-10  0.17130000000E+03  0.17130000000E+03 0. -1.
       11    1    1    2    0    0 -0.65952474524E-02 -0.68357892127E-03  0.13837327292E+00  0.13853298687E+00  0.51109989000E-03 0. -1.
     -623    1    1    2    0    0  0.17486877920E-02 -0.16992338853E-02  0.16813685450E-03  0.17130000002E+03  0.17130000000E+03 0. -1.
      622    1    1    2    0    0  0.48465596604E-02  0.23828128066E-02  0.38614585576E+01  0.38614669957E+01  0.60000000000E-02 0. -1.
</event>
<event>
 5   0  0.1211800E+10  0.9118800E+02  0.7818608E-02  0.1180000E+00
       11   -1    0    0    0    0  0.00000000000E+00  0.00000000000E+00  0.39999999673E+01  0.40000000000E+01  0.51109989000E-03 0.  1.
     -623   -1    0    0    0    0  0.00000000000E+00  0.00000000000E+00  0.12525980253E-10  0.17130000000E+03  0.17130000000E+03 0. -1.
       11    1    1    2    0    0  0.52169258405E-02  0.38334140180E-02  0.77101645220E+00  0.77104380041E+00  0.51109989000E-03 0.  1.
     -623    1    1    2    0    0  0.95745058779E-04  0.15744086154E-03  0.39727053271E-04  0.17130000000E+03  0.17130000000E+03 0. -1.
      622    1    1    2    0    0 -0.53126708993E-02 -0.39908548795E-02  0.32289437881E+01  0.32289561995E+01  0.60000000000E-02 0.  1.
</event>
<event>
 5   0  0.1211800E+10  0.9118800E+02  0.7818608E-02  0.1180000E+00
       11   -1    0    0    0    0  0.00000000000E+00  0.00000000000E+00  0.39999999673E+01  0.40000000000E+01  0.51109989000E-03 0.  1.
     -623   -1    0    0    0    0  0.00000000000E+00  0.00000000000E+00  0.12525980253E-10  0.17130000000E+03  0.17130000000E+03 0.  1.
       11    1    1    2    0    0 -0.13591427550E-02 -0.23772011548E-02  0.11036840351E+01  0.11036875504E+01  0.51109989000E-03 0.  1.
     -623    1    1    2    0    0  0.13811688153E-02 -0.15343039625E-02  0.12351265408E-04  0.17130000001E+03  0.17130000000E+03 0.  1.
      622    1    1    2    0    0 -0.22026067343E-04  0.39115051251E-02  0.28963036016E+01  0.28963124577E+01  0.60000000000E-02 0.  1.
</event>
<event>
 5   0  0.1211800E+10  0.9118800E+02  0.7818608E-02  0.1180000E+00
       11   -1    0    0    0    0  0.00000000000E+00  0.00000000000E+00  0.39999999673E+01  0.40000000000E+01  0.51109989000E-03 0.  1.
     -623   -1    0    0    0    0  0.00000000000E+00  0.00000000000E+00  0.12525980253E-10  0.17130000000E+03  0.17130000000E+03 0.  1.
       11    1    1    2    0    0  0.33008965950E-03 -0.31848101110E-02  0.11784364032E+01  0.11784408638E+01  0.51109989000E-03 0.  1.
     -623    1    1    2    0    0 -0.59196419584E-03  0.18845398290E-02  0.11130612540E-04  0.17130000001E+03  0.17130000000E+03 0.  1.
      622    1    1    2    0    0  0.26187453635E-03  0.13002702820E-02  0.28215524336E+01  0.28215591248E+01  0.60000000000E-02 0. -1.
</event>
<event>
 5   0  0.1211800E+10  0.9118800E+02  0.7818608E-02  0.1180000E+00
       11   -1    0    0    0    0  0.00000000000E+00  0.00000000000E+00  0.39999999673E+01  0.40000000000E+01  0.51109989000E-03 0.  1.
     -623   -1    0    0    0    0  0.00000000000E+00  0.00000000000E+00  0.12525980253E-10  0.17130000000E+03  0.17130000000E+03 0.  1.
       11    1    1    2    0    0  0.11599089751E-03  0.43817192055E-03  0.32640209592E-01  0.32647357532E-01  0.51109989000E-03 0.  1.
     -623    1    1    2    0    0 -0.54538973109E-04  0.57805775533E-04  0.11683830124E-04  0.17130000000E+03  0.17130000000E+03 0.  1.
      622    1    1    2    0    0 -0.61451924351E-04 -0.49597769613E-03  0.39673480775E+01  0.39673526460E+01  0.60000000000E-02 0.  1.
</event>
<event>
 5   0  0.1211800E+10  0.9118800E+02  0.7818608E-02  0.1180000E+00
       11   -1    0    0    0    0  0.00000000000E+00  0.00000000000E+00  0.39999999673E+01  0.40000000000E+01  0.51109989000E-03 0.  1.
     -623   -1    0    0    0    0  0.00000000000E+00  0.00000000000E+00  0.12525980253E-10  0.17130000000E+03  0.17130000000E+03 0.  1.
       11    1    1    2    0    0 -0.42006223248E-03 -0.14769120882E-03  0.88768577362E-02  0.89027013507E-02  0.51109989000E-03 0.  1.
     -623    1    1    2    0    0  0.53741997849E-05 -0.24438480723E-03  0.30361993948E-04  0.17130000000E+03  0.17130000000E+03 0.  1.
      622    1    1    2    0    0  0.41468803270E-03  0.39207601590E-03  0.39910927452E+01  0.39910972961E+01  0.60000000000E-02 0.  1.
</event>
<event>
 5   0  0.1211800E+10  0.9118800E+02  0.7818608E-02  0.1180000E+00
       11   -1    0    0    0    0  0.00000000000E+00  0.00000000000E+00  0.39999999673E+01  0.40000000000E+01  0.51109989000E-03 0.  1.
     -623   -1    0    0    0    0  0.00000000000E+00  0.00000000000E+00  0.12525980253E-10  0.17130000000E+03  0.17130000000E+03 0. -1.
       11    1    1    2    0    0  0.12690965423E-01 -0.11863784712E-02  0.11551779337E+00  0.11622000647E+00  0.51109989000E-03 0.  1.
     -623    1    1    2    0    0 -0.10423227129E-01  0.37728861250E-02  0.70869859647E-03  0.17130000036E+03  0.17130000000E+03 0. -1.
      622    1    1    2    0    0 -0.22677382945E-02 -0.25865076538E-02  0.38837734754E+01  0.38837796334E+01  0.60000000000E-02 0.  1.
</event>
<event>
 5   0  0.1211800E+10  0.9118800E+02  0.7818608E-02  0.1180000E+00
       11   -1    0    0    0    0  0.00000000000E+00  0.00000000000E+00  0.39999999673E+01  0.40000000000E+01  0.51109989000E-03 0. -1.
     -623   -1    0    0    0    0  0.00000000000E+00  0.00000000000E+00  0.12525980253E-10  0.17130000000E+03  0.17130000000E+03 0.  1.
       11    1    1    2    0    0 -0.23533229085E-03 -0.34906619570E-03  0.40100719296E-01  0.40106185779E-01  0.51109989000E-03 0. -1.
     -623    1    1    2    0    0 -0.15848919885E-02  0.12743413881E-02  0.10517941825E-04  0.17130000001E+03  0.17130000000E+03 0.  1.
      622    1    1    2    0    0  0.18202242794E-02 -0.92527519236E-03  0.39598887301E+01  0.39598938021E+01  0.60000000000E-02 0. -1.
</event>
<event>
 5   0  0.1211800E+10  0.9118800E+02  0.7818608E-02  0.1180000E+00
       11   -1    0    0    0    0  0.00000000000E+00  0.00000000000E+00  0.39999999673E+01  0.40000000000E+01  0.51109989000E-03 0.  1.
     -623   -1    0    0    0    0  0.00000000000E+00  0.00000000000E+00  0.12525980253E-10  0.17130000000E+03  0.17130000000E+03 0.  1.
       11    1    1    2    0    0 -0.51691677450E-03  0.11742996129E-02  0.51509707030E+00  0.51509892179E+00  0.51109989000E-03 0.  1.
     -623    1    1    2    0    0 -0.12005132039E-03 -0.38331612551E-03  0.71324507109E-05  0.17130000000E+03  0.17130000000E+03 0.  1.
      622    1    1    2    0    0  0.63696809489E-03 -0.79098348741E-03  0.34848957646E+01  0.34849010777E+01  0.60000000000E-02 0.  1.
</event>
<event>
 5   0  0.1211800E+10  0.9118800E+02  0.7818608E-02  0.1180000E+00
       11   -1    0    0    0    0  0.00000000000E+00  0.00000000000E+00  0.39999999673E+01  0.40000000000E+01  0.51109989000E-03 0.  1.
     -623   -1    0    0    0    0  0.00000000000E+00  0.00000000000E+00  0.12525980253E-10  0.17130000000E+03  0.17130000000E+03 0. -1.
       11    1    1    2    0    0 -0.23442335084E-03 -0.11376654050E-02  0.69212813171E+00  0.69212929512E+00  0.51109989000E-03 0.  1.
     -623    1    1    2    0    0 -0.32897889822E-03  0.71458100370E-03  0.66491841029E-05  0.17130000000E+03  0.17130000000E+03 0. -1.
      622    1    1    2    0    0  0.56340224906E-03  0.42308440131E-03  0.33078651865E+01  0.33078707031E+01  0.60000000000E-02 0.  1.
</event>
<event>
 5   0  0.1211800E+10  0.9118800E+02  0.7818608E-02  0.1180000E+00
       11   -1    0    0    0    0  0.00000000000E+00  0.00000000000E+00  0.39999999673E+01  0.40000000000E+01  0.51109989000E-03 0. -1.
     -623   -1    0    0    0    0  0.00000000000E+00  0.00000000000E+00  0.12525980253E-10  0.17130000000E+03  0.17130000000E+03 0. -1.
       11    1    1    2    0    0  0.64181943047E-03  0.17657985874E-03  0.93313397799E-01  0.93317171743E-01  0.51109989000E-03 0. -1.
     -623    1    1    2    0    0 -0.27418503622E-03  0.36957894074E-03  0.84048894262E-05  0.17130000000E+03  0.17130000000E+03 0. -1.
      622    1    1    2    0    0 -0.36763439425E-03 -0.54615879948E-03  0.39066781647E+01  0.39066828276E+01  0.60000000000E-02 0. -1.
</event>
<event>
 5   0  0.1211800E+10  0.9118800E+02  0.7818608E-02  0.1180000E+00
       11   -1    0    0    0    0  0.00000000000E+00  0.00000000000E+00  0.39999999673E+01  0.40000000000E+01  0.51109989000E-03 0. -1.
     -623   -1    0    0    0    0  0.00000000000E+00  0.00000000000E+00  0.12525980253E-10  0.17130000000E+03  0.17130000000E+03 0.  1.
       11    1    1    2    0    0  0.37245934181E-03 -0.35107795814E-03  0.18103697358E+00  0.18103841859E+00  0.51109989000E-03 0. -1.
     -623    1    1    2    0    0 -0.92427910107E-04  0.12812088844E-02  0.62540548593E-05  0.17130000000E+03  0.17130000000E+03 0.  1.
      622    1    1    2    0    0 -0.28003143103E-03 -0.93013093557E-03  0.38189567688E+01  0.38189616057E+01  0.60000000000E-02 0. -1.
</event>
<event>
 5   0  0.1211800E+10  0.9118800E+02  0.7818608E-02  0.1180000E+00
       11   -1    0    0    0    0  0.00000000000E+00  0.00000000000E+00  0.39999999673E+01  0.40000000000E+01  0.51109989000E-03 0. -1.
     -623   -1    0    0    0    0  0.00000000000E+00  0.00000000000E+00  0.12525980253E-10  0.17130000000E+03  0.17130000000E+03 0.  1.
       11    1    1    2    0    0  0.80647218256E-03 -0.10032835248E-02  0.73843360682E+00  0.73843490565E+00  0.51109989000E-03 0. -1.
     -623    1    1    2    0    0  0.65447595521E-05  0.10077990270E-03  0.70112413932E-05  0.17130000000E+03  0.17130000000E+03 0.  1.
      622    1    1    2    0    0 -0.81301694212E-03  0.90250362209E-03  0.32615593493E+01  0.32615650943E+01  0.60000000000E-02 0. -1.
</event>
<event>
 5   0  0.1211800E+10  0.9118800E+02  0.7818608E-02  0.1180000E+00
       11   -1    0    0    0    0  0.00000000000E+00  0.00000000000E+00  0.39999999673E+01  0.40000000000E+01  0.51109989000E-03 0.  1.
     -623   -1    0    0    0    0  0.00000000000E+00  0.00000000000E+00  0.12525980253E-10  0.17130000000E+03  0.17130000000E+03 0. -1.
       11    1    1    2    0    0  0.99269776003E-03  0.30991697525E-02  0.14092775689E+00  0.14096625195E+00  0.51109989000E-03 0.  1.
     -623    1    1    2    0    0  0.10962331898E-01  0.58589929984E-03  0.63756073809E-04  0.17130000035E+03  0.17130000000E+03 0. -1.
      622    1    1    2    0    0 -0.11955029667E-01 -0.36850690529E-02  0.38590084577E+01  0.38590333996E+01  0.60000000000E-02 0.  1.
</event>
<event>
 5   0  0.1211800E+10  0.9118800E+02  0.7818608E-02  0.1180000E+00
       11   -1    0    0    0    0  0.00000000000E+00  0.00000000000E+00  0.39999999673E+01  0.40000000000E+01  0.51109989000E-03 0. -1.
     -623   -1    0    0    0    0  0.00000000000E+00  0.00000000000E+00  0.12525980253E-10  0.17130000000E+03  0.17130000000E+03 0.  1.
       11    1    1    2    0    0  0.36706340007E-03  0.21570604685E-02  0.31223524243E+00  0.31224332737E+00  0.51109989000E-03 0. -1.
     -623    1    1    2    0    0 -0.21982447854E-03  0.10195419316E-03  0.13628330048E-04  0.17130000000E+03  0.17130000000E+03 0.  1.
      622    1    1    2    0    0 -0.14723892153E-03 -0.22590146617E-02  0.36877510966E+01  0.36877566725E+01  0.60000000000E-02 0. -1.
</event>
<event>
 5   0  0.1211800E+10  0.9118800E+02  0.7818608E-02  0.1180000E+00
       11   -1    0    0    0    0  0.00000000000E+00  0.00000000000E+00  0.39999999673E+01  0.40000000000E+01  0.51109989000E-03 0. -1.
     -623   -1    0    0    0    0  0.00000000000E+00  0.00000000000E+00  0.12525980253E-10  0.17130000000E+03  0.17130000000E+03 0. -1.
       11    1    1    2    0    0  0.56534223647E-03  0.13179286914E-04  0.23623300858E-02  0.24822589998E-02  0.51109989000E-03 0. -1.
     -623    1    1    2    0    0 -0.16214306591E-02  0.24796823663E-03  0.12455500156E-03  0.17130000001E+03  0.17130000000E+03 0. -1.
      622    1    1    2    0    0  0.10560884226E-02 -0.26114752354E-03  0.39975130823E+01  0.39975177331E+01  0.60000000000E-02 0. -1.
</event>
<event>
 5   0  0.1211800E+10  0.9118800E+02  0.7818608E-02  0.1180000E+00
       11   -1    0    0    0    0  0.00000000000E+00  0.00000000000E+00  0.39999999673E+01  0.40000000000E+01  0.51109989000E-03 0. -1.
     -623   -1    0    0    0    0  0.00000000000E+00  0.00000000000E+00  0.12525980253E-10  0.17130000000E+03  0.17130000000E+03 0. -1.
       11    1    1    2    0    0 -0.85523512253E-03 -0.12545570382E-02  0.16751456587E+00  0.16752222641E+00  0.51109989000E-03 0. -1.
     -623    1    1    2    0    0  0.17027476691E-02  0.15824957750E-02  0.12448118628E-04  0.17130000002E+03  0.17130000000E+03 0. -1.
      622    1    1    2    0    0 -0.84751254248E-03 -0.32793873298E-03  0.38324729438E+01  0.38324777483E+01  0.60000000000E-02 0. -1.
</event>
<event>
 5   0  0.1211800E+10  0.9118800E+02  0.7818608E-02  0.1180000E+00
       11   -1    0    0    0    0  0.00000000000E+00  0.00000000000E+00  0.39999999673E+01  0.40000000000E+01  0.51109989000E-03 0.  1.
     -623   -1    0    0    0    0  0.00000000000E+00  0.00000000000E+00  0.12525980253E-10  0.17130000000E+03  0.17130000000E+03 0.  1.
       11    1    1    2    0    0  0.18331220650E-02  0.47701757706E-02  0.10027777626E+01  0.10027909140E+01  0.51109989000E-03 0.  1.
     -623    1    1    2    0    0 -0.23595525959E-02 -0.50489270130E-02  0.19274254698E-04  0.17130000009E+03  0.17130000000E+03 0.  1.
      622    1    1    2    0    0  0.52643053084E-03  0.27875124243E-03  0.29972029306E+01  0.29972089953E+01  0.60000000000E-02 0.  0.
</event>
<event>
 5   0  0.1211800E+10  0.9118800E+02  0.7818608E-02  0.1180000E+00
       11   -1    0    0    0    0  0.00000000000E+00  0.00000000000E+00  0.39999999673E+01  0.40000000000E+01  0.51109989000E-03 0. -1.
     -623   -1    0    0    0    0  0.00000000000E+00  0.00000000000E+00  0.12525980253E-10  0.17130000000E+03  0.17130000000E+03 0.  1.
       11    1    1    2    0    0  0.91382989950E-03  0.22871451562E-02  0.15210127291E+00  0.15212207125E+00  0.51109989000E-03 0. -1.
     -623    1    1    2    0    0  0.26688744279E-03  0.67947942823E-03  0.26769917474E-04  0.17130000000E+03  0.17130000000E+03 0.  1.
      622    1    1    2    0    0 -0.11807173428E-02 -0.29666245856E-02  0.38478719317E+01  0.38478779344E+01  0.60000000000E-02 0. -1.
</event>
<event>
 5   0  0.1211800E+10  0.9118800E+02  0.7818608E-02  0.1180000E+00
       11   -1    0    0    0    0  0.00000000000E+00  0.00000000000E+00  0.39999999673E+01  0.40000000000E+01  0.51109989000E-03 0.  1.
     -623   -1    0    0    0    0  0.00000000000E+00  0.00000000000E+00  0.12525980253E-10  0.17130000000E+03  0.17130000000E+03 0. -1.
       11    1    1    2    0    0 -0.23253916312E-03 -0.64520246955E-02  0.19277971250E+00  0.19288846899E+00  0.51109989000E-03 0.  1.
     -623    1    1    2    0    0  0.10085839456E-01  0.39581557570E-02  0.12736221426E-03  0.17130000034E+03  0.17130000000E+03 0. -1.
      622    1    1    2    0    0 -0.98533002881E-02  0.24938689403E-02  0.38070928909E+01  0.38071111865E+01  0.60000000000E-02 0.  1.
</event>
<event>
 5   0  0.1211800E+10  0.9118800E+02  0.7818608E-02  0.1180000E+00
       11   -1    0    0    0    0  0.00000000000E+00  0.00000000000E+00  0.39999999673E+01  0.40000000000E+01  0.51109989000E-03 0. -1.
     -623   -1    0    0    0    0  0.00000000000E+00  0.00000000000E+00  0.12525980253E-10  0.17130000000E+03  0.17130000000E+03 0.  1.
       11    1    1    2    0    0 -0.69241782461E-03  0.16489028700E-02  0.25069857786E+00  0.25070547758E+00  0.51109989000E-03 0. -1.
     -623    1    1    2    0    0  0.78074933834E-04 -0.15292246111E-04  0.12074224709E-04  0.17130000000E+03  0.17130000000E+03 0.  1.
      622    1    1    2    0    0  0.61434289077E-03 -0.16336106238E-02  0.37492893153E+01  0.37492945224E+01  0.60000000000E-02 0. -1.
</event>
<event>
 5   0  0.1211800E+10  0.9118800E+02  0.7818608E-02  0.1180000E+00
       11   -1    0    0    0    0  0.00000000000E+00  0.00000000000E+00  0.39999999673E+01  0.40000000000E+01  0.51109989000E-03 0.  1.
     -623   -1    0    0    0    0  0.00000000000E+00  0.00000000000E+00  0.12525980253E-10  0.17130000000E+03  0.17130000000E+03 0. -1.
       11    1    1    2    0    0 -0.42578563534E-03 -0.32506549117E-03  0.64076947930E-01  0.64081225332E-01  0.51109989000E-03 0.  1.
     -623    1    1    2    0    0  0.23907861858E-03  0.51861140508E-04  0.88321153999E-05  0.17130000000E+03  0.17130000000E+03 0. -1.
      622    1    1    2    0    0  0.18670701771E-03  0.27320435086E-03  0.39359141714E+01  0.39359187586E+01  0.60000000000E-02 0.  1.
</event>
<event>
 5   0  0.1211800E+10  0.9118800E+02  0.7818608E-02  0.1180000E+00
       11   -1    0    0    0    0  0.00000000000E+00  0.00000000000E+00  0.39999999673E+01  0.40000000000E+01  0.51109989000E-03 0. -1.
     -623   -1    0    0    0    0  0.00000000000E+00  0.00000000000E+00  0.12525980253E-10  0.17130000000E+03  0.17130000000E+03 0. -1.
       11    1    1    2    0    0 -0.17417301285E-03 -0.25914928624E-02  0.25148912512E+00  0.25150305654E+00  0.51109989000E-03 0. -1.
     -623    1    1    2    0    0 -0.54905922382E-04  0.11803517925E-03  0.19523814399E-04  0.17130000000E+03  0.17130000000E+03 0. -1.
      622    1    1    2    0    0  0.22907893524E-03  0.24734576832E-02  0.37484913184E+01  0.37484969434E+01  0.60000000000E-02 0. -1.
</event>
<event>
 5   0  0.1211800E+10  0.9118800E+02  0.7818608E-02  0.1180000E+00
       11   -1    0    0    0    0  0.00000000000E+00  0.00000000000E+00  0.39999999673E+01  0.40000000000E+01  0.51109989000E-03 0.  1.
     -623   -1    0    0    0    0  0.00000000000E+00  0.00000000000E+00  0.12525980253E-10  0.17130000000E+03  0.17130000000E+03 0. -1.
       11    1    1    2    0    0 -0.25158582329E-02 -0.15910411170E-02  0.33427833232E+00  0.33429197663E+00  0.51109989000E-03 0.  1.
     -623    1    1    2    0    0  0.14876256718E-03 -0.13224147090E-03  0.19691491605E-04  0.17130000000E+03  0.17130000000E+03 0. -1.
      622    1    1    2    0    0  0.23670956657E-02  0.17232825879E-02  0.36657019435E+01  0.36657080233E+01  0.60000000000E-02 0.  1.
</event>
<event>
 5   0  0.1211800E+10  0.9118800E+02  0.7818608E-02  0.1180000E+00
       11   -1    0    0    0    0  0.00000000000E+00  0.00000000000E+00  0.39999999673E+01  0.40000000000E+01  0.51109989000E-03 0. -1.
     -623   -1    0    0    0    0  0.00000000000E+00  0.00000000000E+00  0.12525980253E-10  0.17130000000E+03  0.17130000000E+03 0.  1.
       11    1    1    2    0    0 -0.14276897690E-02 -0.36311101612E-03  0.20420293296E-01  0.20479739921E-01  0.51109989000E-03 0. -1.
     -623    1    1    2    0    0  0.77791353140E-04 -0.13433439841E-03  0.64197270288E-04  0.17130000000E+03  0.17130000000E+03 0.  1.
      622    1    1    2    0    0  0.13498984159E-02  0.49744541453E-03  0.39795154768E+01  0.39795202600E+01  0.60000000000E-02 0. -1.
</event>
<event>
 5   0  0.1211800E+10  0.9118800E+02  0.7818608E-02  0.1180000E+00
       11   -1    0    0    0    0  0.00000000000E+00  0.00000000000E+00  0.39999999673E+01  0.40000000000E+01  0.51109989000E-03 0. -1.
     -623   -1    0    0    0    0  0.00000000000E+00  0.00000000000E+00  0.12525980253E-10  0.17130000000E+03  0.17130000000E+03 0. -1.
       11    1    1    2    0    0  0.30170531856E-02  0.70943393656E-02  0.32008943433E+00  0.32018266576E+00  0.51109989000E-03 0. -1.
     -623    1    1    2    0    0 -0.33724350592E-02 -0.78737974723E-02  0.98404237330E-04  0.17130000021E+03  0.17130000000E+03 0. -1.
      622    1    1    2    0    0  0.35538187363E-03  0.77945810672E-03  0.36798121288E+01  0.36798171201E+01  0.60000000000E-02 0. -1.
</event>
<event>
 5   0  0.1211800E+10  0.9118800E+02  0.7818608E-02  0.1180000E+00
       11   -1    0    0    0    0  0.00000000000E+00  0.00000000000E+00  0.39999999673E+01  0.40000000000E+01  0.51109989000E-03 0. -1.
     -623   -1    0    0    0    0  0.00000000000E+00  0.00000000000E+00  0.12525980253E-10  0.17130000000E+03  0.17130000000E+03 0.  1.
       11    1    1    2    0    0 -0.19371137983E-02  0.28683231675E-02  0.18434925039E-01  0.18763991366E-01  0.51109989000E-03 0. -1.
     -623    1    1    2    0    0 -0.19940010756E-03  0.21438202387E-03  0.33532223665E-03  0.17130000000E+03  0.17130000000E+03 0.  1.
      622    1    1    2    0    0  0.21365139058E-02 -0.30827051914E-02  0.39812297197E+01  0.39812360077E+01  0.60000000000E-02 0. -1.
</event>
<event>
 5   0  0.1211800E+10  0.9118800E+02  0.7818608E-02  0.1180000E+00
       11   -1    0    0    0    0  0.00000000000E+00  0.00000000000E+00  0.39999999673E+01  0.40000000000E+01  0.51109989000E-03 0.  1.
     -623   -1    0    0    0    0  0.00000000000E+00  0.00000000000E+00  0.12525980253E-10  0.17130000000E+03  0.17130000000E+03 0.  1.
       11    1    1    2    0    0  0.17362430722E-02 -0.52209850016E-02  0.78412207528E+00  0.78414154551E+00  0.51109989000E-03 0.  1.
     -623    1    1    2    0    0  0.11432024980E-03  0.47780851923E-02  0.25664482843E-04  0.17130000007E+03  0.17130000000E+03 0.  1.
      622    1    1    2    0    0 -0.18505633217E-02  0.44289981857E-03  0.32158522199E+01  0.32158583801E+01  0.60000000000E-02 0.  1.
</event>
<event>
 5   0  0.1211800E+10  0.9118800E+02  0.7818608E-02  0.1180000E+00
       11   -1    0    0    0    0  0.00000000000E+00  0.00000000000E+00  0.39999999673E+01  0.40000000000E+01  0.51109989000E-03 0.  1.
     -623   -1    0    0    0    0  0.00000000000E+00  0.00000000000E+00  0.12525980253E-10  0.17130000000E+03  0.17130000000E+03 0. -1.
       11    1    1    2    0    0 -0.46759586484E-03  0.14272269135E-03  0.25484053545E+00  0.25484151692E+00  0.51109989000E-03 0.  1.
     -623    1    1    2    0    0 -0.42312787387E-04 -0.18350303166E-04  0.57918242038E-05  0.17130000000E+03  0.17130000000E+03 0. -1.
      622    1    1    2    0    0  0.50990865216E-03 -0.12437238821E-03  0.37451536342E+01  0.37451584772E+01  0.60000000000E-02 0.  1.
</event>
<event>
 5   0  0.1211800E+10  0.9118800E+02  0.7818608E-02  0.1180000E+00
       11   -1    0    0    0    0  0.00000000000E+00  0.00000000000E+00  0.39999999673E+01  0.40000000000E+01  0.51109989000E-03 0. -1.
     -623   -1    0    0    0    0  0.00000000000E+00  0.00000000000E+00  0.12525980253E-10  0.17130000000E+03  0.17130000000E+03 0.  1.
       11    1    1    2    0    0  0.29162632176E-03  0.17662080242E-02  0.45402568250E-01  0.45440719223E-01  0.51109989000E-03 0. -1.
     -623    1    1    2    0    0  0.17665456387E-03 -0.15723829385E-02  0.42709832421E-04  0.17130000001E+03  0.17130000000E+03 0.  1.
      622    1    1    2    0    0 -0.46828088559E-03 -0.19382508611E-03  0.39545546883E+01  0.39545592725E+01  0.60000000000E-02 0. -1.
</event>
<event>
 5   0  0.1211800E+10  0.9118800E+02  0.7818608E-02  0.1180000E+00
       11   -1    0    0    0    0  0.00000000000E+00  0.00000000000E+00  0.39999999673E+01  0.40000000000E+01  0.51109989000E-03 0. -1.
     -623   -1    0    0    0    0  0.00000000000E+00  0.00000000000E+00  0.12525980253E-10  0.17130000000E+03  0.17130000000E+03 0. -1.
       11    1    1    2    0    0  0.89136747642E-03 -0.25553852975E-02  0.34620166460E+00  0.34621262011E+00  0.51109989000E-03 0. -1.
     -623    1    1    2    0    0  0.35957786948E-04 -0.29697875262E-04  0.16881437559E-04  0.17130000000E+03  0.17130000000E+03 0. -1.
      622    1    1    2    0    0 -0.92732526337E-03  0.25850831727E-02  0.36537814213E+01  0.36537873799E+01  0.60000000000E-02 0. -1.
</event>
<event>
 5   0  0.1211800E+10  0.9118800E+02  0.7818608E-02  0.1180000E+00
       11   -1    0    0    0    0  0.00000000000E+00  0.00000000000E+00  0.39999999673E+01  0.40000000000E+01  0.51109989000E-03 0.  1.
     -623   -1    0    0    0    0  0.00000000000E+00  0.00000000000E+00  0.12525980253E-10  0.17130000000E+03  0.17130000000E+03 0.  1.
       11    1    1    2    0    0 -0.40557045835E-03 -0.49499926254E-03  0.53365689687E+00  0.53365752530E+00  0.51109989000E-03 0.  1.
     -623    1    1    2    0    0 -0.39679312905E-03 -0.21142980560E-03  0.59540240915E-05  0.17130000000E+03  0.17130000000E+03 0.  1.
      622    1    1    2    0    0  0.80236358740E-03  0.70642906814E-03  0.34663371165E+01  0.34663424741E+01  0.60000000000E-02 0.  1.
</event>
<event>
 5   0  0.1211800E+10  0.9118800E+02  0.7818608E-02  0.1180000E+00
       11   -1    0    0    0    0  0.00000000000E+00  0.00000000000E+00  0.39999999673E+01  0.40000000000E+01  0.51109989000E-03 0. -1.
     -623   -1    0    0    0    0  0.00000000000E+00  0.00000000000E+00  0.12525980253E-10  0.17130000000E+03  0.17130000000E+03 0.  1.
       11    1    1    2    0    0 -0.80952784638E-03  0.17082113100E-02  0.49706861709E-01  0.49745418307E-01  0.51109989000E-03 0. -1.
     -623    1    1    2    0    0 -0.74344372564E-04  0.73133944346E-04  0.43581194123E-04  0.17130000000E+03  0.17130000000E+03 0.  1.
      622    1    1    2    0    0  0.88387221894E-03 -0.17813452544E-02  0.39502495245E+01  0.39502545817E+01  0.60000000000E-02 0. -1.
</event>
<event>
 5   0  0.1211800E+10  0.9118800E+02  0.7818608E-02  0.1180000E+00
       11   -1    0    0    0    0  0.00000000000E+00  0.00000000000E+00  0.39999999673E+01  0.40000000000E+01  0.51109989000E-03 0. -1.
     -623   -1    0    0    0    0  0.00000000000E+00  0.00000000000E+00  0.12525980253E-10  0.17130000000E+03  0.17130000000E+03 0.  1.
       11    1    1    2    0    0  0.34040144806E-03 -0.83646063290E-03  0.79152000915E+00  0.79152068934E+00  0.51109989000E-03 0. -1.
     -623    1    1    2    0    0  0.33231114843E-04  0.10439190678E-04  0.63857737604E-05  0.17130000000E+03  0.17130000000E+03 0.  1.
      622    1    1    2    0    0 -0.37363256306E-03  0.82602144217E-03  0.32084735907E+01  0.32084793289E+01  0.60000000000E-02 0. -1.
</event>
<event>
 5   0  0.1211800E+10  0.9118800E+02  0.7818608E-02  0.1180000E+00
       11   -1    0    0    0    0  0.00000000000E+00  0.00000000000E+00  0.39999999673E+01  0.40000000000E+01  0.51109989000E-03 0. -1.
     -623   -1    0    0    0    0  0.00000000000E+00  0.00000000000E+00  0.12525980253E-10  0.17130000000E+03  0.17130000000E+03 0.  1.
       11    1    1    2    0    0  0.72410047828E-02  0.49898769388E-02  0.14947979005E+00  0.14973910604E+00  0.51109989000E-03 0. -1.
     -623    1    1    2    0    0 -0.17979686993E-02 -0.48606087391E-02  0.26788649469E-03  0.17130000008E+03  0.17130000000E+03 0.  1.
      622    1    1    2    0    0 -0.54430360835E-02 -0.12926819971E-03  0.38502522908E+01  0.38502608154E+01  0.60000000000E-02 0. -1.
</event>
<event>
 5   0  0.1211800E+10  0.9118800E+02  0.7818608E-02  0.1180000E+00
       11   -1    0    0    0    0  0.00000000000E+00  0.00000000000E+00  0.39999999673E+01  0.40000000000E+01  0.51109989000E-03 0.  1.
     -623   -1    0    0    0    0  0.00000000000E+00  0.00000000000E+00  0.12525980253E-10  0.17130000000E+03  0.17130000000E+03 0. -1.
       11    1    1    2    0    0  0.77071894979E-03 -0.18859567934E-03  0.12995007644E+00  0.12995350386E+00  0.51109989000E-03 0.  1.
     -623    1    1    2    0    0 -0.84218171303E-04  0.50018657833E-04  0.81092866488E-05  0.17130000000E+03  0.17130000000E+03 0. -1.
      622    1    1    2    0    0 -0.68650077849E-03  0.13857702151E-03  0.38700417816E+01  0.38700464961E+01  0.60000000000E-02 0.  1.
</event>
<event>
 5   0  0.1211800E+10  0.9118800E+02  0.7818608E-02  0.1180000E+00
       11   -1    0    0    0    0  0.00000000000E+00  0.00000000000E+00  0.39999999673E+01  0.40000000000E+01  0.51109989000E-03 0. -1.
     -623   -1    0    0    0    0  0.00000000000E+00  0.00000000000E+00  0.12525980253E-10  0.17130000000E+03  0.17130000000E+03 0. -1.
       11    1    1    2    0    0 -0.19317099408E-02  0.93558229770E-04  0.49710560258E+00  0.49710962734E+00  0.51109989000E-03 0. -1.
     -623    1    1    2    0    0  0.20729414387E-02  0.49315441594E-03  0.91959743727E-05  0.17130000001E+03  0.17130000000E+03 0. -1.
      622    1    1    2    0    0 -0.14123149893E-03 -0.58671264595E-03  0.35028851708E+01  0.35028903614E+01  0.60000000000E-02 0. -1.
</event>
<event>
 5   0  0.1211800E+10  0.9118800E+02  0.7818608E-02  0.1180000E+00
       11   -1    0    0    0    0  0.00000000000E+00  0.00000000000E+00  0.39999999673E+01  0.40000000000E+01  0.51109989000E-03 0. -1.
     -623   -1    0    0    0    0  0.00000000000E+00  0.00000000000E+00  0.12525980253E-10  0.17130000000E+03  0.17130000000E+03 0. -1.
       11    1    1    2    0    0  0.14963390284E-03 -0.13446053264E-02  0.21189574651E+00  0.21190068184E+00  0.51109989000E-03 0. -1.
     -623    1    1    2    0    0 -0.38821646645E-04 -0.25132678982E-04  0.99036869381E-05  0.17130000000E+03  0.17130000000E+03 0. -1.
      622    1    1    2    0    0 -0.11081225619E-03  0.13697380054E-02  0.37880943172E+01  0.37880993181E+01  0.60000000000E-02 0. -1.
</event>
<event>
 5   0  0.1211800E+10  0.9118800E+02  0.7818608E-02  0.1180000E+00
       11   -1    0    0    0    0  0.00000000000E+00  0.00000000000E+00  0.39999999673E+01  0.40000000000E+01  0.51109989000E-03 0.  1.
     -623   -1    0    0    0    0  0.00000000000E+00  0.00000000000E+00  0.12525980253E-10  0.17130000000E+03  0.17130000000E+03 0. -1.
       11    1    1    2    0    0 -0.85713670016E-03 -0.40071075760E-02  0.12869886796E+00  0.12876510176E+00  0.51109989000E-03 0.  1.
     -623    1    1    2    0    0 -0.33196178024E-04 -0.16244467042E-03  0.73198754353E-04  0.17130000000E+03  0.17130000000E+03 0. -1.
      622    1    1    2    0    0  0.89033287819E-03  0.41695522465E-02  0.38712279017E+01  0.38712348992E+01  0.60000000000E-02 0.  1.
</event>
<event>
 5   0  0.1211800E+10  0.9118800E+02  0.7818608E-02  0.1180000E+00
       11   -1    0    0    0    0  0.00000000000E+00  0.00000000000E+00  0.39999999673E+01  0.40000000000E+01  0.51109989000E-03 0.  1.
     -623   -1    0    0    0    0  0.00000000000E+00  0.00000000000E+00  0.12525980253E-10  0.17130000000E+03  0.17130000000E+03 0.  1.
       11    1    1    2    0    0  0.53960197154E-03  0.41659341913E-02  0.61144933367E+00  0.61146397690E+00  0.51109989000E-03 0.  1.
     -623    1    1    2    0    0 -0.42155265417E-03 -0.36566167997E-02  0.20002502875E-04  0.17130000004E+03  0.17130000000E+03 0.  1.
      622    1    1    2    0    0 -0.11804931737E-03 -0.50931739164E-03  0.33885306312E+01  0.33885359836E+01  0.60000000000E-02 0.  0.
</event>
<event>
 5   0  0.1211800E+10  0.9118800E+02  0.7818608E-02  0.1180000E+00
       11   -1    0    0    0    0  0.00000000000E+00  0.00000000000E+00  0.39999999673E+01  0.40000000000E+01  0.51109989000E-03 0.  1.
     -623   -1    0    0    0    0  0.00000000000E+00  0.00000000000E+00  0.12525980253E-10  0.17130000000E+03  0.17130000000E+03 0. -1.
       11    1    1    2    0    0  0.34270626958E-02 -0.33369199694E-02  0.98612648481E-01  0.98729911664E-01  0.51109989000E-03 0.  1.
     -623    1    1    2    0    0 -0.66485379635E-04  0.16345802596E-03  0.12458269412E-03  0.17130000000E+03  0.17130000000E+03 0. -1.
      622    1    1    2    0    0 -0.33605773162E-02  0.31734619434E-02  0.39012627371E+01  0.39012700891E+01  0.60000000000E-02 0.  1.
</event>
<event>
 5   0  0.1211800E+10  0.9118800E+02  0.7818608E-02  0.1180000E+00
       11   -1    0    0    0    0  0.00000000000E+00  0.00000000000E+00  0.39999999673E+01  0.40000000000E+01  0.51109989000E-03 0.  1.
     -623   -1    0    0    0    0  0.00000000000E+00  0.00000000000E+00  0.12525980253E-10  0.17130000000E+03  0.17130000000E+03 0.  1.
       11    1    1    2    0    0 -0.74252434960E-03 -0.74122570513E-03  0.14234419364E+00  0.14234897767E+00  0.51109989000E-03 0.  1.
     -623    1    1    2    0    0  0.12277157864E-03  0.34133078197E-03  0.94883408628E-05  0.17130000000E+03  0.17130000000E+03 0.  1.
      622    1    1    2    0    0  0.61975277117E-03  0.39989492375E-03  0.38576462785E+01  0.38576510151E+01  0.60000000000E-02 0.  1.
</event>
<event>
 5   0  0.1211800E+10  0.9118800E+02  0.7818608E-02  0.1180000E+00
       11   -1    0    0    0    0  0.00000000000E+00  0.00000000000E+00  0.39999999673E+01  0.40000000000E+01  0.51109989000E-03 0. -1.
     -623   -1    0    0    0    0  0.00000000000E+00  0.00000000000E+00  0.12525980253E-10  0.17130000000E+03  0.17130000000E+03 0. -1.
       11    1    1    2    0    0 -0.59250751094E-03 -0.31410360568E-03  0.13551315391E+00  0.13551577706E+00  0.51109989000E-03 0. -1.
     -623    1    1    2    0    0 -0.47246805700E-04  0.70809178699E-05  0.73134709653E-05  0.17130000000E+03  0.17130000000E+03 0. -1.
      622    1    1    2    0    0  0.63975431672E-03  0.30702268780E-03  0.38644795066E+01  0.38644842296E+01  0.60000000000E-02 0. -1.
</event>
<event>
 5   0  0.1211800E+10  0.9118800E+02  0.7818608E-02  0.1180000E+00
       11   -1    0    0    0    0  0.00000000000E+00  0.00000000000E+00  0.39999999673E+01  0.40000000000E+01  0.51109989000E-03 0. -1.
     -623   -1    0    0    0    0  0.00000000000E+00  0.00000000000E+00  0.12525980253E-10  0.17130000000E+03  0.17130000000E+03 0.  1.
       11    1    1    2    0    0  0.11464072237E-02  0.16472790303E-03  0.11528988742E+01  0.11528995693E+01  0.51109989000E-03 0. -1.
     -623    1    1    2    0    0 -0.51530598636E-05 -0.42609605569E-04  0.72159813902E-05  0.17130000000E+03  0.17130000000E+03 0.  1.
      622    1    1    2    0    0 -0.11412541638E-02 -0.12211829746E-03  0.28470938771E+01  0.28471004307E+01  0.60000000000E-02 0. -1.
</event>
<event>
 5   0  0.1211800E+10  0.9118800E+02  0.7818608E-02  0.1180000E+00
       11   -1    0    0    0    0  0.00000000000E+00  0.00000000000E+00  0.39999999673E+01  0.40000000000E+01  0.51109989000E-03 0.  1.
     -623   -1    0    0    0    0  0.00000000000E+00  0.00000000000E+00  0.12525980253E-10  0.17130000000E+03  0.17130000000E+03 0.  1.
       11    1    1    2    0    0 -0.16453886419E-02 -0.15794583791E-02  0.76174170338E+00  0.76174528937E+00  0.51109989000E-03 0.  1.
     -623    1    1    2    0    0  0.15927152573E-04  0.19675019679E-05  0.99061061163E-05  0.17130000000E+03  0.17130000000E+03 0.  1.
      622    1    1    2    0    0  0.16294614893E-02  0.15774908771E-02  0.32382483579E+01  0.32382547106E+01  0.60000000000E-02 0.  1.
</event>
<event>
 5   0  0.1211800E+10  0.9118800E+02  0.7818608E-02  0.1180000E+00
       11   -1    0    0    0    0  0.00000000000E+00  0.00000000000E+00  0.39999999673E+01  0.40000000000E+01  0.51109989000E-03 0. -1.
     -623   -1    0    0    0    0  0.00000000000E+00  0.00000000000E+00  0.12525980253E-10  0.17130000000E+03  0.17130000000E+03 0.  1.
       11    1    1    2    0    0 -0.53359519792E-03  0.16622290906E-03  0.37997944576E+00  0.37998020051E+00  0.51109989000E-03 0. -1.
     -623    1    1    2    0    0 -0.23905586345E-04 -0.43487097906E-04  0.57394745570E-05  0.17130000000E+03  0.17130000000E+03 0.  1.
      622    1    1    2    0    0  0.55750078427E-03 -0.12273581116E-03  0.36200147821E+01  0.36200197995E+01  0.60000000000E-02 0. -1.
</event>
<event>
 5   0  0.1211800E+10  0.9118800E+02  0.7818608E-02  0.1180000E+00
       11   -1    0    0    0    0  0.00000000000E+00  0.00000000000E+00  0.39999999673E+01  0.40000000000E+01  0.51109989000E-03 0. -1.
     -623   -1    0    0    0    0  0.00000000000E+00  0.00000000000E+00  0.12525980253E-10  0.17130000000E+03  0.17130000000E+03 0.  1.
       11    1    1    2    0    0  0.32463142904E-03 -0.31351049029E-02  0.51321670337E+00  0.51322663621E+00  0.51109989000E-03 0. -1.
     -623    1    1    2    0    0  0.21530327438E-04  0.58288416993E-04  0.16437291612E-04  0.17130000000E+03  0.17130000000E+03 0.  1.
      622    1    1    2    0    0 -0.34616175631E-03  0.30768164864E-02  0.34867667968E+01  0.34867733339E+01  0.60000000000E-02 0.  0.
</event>
<event>
 5   0  0.1211800E+10  0.9118800E+02  0.7818608E-02  0.1180000E+00
       11   -1    0    0    0    0  0.00000000000E+00  0.00000000000E+00  0.39999999673E+01  0.40000000000E+01  0.51109989000E-03 0. -1.
     -623   -1    0    0    0    0  0.00000000000E+00  0.00000000000E+00  0.12525980253E-10  0.17130000000E+03  0.17130000000E+03 0.  1.
       11    1    1    2    0    0  0.11845015629E-02 -0.36256674566E-03  0.73696791281E+00  0.73696913113E+00  0.51109989000E-03 0. -1.
     -623    1    1    2    0    0  0.91327367575E-05  0.25339094045E-04  0.69377723815E-05  0.17130000000E+03  0.17130000000E+03 0.  1.
      622    1    1    2    0    0 -0.11936342996E-02  0.33722765190E-03  0.32630250717E+01  0.32630308238E+01  0.60000000000E-02 0. -1.
</event>
<event>
 5   0  0.1211800E+10  0.9118800E+02  0.7818608E-02  0.1180000E+00
       11   -1    0    0    0    0  0.00000000000E+00  0.00000000000E+00  0.39999999673E+01  0.40000000000E+01  0.51109989000E-03 0.  1.
     -623   -1    0    0    0    0  0.00000000000E+00  0.00000000000E+00  0.12525980253E-10  0.17130000000E+03  0.17130000000E+03 0. -1.
       11    1    1    2    0    0  0.34321830868E-02  0.15585655428E-02  0.44252028274E+00  0.44253663223E+00  0.51109989000E-03 0.  1.
     -623    1    1    2    0    0 -0.18792284143E-03  0.10782671327E-03  0.23246382855E-04  0.17130000000E+03  0.17130000000E+03 0. -1.
      622    1    1    2    0    0 -0.32442602454E-02 -0.16663922561E-02  0.35574564382E+01  0.35574633676E+01  0.60000000000E-02 0.  1.
</event>
<event>
 5   0  0.1211800E+10  0.9118800E+02  0.7818608E-02  0.1180000E+00
       11   -1    0    0    0    0  0.00000000000E+00  0.00000000000E+00  0.39999999673E+01  0.40000000000E+01  0.51109989000E-03 0.  1.
     -623   -1    0    0    0    0  0.00000000000E+00  0.00000000000E+00  0.12525980253E-10  0.17130000000E+03  0.17130000000E+03 0.  1.
       11    1    1    2    0    0  0.61619267714E-04 -0.43320077191E-02  0.20882252702E+00  0.20886809019E+00  0.51109989000E-03 0.  1.
     -623    1    1    2    0    0 -0.34621398589E-02  0.31934174780E-03  0.53962403682E-04  0.17130000004E+03  0.17130000000E+03 0.  1.
      622    1    1    2    0    0  0.34005205912E-02  0.40126659713E-02  0.37911234779E+01  0.37911318745E+01  0.60000000000E-02 0.  1.
</event>
<event>
 5   0  0.1211800E+10  0.9118800E+02  0.7818608E-02  0.1180000E+00
       11   -1    0    0    0    0  0.00000000000E+00  0.00000000000E+00  0.39999999673E+01  0.40000000000E+01  0.51109989000E-03 0.  1.
     -623   -1    0    0    0    0  0.00000000000E+00  0.00000000000E+00  0.12525980253E-10  0.17130000000E+03  0.17130000000E+03 0.  1.
       11    1    1    2    0    0 -0.21196310528E-02 -0.26036231510E-02  0.20152132471E+00  0.20154993730E+00  0.51109989000E-03 0.  1.
     -623    1    1    2    0    0  0.18596059638E-02  0.39517424585E-03  0.33980185627E-04  0.17130000001E+03  0.17130000000E+03 0.  1.
      622    1    1    2    0    0  0.26002508583E-03  0.22084489045E-02  0.37984446693E+01  0.37984500590E+01  0.60000000000E-02 0.  0.
</event>
<event>
 5   0  0.1211800E+10  0.9118800E+02  0.7818608E-02  0.1180000E+00
       11   -1    0    0    0    0  0.00000000000E+00  0.00000000000E+00  0.39999999673E+01  0.40000000000E+01  0.51109989000E-03 0.  1.
     -623   -1    0    0    0    0  0.00000000000E+00  0.00000000000E+00  0.12525980253E-10  0.17130000000E+03  0.17130000000E+03 0.  1.
       11    1    1    2    0    0 -0.84625311245E-03  0.10898069016E-02  0.10932987488E+00  0.10933977587E+00  0.51109989000E-03 0. -1.
     -623    1    1    2    0    0 -0.16959140992E-03  0.24922306352E-03  0.14858126741E-04  0.17130000000E+03  0.17130000000E+03 0.  1.
      622    1    1    2    0    0  0.10158445222E-02 -0.13390299648E-02  0.38906552293E+01  0.38906602188E+01  0.60000000000E-02 0.  1.
</event>
<event>
 5   0  0.1211800E+10  0.9118800E+02  0.7818608E-02  0.1180000E+00
       11   -1    0    0    0    0  0.00000000000E+00  0.00000000000E+00  0.39999999673E+01  0.40000000000E+01  0.51109989000E-03 0. -1.
     -623   -1    0    0    0    0  0.00000000000E+00  0.00000000000E+00  0.12525980253E-10  0.17130000000E+03  0.17130000000E+03 0.  1.
       11    1    1    2    0    0  0.10477916366E-02 -0.13103809847E-02  0.13495184131E-01  0.13608680389E-01  0.51109989000E-03 0.  1.
     -623    1    1    2    0    0 -0.65401171258E-03  0.89070090009E-03  0.11802412793E-03  0.17130000000E+03  0.17130000000E+03 0.  1.
      622    1    1    2    0    0 -0.39377992403E-03  0.41968008462E-03  0.39863867591E+01  0.39863913160E+01  0.60000000000E-02 0. -1.
</event>
<event>
 5   0  0.1211800E+10  0.9118800E+02  0.7818608E-02  0.1180000E+00
       11   -1    0    0    0    0  0.00000000000E+00  0.00000000000E+00  0.39999999673E+01  0.40000000000E+01  0.51109989000E-03 0.  1.
     -623   -1    0    0    0    0  0.00000000000E+00  0.00000000000E+00  0.12525980253E-10  0.17130000000E+03  0.17130000000E+03 0. -1.
       11    1    1    2    0    0  0.84161348990E-02  0.72613401986E-02  0.48834151209E+00  0.48846827127E+00  0.51109989000E-03 0.  1.
     -623    1    1    2    0    0 -0.13392435175E-02 -0.25202642997E-03  0.14598477068E-03  0.17130000001E+03  0.17130000000E+03 0. -1.
      622    1    1    2    0    0 -0.70768913813E-02 -0.70093137686E-02  0.35115124714E+01  0.35115317241E+01  0.60000000000E-02 0.  1.
</event>
<event>
 5   0  0.1211800E+10  0.9118800E+02  0.7818608E-02  0.1180000E+00
       11   -1    0    0    0    0  0.00000000000E+00  0.00000000000E+00  0.39999999673E+01  0.40000000000E+01  0.51109989000E-03 0. -1.
     -623   -1    0    0    0    0  0.00000000000E+00  0.00000000000E+00  0.12525980253E-10  0.17130000000E+03  0.17130000000E+03 0. -1.
       11    1    1    2    0    0  0.90200315086E-03  0.12678584699E-02  0.72985505944E+00  0.72985689700E+00  0.51109989000E-03 0. -1.
     -623    1    1    2    0    0 -0.36044782165E-04 -0.18818264543E-03  0.76022609128E-05  0.17130000000E+03  0.17130000000E+03 0. -1.
      622    1    1    2    0    0 -0.86595836870E-03 -0.10796758245E-02  0.32701373057E+01  0.32701431029E+01  0.60000000000E-02 0.  0.
</event>
<event>
 5   0  0.1211800E+10  0.9118800E+02  0.7818608E-02  0.1180000E+00
       11   -1    0    0    0    0  0.00000000000E+00  0.00000000000E+00  0.39999999673E+01  0.40000000000E+01  0.51109989000E-03 0. -1.
     -623   -1    0    0    0    0  0.00000000000E+00  0.00000000000E+00  0.12525980253E-10  0.17130000000E+03  0.17130000000E+03 0. -1.
       11    1    1    2    0    0 -0.87149469973E-04  0.25725119544E-03  0.25873647629E+00  0.25873712366E+00  0.51109989000E-03 0. -1.
     -623    1    1    2    0    0 -0.30332674520E-04  0.51640524648E-04  0.54405439909E-05  0.17130000000E+03  0.17130000000E+03 0. -1.
      622    1    1    2    0    0  0.11748214449E-03 -0.30889172009E-03  0.37412580505E+01  0.37412628763E+01  0.60000000000E-02 0. -1.
</event>
<event>
 5   0  0.1211800E+10  0.9118800E+02  0.7818608E-02  0.1180000E+00
       11   -1    0    0    0    0  0.00000000000E+00  0.00000000000E+00  0.39999999673E+01  0.40000000000E+01  0.51109989000E-03 0.  1.
     -623   -1    0    0    0    0  0.00000000000E+00  0.00000000000E+00  0.12525980253E-10  0.17130000000E+03  0.17130000000E+03 0. -1.
       11    1    1    2    0    0 -0.23862129255E-02  0.29911608844E-02  0.21171811241E+00  0.21175330316E+00  0.51109989000E-03 0. -1.
     -623    1    1    2    0    0  0.35451629952E-03 -0.95319697327E-04  0.41561698156E-04  0.17130000000E+03  0.17130000000E+03 0. -1.
      622    1    1    2    0    0  0.20316966260E-02 -0.28958411871E-02  0.37882402933E+01  0.37882466964E+01  0.60000000000E-02 0.  1.
</event>
<event>
 5   0  0.1211800E+10  0.9118800E+02  0.7818608E-02  0.1180000E+00
       11   -1    0    0    0    0  0.00000000000E+00  0.00000000000E+00  0.39999999673E+01  0.40000000000E+01  0.51109989000E-03 0. -1.
     -623   -1    0    0    0    0  0.00000000000E+00  0.00000000000E+00  0.12525980253E-10  0.17130000000E+03  0.17130000000E+03 0. -1.
       11    1    1    2    0    0 -0.25516081260E-03 -0.11178982670E-03  0.23617986740E-01  0.23625158725E-01  0.51109989000E-03 0. -1.
     -623    1    1    2    0    0  0.20888368227E-04 -0.55220711258E-04  0.11676502119E-04  0.17130000000E+03  0.17130000000E+03 0. -1.
      622    1    1    2    0    0  0.23427244431E-03  0.16701053812E-03  0.39763703157E+01  0.39763748528E+01  0.60000000000E-02 0. -1.
</event>
<event>
 5   0  0.1211800E+10  0.9118800E+02  0.7818608E-02  0.1180000E+00
       11   -1    0    0    0    0  0.00000000000E+00  0.00000000000E+00  0.39999999673E+01  0.40000000000E+01  0.51109989000E-03 0.  1.
     -623   -1    0    0    0    0  0.00000000000E+00  0.00000000000E+00  0.12525980253E-10  0.17130000000E+03  0.17130000000E+03 0.  1.
       11    1    1    2    0    0  0.14233699009E-04 -0.31793487273E-03  0.90803184728E-01  0.90805180827E-01  0.51109989000E-03 0.  1.
     -623    1    1    2    0    0  0.28231274783E-03  0.38915693236E-03  0.65805617364E-05  0.17130000000E+03  0.17130000000E+03 0.  1.
      622    1    1    2    0    0 -0.29654644875E-03 -0.71222062272E-04  0.39091902292E+01  0.39091948456E+01  0.60000000000E-02 0.  1.
</event>
<event>
 5   0  0.1211800E+10  0.9118800E+02  0.7818608E-02  0.1180000E+00
       11   -1    0    0    0    0  0.00000000000E+00  0.00000000000E+00  0.39999999673E+01  0.40000000000E+01  0.51109989000E-03 0.  1.
     -623   -1    0    0    0    0  0.00000000000E+00  0.00000000000E+00  0.12525980253E-10  0.17130000000E+03  0.17130000000E+03 0. -1.
       11    1    1    2    0    0 -0.14054049012E-03 -0.18321684929E-03  0.46924798134E-02  0.47258766319E-02  0.51109989000E-03 0. -1.
     -623    1    1    2    0    0 -0.40439245713E-03  0.68752469199E-03  0.37940356362E-04  0.17130000000E+03  0.17130000000E+03 0. -1.
      622    1    1    2    0    0  0.54493294816E-03 -0.50430784426E-03  0.39952695562E+01  0.39952741306E+01  0.60000000000E-02 0.  1.
</event>
<event>
 5   0  0.1211800E+10  0.9118800E+02  0.7818608E-02  0.1180000E+00
       11   -1    0    0    0    0  0.00000000000E+00  0.00000000000E+00  0.39999999673E+01  0.40000000000E+01  0.51109989000E-03 0. -1.
     -623   -1    0    0    0    0  0.00000000000E+00  0.00000000000E+00  0.12525980253E-10  0.17130000000E+03  0.17130000000E+03 0.  1.
       11    1    1    2    0    0 -0.50499099735E-02  0.39099256964E-02  0.21244206108E+00  0.21253865448E+00  0.51109989000E-03 0. -1.
     -623    1    1    2    0    0  0.55066378537E-02 -0.22153543246E-02  0.10182278008E-03  0.17130000010E+03  0.17130000000E+03 0.  1.
      622    1    1    2    0    0 -0.45672788557E-03 -0.16945713696E-02  0.37874560873E+01  0.37874612465E+01  0.60000000000E-02 0. -1.
</event>
<event>
 5   0  0.1211800E+10  0.9118800E+02  0.7818608E-02  0.1180000E+00
       11   -1    0    0    0    0  0.00000000000E+00  0.00000000000E+00  0.39999999673E+01  0.40000000000E+01  0.51109989000E-03 0.  1.
     -623   -1    0    0    0    0  0.00000000000E+00  0.00000000000E+00  0.12525980253E-10  0.17130000000E+03  0.17130000000E+03 0. -1.
       11    1    1    2    0    0 -0.12760230894E-02 -0.22770110138E-03  0.38597910554E-01  0.38623050177E-01  0.51109989000E-03 0.  1.
     -623    1    1    2    0    0  0.74186871344E-03 -0.92304239621E-03  0.29858108939E-04  0.17130000000E+03  0.17130000000E+03 0. -1.
      622    1    1    2    0    0  0.53415437614E-03  0.11507434974E-02  0.39613721980E+01  0.39613769450E+01  0.60000000000E-02 0.  1.
</event>
<event>
 5   0  0.1211800E+10  0.9118800E+02  0.7818608E-02  0.1180000E+00
       11   -1    0    0    0    0  0.00000000000E+00  0.00000000000E+00  0.39999999673E+01  0.40000000000E+01  0.51109989000E-03 0.  1.
     -623   -1    0    0    0    0  0.00000000000E+00  0.00000000000E+00  0.12525980253E-10  0.17130000000E+03  0.17130000000E+03 0. -1.
       11    1    1    2    0    0 -0.18874959414E-02  0.11846897731E-02  0.94581217369E+00  0.94581493710E+00  0.51109989000E-03 0.  1.
     -623    1    1    2    0    0 -0.10861624453E-03 -0.87793740408E-04  0.94736619585E-05  0.17130000000E+03  0.17130000000E+03 0. -1.
      622    1    1    2    0    0  0.19961121857E-02 -0.10968960329E-02  0.30541783129E+01  0.30541850557E+01  0.60000000000E-02 0. -1.
</event>
<event>
 5   0  0.1211800E+10  0.9118800E+02  0.7818608E-02  0.1180000E+00
       11   -1    0    0    0    0  0.00000000000E+00  0.00000000000E+00  0.39999999673E+01  0.40000000000E+01  0.51109989000E-03 0. -1.
     -623   -1    0    0    0    0  0.00000000000E+00  0.00000000000E+00  0.12525980253E-10  0.17130000000E+03  0.17130000000E+03 0. -1.
       11    1    1    2    0    0 -0.33721753603E-03  0.17180566976E-03  0.13959406372E-01  0.13973885723E-01  0.51109989000E-03 0.  1.
     -623    1    1    2    0    0  0.15775075002E-04 -0.14011163077E-04  0.18978576175E-04  0.17130000000E+03  0.17130000000E+03 0. -1.
      622    1    1    2    0    0  0.32144246102E-03 -0.15779450667E-03  0.39860215850E+01  0.39860261169E+01  0.60000000000E-02 0. -1.
</event>
<event>
 5   0  0.1211800E+10  0.9118800E+02  0.7818608E-02  0.1180000E+00
       11   -1    0    0    0    0  0.00000000000E+00  0.00000000000E+00  0.39999999673E+01  0.40000000000E+01  0.51109989000E-03 0.  1.
     -623   -1    0    0    0    0  0.00000000000E+00  0.00000000000E+00  0.12525980253E-10  0.17130000000E+03  0.17130000000E+03 0.  1.
       11    1    1    2    0    0  0.86774047148E-03  0.12253539315E-02  0.43804651663E-01  0.43833357106E-01  0.51109989000E-03 0.  1.
     -623    1    1    2    0    0 -0.24320066232E-02 -0.28562664571E-02  0.33909168820E-04  0.17130000004E+03  0.17130000000E+03 0.  1.
      622    1    1    2    0    0  0.15642661517E-02  0.16309125256E-02  0.39561614065E+01  0.39561666018E+01  0.60000000000E-02 0.  1.
</event>
<event>
 5   0  0.1211800E+10  0.9118800E+02  0.7818608E-02  0.1180000E+00
       11   -1    0    0    0    0  0.00000000000E+00  0.00000000000E+00  0.39999999673E+01  0.40000000000E+01  0.51109989000E-03 0.  1.
     -623   -1    0    0    0    0  0.00000000000E+00  0.00000000000E+00  0.12525980253E-10  0.17130000000E+03  0.17130000000E+03 0. -1.
       11    1    1    2    0    0 -0.98266795122E-03  0.20825100292E-02  0.23830092552E+00  0.23831259893E+00  0.51109989000E-03 0.  1.
     -623    1    1    2    0    0  0.13491745047E-03  0.17604580963E-03  0.17199566503E-04  0.17130000000E+03  0.17130000000E+03 0. -1.
      622    1    1    2    0    0  0.84775050106E-03 -0.22585558384E-02  0.37616818327E+01  0.37616873914E+01  0.60000000000E-02 0.  1.
</event>
<event>
 5   0  0.1211800E+10  0.9118800E+02  0.7818608E-02  0.1180000E+00
       11   -1    0    0    0    0  0.00000000000E+00  0.00000000000E+00  0.39999999673E+01  0.40000000000E+01  0.51109989000E-03 0.  1.
     -623   -1    0    0    0    0  0.00000000000E+00  0.00000000000E+00  0.12525980253E-10  0.17130000000E+03  0.17130000000E+03 0.  1.
       11    1    1    2    0    0 -0.11637518622E-03  0.35367296585E-03  0.25516105261E+00  0.25516183613E+00  0.51109989000E-03 0.  1.
     -623    1    1    2    0    0  0.27713034533E-03 -0.15867891036E-02  0.57715492918E-05  0.17130000001E+03  0.17130000000E+03 0.  1.
      622    1    1    2    0    0 -0.16075515910E-03  0.12331161378E-02  0.37448331432E+01  0.37448381563E+01  0.60000000000E-02 0.  1.
</event>
<event>
 5   0  0.1211800E+10  0.9118800E+02  0.7818608E-02  0.1180000E+00
       11   -1    0    0    0    0  0.00000000000E+00  0.00000000000E+00  0.39999999673E+01  0.40000000000E+01  0.51109989000E-03 0.  1.
     -623   -1    0    0    0    0  0.00000000000E+00  0.00000000000E+00  0.12525980253E-10  0.17130000000E+03  0.17130000000E+03 0. -1.
       11    1    1    2    0    0 -0.92205841259E-03 -0.68059097130E-03  0.78011011383E-01  0.78021103016E-01  0.51109989000E-03 0.  1.
     -623    1    1    2    0    0  0.72135749086E-04 -0.51856821906E-04  0.14809025906E-04  0.17130000000E+03  0.17130000000E+03 0. -1.
      622    1    1    2    0    0  0.84992266325E-03  0.73244779339E-03  0.39219741610E+01  0.39219789110E+01  0.60000000000E-02 0.  1.
</event>
<event>
 5   0  0.1211800E+10  0.9118800E+02  0.7818608E-02  0.1180000E+00
       11   -1    0    0    0    0  0.00000000000E+00  0.00000000000E+00  0.39999999673E+01  0.40000000000E+01  0.51109989000E-03 0. -1.
     -623   -1    0    0    0    0  0.00000000000E+00  0.00000000000E+00  0.12525980253E-10  0.17130000000E+03  0.17130000000E+03 0.  1.
       11    1    1    2    0    0  0.70072283390E-03  0.72419972976E-03  0.24330107232E+00  0.24330369601E+00  0.51109989000E-03 0. -1.
     -623    1    1    2    0    0 -0.16501228954E-02 -0.84778529711E-03  0.75145386340E-05  0.17130000001E+03  0.17130000000E+03 0.  1.
      622    1    1    2    0    0  0.94940006151E-03  0.12358556734E-03  0.37566913805E+01  0.37566962939E+01  0.60000000000E-02 0. -1.
</event>
<event>
 5   0  0.1211800E+10  0.9118800E+02  0.7818608E-02  0.1180000E+00
       11   -1    0    0    0    0  0.00000000000E+00  0.00000000000E+00  0.39999999673E+01  0.40000000000E+01  0.51109989000E-03 0.  1.
     -623   -1    0    0    0    0  0.00000000000E+00  0.00000000000E+00  0.12525980253E-10  0.17130000000E+03  0.17130000000E+03 0.  1.
       11    1    1    2    0    0 -0.12801530083E-01 -0.11889512170E-01  0.40549845285E+00  0.40587497602E+00  0.51109989000E-03 0.  1.
     -623    1    1    2    0    0 -0.44296271986E-03  0.31426697710E-03  0.42454327791E-03  0.17130000000E+03  0.17130000000E+03 0.  1.
      622    1    1    2    0    0  0.13244492803E-01  0.11575245193E-01  0.35940769712E+01  0.35941250226E+01  0.60000000000E-02 0.  1.
</event>
<event>
 5   0  0.1211800E+10  0.9118800E+02  0.7818608E-02  0.1180000E+00
       11   -1    0    0    0    0  0.00000000000E+00  0.00000000000E+00  0.39999999673E+01  0.40000000000E+01  0.51109989000E-03 0. -1.
     -623   -1    0    0    0    0  0.00000000000E+00  0.00000000000E+00  0.12525980253E-10  0.17130000000E+03  0.17130000000E+03 0.  1.
       11    1    1    2    0    0  0.16769990063E-02 -0.95981307474E-03  0.63827844565E+00  0.63828157499E+00  0.51109989000E-03 0. -1.
     -623    1    1    2    0    0 -0.61684339635E-02 -0.40435435164E-02  0.15333639845E-04  0.17130000016E+03  0.17130000000E+03 0.  1.
      622    1    1    2    0    0  0.44914349571E-02  0.50033565912E-02  0.33617061881E+01  0.33617182662E+01  0.60000000000E-02 0. -1.
</event>
<event>
 5   0  0.1211800E+10  0.9118800E+02  0.7818608E-02  0.1180000E+00
       11   -1    0    0    0    0  0.00000000000E+00  0.00000000000E+00  0.39999999673E+01  0.40000000000E+01  0.51109989000E-03 0. -1.
     -623   -1    0    0    0    0  0.00000000000E+00  0.00000000000E+00  0.12525980253E-10  0.17130000000E+03  0.17130000000E+03 0. -1.
       11    1    1    2    0    0 -0.26983056489E-02  0.74818463288E-02  0.76624498027E+00  0.76628642810E+00  0.51109989000E-03 0. -1.
     -623    1    1    2    0    0  0.12878159737E-02  0.14363502099E-02  0.59597746600E-04  0.17130000001E+03  0.17130000000E+03 0. -1.
      622    1    1    2    0    0  0.14104896752E-02 -0.89181965386E-02  0.32336953893E+01  0.32337135610E+01  0.60000000000E-02 0. -1.
</event>
<event>
 5   0  0.1211800E+10  0.9118800E+02  0.7818608E-02  0.1180000E+00
       11   -1    0    0    0    0  0.00000000000E+00  0.00000000000E+00  0.39999999673E+01  0.40000000000E+01  0.51109989000E-03 0.  1.
     -623   -1    0    0    0    0  0.00000000000E+00  0.00000000000E+00  0.12525980253E-10  0.17130000000E+03  0.17130000000E+03 0.  1.
       11    1    1    2    0    0  0.56803079095E-03  0.45504312105E-04  0.27492806966E+00  0.27492913530E+00  0.51109989000E-03 0.  1.
     -623    1    1    2    0    0 -0.16922743132E-03  0.49197669157E-03  0.59260449139E-05  0.17130000000E+03  0.17130000000E+03 0.  1.
      622    1    1    2    0    0 -0.39880335764E-03 -0.53748100945E-03  0.37250660187E+01  0.37250709109E+01  0.60000000000E-02 0.  1.
</event>
<event>
 5   0  0.1211800E+10  0.9118800E+02  0.7818608E-02  0.1180000E+00
       11   -1    0    0    0    0  0.00000000000E+00  0.00000000000E+00  0.39999999673E+01  0.40000000000E+01  0.51109989000E-03 0. -1.
     -623   -1    0    0    0    0  0.00000000000E+00  0.00000000000E+00  0.12525980253E-10  0.17130000000E+03  0.17130000000E+03 0. -1.
       11    1    1    2    0    0 -0.87901992554E-04 -0.13013268463E-02  0.55867820853E-02  0.57597338906E-02  0.51109989000E-03 0. -1.
     -623    1    1    2    0    0  0.54607670581E-03  0.12013987155E-03  0.17762759186E-03  0.17130000000E+03  0.17130000000E+03 0. -1.
      622    1    1    2    0    0 -0.45817471326E-03  0.11811869748E-02  0.39942355577E+01  0.39942402651E+01  0.60000000000E-02 0. -1.
</event>
<event>
 5   0  0.1211800E+10  0.9118800E+02  0.7818608E-02  0.1180000E+00
       11   -1    0    0    0    0  0.00000000000E+00  0.00000000000E+00  0.39999999673E+01  0.40000000000E+01  0.51109989000E-03 0.  1.
     -623   -1    0    0    0    0  0.00000000000E+00  0.00000000000E+00  0.12525980253E-10  0.17130000000E+03  0.17130000000E+03 0. -1.
       11    1    1    2    0    0  0.53961163741E-03  0.10283121127E-02  0.10619726676E+01  0.10619734256E+01  0.51109989000E-03 0.  1.
     -623    1    1    2    0    0  0.51116765134E-04  0.10988669007E-03  0.71317708268E-05  0.17130000000E+03  0.17130000000E+03 0. -1.
      622    1    1    2    0    0 -0.59072840255E-03 -0.11381988028E-02  0.29380201679E+01  0.29380265744E+01  0.60000000000E-02 0.  1.
</event>
<event>
 5   0  0.1211800E+10  0.9118800E+02  0.7818608E-02  0.1180000E+00
       11   -1    0    0    0    0  0.00000000000E+00  0.00000000000E+00  0.39999999673E+01  0.40000000000E+01  0.51109989000E-03 0. -1.
     -623   -1    0    0    0    0  0.00000000000E+00  0.00000000000E+00  0.12525980253E-10  0.17130000000E+03  0.17130000000E+03 0.  1.
       11    1    1    2    0    0 -0.22238458140E-04  0.39094577631E-03  0.56335583202E-01  0.56339262429E-01  0.51109989000E-03 0. -1.
     -623    1    1    2    0    0 -0.73856913822E-04 -0.45818373502E-04  0.82271708419E-05  0.17130000000E+03  0.17130000000E+03 0.  1.
      622    1    1    2    0    0  0.96095371472E-04 -0.34512740311E-03  0.39436561304E+01  0.39436607110E+01  0.60000000000E-02 0. -1.
</event>
<event>
 5   0  0.1211800E+10  0.9118800E+02  0.7818608E-02  0.1180000E+00
       11   -1    0    0    0    0  0.00000000000E+00  0.00000000000E+00  0.39999999673E+01  0.40000000000E+01  0.51109989000E-03 0. -1.
     -623   -1    0    0    0    0  0.00000000000E+00  0.00000000000E+00  0.12525980253E-10  0.17130000000E+03  0.17130000000E+03 0.  1.
       11    1    1    2    0    0  0.34066789751E-03  0.90276227099E-03  0.27360578024E+00  0.27360795902E+00  0.51109989000E-03 0. -1.
     -623    1    1    2    0    0  0.97931053020E-03 -0.53832731770E-03  0.72317998998E-05  0.17130000000E+03  0.17130000000E+03 0.  1.
      622    1    1    2    0    0 -0.13199784277E-02 -0.36443495328E-03  0.37263869553E+01  0.37263920373E+01  0.60000000000E-02 0. -1.
</event>
<event>
 5   0  0.1211800E+10  0.9118800E+02  0.7818608E-02  0.1180000E+00
       11   -1    0    0    0    0  0.00000000000E+00  0.00000000000E+00  0.39999999673E+01  0.40000000000E+01  0.51109989000E-03 0. -1.
     -623   -1    0    0    0    0  0.00000000000E+00  0.00000000000E+00  0.12525980253E-10  0.17130000000E+03  0.17130000000E+03 0. -1.
       11    1    1    2    0    0 -0.15510843966E-02 -0.10030469428E-02  0.11206755909E+00  0.11208394617E+00  0.51109989000E-03 0. -1.
     -623    1    1    2    0    0  0.22327252033E-02  0.98345909647E-03  0.21061344782E-04  0.17130000002E+03  0.17130000000E+03 0. -1.
      622    1    1    2    0    0 -0.68164080671E-03  0.19587846298E-04  0.38879113469E+01  0.38879160365E+01  0.60000000000E-02 0. -1.
</event>
<event>
 5   0  0.1211800E+10  0.9118800E+02  0.7818608E-02  0.1180000E+00
       11   -1    0    0    0    0  0.00000000000E+00  0.00000000000E+00  0.39999999673E+01  0.40000000000E+01  0.51109989000E-03 0. -1.
     -623   -1    0    0    0    0  0.00000000000E+00  0.00000000000E+00  0.12525980253E-10  0.17130000000E+03  0.17130000000E+03 0.  1.
       11    1    1    2    0    0  0.10066023787E-02  0.84510002072E-03  0.93723528173E+00  0.93723634265E+00  0.51109989000E-03 0. -1.
     -623    1    1    2    0    0 -0.17091542086E-02  0.36037744660E-02  0.10263498289E-04  0.17130000005E+03  0.17130000000E+03 0.  1.
      622    1    1    2    0    0  0.70255182986E-03 -0.44488744867E-02  0.30627544221E+01  0.30627636109E+01  0.60000000000E-02 0. -1.
</event>
<event>
 5   0  0.1211800E+10  0.9118800E+02  0.7818608E-02  0.1180000E+00
       11   -1    0    0    0    0  0.00000000000E+00  0.00000000000E+00  0.39999999673E+01  0.40000000000E+01  0.51109989000E-03 0. -1.
     -623   -1    0    0    0    0  0.00000000000E+00  0.00000000000E+00  0.12525980253E-10  0.17130000000E+03  0.17130000000E+03 0. -1.
       11    1    1    2    0    0  0.42295631518E-02 -0.59232633843E-02  0.75488960824E-01  0.75840745513E-01  0.51109989000E-03 0. -1.
     -623    1    1    2    0    0 -0.38511770991E-02  0.69373232141E-02  0.35667242529E-03  0.17130000018E+03  0.17130000000E+03 0. -1.
      622    1    1    2    0    0 -0.37838605273E-03 -0.10140598298E-02  0.39241543341E+01  0.39241590704E+01  0.60000000000E-02 0. -1.
</event>
<event>
 5   0  0.1211800E+10  0.9118800E+02  0.7818608E-02  0.1180000E+00
       11   -1    0    0    0    0  0.00000000000E+00  0.00000000000E+00  0.39999999673E+01  0.40000000000E+01  0.51109989000E-03 0. -1.
     -623   -1    0    0    0    0  0.00000000000E+00  0.00000000000E+00  0.12525980253E-10  0.17130000000E+03  0.17130000000E+03 0.  1.
       11    1    1    2    0    0  0.24190890735E-02  0.85343023738E-03  0.10648593212E+00  0.10651805150E+00  0.51109989000E-03 0. -1.
     -623    1    1    2    0    0  0.57775787396E-04  0.31697132307E-04  0.37598319362E-04  0.17130000000E+03  0.17130000000E+03 0.  1.
      622    1    1    2    0    0 -0.24768648609E-02 -0.88512736969E-03  0.38934764369E+01  0.38934819485E+01  0.60000000000E-02 0. -1.
</event>
<event>
 5   0  0.1211800E+10  0.9118800E+02  0.7818608E-02  0.1180000E+00
       11   -1    0    0    0    0  0.00000000000E+00  0.00000000000E+00  0.39999999673E+01  0.40000000000E+01  0.51109989000E-03 0. -1.
     -623   -1    0    0    0    0  0.00000000000E+00  0.00000000000E+00  0.12525980253E-10  0.17130000000E+03  0.17130000000E+03 0.  1.
       11    1    1    2    0    0  0.48091843108E-03  0.11414899052E-02  0.68753504904E-02  0.70047089876E-02  0.51109989000E-03 0. -1.
     -623    1    1    2    0    0  0.34580107659E-03 -0.22626009983E-02  0.13409206844E-03  0.17130000002E+03  0.17130000000E+03 0.  1.
      622    1    1    2    0    0 -0.82671950766E-03  0.11211110932E-02  0.39929905248E+01  0.39929952757E+01  0.60000000000E-02 0. -1.
</event>
<event>
 5   0  0.1211800E+10  0.9118800E+02  0.7818608E-02  0.1180000E+00
       11   -1    0    0    0    0  0.00000000000E+00  0.00000000000E+00  0.39999999673E+01  0.40000000000E+01  0.51109989000E-03 0.  1.
     -623   -1    0    0    0    0  0.00000000000E+00  0.00000000000E+00  0.12525980253E-10  0.17130000000E+03  0.17130000000E+03 0. -1.
       11    1    1    2    0    0 -0.63007982819E-03 -0.27957488566E-03  0.70293888152E-01  0.70299125864E-01  0.51109989000E-03 0.  1.
     -623    1    1    2    0    0  0.20128685742E-04  0.24012567999E-03  0.98332811627E-05  0.17130000000E+03  0.17130000000E+03 0. -1.
      622    1    1    2    0    0  0.60995114224E-03  0.39449203202E-04  0.39296962870E+01  0.39297009150E+01  0.60000000000E-02 0.  1.
</event>
<event>
 5   0  0.1211800E+10  0.9118800E+02  0.7818608E-02  0.1180000E+00
       11   -1    0    0    0    0  0.00000000000E+00  0.00000000000E+00  0.39999999673E+01  0.40000000000E+01  0.51109989000E-03 0. -1.
     -623   -1    0    0    0    0  0.00000000000E+00  0.00000000000E+00  0.12525980253E-10  0.17130000000E+03  0.17130000000E+03 0. -1.
       11    1    1    2    0    0  0.75215600559E-03  0.11501909899E-02  0.49211281812E+00  0.49211500247E+00  0.51109989000E-03 0. -1.
     -623    1    1    2    0    0  0.33619751470E-04 -0.64626497760E-04  0.75390086653E-05  0.17130000000E+03  0.17130000000E+03 0. -1.
      622    1    1    2    0    0 -0.78577575706E-03 -0.10855644922E-02  0.35078796102E+01  0.35078849975E+01  0.60000000000E-02 0. -1.
</event>
<event>
 5   0  0.1211800E+10  0.9118800E+02  0.7818608E-02  0.1180000E+00
       11   -1    0    0    0    0  0.00000000000E+00  0.00000000000E+00  0.39999999673E+01  0.40000000000E+01  0.51109989000E-03 0. -1.
     -623   -1    0    0    0    0  0.00000000000E+00  0.00000000000E+00  0.12525980253E-10  0.17130000000E+03  0.17130000000E+03 0.  1.
       11    1    1    2    0    0 -0.19156378479E-02  0.75754186764E-03  0.93579529499E-01  0.93603595560E-01  0.51109989000E-03 0. -1.
     -623    1    1    2    0    0 -0.59752707091E-05  0.43512075797E-04  0.29196028022E-04  0.17130000000E+03  0.17130000000E+03 0.  1.
      622    1    1    2    0    0  0.19216131186E-02 -0.80105394344E-03  0.39063912418E+01  0.39063964044E+01  0.60000000000E-02 0. -1.
</event>
<event>
 5   0  0.1211800E+10  0.9118800E+02  0.7818608E-02  0.1180000E+00
       11   -1    0    0    0    0  0.00000000000E+00  0.00000000000E+00  0.39999999673E+01  0.40000000000E+01  0.51109989000E-03 0.  1.
     -623   -1    0    0    0    0  0.00000000000E+00  0.00000000000E+00  0.12525980253E-10  0.17130000000E+03  0.17130000000E+03 0. -1.
       11    1    1    2    0    0 -0.12478626477E-02  0.11059706576E-03  0.59104340556E+00  0.59104495419E+00  0.51109989000E-03 0.  1.
     -623    1    1    2    0    0 -0.32054010257E-03 -0.46997486271E-03  0.71768893259E-05  0.17130000000E+03  0.17130000000E+03 0. -1.
      622    1    1    2    0    0  0.15684027532E-02  0.35937780119E-03  0.34089494210E+01  0.34089550810E+01  0.60000000000E-02 0.  1.
</event>
<event>
 5   0  0.1211800E+10  0.9118800E+02  0.7818608E-02  0.1180000E+00
       11   -1    0    0    0    0  0.00000000000E+00  0.00000000000E+00  0.39999999673E+01  0.40000000000E+01  0.51109989000E-03 0.  1.
     -623   -1    0    0    0    0  0.00000000000E+00  0.00000000000E+00  0.12525980253E-10  0.17130000000E+03  0.17130000000E+03 0.  1.
       11    1    1    2    0    0 -0.20759015039E-02  0.13110613134E-02  0.44621921361E+00  0.44622626107E+00  0.51109989000E-03 0.  1.
     -623    1    1    2    0    0 -0.32396674604E-03  0.75343514770E-03  0.13491807261E-04  0.17130000000E+03  0.17130000000E+03 0.  1.
      622    1    1    2    0    0  0.23998682499E-02 -0.20644964611E-02  0.35537672619E+01  0.35537737370E+01  0.60000000000E-02 0.  1.
</event>
<event>
 5   0  0.1211800E+10  0.9118800E+02  0.7818608E-02  0.1180000E+00
       11   -1    0    0    0    0  0.00000000000E+00  0.00000000000E+00  0.39999999673E+01  0.40000000000E+01  0.51109989000E-03 0. -1.
     -623   -1    0    0    0    0  0.00000000000E+00  0.00000000000E+00  0.12525980253E-10  0.17130000000E+03  0.17130000000E+03 0. -1.
       11    1    1    2    0    0 -0.34551568962E-02 -0.16085358721E-02  0.86600604922E-01  0.86685935957E-01  0.51109989000E-03 0. -1.
     -623    1    1    2    0    0  0.66226662236E-02  0.12337443054E-02  0.91330437179E-04  0.17130000013E+03  0.17130000000E+03 0. -1.
      622    1    1    2    0    0 -0.31675093258E-02  0.37479156700E-03  0.39133080310E+01  0.39133139306E+01  0.60000000000E-02 0. -1.
</event>
<event>
 5   0  0.1211800E+10  0.9118800E+02  0.7818608E-02  0.1180000E+00
       11   -1    0    0    0    0  0.00000000000E+00  0.00000000000E+00  0.39999999673E+01  0.40000000000E+01  0.51109989000E-03 0. -1.
     -623   -1    0    0    0    0  0.00000000000E+00  0.00000000000E+00  0.12525980253E-10  0.17130000000E+03  0.17130000000E+03 0. -1.
       11    1    1    2    0    0 -0.47322614016E-02 -0.99748324375E-02  0.31444195173E+00  0.31463612922E+00  0.51109989000E-03 0. -1.
     -623    1    1    2    0    0  0.85323491177E-03 -0.23111990948E-02  0.22156762393E-03  0.17130000002E+03  0.17130000000E+03 0. -1.
      622    1    1    2    0    0  0.38790264898E-02  0.12286031532E-01  0.36853364480E+01  0.36853638529E+01  0.60000000000E-02 0. -1.
</event>
<event>
 5   0  0.1211800E+10  0.9118800E+02  0.7818608E-02  0.1180000E+00
       11   -1    0    0    0    0  0.00000000000E+00  0.00000000000E+00  0.39999999673E+01  0.40000000000E+01  0.51109989000E-03 0.  1.
     -623   -1    0    0    0    0  0.00000000000E+00  0.00000000000E+00  0.12525980253E-10  0.17130000000E+03  0.17130000000E+03 0.  1.
       11    1    1    2    0    0  0.56730301424E-03 -0.81192650810E-03  0.42699659870E-01  0.42714204118E-01  0.51109989000E-03 0.  1.
     -623    1    1    2    0    0 -0.40441956653E-03  0.99755787611E-03  0.19071272388E-04  0.17130000000E+03  0.17130000000E+03 0.  1.
      622    1    1    2    0    0 -0.16288344975E-03 -0.18563136299E-03  0.39572812161E+01  0.39572857724E+01  0.60000000000E-02 0.  1.
</event>
<event>
 5   0  0.1211800E+10  0.9118800E+02  0.7818608E-02  0.1180000E+00
       11   -1    0    0    0    0  0.00000000000E+00  0.00000000000E+00  0.39999999673E+01  0.40000000000E+01  0.51109989000E-03 0. -1.
     -623   -1    0    0    0    0  0.00000000000E+00  0.00000000000E+00  0.12525980253E-10  0.17130000000E+03  0.17130000000E+03 0.  1.
       11    1    1    2    0    0 -0.16840542740E-02 -0.24800480413E-02  0.10626403891E+01  0.10626447404E+01  0.51109989000E-03 0. -1.
     -623    1    1    2    0    0 -0.39149847910E-03 -0.72227493048E-03  0.12927567954E-04  0.17130000000E+03  0.17130000000E+03 0.  1.
      622    1    1    2    0    0  0.20755527531E-02  0.32023229717E-02  0.29373466507E+01  0.29373552576E+01  0.60000000000E-02 0.  0.
</event>
<event>
 5   0  0.1211800E+10  0.9118800E+02  0.7818608E-02  0.1180000E+00
       11   -1    0    0    0    0  0.00000000000E+00  0.00000000000E+00  0.39999999673E+01  0.40000000000E+01  0.51109989000E-03 0. -1.
     -623   -1    0    0    0    0  0.00000000000E+00  0.00000000000E+00  0.12525980253E-10  0.17130000000E+03  0.17130000000E+03 0.  1.
       11    1    1    2    0    0 -0.81348693828E-04 -0.16242623108E-02  0.34524342916E+00  0.34524763785E+00  0.51109989000E-03 0. -1.
     -623    1    1    2    0    0  0.58096951645E-04  0.49725036703E-03  0.92757281411E-05  0.17130000000E+03  0.17130000000E+03 0.  1.
      622    1    1    2    0    0  0.23251742184E-04  0.11270119437E-02  0.36547472625E+01  0.36547523614E+01  0.60000000000E-02 0.  0.
</event>
<event>
 5   0  0.1211800E+10  0.9118800E+02  0.7818608E-02  0.1180000E+00
       11   -1    0    0    0    0  0.00000000000E+00  0.00000000000E+00  0.39999999673E+01  0.40000000000E+01  0.51109989000E-03 0. -1.
     -623   -1    0    0    0    0  0.00000000000E+00  0.00000000000E+00  0.12525980253E-10  0.17130000000E+03  0.17130000000E+03 0. -1.
       11    1    1    2    0    0 -0.47174755250E-03  0.54034748358E-03  0.21894356648E-01  0.21912065108E-01  0.51109989000E-03 0. -1.
     -623    1    1    2    0    0  0.48049480148E-04 -0.65765107995E-05  0.22258990971E-04  0.17130000000E+03  0.17130000000E+03 0. -1.
      622    1    1    2    0    0  0.42369807213E-03 -0.53377097276E-03  0.39780833697E+01  0.39780879529E+01  0.60000000000E-02 0. -1.
</event>
<event>
 5   0  0.1211800E+10  0.9118800E+02  0.7818608E-02  0.1180000E+00
       11   -1    0    0    0    0  0.00000000000E+00  0.00000000000E+00  0.39999999673E+01  0.40000000000E+01  0.51109989000E-03 0. -1.
     -623   -1    0    0    0    0  0.00000000000E+00  0.00000000000E+00  0.12525980253E-10  0.17130000000E+03  0.17130000000E+03 0.  1.
       11    1    1    2    0    0 -0.79247168466E-03  0.17407967980E-02  0.24865156678E-01  0.24943849405E-01  0.51109989000E-03 0.  1.
     -623    1    1    2    0    0  0.10863189324E-02 -0.13689428854E-02  0.83225516944E-04  0.17130000001E+03  0.17130000000E+03 0.  1.
      622    1    1    2    0    0 -0.29384724776E-03 -0.37185391265E-03  0.39750515852E+01  0.39750561417E+01  0.60000000000E-02 0. -1.
</event>
<event>
 5   0  0.1211800E+10  0.9118800E+02  0.7818608E-02  0.1180000E+00
       11   -1    0    0    0    0  0.00000000000E+00  0.00000000000E+00  0.39999999673E+01  0.40000000000E+01  0.51109989000E-03 0. -1.
     -623   -1    0    0    0    0  0.00000000000E+00  0.00000000000E+00  0.12525980253E-10  0.17130000000E+03  0.17130000000E+03 0. -1.
       11    1    1    2    0    0 -0.85958333734E-03  0.11214803881E-02  0.20127276889E+00  0.20127837768E+00  0.51109989000E-03 0. -1.
     -623    1    1    2    0    0  0.40039129048E-03  0.21089448138E-04  0.10514637071E-04  0.17130000000E+03  0.17130000000E+03 0. -1.
      622    1    1    2    0    0  0.45919204687E-03 -0.11425698362E-02  0.37987166838E+01  0.37987216219E+01  0.60000000000E-02 0. -1.
</event>
<event>
 5   0  0.1211800E+10  0.9118800E+02  0.7818608E-02  0.1180000E+00
       11   -1    0    0    0    0  0.00000000000E+00  0.00000000000E+00  0.39999999673E+01  0.40000000000E+01  0.51109989000E-03 0.  1.
     -623   -1    0    0    0    0  0.00000000000E+00  0.00000000000E+00  0.12525980253E-10  0.17130000000E+03  0.17130000000E+03 0.  1.
       11    1    1    2    0    0  0.60635988447E-03 -0.78879855928E-03  0.15660526557E-01  0.15700420077E-01  0.51109989000E-03 0. -1.
     -623    1    1    2    0    0 -0.85466533058E-03  0.83540362753E-03  0.44390800528E-04  0.17130000000E+03  0.17130000000E+03 0.  1.
      622    1    1    2    0    0  0.24830544653E-03 -0.46605068660E-04  0.39842950520E+01  0.39842995777E+01  0.60000000000E-02 0.  1.
</event>
<event>
 5   0  0.1211800E+10  0.9118800E+02  0.7818608E-02  0.1180000E+00
       11   -1    0    0    0    0  0.00000000000E+00  0.00000000000E+00  0.39999999673E+01  0.40000000000E+01  0.51109989000E-03 0. -1.
     -623   -1    0    0    0    0  0.00000000000E+00  0.00000000000E+00  0.12525980253E-10  0.17130000000E+03  0.17130000000E+03 0. -1.
       11    1    1    2    0    0 -0.11546077283E-02  0.17379144635E-02  0.57329088719E+00  0.57329491191E+00  0.51109989000E-03 0. -1.
     -623    1    1    2    0    0  0.35208287438E-02 -0.50282819937E-03  0.10321414489E-04  0.17130000004E+03  0.17130000000E+03 0. -1.
      622    1    1    2    0    0 -0.23662210607E-02 -0.12350862577E-02  0.34266988101E+01  0.34267051025E+01  0.60000000000E-02 0. -1.
</event>
<event>
 5   0  0.1211800E+10  0.9118800E+02  0.7818608E-02  0.1180000E+00
       11   -1    0    0    0    0  0.00000000000E+00  0.00000000000E+00  0.39999999673E+01  0.40000000000E+01  0.51109989000E-03 0.  1.
     -623   -1    0    0    0    0  0.00000000000E+00  0.00000000000E+00  0.12525980253E-10  0.17130000000E+03  0.17130000000E+03 0. -1.
       11    1    1    2    0    0 -0.11649691195E-02  0.36750258903E-03  0.33949364073E-02  0.36440397595E-02  0.51109989000E-03 0. -1.
     -623    1    1    2    0    0  0.59659287685E-03 -0.19702199314E-03  0.25362021259E-03  0.17130000000E+03  0.17130000000E+03 0. -1.
      622    1    1    2    0    0  0.56837624265E-03 -0.17048059590E-03  0.39963514107E+01  0.39963559589E+01  0.60000000000E-02 0.  1.
</event>
<event>
 5   0  0.1211800E+10  0.9118800E+02  0.7818608E-02  0.1180000E+00
       11   -1    0    0    0    0  0.00000000000E+00  0.00000000000E+00  0.39999999673E+01  0.40000000000E+01  0.51109989000E-03 0. -1.
     -623   -1    0    0    0    0  0.00000000000E+00  0.00000000000E+00  0.12525980253E-10  0.17130000000E+03  0.17130000000E+03 0.  1.
       11    1    1    2    0    0  0.20361834728E-04  0.12135217009E-03  0.29231730409E+00  0.29231777680E+00  0.51109989000E-03 0. -1.
     -623    1    1    2    0    0 -0.56220083305E-04 -0.16464102150E-03  0.52953745113E-05  0.17130000000E+03  0.17130000000E+03 0.  1.
      622    1    1    2    0    0  0.35858249283E-04  0.43288853477E-04  0.37076774181E+01  0.37076822734E+01  0.60000000000E-02 0. -1.
</event>
<event>
 5   0  0.1211800E+10  0.9118800E+02  0.7818608E-02  0.1180000E+00
       11   -1    0    0    0    0  0.00000000000E+00  0.00000000000E+00  0.39999999673E+01  0.40000000000E+01  0.51109989000E-03 0.  1.
     -623   -1    0    0    0    0  0.00000000000E+00  0.00000000000E+00  0.12525980253E-10  0.17130000000E+03  0.17130000000E+03 0.  1.
       11    1    1    2    0    0 -0.98717246445E-03 -0.24875036356E-03  0.97973038521E-02  0.98633042938E-02  0.51109989000E-03 0.  1.
     -623    1    1    2    0    0 -0.18921567400E-03 -0.55273088613E-03  0.70733847751E-04  0.17130000000E+03  0.17130000000E+03 0.  1.
      622    1    1    2    0    0  0.11763881385E-02  0.80148124969E-03  0.39901319297E+01  0.39901366947E+01  0.60000000000E-02 0.  1.
</event>
<event>
 5   0  0.1211800E+10  0.9118800E+02  0.7818608E-02  0.1180000E+00
       11   -1    0    0    0    0  0.00000000000E+00  0.00000000000E+00  0.39999999673E+01  0.40000000000E+01  0.51109989000E-03 0. -1.
     -623   -1    0    0    0    0  0.00000000000E+00  0.00000000000E+00  0.12525980253E-10  0.17130000000E+03  0.17130000000E+03 0. -1.
       11    1    1    2    0    0  0.45580978512E-03  0.16056272070E-03  0.85563448810E-02  0.85852084289E-02  0.51109989000E-03 0. -1.
     -623    1    1    2    0    0 -0.68557163384E-04 -0.74629068509E-04  0.33360333605E-04  0.17130000000E+03  0.17130000000E+03 0. -1.
      622    1    1    2    0    0 -0.38725262162E-03 -0.85933652063E-04  0.39914102691E+01  0.39914147985E+01  0.60000000000E-02 0. -1.
</event>
<event>
 5   0  0.1211800E+10  0.9118800E+02  0.7818608E-02  0.1180000E+00
       11   -1    0    0    0    0  0.00000000000E+00  0.00000000000E+00  0.39999999673E+01  0.40000000000E+01  0.51109989000E-03 0. -1.
     -623   -1    0    0    0    0  0.00000000000E+00  0.00000000000E+00  0.12525980253E-10  0.17130000000E+03  0.17130000000E+03 0.  1.
       11    1    1    2    0    0 -0.84765844451E-03 -0.84650370535E-03  0.44361454025E+00  0.44361645217E+00  0.51109989000E-03 0. -1.
     -623    1    1    2    0    0 -0.15414053654E-02  0.26903005697E-03  0.77970866008E-05  0.17130000001E+03  0.17130000000E+03 0.  1.
      622    1    1    2    0    0  0.23890638272E-02  0.57747364537E-03  0.35563776748E+01  0.35563835854E+01  0.60000000000E-02 0. -1.
</event>
<event>
 5   0  0.1211800E+10  0.9118800E+02  0.7818608E-02  0.1180000E+00
       11   -1    0    0    0    0  0.00000000000E+00  0.00000000000E+00  0.39999999673E+01  0.40000000000E+01  0.51109989000E-03 0. -1.
     -623   -1    0    0    0    0  0.00000000000E+00  0.00000000000E+00  0.12525980253E-10  0.17130000000E+03  0.17130000000E+03 0.  1.
       11    1    1    2    0    0 -0.26166900985E-03 -0.70667012419E-03  0.23329083218E-01  0.23346845602E-01  0.51109989000E-03 0. -1.
     -623    1    1    2    0    0  0.99189095642E-03  0.11908427494E-02  0.22359697088E-04  0.17130000001E+03  0.17130000000E+03 0.  1.
      622    1    1    2    0    0 -0.73022194658E-03 -0.48417262518E-03  0.39766485244E+01  0.39766531474E+01  0.60000000000E-02 0. -1.
</event>
<event>
 5   0  0.1211800E+10  0.9118800E+02  0.7818608E-02  0.1180000E+00
       11   -1    0    0    0    0  0.00000000000E+00  0.00000000000E+00  0.39999999673E+01  0.40000000000E+01  0.51109989000E-03 0.  1.
     -623   -1    0    0    0    0  0.00000000000E+00  0.00000000000E+00  0.12525980253E-10  0.17130000000E+03  0.17130000000E+03 0.  1.
       11    1    1    2    0    0 -0.37409082828E-02 -0.38363480740E-02  0.44424169653E+00  0.44427430505E+00  0.51109989000E-03 0.  1.
     -623    1    1    2    0    0  0.27657696463E-04 -0.10394756517E-03  0.41760286390E-04  0.17130000000E+03  0.17130000000E+03 0.  1.
      622    1    1    2    0    0  0.37132505863E-02  0.39402956395E-02  0.35557165201E+01  0.35557257045E+01  0.60000000000E-02 0.  1.
</event>
<event>
 5   0  0.1211800E+10  0.9118800E+02  0.7818608E-02  0.1180000E+00
       11   -1    0    0    0    0  0.00000000000E+00  0.00000000000E+00  0.39999999673E+01  0.40000000000E+01  0.51109989000E-03 0.  1.
     -623   -1    0    0    0    0  0.00000000000E+00  0.00000000000E+00  0.12525980253E-10  0.17130000000E+03  0.17130000000E+03 0. -1.
       11    1    1    2    0    0 -0.58149093329E-03  0.29107201137E-03  0.96752136398E-01  0.96755671540E-01  0.51109989000E-03 0.  1.
     -623    1    1    2    0    0  0.45865002023E-04  0.30664179314E-05  0.81618937506E-05  0.17130000000E+03  0.17130000000E+03 0. -1.
      622    1    1    2    0    0  0.53562593136E-03 -0.29413842929E-03  0.39032396608E+01  0.39032443202E+01  0.60000000000E-02 0.  1.
</event>
<event>
 5   0  0.1211800E+10  0.9118800E+02  0.7818608E-02  0.1180000E+00
       11   -1    0    0    0    0  0.00000000000E+00  0.00000000000E+00  0.39999999673E+01  0.40000000000E+01  0.51109989000E-03 0.  1.
     -623   -1    0    0    0    0  0.00000000000E+00  0.00000000000E+00  0.12525980253E-10  0.17130000000E+03  0.17130000000E+03 0.  1.
       11    1    1    2    0    0 -0.63966187491E-03 -0.76239969375E-04  0.11107993317E+00  0.11108297689E+00  0.51109989000E-03 0.  1.
     -623    1    1    2    0    0  0.94084266131E-03  0.56954759024E-03  0.76861074167E-05  0.17130000000E+03  0.17130000000E+03 0.  1.
      622    1    1    2    0    0 -0.30118079738E-03 -0.49330762750E-03  0.38889123947E+01  0.38889170662E+01  0.60000000000E-02 0.  1.
</event>
<event>
 5   0  0.1211800E+10  0.9118800E+02  0.7818608E-02  0.1180000E+00
       11   -1    0    0    0    0  0.00000000000E+00  0.00000000000E+00  0.39999999673E+01  0.40000000000E+01  0.51109989000E-03 0.  1.
     -623   -1    0    0    0    0  0.00000000000E+00  0.00000000000E+00  0.12525980253E-10  0.17130000000E+03  0.17130000000E+03 0.  1.
       11    1    1    2    0    0 -0.13722708432E-03  0.48962461303E-03  0.21124658382E+00  0.21124781410E+00  0.51109989000E-03 0.  1.
     -623    1    1    2    0    0  0.53285225333E-04  0.34988272192E-04  0.59858103261E-05  0.17130000000E+03  0.17130000000E+03 0.  1.
      622    1    1    2    0    0  0.83941858948E-04 -0.52461288525E-03  0.37887474004E+01  0.37887521886E+01  0.60000000000E-02 0.  1.
</event>
<event>
 5   0  0.1211800E+10  0.9118800E+02  0.7818608E-02  0.1180000E+00
       11   -1    0    0    0    0  0.00000000000E+00  0.00000000000E+00  0.39999999673E+01  0.40000000000E+01  0.51109989000E-03 0.  1.
     -623   -1    0    0    0    0  0.00000000000E+00  0.00000000000E+00  0.12525980253E-10  0.17130000000E+03  0.17130000000E+03 0.  1.
       11    1    1    2    0    0 -0.13001011568E-02 -0.30402442464E-03  0.36284538870E+00  0.36284820520E+00  0.51109989000E-03 0.  1.
     -623    1    1    2    0    0 -0.11815092628E-03  0.36428351231E-04  0.80191940732E-05  0.17130000000E+03  0.17130000000E+03 0.  1.
      622    1    1    2    0    0  0.14182520822E-02  0.26759607367E-03  0.36371465305E+01  0.36371517658E+01  0.60000000000E-02 0.  0.
</event>
<event>
 5   0  0.1211800E+10  0.9118800E+02  0.7818608E-02  0.1180000E+00
       11   -1    0    0    0    0  0.00000000000E+00  0.00000000000E+00  0.39999999673E+01  0.40000000000E+01  0.51109989000E-03 0.  1.
     -623   -1    0    0    0    0  0.00000000000E+00  0.00000000000E+00  0.12525980253E-10  0.17130000000E+03  0.17130000000E+03 0.  1.
       11    1    1    2    0    0 -0.55519032744E-02 -0.81298906137E-03  0.42434654748E+00  0.42438395135E+00  0.51109989000E-03 0.  1.
     -623    1    1    2    0    0  0.11734859842E-02 -0.56566371194E-03  0.45356808508E-04  0.17130000000E+03  0.17130000000E+03 0.  1.
      622    1    1    2    0    0  0.43784172902E-02  0.13786527733E-02  0.35756080631E+01  0.35756160437E+01  0.60000000000E-02 0.  1.
</event>
<event>
 5   0  0.1211800E+10  0.9118800E+02  0.7818608E-02  0.1180000E+00
       11   -1    0    0    0    0  0.00000000000E+00  0.00000000000E+00  0.39999999673E+01  0.40000000000E+01  0.51109989000E-03 0.  1.
     -623   -1    0    0    0    0  0.00000000000E+00  0.00000000000E+00  0.12525980253E-10  0.17130000000E+03  0.17130000000E+03 0.  1.
       11    1    1    2    0    0  0.47561480857E-02  0.25912167769E-02  0.91825970161E+00  0.91827581705E+00  0.51109989000E-03 0.  1.
     -623    1    1    2    0    0  0.83461007067E-04 -0.53862864262E-06  0.26812777450E-04  0.17130000000E+03  0.17130000000E+03 0.  1.
      622    1    1    2    0    0 -0.48396090928E-02 -0.25906781483E-02  0.30817134530E+01  0.30817241829E+01  0.60000000000E-02 0.  0.
</event>
<event>
 5   0  0.1211800E+10  0.9118800E+02  0.7818608E-02  0.1180000E+00
       11   -1    0    0    0    0  0.00000000000E+00  0.00000000000E+00  0.39999999673E+01  0.40000000000E+01  0.51109989000E-03 0.  1.
     -623   -1    0    0    0    0  0.00000000000E+00  0.00000000000E+00  0.12525980253E-10  0.17130000000E+03  0.17130000000E+03 0.  1.
       11    1    1    2    0    0 -0.40995585682E-02  0.25779105128E-02  0.23364142343E+00  0.23369216497E+00  0.51109989000E-03 0.  1.
     -623    1    1    2    0    0 -0.20808678977E-04  0.10665981833E-03  0.58698786736E-04  0.17130000000E+03  0.17130000000E+03 0.  1.
      622    1    1    2    0    0  0.41203672471E-02 -0.26845703310E-02  0.37662998414E+01  0.37663078313E+01  0.60000000000E-02 0.  1.
</event>
<event>
 5   0  0.1211800E+10  0.9118800E+02  0.7818608E-02  0.1180000E+00
       11   -1    0    0    0    0  0.00000000000E+00  0.00000000000E+00  0.39999999673E+01  0.40000000000E+01  0.51109989000E-03 0.  1.
     -623   -1    0    0    0    0  0.00000000000E+00  0.00000000000E+00  0.12525980253E-10  0.17130000000E+03  0.17130000000E+03 0.  1.
       11    1    1    2    0    0 -0.29045816112E-02 -0.17123985569E-02  0.54971264583E-01  0.55076946685E-01  0.51109989000E-03 0.  1.
     -623    1    1    2    0    0  0.12972796185E-02  0.11307953492E-02  0.11059128066E-03  0.17130000001E+03  0.17130000000E+03 0.  1.
      622    1    1    2    0    0  0.16073019924E-02  0.58160320753E-03  0.39449181123E+01  0.39449230455E+01  0.60000000000E-02 0.  1.
</event>
<event>
 5   0  0.1211800E+10  0.9118800E+02  0.7818608E-02  0.1180000E+00
       11   -1    0    0    0    0  0.00000000000E+00  0.00000000000E+00  0.39999999673E+01  0.40000000000E+01  0.51109989000E-03 0. -1.
     -623   -1    0    0    0    0  0.00000000000E+00  0.00000000000E+00  0.12525980253E-10  0.17130000000E+03  0.17130000000E+03 0.  1.
       11    1    1    2    0    0 -0.32980500700E-03  0.76558652896E-03  0.99673955357E+00  0.99674003319E+00  0.51109989000E-03 0. -1.
     -623    1    1    2    0    0  0.12822655898E-03 -0.59274466880E-04  0.65303534331E-05  0.17130000000E+03  0.17130000000E+03 0.  1.
      622    1    1    2    0    0  0.20157844803E-03 -0.70631206208E-03  0.30032538834E+01  0.30032599668E+01  0.60000000000E-02 0. -1.
</event>
<event>
 5   0  0.1211800E+10  0.9118800E+02  0.7818608E-02  0.1180000E+00
       11   -1    0    0    0    0  0.00000000000E+00  0.00000000000E+00  0.39999999673E+01  0.40000000000E+01  0.51109989000E-03 0. -1.
     -623   -1    0    0    0    0  0.00000000000E+00  0.00000000000E+00  0.12525980253E-10  0.17130000000E+03  0.17130000000E+03 0.  1.
       11    1    1    2    0    0  0.23615742253E-02 -0.24352100457E-02  0.83142408811E-01  0.83213151886E-01  0.51109989000E-03 0. -1.
     -623    1    1    2    0    0 -0.19864883576E-02  0.14636710660E-03  0.76004362135E-04  0.17130000001E+03  0.17130000000E+03 0.  1.
      622    1    1    2    0    0 -0.37508586843E-03  0.22888429392E-02  0.39167815527E+01  0.39167868350E+01  0.60000000000E-02 0. -1.
</event>
<event>
 5   0  0.1211800E+10  0.9118800E+02  0.7818608E-02  0.1180000E+00
       11   -1    0    0    0    0  0.00000000000E+00  0.00000000000E+00  0.39999999673E+01  0.40000000000E+01  0.51109989000E-03 0. -1.
     -623   -1    0    0    0    0  0.00000000000E+00  0.00000000000E+00  0.12525980253E-10  0.17130000000E+03  0.17130000000E+03 0. -1.
       11    1    1    2    0    0  0.37888352206E-02 -0.29929094376E-02  0.10762955155E+01  0.10763064669E+01  0.51109989000E-03 0. -1.
     -623    1    1    2    0    0 -0.26579614725E-04 -0.42739908465E-04  0.21071991676E-04  0.17130000000E+03  0.17130000000E+03 0. -1.
      622    1    1    2    0    0 -0.37622556059E-02  0.30356493460E-02  0.29236833798E+01  0.29236935331E+01  0.60000000000E-02 0. -1.
</event>
<event>
 5   0  0.1211800E+10  0.9118800E+02  0.7818608E-02  0.1180000E+00
       11   -1    0    0    0    0  0.00000000000E+00  0.00000000000E+00  0.39999999673E+01  0.40000000000E+01  0.51109989000E-03 0. -1.
     -623   -1    0    0    0    0  0.00000000000E+00  0.00000000000E+00  0.12525980253E-10  0.17130000000E+03  0.17130000000E+03 0. -1.
       11    1    1    2    0    0 -0.80589307485E-03 -0.52372561241E-05  0.27582869700E+00  0.27583034786E+00  0.51109989000E-03 0. -1.
     -623    1    1    2    0    0 -0.58306036324E-03 -0.17304699641E-02  0.71247366633E-05  0.17130000001E+03  0.17130000000E+03 0. -1.
      622    1    1    2    0    0  0.13889534381E-02  0.17357072202E-02  0.37241641456E+01  0.37241696424E+01  0.60000000000E-02 0. -1.
</event>
<event>
 5   0  0.1211800E+10  0.9118800E+02  0.7818608E-02  0.1180000E+00
       11   -1    0    0    0    0  0.00000000000E+00  0.00000000000E+00  0.39999999673E+01  0.40000000000E+01  0.51109989000E-03 0.  1.
     -623   -1    0    0    0    0  0.00000000000E+00  0.00000000000E+00  0.12525980253E-10  0.17130000000E+03  0.17130000000E+03 0. -1.
       11    1    1    2    0    0 -0.33421412007E-03 -0.30727510013E-03  0.88430887327E-01  0.88433529691E-01  0.51109989000E-03 0.  1.
     -623    1    1    2    0    0 -0.12566091227E-03  0.11995989661E-03  0.72430700300E-05  0.17130000000E+03  0.17130000000E+03 0. -1.
      622    1    1    2    0    0  0.45987503333E-03  0.18731520257E-03  0.39115618687E+01  0.39115665020E+01  0.60000000000E-02 0.  1.
</event>
<event>
 5   0  0.1211800E+10  0.9118800E+02  0.7818608E-02  0.1180000E+00
       11   -1    0    0    0    0  0.00000000000E+00  0.00000000000E+00  0.39999999673E+01  0.40000000000E+01  0.51109989000E-03 0.  1.
     -623   -1    0    0    0    0  0.00000000000E+00  0.00000000000E+00  0.12525980253E-10  0.17130000000E+03  0.17130000000E+03 0.  1.
       11    1    1    2    0    0 -0.91954953863E-03 -0.81959444485E-02  0.55545951736E+00  0.55552097685E+00  0.51109989000E-03 0.  1.
     -623    1    1    2    0    0  0.67104164674E-03 -0.50692307022E-03  0.77658082946E-04  0.17130000000E+03  0.17130000000E+03 0.  1.
      622    1    1    2    0    0  0.24850789189E-03  0.87028675188E-02  0.34444627919E+01  0.34444790211E+01  0.60000000000E-02 0.  1.
</event>
<event>
 5   0  0.1211800E+10  0.9118800E+02  0.7818608E-02  0.1180000E+00
       11   -1    0    0    0    0  0.00000000000E+00  0.00000000000E+00  0.39999999673E+01  0.40000000000E+01  0.51109989000E-03 0. -1.
     -623   -1    0    0    0    0  0.00000000000E+00  0.00000000000E+00  0.12525980253E-10  0.17130000000E+03  0.17130000000E+03 0. -1.
       11    1    1    2    0    0  0.24977112205E-03 -0.57984635998E-03  0.72521251347E-01  0.72525800426E-01  0.51109989000E-03 0. -1.
     -623    1    1    2    0    0 -0.26892526395E-03 -0.23504166203E-03  0.91844974452E-05  0.17130000000E+03  0.17130000000E+03 0. -1.
      622    1    1    2    0    0  0.19154140662E-04  0.81488802092E-03  0.39274695131E+01  0.39274741808E+01  0.60000000000E-02 0. -1.
</event>
<event>
 5   0  0.1211800E+10  0.9118800E+02  0.7818608E-02  0.1180000E+00
       11   -1    0    0    0    0  0.00000000000E+00  0.00000000000E+00  0.39999999673E+01  0.40000000000E+01  0.51109989000E-03 0. -1.
     -623   -1    0    0    0    0  0.00000000000E+00  0.00000000000E+00  0.12525980253E-10  0.17130000000E+03  0.17130000000E+03 0.  1.
       11    1    1    2    0    0  0.32918883409E-03  0.12507736456E-03  0.34706769075E-01  0.34712318450E-01  0.51109989000E-03 0. -1.
     -623    1    1    2    0    0 -0.74414470915E-03  0.11042027575E-03  0.10086488360E-04  0.17130000000E+03  0.17130000000E+03 0.  1.
      622    1    1    2    0    0  0.41495587506E-03 -0.23549764030E-03  0.39652831118E+01  0.39652876799E+01  0.60000000000E-02 0. -1.
</event>
<event>
 5   0  0.1211800E+10  0.9118800E+02  0.7818608E-02  0.1180000E+00
       11   -1    0    0    0    0  0.00000000000E+00  0.00000000000E+00  0.39999999673E+01  0.40000000000E+01  0.51109989000E-03 0. -1.
     -623   -1    0    0    0    0  0.00000000000E+00  0.00000000000E+00  0.12525980253E-10  0.17130000000E+03  0.17130000000E+03 0.  1.
       11    1    1    2    0    0  0.10511202501E-03  0.91466399271E-03  0.20910328285E-01  0.20936826647E-01  0.51109989000E-03 0. -1.
     -623    1    1    2    0    0  0.70329319579E-04 -0.86756461238E-05  0.31096429411E-04  0.17130000000E+03  0.17130000000E+03 0.  1.
      622    1    1    2    0    0 -0.17544134459E-03 -0.90598834659E-03  0.39790585426E+01  0.39790631733E+01  0.60000000000E-02 0. -1.
</event>
<event>
 5   0  0.1211800E+10  0.9118800E+02  0.7818608E-02  0.1180000E+00
       11   -1    0    0    0    0  0.00000000000E+00  0.00000000000E+00  0.39999999673E+01  0.40000000000E+01  0.51109989000E-03 0. -1.
     -623   -1    0    0    0    0  0.00000000000E+00  0.00000000000E+00  0.12525980253E-10  0.17130000000E+03  0.17130000000E+03 0. -1.
       11    1    1    2    0    0 -0.72540616575E-03 -0.19554772621E-04  0.30184066469E-01  0.30197113905E-01  0.51109989000E-03 0. -1.
     -623    1    1    2    0    0  0.83861789063E-03 -0.62062384705E-04  0.17553546943E-04  0.17130000000E+03  0.17130000000E+03 0. -1.
      622    1    1    2    0    0 -0.11321172540E-03  0.81617157365E-04  0.39697983498E+01  0.39698028865E+01  0.60000000000E-02 0. -1.
</event>
<event>
 5   0  0.1211800E+10  0.9118800E+02  0.7818608E-02  0.1180000E+00
       11   -1    0    0    0    0  0.00000000000E+00  0.00000000000E+00  0.39999999673E+01  0.40000000000E+01  0.51109989000E-03 0. -1.
     -623   -1    0    0    0    0  0.00000000000E+00  0.00000000000E+00  0.12525980253E-10  0.17130000000E+03  0.17130000000E+03 0. -1.
       11    1    1    2    0    0  0.12970704100E-02  0.12782177250E-03  0.18328349475E+00  0.18328884145E+00  0.51109989000E-03 0. -1.
     -623    1    1    2    0    0 -0.11837506253E-03  0.88566506711E-04  0.10218368878E-04  0.17130000000E+03  0.17130000000E+03 0. -1.
      622    1    1    2    0    0 -0.11786953475E-02 -0.21638827921E-03  0.38167062542E+01  0.38167111585E+01  0.60000000000E-02 0. -1.
</event>
<event>
 5   0  0.1211800E+10  0.9118800E+02  0.7818608E-02  0.1180000E+00
       11   -1    0    0    0    0  0.00000000000E+00  0.00000000000E+00  0.39999999673E+01  0.40000000000E+01  0.51109989000E-03 0. -1.
     -623   -1    0    0    0    0  0.00000000000E+00  0.00000000000E+00  0.12525980253E-10  0.17130000000E+03  0.17130000000E+03 0. -1.
       11    1    1    2    0    0 -0.22143481801E-02 -0.35789019661E-03  0.49065926853E+00  0.49066466190E+00  0.51109989000E-03 0. -1.
     -623    1    1    2    0    0  0.28493370284E-04  0.13752861696E-05  0.11188774895E-04  0.17130000000E+03  0.17130000000E+03 0. -1.
      622    1    1    2    0    0  0.21858548098E-02  0.35651491044E-03  0.35093295101E+01  0.35093353381E+01  0.60000000000E-02 0.  0.
</event>
<event>
 5   0  0.1211800E+10  0.9118800E+02  0.7818608E-02  0.1180000E+00
       11   -1    0    0    0    0  0.00000000000E+00  0.00000000000E+00  0.39999999673E+01  0.40000000000E+01  0.51109989000E-03 0.  1.
     -623   -1    0    0    0    0  0.00000000000E+00  0.00000000000E+00  0.12525980253E-10  0.17130000000E+03  0.17130000000E+03 0.  1.
       11    1    1    2    0    0 -0.14949093928E-02 -0.88906693931E-03  0.20113285168E+00  0.20114102128E+00  0.51109989000E-03 0.  1.
     -623    1    1    2    0    0 -0.12915632965E-03 -0.34917695413E-03  0.13424593552E-04  0.17130000000E+03  0.17130000000E+03 0.  1.
      622    1    1    2    0    0  0.16240657225E-02  0.12382438934E-02  0.37988536911E+01  0.37988589783E+01  0.60000000000E-02 0.  1.
</event>
<event>
 5   0  0.1211800E+10  0.9118800E+02  0.7818608E-02  0.1180000E+00
       11   -1    0    0    0    0  0.00000000000E+00  0.00000000000E+00  0.39999999673E+01  0.40000000000E+01  0.51109989000E-03 0. -1.
     -623   -1    0    0    0    0  0.00000000000E+00  0.00000000000E+00  0.12525980253E-10  0.17130000000E+03  0.17130000000E+03 0. -1.
       11    1    1    2    0    0 -0.20892047173E-03  0.32751391764E-03  0.23229407488E+00  0.23229496198E+00  0.51109989000E-03 0. -1.
     -623    1    1    2    0    0  0.90149521816E-04 -0.73518392198E-04  0.56423782255E-05  0.17130000000E+03  0.17130000000E+03 0. -1.
      622    1    1    2    0    0  0.11877094775E-03 -0.25399552367E-03  0.37677003464E+01  0.37677051343E+01  0.60000000000E-02 0. -1.
</event>
<event>
 5   0  0.1211800E+10  0.9118800E+02  0.7818608E-02  0.1180000E+00
       11   -1    0    0    0    0  0.00000000000E+00  0.00000000000E+00  0.39999999673E+01  0.40000000000E+01  0.51109989000E-03 0.  1.
     -623   -1    0    0    0    0  0.00000000000E+00  0.00000000000E+00  0.12525980253E-10  0.17130000000E+03  0.17130000000E+03 0. -1.
       11    1    1    2    0    0 -0.13547308409E-02  0.94376431972E-03  0.10490445183E+01  0.10490459420E+01  0.51109989000E-03 0.  1.
     -623    1    1    2    0    0  0.24191125878E-04 -0.14823014706E-03  0.78981229654E-05  0.17130000000E+03  0.17130000000E+03 0. -1.
      622    1    1    2    0    0  0.13305397151E-02 -0.79553417288E-03  0.29509475450E+01  0.29509540519E+01  0.60000000000E-02 0.  1.
</event>
<event>
 5   0  0.1211800E+10  0.9118800E+02  0.7818608E-02  0.1180000E+00
       11   -1    0    0    0    0  0.00000000000E+00  0.00000000000E+00  0.39999999673E+01  0.40000000000E+01  0.51109989000E-03 0.  1.
     -623   -1    0    0    0    0  0.00000000000E+00  0.00000000000E+00  0.12525980253E-10  0.17130000000E+03  0.17130000000E+03 0. -1.
       11    1    1    2    0    0  0.78235138548E-03  0.31357668265E-03  0.79953415398E-01  0.79959491374E-01  0.51109989000E-03 0.  1.
     -623    1    1    2    0    0  0.31549666437E-03 -0.12635536038E-02  0.10908919954E-04  0.17130000000E+03  0.17130000000E+03 0. -1.
      622    1    1    2    0    0 -0.10978480505E-02  0.94997692387E-03  0.39200356517E+01  0.39200405123E+01  0.60000000000E-02 0.  1.
</event>
<event>
 5   0  0.1211800E+10  0.9118800E+02  0.7818608E-02  0.1180000E+00
       11   -1    0    0    0    0  0.00000000000E+00  0.00000000000E+00  0.39999999673E+01  0.40000000000E+01  0.51109989000E-03 0. -1.
     -623   -1    0    0    0    0  0.00000000000E+00  0.00000000000E+00  0.12525980253E-10  0.17130000000E+03  0.17130000000E+03 0.  1.
       11    1    1    2    0    0  0.83024285533E-03 -0.50595380919E-03  0.22415591348E-01  0.22442487617E-01  0.51109989000E-03 0. -1.
     -623    1    1    2    0    0 -0.40691833733E-03 -0.36579816286E-03  0.31507955294E-04  0.17130000000E+03  0.17130000000E+03 0.  1.
      622    1    1    2    0    0 -0.42332451800E-03  0.87175197205E-03  0.39775528681E+01  0.39775575115E+01  0.60000000000E-02 0. -1.
</event>
<event>
 5   0  0.1211800E+10  0.9118800E+02  0.7818608E-02  0.1180000E+00
       11   -1    0    0    0    0  0.00000000000E+00  0.00000000000E+00  0.39999999673E+01  0.40000000000E+01  0.51109989000E-03 0. -1.
     -623   -1    0    0    0    0  0.00000000000E+00  0.00000000000E+00  0.12525980253E-10  0.17130000000E+03  0.17130000000E+03 0. -1.
       11    1    1    2    0    0  0.27681905204E-02  0.10399394304E-02  0.23928907973E+00  0.23930789634E+00  0.51109989000E-03 0. -1.
     -623    1    1    2    0    0  0.15086953112E-03 -0.18654041110E-03  0.24800222593E-04  0.17130000000E+03  0.17130000000E+03 0. -1.
      622    1    1    2    0    0 -0.29190600515E-02 -0.85339901933E-03  0.37606860874E+01  0.37606921035E+01  0.60000000000E-02 0. -1.
</event>
<event>
 5   0  0.1211800E+10  0.9118800E+02  0.7818608E-02  0.1180000E+00
       11   -1    0    0    0    0  0.00000000000E+00  0.00000000000E+00  0.39999999673E+01  0.40000000000E+01  0.51109989000E-03 0. -1.
     -623   -1    0    0    0    0  0.00000000000E+00  0.00000000000E+00  0.12525980253E-10  0.17130000000E+03  0.17130000000E+03 0. -1.
       11    1    1    2    0    0  0.52213837551E-03  0.10521376497E-02  0.91952613032E-01  0.91961534819E-01  0.51109989000E-03 0.  1.
     -623    1    1    2    0    0  0.36350622272E-04  0.19502213891E-03  0.13734063617E-04  0.17130000000E+03  0.17130000000E+03 0. -1.
      622    1    1    2    0    0 -0.55848899778E-03 -0.12471597886E-02  0.39080336203E+01  0.39080384651E+01  0.60000000000E-02 0. -1.
</event>
<event>
 5   0  0.1211800E+10  0.9118800E+02  0.7818608E-02  0.1180000E+00
       11   -1    0    0    0    0  0.00000000000E+00  0.00000000000E+00  0.39999999673E+01  0.40000000000E+01  0.51109989000E-03 0. -1.
     -623   -1    0    0    0    0  0.00000000000E+00  0.00000000000E+00  0.12525980253E-10  0.17130000000E+03  0.17130000000E+03 0.  1.
       11    1    1    2    0    0  0.30602007927E-02 -0.12896234282E-02  0.16556642996E+00  0.16560051905E+00  0.51109989000E-03 0. -1.
     -623    1    1    2    0    0  0.34895819440E-03  0.11351581043E-02  0.40273575177E-04  0.17130000000E+03  0.17130000000E+03 0.  1.
      622    1    1    2    0    0 -0.34091589872E-02  0.15446532359E-03  0.38343932646E+01  0.38343994776E+01  0.60000000000E-02 0. -1.
</event>
<event>
 5   0  0.1211800E+10  0.9118800E+02  0.7818608E-02  0.1180000E+00
       11   -1    0    0    0    0  0.00000000000E+00  0.00000000000E+00  0.39999999673E+01  0.40000000000E+01  0.51109989000E-03 0. -1.
     -623   -1    0    0    0    0  0.00000000000E+00  0.00000000000E+00  0.12525980253E-10  0.17130000000E+03  0.17130000000E+03 0.  1.
       11    1    1    2    0    0  0.23602636504E-03 -0.25437931854E-03  0.59723786690E-01  0.59726981649E-01  0.51109989000E-03 0. -1.
     -623    1    1    2    0    0 -0.11196710271E-04  0.50024457151E-04  0.77422549958E-05  0.17130000000E+03  0.17130000000E+03 0.  1.
      622    1    1    2    0    0 -0.22482965483E-03  0.20435486162E-03  0.39402684197E+01  0.39402729996E+01  0.60000000000E-02 0. -1.
</event>
<event>
 5   0  0.1211800E+10  0.9118800E+02  0.7818608E-02  0.1180000E+00
       11   -1    0    0    0    0  0.00000000000E+00  0.00000000000E+00  0.39999999673E+01  0.40000000000E+01  0.51109989000E-03 0.  1.
     -623   -1    0    0    0    0  0.00000000000E+00  0.00000000000E+00  0.12525980253E-10  0.17130000000E+03  0.17130000000E+03 0.  1.
       11    1    1    2    0    0 -0.13409889479E-02  0.62522703308E-03  0.56124281098E+00  0.56124499397E+00  0.51109989000E-03 0.  1.
     -623    1    1    2    0    0 -0.19425368306E-02 -0.11849309853E-02  0.90131255619E-05  0.17130000002E+03  0.17130000000E+03 0.  1.
      622    1    1    2    0    0  0.32835257785E-02  0.55970395221E-03  0.34387481433E+01  0.34387549909E+01  0.60000000000E-02 0.  1.
</event>
<event>
 5   0  0.1211800E+10  0.9118800E+02  0.7818608E-02  0.1180000E+00
       11   -1    0    0    0    0  0.00000000000E+00  0.00000000000E+00  0.39999999673E+01  0.40000000000E+01  0.51109989000E-03 0.  1.
     -623   -1    0    0    0    0  0.00000000000E+00  0.00000000000E+00  0.12525980253E-10  0.17130000000E+03  0.17130000000E+03 0.  1.
       11    1    1    2    0    0 -0.33010176199E-03 -0.27319647491E-03  0.30011362277E-01  0.30018772332E-01  0.51109989000E-03 0.  1.
     -623    1    1    2    0    0  0.86330808625E-04  0.14873697604E-03  0.11920965556E-04  0.17130000000E+03  0.17130000000E+03 0.  1.
      622    1    1    2    0    0  0.24377095327E-03  0.12445949871E-03  0.39699766884E+01  0.39699812319E+01  0.60000000000E-02 0.  1.
</event>
<event>
 5   0  0.1211800E+10  0.9118800E+02  0.7818608E-02  0.1180000E+00
       11   -1    0    0    0    0  0.00000000000E+00  0.00000000000E+00  0.39999999673E+01  0.40000000000E+01  0.51109989000E-03 0. -1.
     -623   -1    0    0    0    0  0.00000000000E+00  0.00000000000E+00  0.12525980253E-10  0.17130000000E+03  0.17130000000E+03 0. -1.
       11    1    1    2    0    0  0.35605605939E-02 -0.69276141792E-03  0.42996969128E+00  0.42998529528E+00  0.51109989000E-03 0. -1.
     -623    1    1    2    0    0 -0.29794015770E-03  0.35694130296E-03  0.22120630952E-04  0.17130000000E+03  0.17130000000E+03 0. -1.
      622    1    1    2    0    0 -0.32626204346E-02  0.33582011305E-03  0.35700081768E+01  0.35700147254E+01  0.60000000000E-02 0. -1.
</event>
<event>
 5   0  0.1211800E+10  0.9118800E+02  0.7818608E-02  0.1180000E+00
       11   -1    0    0    0    0  0.00000000000E+00  0.00000000000E+00  0.39999999673E+01  0.40000000000E+01  0.51109989000E-03 0.  1.
     -623   -1    0    0    0    0  0.00000000000E+00  0.00000000000E+00  0.12525980253E-10  0.17130000000E+03  0.17130000000E+03 0.  1.
       11    1    1    2    0    0 -0.11053633553E-02  0.57736509437E-02  0.38105424647E+00  0.38109993027E+00  0.51109989000E-03 0.  1.
     -623    1    1    2    0    0  0.37465202089E-03  0.12165535739E-02  0.57454651856E-04  0.17130000000E+03  0.17130000000E+03 0.  1.
      622    1    1    2    0    0  0.73071133467E-03 -0.69902045167E-02  0.36188882631E+01  0.36189000619E+01  0.60000000000E-02 0.  1.
</event>
<event>
 5   0  0.1211800E+10  0.9118800E+02  0.7818608E-02  0.1180000E+00
       11   -1    0    0    0    0  0.00000000000E+00  0.00000000000E+00  0.39999999673E+01  0.40000000000E+01  0.51109989000E-03 0. -1.
     -623   -1    0    0    0    0  0.00000000000E+00  0.00000000000E+00  0.12525980253E-10  0.17130000000E+03  0.17130000000E+03 0.  1.
       11    1    1    2    0    0 -0.22606173358E-02 -0.29068885540E-02  0.82926590587E+00  0.82927423947E+00  0.51109989000E-03 0. -1.
     -623    1    1    2    0    0 -0.28776448857E-02  0.19028072612E-02  0.18334993271E-04  0.17130000003E+03  0.17130000000E+03 0.  1.
      622    1    1    2    0    0  0.51382622404E-02  0.10040812804E-02  0.31707157527E+01  0.31707257520E+01  0.60000000000E-02 0. -1.
</event>
<event>
 5   0  0.1211800E+10  0.9118800E+02  0.7818608E-02  0.1180000E+00
       11   -1    0    0    0    0  0.00000000000E+00  0.00000000000E+00  0.39999999673E+01  0.40000000000E+01  0.51109989000E-03 0. -1.
     -623   -1    0    0    0    0  0.00000000000E+00  0.00000000000E+00  0.12525980253E-10  0.17130000000E+03  0.17130000000E+03 0.  1.
       11    1    1    2    0    0 -0.33318949651E-03  0.20668001821E-02  0.68985394698E+00  0.68985731283E+00  0.51109989000E-03 0. -1.
     -623    1    1    2    0    0 -0.11967303277E-03 -0.22978667906E-04  0.94330402138E-05  0.17130000000E+03  0.17130000000E+03 0.  1.
      622    1    1    2    0    0  0.45286252941E-03 -0.20438215141E-02  0.33101365920E+01  0.33101426918E+01  0.60000000000E-02 0. -1.
</event>
<event>
 5   0  0.1211800E+10  0.9118800E+02  0.7818608E-02  0.1180000E+00
       11   -1    0    0    0    0  0.00000000000E+00  0.00000000000E+00  0.39999999673E+01  0.40000000000E+01  0.51109989000E-03 0.  1.
     -623   -1    0    0    0    0  0.00000000000E+00  0.00000000000E+00  0.12525980253E-10  0.17130000000E+03  0.17130000000E+03 0. -1.
       11    1    1    2    0    0 -0.41361326089E-02  0.14765024229E-02  0.26887197591E+00  0.26890832696E+00  0.51109989000E-03 0.  1.
     -623    1    1    2    0    0  0.21314780216E-02 -0.11151943020E-02  0.41715654170E-04  0.17130000002E+03  0.17130000000E+03 0. -1.
      622    1    1    2    0    0  0.20046545873E-02 -0.36130812087E-03  0.37310862758E+01  0.37310916561E+01  0.60000000000E-02 0.  1.
</event>
<event>
 5   0  0.1211800E+10  0.9118800E+02  0.7818608E-02  0.1180000E+00
       11   -1    0    0    0    0  0.00000000000E+00  0.00000000000E+00  0.39999999673E+01  0.40000000000E+01  0.51109989000E-03 0. -1.
     -623   -1    0    0    0    0  0.00000000000E+00  0.00000000000E+00  0.12525980253E-10  0.17130000000E+03  0.17130000000E+03 0.  1.
       11    1    1    2    0    0  0.11138212695E-03 -0.43462894160E-03  0.26863839438E-01  0.26872446869E-01  0.51109989000E-03 0. -1.
     -623    1    1    2    0    0  0.15626987936E-03  0.85803618858E-03  0.13139026515E-04  0.17130000000E+03  0.17130000000E+03 0.  1.
      622    1    1    2    0    0 -0.26765200652E-03 -0.42340724817E-03  0.39731229944E+01  0.39731275564E+01  0.60000000000E-02 0. -1.
</event>
<event>
 5   0  0.1211800E+10  0.9118800E+02  0.7818608E-02  0.1180000E+00
       11   -1    0    0    0    0  0.00000000000E+00  0.00000000000E+00  0.39999999673E+01  0.40000000000E+01  0.51109989000E-03 0. -1.
     -623   -1    0    0    0    0  0.00000000000E+00  0.00000000000E+00  0.12525980253E-10  0.17130000000E+03  0.17130000000E+03 0. -1.
       11    1    1    2    0    0  0.15692215243E-02  0.17375660426E-03  0.78622493090E-01  0.78640004378E-01  0.51109989000E-03 0. -1.
     -623    1    1    2    0    0 -0.78630056682E-04  0.44036195918E-03  0.22400871096E-04  0.17130000000E+03  0.17130000000E+03 0. -1.
      622    1    1    2    0    0 -0.14905914676E-02 -0.61411856344E-03  0.39213550734E+01  0.39213599950E+01  0.60000000000E-02 0. -1.
</event>
<event>
 5   0  0.1211800E+10  0.9118800E+02  0.7818608E-02  0.1180000E+00
       11   -1    0    0    0    0  0.00000000000E+00  0.00000000000E+00  0.39999999673E+01  0.40000000000E+01  0.51109989000E-03 0. -1.
     -623   -1    0    0    0    0  0.00000000000E+00  0.00000000000E+00  0.12525980253E-10  0.17130000000E+03  0.17130000000E+03 0.  1.
       11    1    1    2    0    0 -0.36996898180E-03 -0.10378998883E-02  0.29351063977E-01  0.29376185755E-01  0.51109989000E-03 0. -1.
     -623    1    1    2    0    0  0.11620962923E-02  0.35888271311E-03  0.29763826665E-04  0.17130000000E+03  0.17130000000E+03 0.  1.
      622    1    1    2    0    0 -0.79212731054E-03  0.67901717522E-03  0.39706191396E+01  0.39706238099E+01  0.60000000000E-02 0. -1.
</event>
<event>
 5   0  0.1211800E+10  0.9118800E+02  0.7818608E-02  0.1180000E+00
       11   -1    0    0    0    0  0.00000000000E+00  0.00000000000E+00  0.39999999673E+01  0.40000000000E+01  0.51109989000E-03 0.  1.
     -623   -1    0    0    0    0  0.00000000000E+00  0.00000000000E+00  0.12525980253E-10  0.17130000000E+03  0.17130000000E+03 0. -1.
       11    1    1    2    0    0  0.38443679812E-02 -0.15449004582E-02  0.12672169243E+00  0.12679043512E+00  0.51109989000E-03 0.  1.
     -623    1    1    2    0    0 -0.25262419095E-03 -0.12773444821E-03  0.75384136676E-04  0.17130000000E+03  0.17130000000E+03 0. -1.
      622    1    1    2    0    0 -0.35917437903E-02  0.16726349065E-02  0.38732028908E+01  0.38732095646E+01  0.60000000000E-02 0.  1.
</event>
<event>
 5   0  0.1211800E+10  0.9118800E+02  0.7818608E-02  0.1180000E+00
       11   -1    0    0    0    0  0.00000000000E+00  0.00000000000E+00  0.39999999673E+01  0.40000000000E+01  0.51109989000E-03 0.  1.
     -623   -1    0    0    0    0  0.00000000000E+00  0.00000000000E+00  0.12525980253E-10  0.17130000000E+03  0.17130000000E+03 0.  1.
       11    1    1    2    0    0 -0.37992910202E-02  0.26005668894E-02  0.80770638363E-01  0.80903367081E-01  0.51109989000E-03 0.  1.
     -623    1    1    2    0    0  0.60246038920E-02 -0.74901217045E-02  0.14124067733E-03  0.17130000027E+03  0.17130000000E+03 0.  1.
      622    1    1    2    0    0 -0.22253128720E-02  0.48895548153E-02  0.39190880884E+01  0.39190963633E+01  0.60000000000E-02 0.  1.
</event>
<event>
 5   0  0.1211800E+10  0.9118800E+02  0.7818608E-02  0.1180000E+00
       11   -1    0    0    0    0  0.00000000000E+00  0.00000000000E+00  0.39999999673E+01  0.40000000000E+01  0.51109989000E-03 0. -1.
     -623   -1    0    0    0    0  0.00000000000E+00  0.00000000000E+00  0.12525980253E-10  0.17130000000E+03  0.17130000000E+03 0.  1.
       11    1    1    2    0    0  0.67512175094E-03 -0.39442651540E-03  0.43608810897E-01  0.43618814434E-01  0.51109989000E-03 0.  1.
     -623    1    1    2    0    0  0.26241308865E-04 -0.16960329673E-04  0.14604069654E-04  0.17130000000E+03  0.17130000000E+03 0.  1.
      622    1    1    2    0    0 -0.70136305994E-03  0.41138684517E-03  0.39563765738E+01  0.39563812070E+01  0.60000000000E-02 0. -1.
</event>
<event>
 5   0  0.1211800E+10  0.9118800E+02  0.7818608E-02  0.1180000E+00
       11   -1    0    0    0    0  0.00000000000E+00  0.00000000000E+00  0.39999999673E+01  0.40000000000E+01  0.51109989000E-03 0.  1.
     -623   -1    0    0    0    0  0.00000000000E+00  0.00000000000E+00  0.12525980253E-10  0.17130000000E+03  0.17130000000E+03 0.  1.
       11    1    1    2    0    0 -0.17894441704E-03  0.42056863523E-03  0.20903561195E+00  0.20903673645E+00  0.51109989000E-03 0.  1.
     -623    1    1    2    0    0  0.31086691736E-03 -0.32832072833E-03  0.58440105053E-05  0.17130000000E+03  0.17130000000E+03 0.  1.
      622    1    1    2    0    0 -0.13192250321E-03 -0.92247903856E-04  0.37909585486E+01  0.37909633001E+01  0.60000000000E-02 0.  1.
</event>
<event>
 5   0  0.1211800E+10  0.9118800E+02  0.7818608E-02  0.1180000E+00
       11   -1    0    0    0    0  0.00000000000E+00  0.00000000000E+00  0.39999999673E+01  0.40000000000E+01  0.51109989000E-03 0. -1.
     -623   -1    0    0    0    0  0.00000000000E+00  0.00000000000E+00  0.12525980253E-10  0.17130000000E+03  0.17130000000E+03 0. -1.
       11    1    1    2    0    0  0.23171241823E-03 -0.76797144204E-03  0.50638923417E+00  0.50639012744E+00  0.51109989000E-03 0. -1.
     -623    1    1    2    0    0  0.46265248439E-03  0.53841329346E-03  0.60909223216E-05  0.17130000000E+03  0.17130000000E+03 0. -1.
      622    1    1    2    0    0 -0.69436490822E-03  0.22955814205E-03  0.34936046908E+01  0.34936099196E+01  0.60000000000E-02 0. -1.
</event>
<event>
 5   0  0.1211800E+10  0.9118800E+02  0.7818608E-02  0.1180000E+00
       11   -1    0    0    0    0  0.00000000000E+00  0.00000000000E+00  0.39999999673E+01  0.40000000000E+01  0.51109989000E-03 0. -1.
     -623   -1    0    0    0    0  0.00000000000E+00  0.00000000000E+00  0.12525980253E-10  0.17130000000E+03  0.17130000000E+03 0. -1.
       11    1    1    2    0    0 -0.72650898689E-03  0.35382026193E-03  0.66116853976E-01  0.66123767337E-01  0.51109989000E-03 0. -1.
     -623    1    1    2    0    0  0.32656213729E-04 -0.10541117441E-03  0.11525432748E-04  0.17130000000E+03  0.17130000000E+03 0. -1.
      622    1    1    2    0    0  0.69385277275E-03 -0.24840908622E-03  0.39338716372E+01  0.39338762819E+01  0.60000000000E-02 0. -1.
</event>
<event>
 5   0  0.1211800E+10  0.9118800E+02  0.7818608E-02  0.1180000E+00
       11   -1    0    0    0    0  0.00000000000E+00  0.00000000000E+00  0.39999999673E+01  0.40000000000E+01  0.51109989000E-03 0. -1.
     -623   -1    0    0    0    0  0.00000000000E+00  0.00000000000E+00  0.12525980253E-10  0.17130000000E+03  0.17130000000E+03 0.  1.
       11    1    1    2    0    0 -0.44373785069E-02 -0.16746294417E-02  0.25296499340E+00  0.25300996782E+00  0.51109989000E-03 0. -1.
     -623    1    1    2    0    0 -0.17938067748E-02  0.29987454085E-02  0.55196445104E-04  0.17130000004E+03  0.17130000000E+03 0.  1.
      622    1    1    2    0    0  0.62311852817E-02 -0.13241159668E-02  0.37469797775E+01  0.37469899965E+01  0.60000000000E-02 0. -1.
</event>
<event>
 5   0  0.1211800E+10  0.9118800E+02  0.7818608E-02  0.1180000E+00
       11   -1    0    0    0    0  0.00000000000E+00  0.00000000000E+00  0.39999999673E+01  0.40000000000E+01  0.51109989000E-03 0. -1.
     -623   -1    0    0    0    0  0.00000000000E+00  0.00000000000E+00  0.12525980253E-10  0.17130000000E+03  0.17130000000E+03 0.  1.
       11    1    1    2    0    0 -0.19459036248E-03 -0.18367077084E-02  0.57643213394E-01  0.57675060754E-01  0.51109989000E-03 0. -1.
     -623    1    1    2    0    0  0.30562438264E-03 -0.25260351737E-04  0.36822104328E-04  0.17130000000E+03  0.17130000000E+03 0.  1.
      622    1    1    2    0    0 -0.11103402016E-03  0.18619680601E-02  0.39423199319E+01  0.39423249390E+01  0.60000000000E-02 0. -1.
</event>
<event>
 5   0  0.1211800E+10  0.9118800E+02  0.7818608E-02  0.1180000E+00
       11   -1    0    0    0    0  0.00000000000E+00  0.00000000000E+00  0.39999999673E+01  0.40000000000E+01  0.51109989000E-03 0. -1.
     -623   -1    0    0    0    0  0.00000000000E+00  0.00000000000E+00  0.12525980253E-10  0.17130000000E+03  0.17130000000E+03 0. -1.
       11    1    1    2    0    0  0.66283746040E-03  0.36361957853E-02  0.89999322538E+00  0.90000096012E+00  0.51109989000E-03 0. -1.
     -623    1    1    2    0    0 -0.10219309224E-03  0.40456883408E-04  0.15739588946E-04  0.17130000000E+03  0.17130000000E+03 0. -1.
      622    1    1    2    0    0 -0.56064436808E-03 -0.36766526688E-02  0.30999910052E+01  0.30999990427E+01  0.60000000000E-02 0. -1.
</event>
<event>
 5   0  0.1211800E+10  0.9118800E+02  0.7818608E-02  0.1180000E+00
       11   -1    0    0    0    0  0.00000000000E+00  0.00000000000E+00  0.39999999673E+01  0.40000000000E+01  0.51109989000E-03 0.  1.
     -623   -1    0    0    0    0  0.00000000000E+00  0.00000000000E+00  0.12525980253E-10  0.17130000000E+03  0.17130000000E+03 0.  1.
       11    1    1    2    0    0 -0.17411394938E-02 -0.15310809690E-02  0.59117637001E+00  0.59118113760E+00  0.51109989000E-03 0.  1.
     -623    1    1    2    0    0  0.12438718698E-03 -0.41429648180E-03  0.10954429546E-04  0.17130000000E+03  0.17130000000E+03 0.  1.
      622    1    1    2    0    0  0.16167523069E-02  0.19453774508E-02  0.34088126429E+01  0.34088188618E+01  0.60000000000E-02 0.  1.
</event>
<event>
 5   0  0.1211800E+10  0.9118800E+02  0.7818608E-02  0.1180000E+00
       11   -1    0    0    0    0  0.00000000000E+00  0.00000000000E+00  0.39999999673E+01  0.40000000000E+01  0.51109989000E-03 0.  1.
     -623   -1    0    0    0    0  0.00000000000E+00  0.00000000000E+00  0.12525980253E-10  0.17130000000E+03  0.17130000000E+03 0. -1.
       11    1    1    2    0    0  0.10891449236E-03  0.95498255121E-04  0.14723759436E+00  0.14723855269E+00  0.51109989000E-03 0.  1.
     -623    1    1    2    0    0  0.71813650826E-04 -0.12461930285E-03  0.56020760528E-05  0.17130000000E+03  0.17130000000E+03 0. -1.
      622    1    1    2    0    0 -0.18072814257E-03  0.29121046671E-04  0.38527567371E+01  0.38527614134E+01  0.60000000000E-02 0.  1.
</event>
<event>
 5   0  0.1211800E+10  0.9118800E+02  0.7818608E-02  0.1180000E+00
       11   -1    0    0    0    0  0.00000000000E+00  0.00000000000E+00  0.39999999673E+01  0.40000000000E+01  0.51109989000E-03 0. -1.
     -623   -1    0    0    0    0  0.00000000000E+00  0.00000000000E+00  0.12525980253E-10  0.17130000000E+03  0.17130000000E+03 0.  1.
       11    1    1    2    0    0 -0.59969480306E-03  0.23427555108E-02  0.59598021206E+00  0.59598533751E+00  0.51109989000E-03 0. -1.
     -623    1    1    2    0    0  0.23013446155E-04 -0.80677371204E-04  0.11181170971E-04  0.17130000000E+03  0.17130000000E+03 0.  1.
      622    1    1    2    0    0  0.57668135683E-03 -0.22620781394E-02  0.34040085874E+01  0.34040146757E+01  0.60000000000E-02 0.  0.
</event>
<event>
 5   0  0.1211800E+10  0.9118800E+02  0.7818608E-02  0.1180000E+00
       11   -1    0    0    0    0  0.00000000000E+00  0.00000000000E+00  0.39999999673E+01  0.40000000000E+01  0.51109989000E-03 0.  1.
     -623   -1    0    0    0    0  0.00000000000E+00  0.00000000000E+00  0.12525980253E-10  0.17130000000E+03  0.17130000000E+03 0. -1.
       11    1    1    2    0    0  0.29786262198E-02 -0.44978330413E-02  0.46280735166E+00  0.46283907429E+00  0.51109989000E-03 0.  1.
     -623    1    1    2    0    0  0.24238842014E-02  0.32897820752E-02  0.41159649478E-04  0.17130000005E+03  0.17130000000E+03 0. -1.
      622    1    1    2    0    0 -0.54025104211E-02  0.12080509662E-02  0.35371514560E+01  0.35371608770E+01  0.60000000000E-02 0.  1.
</event>
<event>
 5   0  0.1211800E+10  0.9118800E+02  0.7818608E-02  0.1180000E+00
       11   -1    0    0    0    0  0.00000000000E+00  0.00000000000E+00  0.39999999673E+01  0.40000000000E+01  0.51109989000E-03 0.  1.
     -623   -1    0    0    0    0  0.00000000000E+00  0.00000000000E+00  0.12525980253E-10  0.17130000000E+03  0.17130000000E+03 0. -1.
       11    1    1    2    0    0  0.31208552351E-03 -0.13129122611E-03  0.88389532092E-01  0.88391658211E-01  0.51109989000E-03 0.  1.
     -623    1    1    2    0    0 -0.19750835897E-03  0.46199917290E-04  0.66978929447E-05  0.17130000000E+03  0.17130000000E+03 0. -1.
      622    1    1    2    0    0 -0.11457716058E-03  0.85091307896E-04  0.39116038176E+01  0.39116084219E+01  0.60000000000E-02 0.  1.
</event>
<event>
 5   0  0.1211800E+10  0.9118800E+02  0.7818608E-02  0.1180000E+00
       11   -1    0    0    0    0  0.00000000000E+00  0.00000000000E+00  0.39999999673E+01  0.40000000000E+01  0.51109989000E-03 0. -1.
     -623   -1    0    0    0    0  0.00000000000E+00  0.00000000000E+00  0.12525980253E-10  0.17130000000E+03  0.17130000000E+03 0.  1.
       11    1    1    2    0    0 -0.37715841423E-02  0.39256326671E-02  0.45315541946E+00  0.45318840547E+00  0.51109989000E-03 0. -1.
     -623    1    1    2    0    0  0.80858700185E-02 -0.22464536822E-02  0.41255332411E-04  0.17130000021E+03  0.17130000000E+03 0.  1.
      622    1    1    2    0    0 -0.43142858762E-02 -0.16791789849E-02  0.35468032926E+01  0.35468113890E+01  0.60000000000E-02 0. -1.
</event>
<event>
 5   0  0.1211800E+10  0.9118800E+02  0.7818608E-02  0.1180000E+00
       11   -1    0    0    0    0  0.00000000000E+00  0.00000000000E+00  0.39999999673E+01  0.40000000000E+01  0.51109989000E-03 0.  1.
     -623   -1    0    0    0    0  0.00000000000E+00  0.00000000000E+00  0.12525980253E-10  0.17130000000E+03  0.17130000000E+03 0.  1.
       11    1    1    2    0    0  0.17404627437E-02  0.29867915802E-01  0.11020167842E+01  0.11024229567E+01  0.51109989000E-03 0.  1.
     -623    1    1    2    0    0 -0.29478791316E-03 -0.33509380440E-01  0.41827907263E-03  0.17130000328E+03  0.17130000000E+03 0.  1.
      622    1    1    2    0    0 -0.14456748305E-02  0.36414646386E-02  0.28975649041E+01  0.28975737650E+01  0.60000000000E-02 0.  1.
</event>
<event>
 5   0  0.1211800E+10  0.9118800E+02  0.7818608E-02  0.1180000E+00
       11   -1    0    0    0    0  0.00000000000E+00  0.00000000000E+00  0.39999999673E+01  0.40000000000E+01  0.51109989000E-03 0. -1.
     -623   -1    0    0    0    0  0.00000000000E+00  0.00000000000E+00  0.12525980253E-10  0.17130000000E+03  0.17130000000E+03 0. -1.
       11    1    1    2    0    0 -0.24999388532E-02 -0.49523260106E-04  0.75493587168E+00  0.75494018552E+00  0.51109989000E-03 0. -1.
     -623    1    1    2    0    0  0.58483797244E-03  0.51286532203E-03  0.10428053852E-04  0.17130000000E+03  0.17130000000E+03 0. -1.
      622    1    1    2    0    0  0.19151008808E-02 -0.46334206193E-03  0.32450536676E+01  0.32450598127E+01  0.60000000000E-02 0. -1.
</event>
<event>
 5   0  0.1211800E+10  0.9118800E+02  0.7818608E-02  0.1180000E+00
       11   -1    0    0    0    0  0.00000000000E+00  0.00000000000E+00  0.39999999673E+01  0.40000000000E+01  0.51109989000E-03 0.  1.
     -623   -1    0    0    0    0  0.00000000000E+00  0.00000000000E+00  0.12525980253E-10  0.17130000000E+03  0.17130000000E+03 0.  1.
       11    1    1    2    0    0  0.53075064625E-03 -0.86548203956E-03  0.64100083210E-01  0.64110160228E-01  0.51109989000E-03 0.  1.
     -623    1    1    2    0    0 -0.23898267522E-02 -0.37529020243E-03  0.15269394348E-04  0.17130000002E+03  0.17130000000E+03 0.  1.
      622    1    1    2    0    0  0.18590761059E-02  0.12407722420E-02  0.39358846148E+01  0.39358898227E+01  0.60000000000E-02 0.  1.
</event>
<event>
 5   0  0.1211800E+10  0.9118800E+02  0.7818608E-02  0.1180000E+00
       11   -1    0    0    0    0  0.00000000000E+00  0.00000000000E+00  0.39999999673E+01  0.40000000000E+01  0.51109989000E-03 0.  1.
     -623   -1    0    0    0    0  0.00000000000E+00  0.00000000000E+00  0.12525980253E-10  0.17130000000E+03  0.17130000000E+03 0.  1.
       11    1    1    2    0    0  0.47537078415E-05  0.31133695872E-02  0.90344272840E+00  0.90344823748E+00  0.51109989000E-03 0.  1.
     -623    1    1    2    0    0  0.26630739314E-03  0.12341021384E-03  0.12993165154E-04  0.17130000000E+03  0.17130000000E+03 0.  1.
      622    1    1    2    0    0 -0.27106110098E-03 -0.32367798010E-02  0.30965442458E+01  0.30965517623E+01  0.60000000000E-02 0.  1.
</event>
<event>
 5   0  0.1211800E+10  0.9118800E+02  0.7818608E-02  0.1180000E+00
       11   -1    0    0    0    0  0.00000000000E+00  0.00000000000E+00  0.39999999673E+01  0.40000000000E+01  0.51109989000E-03 0. -1.
     -623   -1    0    0    0    0  0.00000000000E+00  0.00000000000E+00  0.12525980253E-10  0.17130000000E+03  0.17130000000E+03 0. -1.
       11    1    1    2    0    0 -0.12707119701E-02 -0.15586767714E-02  0.88010987334E-01  0.88035443412E-01  0.51109989000E-03 0. -1.
     -623    1    1    2    0    0  0.68537732614E-03 -0.38183617593E-03  0.29551591604E-04  0.17130000000E+03  0.17130000000E+03 0. -1.
      622    1    1    2    0    0  0.58533464080E-03  0.19405129491E-02  0.39119594467E+01  0.39119645730E+01  0.60000000000E-02 0. -1.
</event>
<event>
 5   0  0.1211800E+10  0.9118800E+02  0.7818608E-02  0.1180000E+00
       11   -1    0    0    0    0  0.00000000000E+00  0.00000000000E+00  0.39999999673E+01  0.40000000000E+01  0.51109989000E-03 0. -1.
     -623   -1    0    0    0    0  0.00000000000E+00  0.00000000000E+00  0.12525980253E-10  0.17130000000E+03  0.17130000000E+03 0. -1.
       11    1    1    2    0    0 -0.53618640222E-03  0.13086795882E-02  0.57247480013E+00  0.57247677521E+00  0.51109989000E-03 0. -1.
     -623    1    1    2    0    0 -0.57063207603E-03 -0.41071575611E-02  0.85653779700E-05  0.17130000005E+03  0.17130000000E+03 0. -1.
      622    1    1    2    0    0  0.11068184783E-02  0.27984779729E-02  0.34275166018E+01  0.34275231746E+01  0.60000000000E-02 0. -1.
</event>
<event>
 5   0  0.1211800E+10  0.9118800E+02  0.7818608E-02  0.1180000E+00
       11   -1    0    0    0    0  0.00000000000E+00  0.00000000000E+00  0.39999999673E+01  0.40000000000E+01  0.51109989000E-03 0.  1.
     -623   -1    0    0    0    0  0.00000000000E+00  0.00000000000E+00  0.12525980253E-10  0.17130000000E+03  0.17130000000E+03 0. -1.
       11    1    1    2    0    0 -0.21324583753E-03  0.40101363349E-03  0.82889254139E+00  0.82889282339E+00  0.51109989000E-03 0.  1.
     -623    1    1    2    0    0 -0.20336986612E-04 -0.58925921749E-04  0.59526896456E-05  0.17130000000E+03  0.17130000000E+03 0. -1.
      622    1    1    2    0    0  0.23358282414E-03 -0.34208771174E-03  0.31711014733E+01  0.31711071766E+01  0.60000000000E-02 0.  1.
</event>
<event>
 5   0  0.1211800E+10  0.9118800E+02  0.7818608E-02  0.1180000E+00
       11   -1    0    0    0    0  0.00000000000E+00  0.00000000000E+00  0.39999999673E+01  0.40000000000E+01  0.51109989000E-03 0.  1.
     -623   -1    0    0    0    0  0.00000000000E+00  0.00000000000E+00  0.12525980253E-10  0.17130000000E+03  0.17130000000E+03 0. -1.
       11    1    1    2    0    0  0.52057959699E-02 -0.27059825573E-02  0.18185761374E+00  0.18195294873E+00  0.51109989000E-03 0.  1.
     -623    1    1    2    0    0  0.10287711795E-03 -0.15260173797E-04  0.10467726644E-03  0.17130000000E+03  0.17130000000E+03 0. -1.
      622    1    1    2    0    0 -0.53086730880E-02  0.27212427311E-02  0.38180376810E+01  0.38180470558E+01  0.60000000000E-02 0.  1.
</event>
<event>
 5   0  0.1211800E+10  0.9118800E+02  0.7818608E-02  0.1180000E+00
       11   -1    0    0    0    0  0.00000000000E+00  0.00000000000E+00  0.39999999673E+01  0.40000000000E+01  0.51109989000E-03 0.  1.
     -623   -1    0    0    0    0  0.00000000000E+00  0.00000000000E+00  0.12525980253E-10  0.17130000000E+03  0.17130000000E+03 0.  1.
       11    1    1    2    0    0  0.15328321926E-03  0.46532970410E-03  0.71248246073E-01  0.71251763621E-01  0.51109989000E-03 0.  1.
     -623    1    1    2    0    0 -0.91390618297E-04 -0.15610928701E-03  0.80792743229E-05  0.17130000000E+03  0.17130000000E+03 0.  1.
      622    1    1    2    0    0 -0.61892600678E-04 -0.30922041659E-03  0.39287436547E+01  0.39287482489E+01  0.60000000000E-02 0.  1.
</event>
<event>
 5   0  0.1211800E+10  0.9118800E+02  0.7818608E-02  0.1180000E+00
       11   -1    0    0    0    0  0.00000000000E+00  0.00000000000E+00  0.39999999673E+01  0.40000000000E+01  0.51109989000E-03 0.  1.
     -623   -1    0    0    0    0  0.00000000000E+00  0.00000000000E+00  0.12525980253E-10  0.17130000000E+03  0.17130000000E+03 0. -1.
       11    1    1    2    0    0 -0.46092382446E-02 -0.16178048097E-02  0.54358736116E+00  0.54360954995E+00  0.51109989000E-03 0.  1.
     -623    1    1    2    0    0  0.19438806461E-02 -0.16801900986E-02  0.29984293515E-04  0.17130000002E+03  0.17130000000E+03 0. -1.
      622    1    1    2    0    0  0.26653575969E-02  0.32979949097E-02  0.34563826252E+01  0.34563904340E+01  0.60000000000E-02 0.  1.
</event>
<event>
 5   0  0.1211800E+10  0.9118800E+02  0.7818608E-02  0.1180000E+00
       11   -1    0    0    0    0  0.00000000000E+00  0.00000000000E+00  0.39999999673E+01  0.40000000000E+01  0.51109989000E-03 0.  1.
     -623   -1    0    0    0    0  0.00000000000E+00  0.00000000000E+00  0.12525980253E-10  0.17130000000E+03  0.17130000000E+03 0. -1.
       11    1    1    2    0    0  0.15825454152E-03  0.47039158681E-04  0.38294162767E+00  0.38294200433E+00  0.51109989000E-03 0.  1.
     -623    1    1    2    0    0  0.32868051394E-03  0.74054967899E-03  0.54408828403E-05  0.17130000000E+03  0.17130000000E+03 0. -1.
      622    1    1    2    0    0 -0.48693505546E-03 -0.78758883767E-03  0.36170528988E+01  0.36170579938E+01  0.60000000000E-02 0.  1.
</event>
<event>
 5   0  0.1211800E+10  0.9118800E+02  0.7818608E-02  0.1180000E+00
       11   -1    0    0    0    0  0.00000000000E+00  0.00000000000E+00  0.39999999673E+01  0.40000000000E+01  0.51109989000E-03 0. -1.
     -623   -1    0    0    0    0  0.00000000000E+00  0.00000000000E+00  0.12525980253E-10  0.17130000000E+03  0.17130000000E+03 0. -1.
       11    1    1    2    0    0 -0.98461596598E-03  0.89533452837E-03  0.32472828198E+00  0.32473141122E+00  0.51109989000E-03 0. -1.
     -623    1    1    2    0    0 -0.39655618200E-02  0.83066125991E-02  0.23094907572E-04  0.17130000025E+03  0.17130000000E+03 0. -1.
      622    1    1    2    0    0  0.49501778218E-02 -0.92019472025E-02  0.36752486266E+01  0.36752683776E+01  0.60000000000E-02 0. -1.
</event>
<event>
 5   0  0.1211800E+10  0.9118800E+02  0.7818608E-02  0.1180000E+00
       11   -1    0    0    0    0  0.00000000000E+00  0.00000000000E+00  0.39999999673E+01  0.40000000000E+01  0.51109989000E-03 0.  1.
     -623   -1    0    0    0    0  0.00000000000E+00  0.00000000000E+00  0.12525980253E-10  0.17130000000E+03  0.17130000000E+03 0.  1.
       11    1    1    2    0    0  0.28743346724E-02 -0.45482487375E-02  0.20143002485E+00  0.20150251735E+00  0.51109989000E-03 0.  1.
     -623    1    1    2    0    0 -0.24048824740E-03 -0.26165479574E-04  0.80866334927E-04  0.17130000000E+03  0.17130000000E+03 0.  1.
      622    1    1    2    0    0 -0.26338464250E-02  0.45744142171E-02  0.37984890762E+01  0.37984974825E+01  0.60000000000E-02 0.  1.
</event>
<event>
 5   0  0.1211800E+10  0.9118800E+02  0.7818608E-02  0.1180000E+00
       11   -1    0    0    0    0  0.00000000000E+00  0.00000000000E+00  0.39999999673E+01  0.40000000000E+01  0.51109989000E-03 0.  1.
     -623   -1    0    0    0    0  0.00000000000E+00  0.00000000000E+00  0.12525980253E-10  0.17130000000E+03  0.17130000000E+03 0. -1.
       11    1    1    2    0    0 -0.74706205000E-02  0.17319672701E-02  0.43876105636E+00  0.43882836700E+00  0.51109989000E-03 0.  1.
     -623    1    1    2    0    0  0.41072758778E-03 -0.78240089598E-03  0.79459419697E-04  0.17130000000E+03  0.17130000000E+03 0. -1.
      622    1    1    2    0    0  0.70598929122E-02 -0.94956637412E-03  0.35611594516E+01  0.35611716307E+01  0.60000000000E-02 0.  1.
</event>
<event>
 5   0  0.1211800E+10  0.9118800E+02  0.7818608E-02  0.1180000E+00
       11   -1    0    0    0    0  0.00000000000E+00  0.00000000000E+00  0.39999999673E+01  0.40000000000E+01  0.51109989000E-03 0.  1.
     -623   -1    0    0    0    0  0.00000000000E+00  0.00000000000E+00  0.12525980253E-10  0.17130000000E+03  0.17130000000E+03 0.  1.
       11    1    1    2    0    0  0.51093539148E-03 -0.11798018796E-02  0.23994199178E-01  0.24034055104E-01  0.51109989000E-03 0.  1.
     -623    1    1    2    0    0  0.31913615027E-04  0.24921918847E-03  0.44496641010E-04  0.17130000000E+03  0.17130000000E+03 0.  1.
      622    1    1    2    0    0 -0.54284900654E-03  0.93058269096E-03  0.39759612748E+01  0.39759659479E+01  0.60000000000E-02 0.  1.
</event>
<event>
 5   0  0.1211800E+10  0.9118800E+02  0.7818608E-02  0.1180000E+00
       11   -1    0    0    0    0  0.00000000000E+00  0.00000000000E+00  0.39999999673E+01  0.40000000000E+01  0.51109989000E-03 0.  1.
     -623   -1    0    0    0    0  0.00000000000E+00  0.00000000000E+00  0.12525980253E-10  0.17130000000E+03  0.17130000000E+03 0. -1.
       11    1    1    2    0    0  0.24274281401E-02  0.12240970491E-02  0.52201108811E-02  0.59077577531E-02  0.51109989000E-03 0.  1.
     -623    1    1    2    0    0  0.39421227957E-02 -0.15247336963E-02  0.69726467762E-03  0.17130000005E+03  0.17130000000E+03 0. -1.
      622    1    1    2    0    0 -0.63695509357E-02  0.30063664720E-03  0.39940825917E+01  0.39940921886E+01  0.60000000000E-02 0.  1.
</event>
<event>
 5   0  0.1211800E+10  0.9118800E+02  0.7818608E-02  0.1180000E+00
       11   -1    0    0    0    0  0.00000000000E+00  0.00000000000E+00  0.39999999673E+01  0.40000000000E+01  0.51109989000E-03 0. -1.
     -623   -1    0    0    0    0  0.00000000000E+00  0.00000000000E+00  0.12525980253E-10  0.17130000000E+03  0.17130000000E+03 0.  1.
       11    1    1    2    0    0  0.20097613098E-02  0.56398840653E-02  0.86474717553E+00  0.86476805343E+00  0.51109989000E-03 0. -1.
     -623    1    1    2    0    0 -0.13606250470E-02 -0.69845601710E-03  0.30554597061E-04  0.17130000001E+03  0.17130000000E+03 0.  1.
      622    1    1    2    0    0 -0.64913626279E-03 -0.49414280482E-02  0.31352222372E+01  0.31352319397E+01  0.60000000000E-02 0. -1.
</event>
<event>
 5   0  0.1211800E+10  0.9118800E+02  0.7818608E-02  0.1180000E+00
       11   -1    0    0    0    0  0.00000000000E+00  0.00000000000E+00  0.39999999673E+01  0.40000000000E+01  0.51109989000E-03 0. -1.
     -623   -1    0    0    0    0  0.00000000000E+00  0.00000000000E+00  0.12525980253E-10  0.17130000000E+03  0.17130000000E+03 0. -1.
       11    1    1    2    0    0  0.50676767572E-02  0.24706484964E-02  0.83212259895E+00  0.83214185470E+00  0.51109989000E-03 0. -1.
     -623    1    1    2    0    0 -0.55906307523E-02 -0.50675220072E-02  0.26178952272E-04  0.17130000017E+03  0.17130000000E+03 0. -1.
      622    1    1    2    0    0  0.52295399516E-03  0.25968735108E-02  0.31678511895E+01  0.31678579791E+01  0.60000000000E-02 0. -1.
</event>
<event>
 5   0  0.1211800E+10  0.9118800E+02  0.7818608E-02  0.1180000E+00
       11   -1    0    0    0    0  0.00000000000E+00  0.00000000000E+00  0.39999999673E+01  0.40000000000E+01  0.51109989000E-03 0. -1.
     -623   -1    0    0    0    0  0.00000000000E+00  0.00000000000E+00  0.12525980253E-10  0.17130000000E+03  0.17130000000E+03 0.  1.
       11    1    1    2    0    0 -0.25073575062E-02 -0.22824704750E-02  0.37362655897E+00  0.37364229324E+00  0.51109989000E-03 0. -1.
     -623    1    1    2    0    0 -0.38404840482E-03  0.15130232502E-02  0.21906747981E-04  0.17130000001E+03  0.17130000000E+03 0.  1.
      622    1    1    2    0    0  0.28914059110E-02  0.76944722476E-03  0.36263515016E+01  0.36263576996E+01  0.60000000000E-02 0. -1.
</event>
<event>
 5   0  0.1211800E+10  0.9118800E+02  0.7818608E-02  0.1180000E+00
       11   -1    0    0    0    0  0.00000000000E+00  0.00000000000E+00  0.39999999673E+01  0.40000000000E+01  0.51109989000E-03 0.  1.
     -623   -1    0    0    0    0  0.00000000000E+00  0.00000000000E+00  0.12525980253E-10  0.17130000000E+03  0.17130000000E+03 0. -1.
       11    1    1    2    0    0 -0.23306636445E-02  0.41310856633E-02  0.80916625663E+00  0.80918031980E+00  0.51109989000E-03 0.  1.
     -623    1    1    2    0    0  0.27595296042E-02 -0.31334812090E-02  0.19907378541E-04  0.17130000005E+03  0.17130000000E+03 0. -1.
      622    1    1    2    0    0 -0.42886596465E-03 -0.99760444859E-03  0.31908138106E+01  0.31908196366E+01  0.60000000000E-02 0.  1.
</event>
<event>
 5   0  0.1211800E+10  0.9118800E+02  0.7818608E-02  0.1180000E+00
       11   -1    0    0    0    0  0.00000000000E+00  0.00000000000E+00  0.39999999673E+01  0.40000000000E+01  0.51109989000E-03 0.  1.
     -623   -1    0    0    0    0  0.00000000000E+00  0.00000000000E+00  0.12525980253E-10  0.17130000000E+03  0.17130000000E+03 0.  1.
       11    1    1    2    0    0 -0.23961549738E-02 -0.57260879294E-03  0.34852285616E-01  0.34942988911E-01  0.51109989000E-03 0.  1.
     -623    1    1    2    0    0 -0.25127675111E-02 -0.15892759200E-02  0.98864253336E-04  0.17130000003E+03  0.17130000000E+03 0.  1.
      622    1    1    2    0    0  0.49089224849E-02  0.21618847130E-02  0.39650488175E+01  0.39650569853E+01  0.60000000000E-02 0.  1.
</event>
<event>
 5   0  0.1211800E+10  0.9118800E+02  0.7818608E-02  0.1180000E+00
       11   -1    0    0    0    0  0.00000000000E+00  0.00000000000E+00  0.39999999673E+01  0.40000000000E+01  0.51109989000E-03 0.  1.
     -623   -1    0    0    0    0  0.00000000000E+00  0.00000000000E+00  0.12525980253E-10  0.17130000000E+03  0.17130000000E+03 0.  1.
       11    1    1    2    0    0 -0.29310286000E-04 -0.19949174585E-02  0.14135746529E+00  0.14137246822E+00  0.51109989000E-03 0.  1.
     -623    1    1    2    0    0  0.24921490006E-04 -0.37090823184E-04  0.20170217782E-04  0.17130000000E+03  0.17130000000E+03 0.  1.
      622    1    1    2    0    0  0.43887959133E-05  0.20320082818E-02  0.38586223447E+01  0.38586275446E+01  0.60000000000E-02 0.  1.
</event>
<event>
 5   0  0.1211800E+10  0.9118800E+02  0.7818608E-02  0.1180000E+00
       11   -1    0    0    0    0  0.00000000000E+00  0.00000000000E+00  0.39999999673E+01  0.40000000000E+01  0.51109989000E-03 0. -1.
     -623   -1    0    0    0    0  0.00000000000E+00  0.00000000000E+00  0.12525980253E-10  0.17130000000E+03  0.17130000000E+03 0. -1.
       11    1    1    2    0    0  0.53954454597E-02  0.81207445181E-02  0.39074670641E+00  0.39086865712E+00  0.51109989000E-03 0. -1.
     -623    1    1    2    0    0 -0.12416760152E-01 -0.46000936636E-02  0.13596418783E-03  0.17130000051E+03  0.17130000000E+03 0. -1.
      622    1    1    2    0    0  0.70213146923E-02 -0.35206508545E-02  0.36091172968E+01  0.36091308310E+01  0.60000000000E-02 0. -1.
</event>
<event>
 5   0  0.1211800E+10  0.9118800E+02  0.7818608E-02  0.1180000E+00
       11   -1    0    0    0    0  0.00000000000E+00  0.00000000000E+00  0.39999999673E+01  0.40000000000E+01  0.51109989000E-03 0. -1.
     -623   -1    0    0    0    0  0.00000000000E+00  0.00000000000E+00  0.12525980253E-10  0.17130000000E+03  0.17130000000E+03 0.  1.
       11    1    1    2    0    0 -0.59465140547E-03 -0.13088960084E-02  0.40044688625E+00  0.40044979304E+00  0.51109989000E-03 0. -1.
     -623    1    1    2    0    0 -0.37046259937E-04  0.20618628210E-04  0.81607533668E-05  0.17130000000E+03  0.17130000000E+03 0.  1.
      622    1    1    2    0    0  0.63169766541E-03  0.12882773802E-02  0.35995449204E+01  0.35995502070E+01  0.60000000000E-02 0. -1.
</event>
<event>
 5   0  0.1211800E+10  0.9118800E+02  0.7818608E-02  0.1180000E+00
       11   -1    0    0    0    0  0.00000000000E+00  0.00000000000E+00  0.39999999673E+01  0.40000000000E+01  0.51109989000E-03 0. -1.
     -623   -1    0    0    0    0  0.00000000000E+00  0.00000000000E+00  0.12525980253E-10  0.17130000000E+03  0.17130000000E+03 0.  1.
       11    1    1    2    0    0 -0.43744115532E-02  0.30578023753E-02  0.84695511347E+00  0.84697208400E+00  0.51109989000E-03 0. -1.
     -623    1    1    2    0    0 -0.24119345422E-04  0.10620488095E-03  0.27302276622E-04  0.17130000000E+03  0.17130000000E+03 0.  1.
      622    1    1    2    0    0  0.43985308987E-02 -0.31640072566E-02  0.31530175646E+01  0.31530279289E+01  0.60000000000E-02 0. -1.
</event>
<event>
 5   0  0.1211800E+10  0.9118800E+02  0.7818608E-02  0.1180000E+00
       11   -1    0    0    0    0  0.00000000000E+00  0.00000000000E+00  0.39999999673E+01  0.40000000000E+01  0.51109989000E-03 0.  1.
     -623   -1    0    0    0    0  0.00000000000E+00  0.00000000000E+00  0.12525980253E-10  0.17130000000E+03  0.17130000000E+03 0.  1.
       11    1    1    2    0    0  0.19791287874E-03  0.76032385574E-03  0.71712098640E-01  0.71718223452E-01  0.51109989000E-03 0.  1.
     -623    1    1    2    0    0  0.24974559291E-03 -0.25415149320E-03  0.10732819930E-04  0.17130000000E+03  0.17130000000E+03 0.  1.
      622    1    1    2    0    0 -0.44765847165E-03 -0.50617236254E-03  0.39282771359E+01  0.39282817762E+01  0.60000000000E-02 0.  1.
</event>
<event>
 5   0  0.1211800E+10  0.9118800E+02  0.7818608E-02  0.1180000E+00
       11   -1    0    0    0    0  0.00000000000E+00  0.00000000000E+00  0.39999999673E+01  0.40000000000E+01  0.51109989000E-03 0. -1.
     -623   -1    0    0    0    0  0.00000000000E+00  0.00000000000E+00  0.12525980253E-10  0.17130000000E+03  0.17130000000E+03 0.  1.
       11    1    1    2    0    0  0.25684717431E-03  0.28565479286E-03  0.97780814566E-01  0.97782904894E-01  0.51109989000E-03 0. -1.
     -623    1    1    2    0    0 -0.27209558459E-03 -0.27007357882E-04  0.66792725426E-05  0.17130000000E+03  0.17130000000E+03 0.  1.
      622    1    1    2    0    0  0.15248409190E-04 -0.25864743509E-03  0.39022124574E+01  0.39022170788E+01  0.60000000000E-02 0. -1.
</event>
<event>
 5   0  0.1211800E+10  0.9118800E+02  0.7818608E-02  0.1180000E+00
       11   -1    0    0    0    0  0.00000000000E+00  0.00000000000E+00  0.39999999673E+01  0.40000000000E+01  0.51109989000E-03 0. -1.
     -623   -1    0    0    0    0  0.00000000000E+00  0.00000000000E+00  0.12525980253E-10  0.17130000000E+03  0.17130000000E+03 0.  1.
       11    1    1    2    0    0 -0.21345920407E-03 -0.16764785687E-03  0.41554858361E+00  0.41554898657E+00  0.51109989000E-03 0. -1.
     -623    1    1    2    0    0  0.12256937725E-03  0.83665059726E-04  0.53942071276E-05  0.17130000000E+03  0.17130000000E+03 0.  1.
      622    1    1    2    0    0  0.90889828011E-04  0.83982797962E-04  0.35844459505E+01  0.35844509744E+01  0.60000000000E-02 0. -1.
</event>
<event>
 5   0  0.1211800E+10  0.9118800E+02  0.7818608E-02  0.1180000E+00
       11   -1    0    0    0    0  0.00000000000E+00  0.00000000000E+00  0.39999999673E+01  0.40000000000E+01  0.51109989000E-03 0.  1.
     -623   -1    0    0    0    0  0.00000000000E+00  0.00000000000E+00  0.12525980253E-10  0.17130000000E+03  0.17130000000E+03 0.  1.
       11    1    1    2    0    0 -0.15457830208E-02  0.44836025678E-02  0.48896211121E+00  0.48898537765E+00  0.51109989000E-03 0.  1.
     -623    1    1    2    0    0 -0.79981890505E-04 -0.99172078081E-05  0.31587111651E-04  0.17130000000E+03  0.17130000000E+03 0.  1.
      622    1    1    2    0    0  0.16257649113E-02 -0.44736853600E-02  0.35110062690E+01  0.35110146223E+01  0.60000000000E-02 0.  1.
</event>
<event>
 5   0  0.1211800E+10  0.9118800E+02  0.7818608E-02  0.1180000E+00
       11   -1    0    0    0    0  0.00000000000E+00  0.00000000000E+00  0.39999999673E+01  0.40000000000E+01  0.51109989000E-03 0. -1.
     -623   -1    0    0    0    0  0.00000000000E+00  0.00000000000E+00  0.12525980253E-10  0.17130000000E+03  0.17130000000E+03 0. -1.
       11    1    1    2    0    0  0.63783891489E-03  0.64029276416E-03  0.54526570111E-01  0.54536454626E-01  0.51109989000E-03 0. -1.
     -623    1    1    2    0    0 -0.42217290521E-03  0.55073196152E-04  0.14481780170E-04  0.17130000000E+03  0.17130000000E+03 0. -1.
      622    1    1    2    0    0 -0.21566600968E-03 -0.69536596031E-03  0.39454589155E+01  0.39454635448E+01  0.60000000000E-02 0. -1.
</event>
<event>
 5   0  0.1211800E+10  0.9118800E+02  0.7818608E-02  0.1180000E+00
       11   -1    0    0    0    0  0.00000000000E+00  0.00000000000E+00  0.39999999673E+01  0.40000000000E+01  0.51109989000E-03 0. -1.
     -623   -1    0    0    0    0  0.00000000000E+00  0.00000000000E+00  0.12525980253E-10  0.17130000000E+03  0.17130000000E+03 0.  1.
       11    1    1    2    0    0 -0.53221149104E-03  0.11595357739E-02  0.36816126842E+00  0.36816383385E+00  0.51109989000E-03 0. -1.
     -623    1    1    2    0    0 -0.13998199040E-03  0.21626748236E-03  0.78119600988E-05  0.17130000000E+03  0.17130000000E+03 0.  1.
      622    1    1    2    0    0  0.67219348191E-03 -0.13758032570E-02  0.36318309004E+01  0.36318361794E+01  0.60000000000E-02 0.  0.
</event>
<event>
 5   0  0.1211800E+10  0.9118800E+02  0.7818608E-02  0.1180000E+00
       11   -1    0    0    0    0  0.00000000000E+00  0.00000000000E+00  0.39999999673E+01  0.40000000000E+01  0.51109989000E-03 0. -1.
     -623   -1    0    0    0    0  0.00000000000E+00  0.00000000000E+00  0.12525980253E-10  0.17130000000E+03  0.17130000000E+03 0.  1.
       11    1    1    2    0    0 -0.82425349404E-02 -0.25144518768E-02  0.49908608119E+00  0.49916073515E+00  0.51109989000E-03 0. -1.
     -623    1    1    2    0    0  0.28578703910E-02 -0.19687530360E-04  0.84845099837E-04  0.17130000002E+03  0.17130000000E+03 0.  1.
      622    1    1    2    0    0  0.53846645481E-02  0.25341394072E-02  0.35008290428E+01  0.35008392427E+01  0.60000000000E-02 0. -1.
</event>
<event>
 5   0  0.1211800E+10  0.9118800E+02  0.7818608E-02  0.1180000E+00
       11   -1    0    0    0    0  0.00000000000E+00  0.00000000000E+00  0.39999999673E+01  0.40000000000E+01  0.51109989000E-03 0. -1.
     -623   -1    0    0    0    0  0.00000000000E+00  0.00000000000E+00  0.12525980253E-10  0.17130000000E+03  0.17130000000E+03 0. -1.
       11    1    1    2    0    0  0.32612593191E-02 -0.47237369760E-02  0.80689083346E+00  0.80691141263E+00  0.51109989000E-03 0. -1.
     -623    1    1    2    0    0  0.58822138116E-03 -0.71443466399E-03  0.33137537628E-04  0.17130000000E+03  0.17130000000E+03 0. -1.
      622    1    1    2    0    0 -0.38494807003E-02  0.54381716400E-02  0.31930759964E+01  0.31930885849E+01  0.60000000000E-02 0.  0.
</event>
<event>
 5   0  0.1211800E+10  0.9118800E+02  0.7818608E-02  0.1180000E+00
       11   -1    0    0    0    0  0.00000000000E+00  0.00000000000E+00  0.39999999673E+01  0.40000000000E+01  0.51109989000E-03 0. -1.
     -623   -1    0    0    0    0  0.00000000000E+00  0.00000000000E+00  0.12525980253E-10  0.17130000000E+03  0.17130000000E+03 0.  1.
       11    1    1    2    0    0  0.19578753096E-02  0.21049825145E-02  0.97455738722E+00  0.97456176122E+00  0.51109989000E-03 0. -1.
     -623    1    1    2    0    0 -0.22969553961E-03  0.10325343704E-03  0.11590572444E-04  0.17130000000E+03  0.17130000000E+03 0.  1.
      622    1    1    2    0    0 -0.17281797700E-02 -0.22082359516E-02  0.30254309896E+01  0.30254382386E+01  0.60000000000E-02 0. -1.
</event>
<event>
 5   0  0.1211800E+10  0.9118800E+02  0.7818608E-02  0.1180000E+00
       11   -1    0    0    0    0  0.00000000000E+00  0.00000000000E+00  0.39999999673E+01  0.40000000000E+01  0.51109989000E-03 0. -1.
     -623   -1    0    0    0    0  0.00000000000E+00  0.00000000000E+00  0.12525980253E-10  0.17130000000E+03  0.17130000000E+03 0. -1.
       11    1    1    2    0    0 -0.10274436664E-02  0.56706253270E-03  0.21433206575E+00  0.21433588788E+00  0.51109989000E-03 0. -1.
     -623    1    1    2    0    0 -0.94143741391E-04 -0.14374914578E-03  0.87341718547E-05  0.17130000000E+03  0.17130000000E+03 0. -1.
      622    1    1    2    0    0  0.11215874085E-02 -0.42331338579E-03  0.37856591991E+01  0.37856641437E+01  0.60000000000E-02 0. -1.
</event>
<event>
 5   0  0.1211800E+10  0.9118800E+02  0.7818608E-02  0.1180000E+00
       11   -1    0    0    0    0  0.00000000000E+00  0.00000000000E+00  0.39999999673E+01  0.40000000000E+01  0.51109989000E-03 0. -1.
     -623   -1    0    0    0    0  0.00000000000E+00  0.00000000000E+00  0.12525980253E-10  0.17130000000E+03  0.17130000000E+03 0. -1.
       11    1    1    2    0    0 -0.95351387881E-03 -0.32243193828E-03  0.22466847055E+00  0.22467130666E+00  0.51109989000E-03 0. -1.
     -623    1    1    2    0    0  0.11782138701E-02 -0.10775921775E-02  0.78449808658E-05  0.17130000001E+03  0.17130000000E+03 0. -1.
      622    1    1    2    0    0 -0.22470000211E-03  0.14000241257E-02  0.37753236885E+01  0.37753287226E+01  0.60000000000E-02 0. -1.
</event>
<event>
 5   0  0.1211800E+10  0.9118800E+02  0.7818608E-02  0.1180000E+00
       11   -1    0    0    0    0  0.00000000000E+00  0.00000000000E+00  0.39999999673E+01  0.40000000000E+01  0.51109989000E-03 0. -1.
     -623   -1    0    0    0    0  0.00000000000E+00  0.00000000000E+00  0.12525980253E-10  0.17130000000E+03  0.17130000000E+03 0.  1.
       11    1    1    2    0    0 -0.20561126254E-03 -0.25553210299E-03  0.44507266238E-01  0.44511409141E-01  0.51109989000E-03 0. -1.
     -623    1    1    2    0    0  0.12578963319E-03 -0.22259885462E-03  0.86907986261E-05  0.17130000000E+03  0.17130000000E+03 0.  1.
      622    1    1    2    0    0  0.79821629481E-04  0.47813095737E-03  0.39554840061E+01  0.39554885864E+01  0.60000000000E-02 0. -1.
</event>
<event>
 5   0  0.1211800E+10  0.9118800E+02  0.7818608E-02  0.1180000E+00
       11   -1    0    0    0    0  0.00000000000E+00  0.00000000000E+00  0.39999999673E+01  0.40000000000E+01  0.51109989000E-03 0. -1.
     -623   -1    0    0    0    0  0.00000000000E+00  0.00000000000E+00  0.12525980253E-10  0.17130000000E+03  0.17130000000E+03 0.  1.
       11    1    1    2    0    0  0.14414317842E-03 -0.35287533124E-03  0.52647054209E-01  0.52650914885E-01  0.51109989000E-03 0. -1.
     -623    1    1    2    0    0  0.68511950858E-04 -0.13539526732E-04  0.84108099099E-05  0.17130000000E+03  0.17130000000E+03 0.  1.
      622    1    1    2    0    0 -0.21265512936E-03  0.36641485799E-03  0.39473445076E+01  0.39473490903E+01  0.60000000000E-02 0. -1.
</event>
<event>
 5   0  0.1211800E+10  0.9118800E+02  0.7818608E-02  0.1180000E+00
       11   -1    0    0    0    0  0.00000000000E+00  0.00000000000E+00  0.39999999673E+01  0.40000000000E+01  0.51109989000E-03 0. -1.
     -623   -1    0    0    0    0  0.00000000000E+00  0.00000000000E+00  0.12525980253E-10  0.17130000000E+03  0.17130000000E+03 0. -1.
       11    1    1    2    0    0 -0.82019741694E-02  0.12637380559E-02  0.51358036553E+00  0.51364766377E+00  0.51109989000E-03 0. -1.
     -623    1    1    2    0    0  0.12374493746E-02 -0.18087091530E-03  0.79557718142E-04  0.17130000000E+03  0.17130000000E+03 0. -1.
      622    1    1    2    0    0  0.69645247965E-02 -0.10828671408E-02  0.34863400387E+01  0.34863523262E+01  0.60000000000E-02 0. -1.
</event>
<event>
 5   0  0.1211800E+10  0.9118800E+02  0.7818608E-02  0.1180000E+00
       11   -1    0    0    0    0  0.00000000000E+00  0.00000000000E+00  0.39999999673E+01  0.40000000000E+01  0.51109989000E-03 0. -1.
     -623   -1    0    0    0    0  0.00000000000E+00  0.00000000000E+00  0.12525980253E-10  0.17130000000E+03  0.17130000000E+03 0.  1.
       11    1    1    2    0    0 -0.71576316312E-03  0.50115179631E-04  0.11985139745E+01  0.11985142982E+01  0.51109989000E-03 0. -1.
     -623    1    1    2    0    0 -0.10910495525E-03  0.13582333780E-03  0.68439814607E-05  0.17130000000E+03  0.17130000000E+03 0.  1.
      622    1    1    2    0    0  0.82486811892E-03 -0.18593851811E-03  0.28014791690E+01  0.28014857218E+01  0.60000000000E-02 0. -1.
</event>
<event>
 5   0  0.1211800E+10  0.9118800E+02  0.7818608E-02  0.1180000E+00
       11   -1    0    0    0    0  0.00000000000E+00  0.00000000000E+00  0.39999999673E+01  0.40000000000E+01  0.51109989000E-03 0. -1.
     -623   -1    0    0    0    0  0.00000000000E+00  0.00000000000E+00  0.12525980253E-10  0.17130000000E+03  0.17130000000E+03 0.  1.
       11    1    1    2    0    0  0.90285261871E-04  0.83607909938E-03  0.82391595612E+00  0.82391654380E+00  0.51109989000E-03 0. -1.
     -623    1    1    2    0    0 -0.63742114733E-03  0.29567359789E-03  0.64726145004E-05  0.17130000000E+03  0.17130000000E+03 0.  1.
      622    1    1    2    0    0  0.54713588546E-03 -0.11317526973E-02  0.31760775386E+01  0.31760834548E+01  0.60000000000E-02 0. -1.
</event>
<event>
 5   0  0.1211800E+10  0.9118800E+02  0.7818608E-02  0.1180000E+00
       11   -1    0    0    0    0  0.00000000000E+00  0.00000000000E+00  0.39999999673E+01  0.40000000000E+01  0.51109989000E-03 0.  1.
     -623   -1    0    0    0    0  0.00000000000E+00  0.00000000000E+00  0.12525980253E-10  0.17130000000E+03  0.17130000000E+03 0. -1.
       11    1    1    2    0    0  0.22314128607E-03 -0.56051646265E-03  0.20139769453E+00  0.20139924665E+00  0.51109989000E-03 0.  1.
     -623    1    1    2    0    0 -0.39378727063E-04  0.25476894817E-04  0.63002111301E-05  0.17130000000E+03  0.17130000000E+03 0. -1.
      622    1    1    2    0    0 -0.18376255901E-03  0.53503956783E-03  0.37985959726E+01  0.37986007533E+01  0.60000000000E-02 0.  1.
</event>
<event>
 5   0  0.1211800E+10  0.9118800E+02  0.7818608E-02  0.1180000E+00
       11   -1    0    0    0    0  0.00000000000E+00  0.00000000000E+00  0.39999999673E+01  0.40000000000E+01  0.51109989000E-03 0.  1.
     -623   -1    0    0    0    0  0.00000000000E+00  0.00000000000E+00  0.12525980253E-10  0.17130000000E+03  0.17130000000E+03 0.  1.
       11    1    1    2    0    0 -0.51837002131E-03  0.10567529324E-02  0.66905358976E-01  0.66917663697E-01  0.51109989000E-03 0. -1.
     -623    1    1    2    0    0  0.25125279024E-05 -0.27329617885E-04  0.17017197821E-04  0.17130000000E+03  0.17130000000E+03 0.  1.
      622    1    1    2    0    0  0.51585749340E-03 -0.10294233146E-02  0.39330775912E+01  0.39330823363E+01  0.60000000000E-02 0.  1.
</event>
<event>
 5   0  0.1211800E+10  0.9118800E+02  0.7818608E-02  0.1180000E+00
       11   -1    0    0    0    0  0.00000000000E+00  0.00000000000E+00  0.39999999673E+01  0.40000000000E+01  0.51109989000E-03 0. -1.
     -623   -1    0    0    0    0  0.00000000000E+00  0.00000000000E+00  0.12525980253E-10  0.17130000000E+03  0.17130000000E+03 0. -1.
       11    1    1    2    0    0  0.12554900110E-02 -0.96932105392E-05  0.10105436633E+01  0.10105445725E+01  0.51109989000E-03 0. -1.
     -623    1    1    2    0    0 -0.12136099964E-03  0.16359693640E-03  0.71169426130E-05  0.17130000000E+03  0.17130000000E+03 0. -1.
      622    1    1    2    0    0 -0.11341290113E-02 -0.15390372586E-03  0.29894491871E+01  0.29894554273E+01  0.60000000000E-02 0.  1.
</event>
<event>
 5   0  0.1211800E+10  0.9118800E+02  0.7818608E-02  0.1180000E+00
       11   -1    0    0    0    0  0.00000000000E+00  0.00000000000E+00  0.39999999673E+01  0.40000000000E+01  0.51109989000E-03 0.  1.
     -623   -1    0    0    0    0  0.00000000000E+00  0.00000000000E+00  0.12525980253E-10  0.17130000000E+03  0.17130000000E+03 0.  1.
       11    1    1    2    0    0  0.50435945831E-03 -0.17873404446E-02  0.21887276484E+00  0.21888124035E+00  0.51109989000E-03 0.  1.
     -623    1    1    2    0    0  0.63141743504E-04  0.21819768448E-05  0.13667375341E-04  0.17130000000E+03  0.17130000000E+03 0.  1.
      622    1    1    2    0    0 -0.56750120140E-03  0.17851584678E-02  0.37811135090E+01  0.37811187335E+01  0.60000000000E-02 0.  1.
</event>
<event>
 5   0  0.1211800E+10  0.9118800E+02  0.7818608E-02  0.1180000E+00
       11   -1    0    0    0    0  0.00000000000E+00  0.00000000000E+00  0.39999999673E+01  0.40000000000E+01  0.51109989000E-03 0.  1.
     -623   -1    0    0    0    0  0.00000000000E+00  0.00000000000E+00  0.12525980253E-10  0.17130000000E+03  0.17130000000E+03 0.  1.
       11    1    1    2    0    0  0.22371716027E-02 -0.66032081296E-02  0.10302316484E+01  0.10302553654E+01  0.51109989000E-03 0.  1.
     -623    1    1    2    0    0  0.36067491821E-04 -0.27134214746E-04  0.38017102013E-04  0.17130000000E+03  0.17130000000E+03 0.  1.
      622    1    1    2    0    0 -0.22732390946E-02  0.66303423444E-02  0.29697303076E+01  0.29697446404E+01  0.60000000000E-02 0.  0.
</event>
<event>
 5   0  0.1211800E+10  0.9118800E+02  0.7818608E-02  0.1180000E+00
       11   -1    0    0    0    0  0.00000000000E+00  0.00000000000E+00  0.39999999673E+01  0.40000000000E+01  0.51109989000E-03 0. -1.
     -623   -1    0    0    0    0  0.00000000000E+00  0.00000000000E+00  0.12525980253E-10  0.17130000000E+03  0.17130000000E+03 0.  1.
       11    1    1    2    0    0 -0.53416919725E-02 -0.92887615714E-02  0.96591282442E+00  0.96597239110E+00  0.51109989000E-03 0. -1.
     -623    1    1    2    0    0  0.48328964080E-03  0.92651295013E-03  0.80883744351E-04  0.17130000000E+03  0.17130000000E+03 0.  1.
      622    1    1    2    0    0  0.48584023314E-02  0.83622486208E-02  0.30340062614E+01  0.30340276079E+01  0.60000000000E-02 0. -1.
</event>
<event>
 5   0  0.1211800E+10  0.9118800E+02  0.7818608E-02  0.1180000E+00
       11   -1    0    0    0    0  0.00000000000E+00  0.00000000000E+00  0.39999999673E+01  0.40000000000E+01  0.51109989000E-03 0.  1.
     -623   -1    0    0    0    0  0.00000000000E+00  0.00000000000E+00  0.12525980253E-10  0.17130000000E+03  0.17130000000E+03 0.  1.
       11    1    1    2    0    0 -0.70388793270E-03 -0.29079282719E-03  0.14983014659E+00  0.14983295387E+00  0.51109989000E-03 0.  1.
     -623    1    1    2    0    0  0.72782814025E-04 -0.50888771601E-04  0.75166790672E-05  0.17130000000E+03  0.17130000000E+03 0.  1.
      622    1    1    2    0    0  0.63110511868E-03  0.34168159879E-03  0.38501623041E+01  0.38501670461E+01  0.60000000000E-02 0.  1.
</event>
<event>
 5   0  0.1211800E+10  0.9118800E+02  0.7818608E-02  0.1180000E+00
       11   -1    0    0    0    0  0.00000000000E+00  0.00000000000E+00  0.39999999673E+01  0.40000000000E+01  0.51109989000E-03 0. -1.
     -623   -1    0    0    0    0  0.00000000000E+00  0.00000000000E+00  0.12525980253E-10  0.17130000000E+03  0.17130000000E+03 0. -1.
       11    1    1    2    0    0  0.36622937027E-03 -0.42315905526E-04  0.11185608026E+00  0.11185785547E+00  0.51109989000E-03 0. -1.
     -623    1    1    2    0    0 -0.53459121418E-04 -0.65267996461E-04  0.63861154471E-05  0.17130000000E+03  0.17130000000E+03 0. -1.
      622    1    1    2    0    0 -0.31277024888E-03  0.10758390195E-03  0.38881374989E+01  0.38881421424E+01  0.60000000000E-02 0. -1.
</event>
<event>
 5   0  0.1211800E+10  0.9118800E+02  0.7818608E-02  0.1180000E+00
       11   -1    0    0    0    0  0.00000000000E+00  0.00000000000E+00  0.39999999673E+01  0.40000000000E+01  0.51109989000E-03 0. -1.
     -623   -1    0    0    0    0  0.00000000000E+00  0.00000000000E+00  0.12525980253E-10  0.17130000000E+03  0.17130000000E+03 0.  1.
       11    1    1    2    0    0 -0.77286380364E-03 -0.11923555820E-02  0.53464546805E+00  0.53464760054E+00  0.51109989000E-03 0. -1.
     -623    1    1    2    0    0 -0.17473943228E-03 -0.69485222034E-04  0.76535304148E-05  0.17130000000E+03  0.17130000000E+03 0.  1.
      622    1    1    2    0    0  0.94760323460E-03  0.12618408035E-02  0.34653468155E+01  0.34653523691E+01  0.60000000000E-02 0. -1.
</event>
<event>
 5   0  0.1211800E+10  0.9118800E+02  0.7818608E-02  0.1180000E+00
       11   -1    0    0    0    0  0.00000000000E+00  0.00000000000E+00  0.39999999673E+01  0.40000000000E+01  0.51109989000E-03 0. -1.
     -623   -1    0    0    0    0  0.00000000000E+00  0.00000000000E+00  0.12525980253E-10  0.17130000000E+03  0.17130000000E+03 0.  1.
       11    1    1    2    0    0  0.81816751256E-03  0.69838692841E-04  0.11740395354E+00  0.11740793758E+00  0.51109989000E-03 0. -1.
     -623    1    1    2    0    0  0.86332087874E-04  0.38146410558E-04  0.86943603006E-05  0.17130000000E+03  0.17130000000E+03 0.  1.
      622    1    1    2    0    0 -0.90449960122E-03 -0.10798510375E-03  0.38825873559E+01  0.38825920988E+01  0.60000000000E-02 0. -1.
</event>
<event>
 5   0  0.1211800E+10  0.9118800E+02  0.7818608E-02  0.1180000E+00
       11   -1    0    0    0    0  0.00000000000E+00  0.00000000000E+00  0.39999999673E+01  0.40000000000E+01  0.51109989000E-03 0.  1.
     -623   -1    0    0    0    0  0.00000000000E+00  0.00000000000E+00  0.12525980253E-10  0.17130000000E+03  0.17130000000E+03 0. -1.
       11    1    1    2    0    0  0.81015501520E-03  0.12899827944E-03  0.98963697369E-01  0.98968417232E-01  0.51109989000E-03 0.  1.
     -623    1    1    2    0    0 -0.49811289100E-03 -0.36425730388E-03  0.93220757442E-05  0.17130000000E+03  0.17130000000E+03 0. -1.
      622    1    1    2    0    0 -0.31204212421E-03  0.23525902444E-03  0.39010269479E+01  0.39010315817E+01  0.60000000000E-02 0.  1.
</event>
<event>
 5   0  0.1211800E+10  0.9118800E+02  0.7818608E-02  0.1180000E+00
       11   -1    0    0    0    0  0.00000000000E+00  0.00000000000E+00  0.39999999673E+01  0.40000000000E+01  0.51109989000E-03 0.  1.
     -623   -1    0    0    0    0  0.00000000000E+00  0.00000000000E+00  0.12525980253E-10  0.17130000000E+03  0.17130000000E+03 0.  1.
       11    1    1    2    0    0  0.13138285457E-03  0.54355343154E-03  0.14532541867E+00  0.14532739331E+00  0.51109989000E-03 0.  1.
     -623    1    1    2    0    0 -0.13382248729E-03 -0.71504884616E-03  0.66170212047E-05  0.17130000000E+03  0.17130000000E+03 0.  1.
      622    1    1    2    0    0  0.24396333161E-05  0.17149541781E-03  0.38546679495E+01  0.38546726229E+01  0.60000000000E-02 0.  1.
</event>
<event>
 5   0  0.1211800E+10  0.9118800E+02  0.7818608E-02  0.1180000E+00
       11   -1    0    0    0    0  0.00000000000E+00  0.00000000000E+00  0.39999999673E+01  0.40000000000E+01  0.51109989000E-03 0. -1.
     -623   -1    0    0    0    0  0.00000000000E+00  0.00000000000E+00  0.12525980253E-10  0.17130000000E+03  0.17130000000E+03 0. -1.
       11    1    1    2    0    0  0.27852994977E-02  0.57559092728E-02  0.41176386193E+00  0.41181382638E+00  0.51109989000E-03 0. -1.
     -623    1    1    2    0    0  0.81507578272E-04 -0.78454404277E-04  0.60585177518E-04  0.17130000000E+03  0.17130000000E+03 0. -1.
      622    1    1    2    0    0 -0.28668070760E-02 -0.56774548685E-02  0.35881755202E+01  0.35881861736E+01  0.60000000000E-02 0.  1.
</event>
<event>
 5   0  0.1211800E+10  0.9118800E+02  0.7818608E-02  0.1180000E+00
       11   -1    0    0    0    0  0.00000000000E+00  0.00000000000E+00  0.39999999673E+01  0.40000000000E+01  0.51109989000E-03 0.  1.
     -623   -1    0    0    0    0  0.00000000000E+00  0.00000000000E+00  0.12525980253E-10  0.17130000000E+03  0.17130000000E+03 0. -1.
       11    1    1    2    0    0  0.49117738606E-03  0.13451709787E-02  0.29471750763E+00  0.29472142994E+00  0.51109989000E-03 0.  1.
     -623    1    1    2    0    0 -0.86678886718E-04  0.48222043813E-03  0.92210097105E-05  0.17130000000E+03  0.17130000000E+03 0. -1.
      622    1    1    2    0    0 -0.40449849934E-03 -0.18273914169E-02  0.37052732387E+01  0.37052785694E+01  0.60000000000E-02 0.  1.
</event>
<event>
 5   0  0.1211800E+10  0.9118800E+02  0.7818608E-02  0.1180000E+00
       11   -1    0    0    0    0  0.00000000000E+00  0.00000000000E+00  0.39999999673E+01  0.40000000000E+01  0.51109989000E-03 0.  1.
     -623   -1    0    0    0    0  0.00000000000E+00  0.00000000000E+00  0.12525980253E-10  0.17130000000E+03  0.17130000000E+03 0.  1.
       11    1    1    2    0    0 -0.24676635832E-02  0.11715640714E-02  0.42126455805E+00  0.42127372458E+00  0.51109989000E-03 0.  1.
     -623    1    1    2    0    0 -0.19967615102E-04 -0.13541977962E-04  0.15215571560E-04  0.17130000000E+03  0.17130000000E+03 0.  1.
      622    1    1    2    0    0  0.24876311985E-02 -0.11580220933E-02  0.35787202223E+01  0.35787263039E+01  0.60000000000E-02 0.  1.
</event>
<event>
 5   0  0.1211800E+10  0.9118800E+02  0.7818608E-02  0.1180000E+00
       11   -1    0    0    0    0  0.00000000000E+00  0.00000000000E+00  0.39999999673E+01  0.40000000000E+01  0.51109989000E-03 0.  1.
     -623   -1    0    0    0    0  0.00000000000E+00  0.00000000000E+00  0.12525980253E-10  0.17130000000E+03  0.17130000000E+03 0.  1.
       11    1    1    2    0    0 -0.11061491016E-01 -0.91144376973E-02  0.32092383096E+00  0.32124413779E+00  0.51109989000E-03 0.  1.
     -623    1    1    2    0    0 -0.14398756986E-02  0.76036568543E-02  0.34689405971E-03  0.17130000018E+03  0.17130000000E+03 0.  1.
      622    1    1    2    0    0  0.12501366715E-01  0.15107808420E-02  0.36787292429E+01  0.36787556876E+01  0.60000000000E-02 0.  1.
</event>
<event>
 5   0  0.1211800E+10  0.9118800E+02  0.7818608E-02  0.1180000E+00
       11   -1    0    0    0    0  0.00000000000E+00  0.00000000000E+00  0.39999999673E+01  0.40000000000E+01  0.51109989000E-03 0. -1.
     -623   -1    0    0    0    0  0.00000000000E+00  0.00000000000E+00  0.12525980253E-10  0.17130000000E+03  0.17130000000E+03 0.  1.
       11    1    1    2    0    0  0.25355791415E-02 -0.70984489155E-02  0.46047963204E+00  0.46054160494E+00  0.51109989000E-03 0. -1.
     -623    1    1    2    0    0 -0.55746255552E-03  0.37394188236E-02  0.69214190141E-04  0.17130000004E+03  0.17130000000E+03 0.  1.
      622    1    1    2    0    0 -0.19781165860E-02  0.33590300919E-02  0.35394511211E+01  0.35394583533E+01  0.60000000000E-02 0. -1.
</event>
<event>
 5   0  0.1211800E+10  0.9118800E+02  0.7818608E-02  0.1180000E+00
       11   -1    0    0    0    0  0.00000000000E+00  0.00000000000E+00  0.39999999673E+01  0.40000000000E+01  0.51109989000E-03 0.  1.
     -623   -1    0    0    0    0  0.00000000000E+00  0.00000000000E+00  0.12525980253E-10  0.17130000000E+03  0.17130000000E+03 0. -1.
       11    1    1    2    0    0  0.26014039722E-03 -0.69277062587E-03  0.19269354096E+00  0.19269563968E+00  0.51109989000E-03 0.  1.
     -623    1    1    2    0    0  0.38325257182E-03  0.37174245868E-03  0.68625756220E-05  0.17130000000E+03  0.17130000000E+03 0. -1.
      622    1    1    2    0    0 -0.64339297043E-03  0.32102816585E-03  0.38072995783E+01  0.38073043739E+01  0.60000000000E-02 0.  1.
</event>
<event>
 5   0  0.1211800E+10  0.9118800E+02  0.7818608E-02  0.1180000E+00
       11   -1    0    0    0    0  0.00000000000E+00  0.00000000000E+00  0.39999999673E+01  0.40000000000E+01  0.51109989000E-03 0.  1.
     -623   -1    0    0    0    0  0.00000000000E+00  0.00000000000E+00  0.12525980253E-10  0.17130000000E+03  0.17130000000E+03 0.  1.
       11    1    1    2    0    0  0.15589139955E-02 -0.38785455060E-03  0.20197514084E+00  0.20198217590E+00  0.51109989000E-03 0.  1.
     -623    1    1    2    0    0 -0.10786241376E-02 -0.33519472228E-03  0.11844660818E-04  0.17130000000E+03  0.17130000000E+03 0.  1.
      622    1    1    2    0    0 -0.48028985791E-03  0.72304927288E-03  0.37980129819E+01  0.37980178204E+01  0.60000000000E-02 0.  1.
</event>
<event>
 5   0  0.1211800E+10  0.9118800E+02  0.7818608E-02  0.1180000E+00
       11   -1    0    0    0    0  0.00000000000E+00  0.00000000000E+00  0.39999999673E+01  0.40000000000E+01  0.51109989000E-03 0. -1.
     -623   -1    0    0    0    0  0.00000000000E+00  0.00000000000E+00  0.12525980253E-10  0.17130000000E+03  0.17130000000E+03 0. -1.
       11    1    1    2    0    0  0.13173750966E-02  0.51488375002E-03  0.87739550158E+00  0.87739679051E+00  0.51109989000E-03 0. -1.
     -623    1    1    2    0    0 -0.57540176713E-03 -0.13689956033E-02  0.72321165998E-05  0.17130000001E+03  0.17130000000E+03 0. -1.
      622    1    1    2    0    0 -0.74197333190E-03  0.85411184745E-03  0.31225972167E+01  0.31226031860E+01  0.60000000000E-02 0. -1.
</event>
<event>
 5   0  0.1211800E+10  0.9118800E+02  0.7818608E-02  0.1180000E+00
       11   -1    0    0    0    0  0.00000000000E+00  0.00000000000E+00  0.39999999673E+01  0.40000000000E+01  0.51109989000E-03 0.  1.
     -623   -1    0    0    0    0  0.00000000000E+00  0.00000000000E+00  0.12525980253E-10  0.17130000000E+03  0.17130000000E+03 0. -1.
       11    1    1    2    0    0 -0.33886030128E-03 -0.85315239960E-03  0.69425702321E-02  0.70216237328E-02  0.51109989000E-03 0. -1.
     -623    1    1    2    0    0  0.14531662437E-03  0.15100123662E-03  0.83595351049E-04  0.17130000000E+03  0.17130000000E+03 0. -1.
      622    1    1    2    0    0  0.19354367682E-03  0.70215116288E-03  0.39929738042E+01  0.39929783786E+01  0.60000000000E-02 0.  1.
</event>
<event>
 5   0  0.1211800E+10  0.9118800E+02  0.7818608E-02  0.1180000E+00
       11   -1    0    0    0    0  0.00000000000E+00  0.00000000000E+00  0.39999999673E+01  0.40000000000E+01  0.51109989000E-03 0. -1.
     -623   -1    0    0    0    0  0.00000000000E+00  0.00000000000E+00  0.12525980253E-10  0.17130000000E+03  0.17130000000E+03 0.  1.
       11    1    1    2    0    0  0.25957854777E-02 -0.11853334045E-03  0.38749426516E+00  0.38750331471E+00  0.51109989000E-03 0. -1.
     -623    1    1    2    0    0 -0.37091145456E-03 -0.60525900428E-03  0.14758723862E-04  0.17130000000E+03  0.17130000000E+03 0.  1.
      622    1    1    2    0    0 -0.22248740221E-02  0.72379234638E-03  0.36124909544E+01  0.36124966947E+01  0.60000000000E-02 0. -1.
</event>
<event>
 5   0  0.1211800E+10  0.9118800E+02  0.7818608E-02  0.1180000E+00
       11   -1    0    0    0    0  0.00000000000E+00  0.00000000000E+00  0.39999999673E+01  0.40000000000E+01  0.51109989000E-03 0. -1.
     -623   -1    0    0    0    0  0.00000000000E+00  0.00000000000E+00  0.12525980253E-10  0.17130000000E+03  0.17130000000E+03 0.  1.
       11    1    1    2    0    0 -0.60017711700E-03 -0.92919354583E-04  0.56390435524E-01  0.56396021919E-01  0.51109989000E-03 0. -1.
     -623    1    1    2    0    0 -0.12613236349E-03  0.15375095900E-03  0.10185578684E-04  0.17130000000E+03  0.17130000000E+03 0.  1.
      622    1    1    2    0    0  0.72630948150E-03 -0.60831605651E-04  0.39435993783E+01  0.39436040100E+01  0.60000000000E-02 0. -1.
</event>
<event>
 5   0  0.1211800E+10  0.9118800E+02  0.7818608E-02  0.1180000E+00
       11   -1    0    0    0    0  0.00000000000E+00  0.00000000000E+00  0.39999999673E+01  0.40000000000E+01  0.51109989000E-03 0.  1.
     -623   -1    0    0    0    0  0.00000000000E+00  0.00000000000E+00  0.12525980253E-10  0.17130000000E+03  0.17130000000E+03 0.  1.
       11    1    1    2    0    0  0.34142178747E-02  0.29262622539E-02  0.54617522245E+00  0.54619397171E+00  0.51109989000E-03 0.  1.
     -623    1    1    2    0    0  0.38039071075E-04  0.22607694781E-03  0.27092377890E-04  0.17130000000E+03  0.17130000000E+03 0.  1.
      622    1    1    2    0    0 -0.34522569459E-02 -0.31523392021E-02  0.34537976600E+01  0.34538060356E+01  0.60000000000E-02 0.  1.
</event>
<event>
 5   0  0.1211800E+10  0.9118800E+02  0.7818608E-02  0.1180000E+00
       11   -1    0    0    0    0  0.00000000000E+00  0.00000000000E+00  0.39999999673E+01  0.40000000000E+01  0.51109989000E-03 0.  1.
     -623   -1    0    0    0    0  0.00000000000E+00  0.00000000000E+00  0.12525980253E-10  0.17130000000E+03  0.17130000000E+03 0.  1.
       11    1    1    2    0    0 -0.19790878706E-02  0.61596672961E-02  0.57941755127E+00  0.57945389656E+00  0.51109989000E-03 0.  1.
     -623    1    1    2    0    0  0.12393249992E-02  0.69493210303E-03  0.48529011624E-04  0.17130000001E+03  0.17130000000E+03 0.  1.
      622    1    1    2    0    0  0.73976287086E-03 -0.68545993994E-02  0.34205338886E+01  0.34205460991E+01  0.60000000000E-02 0.  1.
</event>
<event>
 5   0  0.1211800E+10  0.9118800E+02  0.7818608E-02  0.1180000E+00
       11   -1    0    0    0    0  0.00000000000E+00  0.00000000000E+00  0.39999999673E+01  0.40000000000E+01  0.51109989000E-03 0.  1.
     -623   -1    0    0    0    0  0.00000000000E+00  0.00000000000E+00  0.12525980253E-10  0.17130000000E+03  0.17130000000E+03 0.  1.
       11    1    1    2    0    0  0.23176827476E-02  0.52235969647E-02  0.71316046882E+00  0.71318354799E+00  0.51109989000E-03 0.  1.
     -623    1    1    2    0    0 -0.13738141149E-03  0.19926059849E-02  0.37179368821E-04  0.17130000001E+03  0.17130000000E+03 0.  1.
      622    1    1    2    0    0 -0.21803013361E-02 -0.72162029497E-02  0.32868023192E+01  0.32868164404E+01  0.60000000000E-02 0.  1.
</event>
<event>
 5   0  0.1211800E+10  0.9118800E+02  0.7818608E-02  0.1180000E+00
       11   -1    0    0    0    0  0.00000000000E+00  0.00000000000E+00  0.39999999673E+01  0.40000000000E+01  0.51109989000E-03 0.  1.
     -623   -1    0    0    0    0  0.00000000000E+00  0.00000000000E+00  0.12525980253E-10  0.17130000000E+03  0.17130000000E+03 0.  1.
       11    1    1    2    0    0 -0.97101014094E-03  0.21633990665E-02  0.67117103661E+00  0.67117542026E+00  0.51109989000E-03 0.  1.
     -623    1    1    2    0    0 -0.44883109651E-03  0.92164068285E-04  0.10825913436E-04  0.17130000000E+03  0.17130000000E+03 0.  1.
      622    1    1    2    0    0  0.14198412375E-02 -0.22555631348E-02  0.33288181048E+01  0.33288245791E+01  0.60000000000E-02 0.  0.
</event>
<event>
 5   0  0.1211800E+10  0.9118800E+02  0.7818608E-02  0.1180000E+00
       11   -1    0    0    0    0  0.00000000000E+00  0.00000000000E+00  0.39999999673E+01  0.40000000000E+01  0.51109989000E-03 0.  1.
     -623   -1    0    0    0    0  0.00000000000E+00  0.00000000000E+00  0.12525980253E-10  0.17130000000E+03  0.17130000000E+03 0.  1.
       11    1    1    2    0    0 -0.21211084229E-02  0.48733565711E-03  0.66891508564E+00  0.66891882140E+00  0.51109989000E-03 0.  1.
     -623    1    1    2    0    0 -0.13586747707E-02  0.11243215804E-02  0.11323294066E-04  0.17130000001E+03  0.17130000000E+03 0.  1.
      622    1    1    2    0    0  0.34797831964E-02 -0.16116572397E-02  0.33310735665E+01  0.33310811776E+01  0.60000000000E-02 0.  1.
</event>
<event>
 5   0  0.1211800E+10  0.9118800E+02  0.7818608E-02  0.1180000E+00
       11   -1    0    0    0    0  0.00000000000E+00  0.00000000000E+00  0.39999999673E+01  0.40000000000E+01  0.51109989000E-03 0. -1.
     -623   -1    0    0    0    0  0.00000000000E+00  0.00000000000E+00  0.12525980253E-10  0.17130000000E+03  0.17130000000E+03 0. -1.
       11    1    1    2    0    0  0.28354827559E-03 -0.58790416085E-03  0.14786668345E+00  0.14786900733E+00  0.51109989000E-03 0. -1.
     -623    1    1    2    0    0  0.11971638796E-04 -0.18726487647E-04  0.70230815927E-05  0.17130000000E+03  0.17130000000E+03 0. -1.
      622    1    1    2    0    0 -0.29551991439E-03  0.60663064850E-03  0.38521262608E+01  0.38521309927E+01  0.60000000000E-02 0. -1.
</event>
<event>
 5   0  0.1211800E+10  0.9118800E+02  0.7818608E-02  0.1180000E+00
       11   -1    0    0    0    0  0.00000000000E+00  0.00000000000E+00  0.39999999673E+01  0.40000000000E+01  0.51109989000E-03 0.  1.
     -623   -1    0    0    0    0  0.00000000000E+00  0.00000000000E+00  0.12525980253E-10  0.17130000000E+03  0.17130000000E+03 0.  1.
       11    1    1    2    0    0 -0.16354675829E-02  0.43179652635E-03  0.23890743732E+00  0.23891397203E+00  0.51109989000E-03 0.  1.
     -623    1    1    2    0    0  0.18729809537E-02 -0.29013686987E-02  0.12141007714E-04  0.17130000003E+03  0.17130000000E+03 0.  1.
      622    1    1    2    0    0 -0.23751337078E-03  0.24695721723E-02  0.37610803890E+01  0.37610859932E+01  0.60000000000E-02 0.  1.
</event>
<event>
 5   0  0.1211800E+10  0.9118800E+02  0.7818608E-02  0.1180000E+00
       11   -1    0    0    0    0  0.00000000000E+00  0.00000000000E+00  0.39999999673E+01  0.40000000000E+01  0.51109989000E-03 0.  1.
     -623   -1    0    0    0    0  0.00000000000E+00  0.00000000000E+00  0.12525980253E-10  0.17130000000E+03  0.17130000000E+03 0. -1.
       11    1    1    2    0    0 -0.37012634741E-02 -0.51978780905E-04  0.58037911422E+00  0.58039114354E+00  0.51109989000E-03 0.  1.
     -623    1    1    2    0    0 -0.14844918154E-02  0.15367175686E-02  0.21528140933E-04  0.17130000001E+03  0.17130000000E+03 0. -1.
      622    1    1    2    0    0  0.51857552902E-02 -0.14847387885E-02  0.34195993269E+01  0.34196088450E+01  0.60000000000E-02 0.  1.
</event>
<event>
 5   0  0.1211800E+10  0.9118800E+02  0.7818608E-02  0.1180000E+00
       11   -1    0    0    0    0  0.00000000000E+00  0.00000000000E+00  0.39999999673E+01  0.40000000000E+01  0.51109989000E-03 0. -1.
     -623   -1    0    0    0    0  0.00000000000E+00  0.00000000000E+00  0.12525980253E-10  0.17130000000E+03  0.17130000000E+03 0. -1.
       11    1    1    2    0    0  0.12056348717E-02 -0.11009445386E-02  0.19773499948E-01  0.19847371554E-01  0.51109989000E-03 0. -1.
     -623    1    1    2    0    0 -0.12714031256E-03 -0.18555504592E-03  0.78715610086E-04  0.17130000000E+03  0.17130000000E+03 0. -1.
      622    1    1    2    0    0 -0.10784945590E-02  0.12864995846E-02  0.39801477543E+01  0.39801526308E+01  0.60000000000E-02 0. -1.
</event>
<event>
 5   0  0.1211800E+10  0.9118800E+02  0.7818608E-02  0.1180000E+00
       11   -1    0    0    0    0  0.00000000000E+00  0.00000000000E+00  0.39999999673E+01  0.40000000000E+01  0.51109989000E-03 0.  1.
     -623   -1    0    0    0    0  0.00000000000E+00  0.00000000000E+00  0.12525980253E-10  0.17130000000E+03  0.17130000000E+03 0.  1.
       11    1    1    2    0    0 -0.21731372629E-03  0.82592858061E-04  0.27395296499E+00  0.27395354039E+00  0.51109989000E-03 0.  1.
     -623    1    1    2    0    0  0.32453109078E-04  0.12685242793E-03  0.53841466880E-05  0.17130000000E+03  0.17130000000E+03 0.  1.
      622    1    1    2    0    0  0.18486061721E-03 -0.20944528599E-03  0.37260416182E+01  0.37260464596E+01  0.60000000000E-02 0.  1.
</event>
<event>
 5   0  0.1211800E+10  0.9118800E+02  0.7818608E-02  0.1180000E+00
       11   -1    0    0    0    0  0.00000000000E+00  0.00000000000E+00  0.39999999673E+01  0.40000000000E+01  0.51109989000E-03 0.  1.
     -623   -1    0    0    0    0  0.00000000000E+00  0.00000000000E+00  0.12525980253E-10  0.17130000000E+03  0.17130000000E+03 0.  1.
       11    1    1    2    0    0  0.15482249881E-02  0.78640474086E-03  0.16027622265E+00  0.16028644423E+00  0.51109989000E-03 0.  1.
     -623    1    1    2    0    0 -0.15459195683E-02  0.22255958101E-02  0.16079583722E-04  0.17130000002E+03  0.17130000000E+03 0.  1.
      622    1    1    2    0    0 -0.23054081432E-05 -0.30120005677E-02  0.38397076952E+01  0.38397135644E+01  0.60000000000E-02 0.  1.
</event>
<event>
 5   0  0.1211800E+10  0.9118800E+02  0.7818608E-02  0.1180000E+00
       11   -1    0    0    0    0  0.00000000000E+00  0.00000000000E+00  0.39999999673E+01  0.40000000000E+01  0.51109989000E-03 0. -1.
     -623   -1    0    0    0    0  0.00000000000E+00  0.00000000000E+00  0.12525980253E-10  0.17130000000E+03  0.17130000000E+03 0. -1.
       11    1    1    2    0    0  0.54774802333E-03 -0.23148227939E-02  0.36939789741E-01  0.37019828749E-01  0.51109989000E-03 0. -1.
     -623    1    1    2    0    0 -0.18474039936E-03  0.36092587567E-03  0.85047206374E-04  0.17130000000E+03  0.17130000000E+03 0. -1.
      622    1    1    2    0    0 -0.36300762398E-03  0.19538969183E-02  0.39629751304E+01  0.39629801708E+01  0.60000000000E-02 0. -1.
</event>
<event>
 5   0  0.1211800E+10  0.9118800E+02  0.7818608E-02  0.1180000E+00
       11   -1    0    0    0    0  0.00000000000E+00  0.00000000000E+00  0.39999999673E+01  0.40000000000E+01  0.51109989000E-03 0. -1.
     -623   -1    0    0    0    0  0.00000000000E+00  0.00000000000E+00  0.12525980253E-10  0.17130000000E+03  0.17130000000E+03 0.  1.
       11    1    1    2    0    0 -0.41045280616E-03 -0.11699044297E-02  0.45357100777E+00  0.45357299022E+00  0.51109989000E-03 0. -1.
     -623    1    1    2    0    0 -0.15854356965E-02  0.43014368556E-02  0.90309120768E-05  0.17130000006E+03  0.17130000000E+03 0.  1.
      622    1    1    2    0    0  0.19958885027E-02 -0.31315324259E-02  0.35464199287E+01  0.35464269484E+01  0.60000000000E-02 0. -1.
</event>
<event>
 5   0  0.1211800E+10  0.9118800E+02  0.7818608E-02  0.1180000E+00
       11   -1    0    0    0    0  0.00000000000E+00  0.00000000000E+00  0.39999999673E+01  0.40000000000E+01  0.51109989000E-03 0.  1.
     -623   -1    0    0    0    0  0.00000000000E+00  0.00000000000E+00  0.12525980253E-10  0.17130000000E+03  0.17130000000E+03 0.  1.
       11    1    1    2    0    0  0.40413340166E-02  0.88718732446E-03  0.33310315183E-01  0.33570192175E-01  0.51109989000E-03 0.  1.
     -623    1    1    2    0    0 -0.56799079897E-03 -0.72628269954E-04  0.26598802383E-03  0.17130000000E+03  0.17130000000E+03 0.  1.
      622    1    1    2    0    0 -0.34733432173E-02 -0.81455905447E-03  0.39664236663E+01  0.39664298089E+01  0.60000000000E-02 0.  1.
</event>
<event>
 5   0  0.1211800E+10  0.9118800E+02  0.7818608E-02  0.1180000E+00
       11   -1    0    0    0    0  0.00000000000E+00  0.00000000000E+00  0.39999999673E+01  0.40000000000E+01  0.51109989000E-03 0.  1.
     -623   -1    0    0    0    0  0.00000000000E+00  0.00000000000E+00  0.12525980253E-10  0.17130000000E+03  0.17130000000E+03 0.  1.
       11    1    1    2    0    0  0.10957412480E-01  0.81587780287E-03  0.13827066615E+00  0.13870749397E+00  0.51109989000E-03 0.  1.
     -623    1    1    2    0    0 -0.53302443442E-03  0.19147775475E-03  0.45566125984E-03  0.17130000000E+03  0.17130000000E+03 0.  1.
      622    1    1    2    0    0 -0.10424388046E-01 -0.10073555576E-02  0.38612736399E+01  0.38612925045E+01  0.60000000000E-02 0.  1.
</event>
<event>
 5   0  0.1211800E+10  0.9118800E+02  0.7818608E-02  0.1180000E+00
       11   -1    0    0    0    0  0.00000000000E+00  0.00000000000E+00  0.39999999673E+01  0.40000000000E+01  0.51109989000E-03 0. -1.
     -623   -1    0    0    0    0  0.00000000000E+00  0.00000000000E+00  0.12525980253E-10  0.17130000000E+03  0.17130000000E+03 0. -1.
       11    1    1    2    0    0 -0.95807178185E-03 -0.31609816275E-03  0.13971468601E+00  0.13971926327E+00  0.51109989000E-03 0. -1.
     -623    1    1    2    0    0 -0.51244250395E-05 -0.33374478656E-04  0.93434874295E-05  0.17130000000E+03  0.17130000000E+03 0. -1.
      622    1    1    2    0    0  0.96319620691E-03  0.34947264148E-03  0.38602759469E+01  0.38602807458E+01  0.60000000000E-02 0. -1.
</event>
<event>
 5   0  0.1211800E+10  0.9118800E+02  0.7818608E-02  0.1180000E+00
       11   -1    0    0    0    0  0.00000000000E+00  0.00000000000E+00  0.39999999673E+01  0.40000000000E+01  0.51109989000E-03 0. -1.
     -623   -1    0    0    0    0  0.00000000000E+00  0.00000000000E+00  0.12525980253E-10  0.17130000000E+03  0.17130000000E+03 0. -1.
       11    1    1    2    0    0  0.32292982798E-03 -0.69400809359E-03  0.39913316785E-01  0.39923927761E-01  0.51109989000E-03 0. -1.
     -623    1    1    2    0    0  0.48534686654E-03  0.46521919147E-03  0.15214122241E-04  0.17130000000E+03  0.17130000000E+03 0. -1.
      622    1    1    2    0    0 -0.80827669452E-03  0.22878890212E-03  0.39600714365E+01  0.39600760709E+01  0.60000000000E-02 0. -1.
</event>
<event>
 5   0  0.1211800E+10  0.9118800E+02  0.7818608E-02  0.1180000E+00
       11   -1    0    0    0    0  0.00000000000E+00  0.00000000000E+00  0.39999999673E+01  0.40000000000E+01  0.51109989000E-03 0. -1.
     -623   -1    0    0    0    0  0.00000000000E+00  0.00000000000E+00  0.12525980253E-10  0.17130000000E+03  0.17130000000E+03 0.  1.
       11    1    1    2    0    0 -0.48788573688E-03  0.10199930075E-03  0.90189446837E-01  0.90192272286E-01  0.51109989000E-03 0. -1.
     -623    1    1    2    0    0  0.19923572839E-04  0.47993708775E-04  0.74275092752E-05  0.17130000000E+03  0.17130000000E+03 0.  1.
      622    1    1    2    0    0  0.46796216397E-03 -0.14999300971E-03  0.39098031079E+01  0.39098077426E+01  0.60000000000E-02 0. -1.
</event>
<event>
 5   0  0.1211800E+10  0.9118800E+02  0.7818608E-02  0.1180000E+00
       11   -1    0    0    0    0  0.00000000000E+00  0.00000000000E+00  0.39999999673E+01  0.40000000000E+01  0.51109989000E-03 0.  1.
     -623   -1    0    0    0    0  0.00000000000E+00  0.00000000000E+00  0.12525980253E-10  0.17130000000E+03  0.17130000000E+03 0.  1.
       11    1    1    2    0    0  0.12289461265E-02  0.94372091981E-03  0.37718864273E+00  0.37719217164E+00  0.51109989000E-03 0.  1.
     -623    1    1    2    0    0 -0.60067748308E-03 -0.13662058827E-02  0.85504070952E-05  0.17130000001E+03  0.17130000000E+03 0.  1.
      622    1    1    2    0    0 -0.62826863732E-03  0.42248497669E-03  0.36228028146E+01  0.36228078622E+01  0.60000000000E-02 0.  1.
</event>
<event>
 5   0  0.1211800E+10  0.9118800E+02  0.7818608E-02  0.1180000E+00
       11   -1    0    0    0    0  0.00000000000E+00  0.00000000000E+00  0.39999999673E+01  0.40000000000E+01  0.51109989000E-03 0.  1.
     -623   -1    0    0    0    0  0.00000000000E+00  0.00000000000E+00  0.12525980253E-10  0.17130000000E+03  0.17130000000E+03 0. -1.
       11    1    1    2    0    0 -0.16627949085E-02 -0.15726799142E-02  0.77214366164E+00  0.77214722277E+00  0.51109989000E-03 0.  1.
     -623    1    1    2    0    0  0.15080164829E-04 -0.10183975957E-03  0.99598964107E-05  0.17130000000E+03  0.17130000000E+03 0. -1.
      622    1    1    2    0    0  0.16477147437E-02  0.16745196737E-02  0.32278463458E+01  0.32278527772E+01  0.60000000000E-02 0.  1.
</event>
<event>
 5   0  0.1211800E+10  0.9118800E+02  0.7818608E-02  0.1180000E+00
       11   -1    0    0    0    0  0.00000000000E+00  0.00000000000E+00  0.39999999673E+01  0.40000000000E+01  0.51109989000E-03 0.  1.
     -623   -1    0    0    0    0  0.00000000000E+00  0.00000000000E+00  0.12525980253E-10  0.17130000000E+03  0.17130000000E+03 0.  1.
       11    1    1    2    0    0 -0.17806953954E-03 -0.42589969285E-03  0.56129250295E+00  0.56129292548E+00  0.51109989000E-03 0.  1.
     -623    1    1    2    0    0 -0.13380690505E-03  0.18538267240E-03  0.56471232295E-05  0.17130000000E+03  0.17130000000E+03 0.  1.
      622    1    1    2    0    0  0.31187644427E-03  0.24051702089E-03  0.34387018078E+01  0.34387070649E+01  0.60000000000E-02 0.  1.
</event>
<event>
 5   0  0.1211800E+10  0.9118800E+02  0.7818608E-02  0.1180000E+00
       11   -1    0    0    0    0  0.00000000000E+00  0.00000000000E+00  0.39999999673E+01  0.40000000000E+01  0.51109989000E-03 0. -1.
     -623   -1    0    0    0    0  0.00000000000E+00  0.00000000000E+00  0.12525980253E-10  0.17130000000E+03  0.17130000000E+03 0. -1.
       11    1    1    2    0    0 -0.33266142567E-02 -0.26167263701E-02  0.16839271004E+00  0.16844666703E+00  0.51109989000E-03 0. -1.
     -623    1    1    2    0    0  0.65356764160E-03  0.10606757018E-02  0.59875114873E-04  0.17130000000E+03  0.17130000000E+03 0. -1.
      622    1    1    2    0    0  0.26730466151E-02  0.15560506682E-02  0.38315473822E+01  0.38315533284E+01  0.60000000000E-02 0. -1.
</event>
<event>
 5   0  0.1211800E+10  0.9118800E+02  0.7818608E-02  0.1180000E+00
       11   -1    0    0    0    0  0.00000000000E+00  0.00000000000E+00  0.39999999673E+01  0.40000000000E+01  0.51109989000E-03 0. -1.
     -623   -1    0    0    0    0  0.00000000000E+00  0.00000000000E+00  0.12525980253E-10  0.17130000000E+03  0.17130000000E+03 0. -1.
       11    1    1    2    0    0  0.53592047773E-03  0.48119300143E-02  0.13589042944E+00  0.13597761550E+00  0.51109989000E-03 0. -1.
     -623    1    1    2    0    0 -0.12066302636E-02 -0.49601235013E-02  0.91948919264E-04  0.17130000008E+03  0.17130000000E+03 0. -1.
      622    1    1    2    0    0  0.67070978590E-03  0.14819348703E-03  0.38640175890E+01  0.38640223084E+01  0.60000000000E-02 0. -1.
</event>
<event>
 5   0  0.1211800E+10  0.9118800E+02  0.7818608E-02  0.1180000E+00
       11   -1    0    0    0    0  0.00000000000E+00  0.00000000000E+00  0.39999999673E+01  0.40000000000E+01  0.51109989000E-03 0.  1.
     -623   -1    0    0    0    0  0.00000000000E+00  0.00000000000E+00  0.12525980253E-10  0.17130000000E+03  0.17130000000E+03 0. -1.
       11    1    1    2    0    0 -0.50083863493E-03  0.16043694832E-02  0.15690275332E+00  0.15691258733E+00  0.51109989000E-03 0.  1.
     -623    1    1    2    0    0 -0.49384813763E-04 -0.14960095093E-03  0.14799914712E-04  0.17130000000E+03  0.17130000000E+03 0. -1.
      622    1    1    2    0    0  0.55022344869E-03 -0.14547685323E-02  0.38430824141E+01  0.38430874126E+01  0.60000000000E-02 0.  1.
</event>
<event>
 5   0  0.1211800E+10  0.9118800E+02  0.7818608E-02  0.1180000E+00
       11   -1    0    0    0    0  0.00000000000E+00  0.00000000000E+00  0.39999999673E+01  0.40000000000E+01  0.51109989000E-03 0. -1.
     -623   -1    0    0    0    0  0.00000000000E+00  0.00000000000E+00  0.12525980253E-10  0.17130000000E+03  0.17130000000E+03 0.  1.
       11    1    1    2    0    0 -0.16386163715E-03  0.11431311748E-02  0.44444604971E-01  0.44462543041E-01  0.51109989000E-03 0. -1.
     -623    1    1    2    0    0 -0.10238862723E-03 -0.81032730829E-03  0.22480924554E-04  0.17130000000E+03  0.17130000000E+03 0.  1.
      622    1    1    2    0    0  0.26625026492E-03 -0.33280386221E-03  0.39555329028E+01  0.39555374763E+01  0.60000000000E-02 0. -1.
</event>
<event>
 5   0  0.1211800E+10  0.9118800E+02  0.7818608E-02  0.1180000E+00
       11   -1    0    0    0    0  0.00000000000E+00  0.00000000000E+00  0.39999999673E+01  0.40000000000E+01  0.51109989000E-03 0.  1.
     -623   -1    0    0    0    0  0.00000000000E+00  0.00000000000E+00  0.12525980253E-10  0.17130000000E+03  0.17130000000E+03 0. -1.
       11    1    1    2    0    0 -0.34326247757E-04 -0.35269477055E-04  0.26860217707E+00  0.26860266784E+00  0.51109989000E-03 0.  1.
     -623    1    1    2    0    0 -0.57238204377E-04  0.53225274408E-04  0.52832482642E-05  0.17130000000E+03  0.17130000000E+03 0. -1.
      622    1    1    2    0    0  0.91564452135E-04 -0.17955797353E-04  0.37313925070E+01  0.37313973321E+01  0.60000000000E-02 0.  1.
</event>
<event>
 5   0  0.1211800E+10  0.9118800E+02  0.7818608E-02  0.1180000E+00
       11   -1    0    0    0    0  0.00000000000E+00  0.00000000000E+00  0.39999999673E+01  0.40000000000E+01  0.51109989000E-03 0.  1.
     -623   -1    0    0    0    0  0.00000000000E+00  0.00000000000E+00  0.12525980253E-10  0.17130000000E+03  0.17130000000E+03 0. -1.
       11    1    1    2    0    0  0.18127084404E-02  0.21757313628E-02  0.69560660181E-01  0.69620157905E-01  0.51109989000E-03 0.  1.
     -623    1    1    2    0    0 -0.48516454370E-03  0.12451968515E-02  0.65762978976E-04  0.17130000001E+03  0.17130000000E+03 0. -1.
      622    1    1    2    0    0 -0.13275438958E-02 -0.34209282165E-02  0.39303735514E+01  0.39303798440E+01  0.60000000000E-02 0.  1.
</event>
<event>
 5   0  0.1211800E+10  0.9118800E+02  0.7818608E-02  0.1180000E+00
       11   -1    0    0    0    0  0.00000000000E+00  0.00000000000E+00  0.39999999673E+01  0.40000000000E+01  0.51109989000E-03 0. -1.
     -623   -1    0    0    0    0  0.00000000000E+00  0.00000000000E+00  0.12525980253E-10  0.17130000000E+03  0.17130000000E+03 0.  1.
       11    1    1    2    0    0  0.19942597022E-02 -0.12202693136E-03  0.11627250613E+01  0.11627268903E+01  0.51109989000E-03 0. -1.
     -623    1    1    2    0    0 -0.11369847083E-03 -0.20946262186E-03  0.87832136173E-05  0.17130000000E+03  0.17130000000E+03 0.  1.
      622    1    1    2    0    0 -0.18805612314E-02  0.33148955322E-03  0.28372661229E+01  0.28372731096E+01  0.60000000000E-02 0. -1.
</event>
<event>
 5   0  0.1211800E+10  0.9118800E+02  0.7818608E-02  0.1180000E+00
       11   -1    0    0    0    0  0.00000000000E+00  0.00000000000E+00  0.39999999673E+01  0.40000000000E+01  0.51109989000E-03 0.  1.
     -623   -1    0    0    0    0  0.00000000000E+00  0.00000000000E+00  0.12525980253E-10  0.17130000000E+03  0.17130000000E+03 0. -1.
       11    1    1    2    0    0 -0.44500733880E-02  0.31456361411E-03  0.23924551338E+00  0.23928764907E+00  0.51109989000E-03 0.  1.
     -623    1    1    2    0    0  0.34273583737E-02  0.26365389144E-02  0.48240924679E-04  0.17130000005E+03  0.17130000000E+03 0. -1.
      622    1    1    2    0    0  0.10227150171E-02 -0.29511025263E-02  0.37607062098E+01  0.37607122931E+01  0.60000000000E-02 0.  1.
</event>
<event>
 5   0  0.1211800E+10  0.9118800E+02  0.7818608E-02  0.1180000E+00
       11   -1    0    0    0    0  0.00000000000E+00  0.00000000000E+00  0.39999999673E+01  0.40000000000E+01  0.51109989000E-03 0. -1.
     -623   -1    0    0    0    0  0.00000000000E+00  0.00000000000E+00  0.12525980253E-10  0.17130000000E+03  0.17130000000E+03 0. -1.
       11    1    1    2    0    0 -0.86272098851E-04 -0.32401625975E-04  0.10082009227E+01  0.10082010565E+01  0.51109989000E-03 0. -1.
     -623    1    1    2    0    0 -0.12986568030E-03  0.70019573083E-04  0.61256812054E-05  0.17130000000E+03  0.17130000000E+03 0. -1.
      622    1    1    2    0    0  0.21613778075E-03 -0.37617947973E-04  0.29917929684E+01  0.29917989929E+01  0.60000000000E-02 0. -1.
</event>
<event>
 5   0  0.1211800E+10  0.9118800E+02  0.7818608E-02  0.1180000E+00
       11   -1    0    0    0    0  0.00000000000E+00  0.00000000000E+00  0.39999999673E+01  0.40000000000E+01  0.51109989000E-03 0.  1.
     -623   -1    0    0    0    0  0.00000000000E+00  0.00000000000E+00  0.12525980253E-10  0.17130000000E+03  0.17130000000E+03 0. -1.
       11    1    1    2    0    0  0.16300674012E-02 -0.33651889608E-02  0.22990365224E+00  0.22993462582E+00  0.51109989000E-03 0.  1.
     -623    1    1    2    0    0  0.27687078947E-03  0.76947881476E-03  0.37093208980E-04  0.17130000000E+03  0.17130000000E+03 0. -1.
      622    1    1    2    0    0 -0.19069381907E-02  0.25957101460E-02  0.37700592219E+01  0.37700653722E+01  0.60000000000E-02 0.  1.
</event>
<event>
 5   0  0.1211800E+10  0.9118800E+02  0.7818608E-02  0.1180000E+00
       11   -1    0    0    0    0  0.00000000000E+00  0.00000000000E+00  0.39999999673E+01  0.40000000000E+01  0.51109989000E-03 0.  1.
     -623   -1    0    0    0    0  0.00000000000E+00  0.00000000000E+00  0.12525980253E-10  0.17130000000E+03  0.17130000000E+03 0.  1.
       11    1    1    2    0    0 -0.19416867848E-03 -0.22610371312E-02  0.70217162199E+00  0.70217547518E+00  0.51109989000E-03 0.  1.
     -623    1    1    2    0    0 -0.69615070912E-03 -0.11856901384E-04  0.10183544345E-04  0.17130000000E+03  0.17130000000E+03 0.  1.
      622    1    1    2    0    0  0.89031938702E-03  0.22728940326E-02  0.32978181585E+01  0.32978245201E+01  0.60000000000E-02 0.  1.
</event>
<event>
 5   0  0.1211800E+10  0.9118800E+02  0.7818608E-02  0.1180000E+00
       11   -1    0    0    0    0  0.00000000000E+00  0.00000000000E+00  0.39999999673E+01  0.40000000000E+01  0.51109989000E-03 0.  1.
     -623   -1    0    0    0    0  0.00000000000E+00  0.00000000000E+00  0.12525980253E-10  0.17130000000E+03  0.17130000000E+03 0. -1.
       11    1    1    2    0    0  0.95610051913E-04 -0.23383775657E-03  0.77952221450E-01  0.77954306314E-01  0.51109989000E-03 0. -1.
     -623    1    1    2    0    0 -0.46766640241E-03 -0.29766768834E-03  0.66962259777E-05  0.17130000000E+03  0.17130000000E+03 0. -1.
      622    1    1    2    0    0  0.37205635050E-03  0.53150544490E-03  0.39220410497E+01  0.39220456928E+01  0.60000000000E-02 0.  1.
</event>
<event>
 5   0  0.1211800E+10  0.9118800E+02  0.7818608E-02  0.1180000E+00
       11   -1    0    0    0    0  0.00000000000E+00  0.00000000000E+00  0.39999999673E+01  0.40000000000E+01  0.51109989000E-03 0. -1.
     -623   -1    0    0    0    0  0.00000000000E+00  0.00000000000E+00  0.12525980253E-10  0.17130000000E+03  0.17130000000E+03 0.  1.
       11    1    1    2    0    0 -0.97034698669E-03  0.13503137753E-02  0.39392581356E+00  0.39392965455E+00  0.51109989000E-03 0. -1.
     -623    1    1    2    0    0  0.12122390375E-02 -0.96403677733E-03  0.88357380426E-05  0.17130000001E+03  0.17130000000E+03 0.  1.
      622    1    1    2    0    0 -0.24189205077E-03 -0.38627699800E-03  0.36060653181E+01  0.36060703384E+01  0.60000000000E-02 0. -1.
</event>
<event>
 5   0  0.1211800E+10  0.9118800E+02  0.7818608E-02  0.1180000E+00
       11   -1    0    0    0    0  0.00000000000E+00  0.00000000000E+00  0.39999999673E+01  0.40000000000E+01  0.51109989000E-03 0.  1.
     -623   -1    0    0    0    0  0.00000000000E+00  0.00000000000E+00  0.12525980253E-10  0.17130000000E+03  0.17130000000E+03 0. -1.
       11    1    1    2    0    0 -0.11682032805E-03 -0.10156056139E-03  0.12904708627E-01  0.12915753535E-01  0.51109989000E-03 0.  1.
     -623    1    1    2    0    0 -0.58415955693E-05  0.19877713894E-04  0.15529573433E-04  0.17130000000E+03  0.17130000000E+03 0. -1.
      622    1    1    2    0    0  0.12266192362E-03  0.81682847493E-04  0.39870797307E+01  0.39870842480E+01  0.60000000000E-02 0.  1.
</event>
<event>
 5   0  0.1211800E+10  0.9118800E+02  0.7818608E-02  0.1180000E+00
       11   -1    0    0    0    0  0.00000000000E+00  0.00000000000E+00  0.39999999673E+01  0.40000000000E+01  0.51109989000E-03 0. -1.
     -623   -1    0    0    0    0  0.00000000000E+00  0.00000000000E+00  0.12525980253E-10  0.17130000000E+03  0.17130000000E+03 0.  1.
       11    1    1    2    0    0  0.14144060706E-02 -0.53227922930E-03  0.22609980170E+00  0.22610542987E+00  0.51109989000E-03 0. -1.
     -623    1    1    2    0    0 -0.61685652080E-04 -0.22655388351E-03  0.10684031749E-04  0.17130000000E+03  0.17130000000E+03 0.  1.
      622    1    1    2    0    0 -0.13527204190E-02  0.75883311091E-03  0.37738894480E+01  0.37738945363E+01  0.60000000000E-02 0. -1.
</event>
<event>
 5   0  0.1211800E+10  0.9118800E+02  0.7818608E-02  0.1180000E+00
       11   -1    0    0    0    0  0.00000000000E+00  0.00000000000E+00  0.39999999673E+01  0.40000000000E+01  0.51109989000E-03 0.  1.
     -623   -1    0    0    0    0  0.00000000000E+00  0.00000000000E+00  0.12525980253E-10  0.17130000000E+03  0.17130000000E+03 0. -1.
       11    1    1    2    0    0  0.26066430655E-02  0.64534192407E-04  0.18926671430E+00  0.18928536425E+00  0.51109989000E-03 0.  1.
     -623    1    1    2    0    0 -0.52953940240E-03  0.40166067510E-03  0.23936723511E-04  0.17130000000E+03  0.17130000000E+03 0. -1.
      622    1    1    2    0    0 -0.20771036624E-02 -0.46619486798E-03  0.38107093210E+01  0.38107146391E+01  0.60000000000E-02 0.  1.
</event>
<event>
 5   0  0.1211800E+10  0.9118800E+02  0.7818608E-02  0.1180000E+00
       11   -1    0    0    0    0  0.00000000000E+00  0.00000000000E+00  0.39999999673E+01  0.40000000000E+01  0.51109989000E-03 0.  1.
     -623   -1    0    0    0    0  0.00000000000E+00  0.00000000000E+00  0.12525980253E-10  0.17130000000E+03  0.17130000000E+03 0. -1.
       11    1    1    2    0    0  0.30808010945E-02  0.45908354862E-02  0.14627731651E+00  0.14638265489E+00  0.51109989000E-03 0.  1.
     -623    1    1    2    0    0 -0.85822665574E-03  0.13498051397E-02  0.11520410522E-03  0.17130000001E+03  0.17130000000E+03 0. -1.
      622    1    1    2    0    0 -0.22225744388E-02 -0.59406406259E-02  0.38536074467E+01  0.38536173376E+01  0.60000000000E-02 0.  1.
</event>
<event>
 5   0  0.1211800E+10  0.9118800E+02  0.7818608E-02  0.1180000E+00
       11   -1    0    0    0    0  0.00000000000E+00  0.00000000000E+00  0.39999999673E+01  0.40000000000E+01  0.51109989000E-03 0.  1.
     -623   -1    0    0    0    0  0.00000000000E+00  0.00000000000E+00  0.12525980253E-10  0.17130000000E+03  0.17130000000E+03 0. -1.
       11    1    1    2    0    0 -0.33865041074E-03  0.96448682112E-04  0.11952784688E+00  0.11952945825E+00  0.51109989000E-03 0.  1.
     -623    1    1    2    0    0  0.12551524301E-04  0.27308602732E-04  0.62330226722E-05  0.17130000000E+03  0.17130000000E+03 0. -1.
      622    1    1    2    0    0  0.32609888645E-03 -0.12375728483E-03  0.38804658857E+01  0.38804705400E+01  0.60000000000E-02 0.  1.
</event>
<event>
 5   0  0.1211800E+10  0.9118800E+02  0.7818608E-02  0.1180000E+00
       11   -1    0    0    0    0  0.00000000000E+00  0.00000000000E+00  0.39999999673E+01  0.40000000000E+01  0.51109989000E-03 0. -1.
     -623   -1    0    0    0    0  0.00000000000E+00  0.00000000000E+00  0.12525980253E-10  0.17130000000E+03  0.17130000000E+03 0.  1.
       11    1    1    2    0    0  0.29449216965E-03 -0.13315170901E-03  0.37782354971E-01  0.37787193932E-01  0.51109989000E-03 0. -1.
     -623    1    1    2    0    0  0.16340903584E-04  0.59214770573E-05  0.93634758356E-05  0.17130000000E+03  0.17130000000E+03 0.  1.
      622    1    1    2    0    0 -0.31083307331E-03  0.12723023193E-03  0.39622082679E+01  0.39622128250E+01  0.60000000000E-02 0. -1.
</event>
<event>
 5   0  0.1211800E+10  0.9118800E+02  0.7818608E-02  0.1180000E+00
       11   -1    0    0    0    0  0.00000000000E+00  0.00000000000E+00  0.39999999673E+01  0.40000000000E+01  0.51109989000E-03 0.  1.
     -623   -1    0    0    0    0  0.00000000000E+00  0.00000000000E+00  0.12525980253E-10  0.17130000000E+03  0.17130000000E+03 0. -1.
       11    1    1    2    0    0 -0.53624004112E-03  0.12430263640E-02  0.70271115199E-01  0.70286012266E-01  0.51109989000E-03 0.  1.
     -623    1    1    2    0    0  0.22268098290E-03 -0.12389419232E-03  0.19616973996E-04  0.17130000000E+03  0.17130000000E+03 0. -1.
      622    1    1    2    0    0  0.31355905822E-03 -0.11191321717E-02  0.39297092352E+01  0.39297139875E+01  0.60000000000E-02 0.  1.
</event>
<event>
 5   0  0.1211800E+10  0.9118800E+02  0.7818608E-02  0.1180000E+00
       11   -1    0    0    0    0  0.00000000000E+00  0.00000000000E+00  0.39999999673E+01  0.40000000000E+01  0.51109989000E-03 0.  1.
     -623   -1    0    0    0    0  0.00000000000E+00  0.00000000000E+00  0.12525980253E-10  0.17130000000E+03  0.17130000000E+03 0.  1.
       11    1    1    2    0    0 -0.78863574576E-03  0.52034719693E-03  0.86829192853E-01  0.86835837430E-01  0.51109989000E-03 0.  1.
     -623    1    1    2    0    0 -0.21614298276E-04 -0.27619284501E-04  0.11326706905E-04  0.17130000000E+03  0.17130000000E+03 0.  1.
      622    1    1    2    0    0  0.81025004403E-03 -0.49272791243E-03  0.39131594469E+01  0.39131641617E+01  0.60000000000E-02 0.  1.
</event>
<event>
 5   0  0.1211800E+10  0.9118800E+02  0.7818608E-02  0.1180000E+00
       11   -1    0    0    0    0  0.00000000000E+00  0.00000000000E+00  0.39999999673E+01  0.40000000000E+01  0.51109989000E-03 0. -1.
     -623   -1    0    0    0    0  0.00000000000E+00  0.00000000000E+00  0.12525980253E-10  0.17130000000E+03  0.17130000000E+03 0. -1.
       11    1    1    2    0    0 -0.28301406619E-02 -0.87005401434E-03  0.35810698316E-01  0.35936527756E-01  0.51109989000E-03 0. -1.
     -623    1    1    2    0    0  0.64701876214E-03 -0.28850690196E-04  0.13104194538E-03  0.17130000000E+03  0.17130000000E+03 0. -1.
      622    1    1    2    0    0  0.21831218995E-02  0.89890470455E-03  0.39640582286E+01  0.39640634724E+01  0.60000000000E-02 0. -1.
</event>
<event>
 5   0  0.1211800E+10  0.9118800E+02  0.7818608E-02  0.1180000E+00
       11   -1    0    0    0    0  0.00000000000E+00  0.00000000000E+00  0.39999999673E+01  0.40000000000E+01  0.51109989000E-03 0. -1.
     -623   -1    0    0    0    0  0.00000000000E+00  0.00000000000E+00  0.12525980253E-10  0.17130000000E+03  0.17130000000E+03 0. -1.
       11    1    1    2    0    0 -0.83776836887E-03 -0.22830737118E-03  0.78923398331E+00  0.78923462647E+00  0.51109989000E-03 0. -1.
     -623    1    1    2    0    0 -0.40041873144E-03  0.65438107872E-04  0.64600184784E-05  0.17130000000E+03  0.17130000000E+03 0. -1.
      622    1    1    2    0    0  0.12381871006E-02  0.16286926326E-03  0.32107595273E+01  0.32107653763E+01  0.60000000000E-02 0. -1.
</event>
<event>
 5   0  0.1211800E+10  0.9118800E+02  0.7818608E-02  0.1180000E+00
       11   -1    0    0    0    0  0.00000000000E+00  0.00000000000E+00  0.39999999673E+01  0.40000000000E+01  0.51109989000E-03 0. -1.
     -623   -1    0    0    0    0  0.00000000000E+00  0.00000000000E+00  0.12525980253E-10  0.17130000000E+03  0.17130000000E+03 0. -1.
       11    1    1    2    0    0 -0.18184800309E-03  0.15513242672E-02  0.55106227844E+00  0.55106472906E+00  0.51109989000E-03 0. -1.
     -623    1    1    2    0    0 -0.91736168396E-03 -0.85052594187E-03  0.78879211025E-05  0.17130000000E+03  0.17130000000E+03 0. -1.
      622    1    1    2    0    0  0.10992096901E-02 -0.70079832243E-03  0.34489298145E+01  0.34489352798E+01  0.60000000000E-02 0. -1.
</event>
<event>
 5   0  0.1211800E+10  0.9118800E+02  0.7818608E-02  0.1180000E+00
       11   -1    0    0    0    0  0.00000000000E+00  0.00000000000E+00  0.39999999673E+01  0.40000000000E+01  0.51109989000E-03 0.  1.
     -623   -1    0    0    0    0  0.00000000000E+00  0.00000000000E+00  0.12525980253E-10  0.17130000000E+03  0.17130000000E+03 0.  1.
       11    1    1    2    0    0  0.11016458767E-02  0.76793118610E-03  0.63785024880E-01  0.63801206603E-01  0.51109989000E-03 0. -1.
     -623    1    1    2    0    0 -0.12561833194E-03 -0.79779979384E-04  0.20903253649E-04  0.17130000000E+03  0.17130000000E+03 0.  1.
      622    1    1    2    0    0 -0.97602754475E-03 -0.68815120673E-03  0.39361940387E+01  0.39361987928E+01  0.60000000000E-02 0.  1.
</event>
<event>
 5   0  0.1211800E+10  0.9118800E+02  0.7818608E-02  0.1180000E+00
       11   -1    0    0    0    0  0.00000000000E+00  0.00000000000E+00  0.39999999673E+01  0.40000000000E+01  0.51109989000E-03 0.  1.
     -623   -1    0    0    0    0  0.00000000000E+00  0.00000000000E+00  0.12525980253E-10  0.17130000000E+03  0.17130000000E+03 0.  1.
       11    1    1    2    0    0 -0.10063827329E-02  0.57644768646E-03  0.32887138966E+00  0.32887383182E+00  0.51109989000E-03 0.  1.
     -623    1    1    2    0    0  0.60681926729E-03 -0.56748007450E-03  0.73364240554E-05  0.17130000000E+03  0.17130000000E+03 0.  1.
      622    1    1    2    0    0  0.39956346308E-03 -0.89676096234E-05  0.36711212578E+01  0.36711261827E+01  0.60000000000E-02 0.  1.
</event>
<event>
 5   0  0.1211800E+10  0.9118800E+02  0.7818608E-02  0.1180000E+00
       11   -1    0    0    0    0  0.00000000000E+00  0.00000000000E+00  0.39999999673E+01  0.40000000000E+01  0.51109989000E-03 0.  1.
     -623   -1    0    0    0    0  0.00000000000E+00  0.00000000000E+00  0.12525980253E-10  0.17130000000E+03  0.17130000000E+03 0.  1.
       11    1    1    2    0    0  0.98532685822E-03  0.17345995389E-02  0.30290835018E+00  0.30291535045E+00  0.51109989000E-03 0.  1.
     -623    1    1    2    0    0  0.56571314564E-03 -0.30672270095E-02  0.12430251343E-04  0.17130000003E+03  0.17130000000E+03 0.  1.
      622    1    1    2    0    0 -0.15510400039E-02  0.13326274706E-02  0.36970791869E+01  0.36970846212E+01  0.60000000000E-02 0.  1.
</event>
<event>
 5   0  0.1211800E+10  0.9118800E+02  0.7818608E-02  0.1180000E+00
       11   -1    0    0    0    0  0.00000000000E+00  0.00000000000E+00  0.39999999673E+01  0.40000000000E+01  0.51109989000E-03 0. -1.
     -623   -1    0    0    0    0  0.00000000000E+00  0.00000000000E+00  0.12525980253E-10  0.17130000000E+03  0.17130000000E+03 0.  1.
       11    1    1    2    0    0 -0.17425968919E-03  0.25646689056E-03  0.34793534691E-01  0.34798669818E-01  0.51109989000E-03 0. -1.
     -623    1    1    2    0    0  0.90979838084E-04 -0.22932225349E-03  0.96431267815E-05  0.17130000000E+03  0.17130000000E+03 0.  1.
      622    1    1    2    0    0  0.83279850543E-04 -0.27144635649E-04  0.39651968142E+01  0.39652013546E+01  0.60000000000E-02 0. -1.
</event>
<event>
 5   0  0.1211800E+10  0.9118800E+02  0.7818608E-02  0.1180000E+00
       11   -1    0    0    0    0  0.00000000000E+00  0.00000000000E+00  0.39999999673E+01  0.40000000000E+01  0.51109989000E-03 0.  1.
     -623   -1    0    0    0    0  0.00000000000E+00  0.00000000000E+00  0.12525980253E-10  0.17130000000E+03  0.17130000000E+03 0. -1.
       11    1    1    2    0    0 -0.34228132954E-03 -0.30004777288E-03  0.93220159114E-01  0.93222671453E-01  0.51109989000E-03 0.  1.
     -623    1    1    2    0    0  0.89426388425E-04 -0.63224378927E-05  0.71072984182E-05  0.17130000000E+03  0.17130000000E+03 0. -1.
      622    1    1    2    0    0  0.25285494111E-03  0.30637021077E-03  0.39067727009E+01  0.39067773285E+01  0.60000000000E-02 0.  1.
</event>
<event>
 5   0  0.1211800E+10  0.9118800E+02  0.7818608E-02  0.1180000E+00
       11   -1    0    0    0    0  0.00000000000E+00  0.00000000000E+00  0.39999999673E+01  0.40000000000E+01  0.51109989000E-03 0.  1.
     -623   -1    0    0    0    0  0.00000000000E+00  0.00000000000E+00  0.12525980253E-10  0.17130000000E+03  0.17130000000E+03 0.  1.
       11    1    1    2    0    0  0.75764170475E-04  0.14030564398E-02  0.20957024372E+00  0.20957557726E+00  0.51109989000E-03 0.  1.
     -623    1    1    2    0    0  0.48682976151E-03 -0.17663518643E-02  0.10118671235E-04  0.17130000001E+03  0.17130000000E+03 0.  1.
      622    1    1    2    0    0 -0.56259393424E-03  0.36329543266E-03  0.37904196235E+01  0.37904244315E+01  0.60000000000E-02 0.  1.
</event>
<event>
 5   0  0.1211800E+10  0.9118800E+02  0.7818608E-02  0.1180000E+00
       11   -1    0    0    0    0  0.00000000000E+00  0.00000000000E+00  0.39999999673E+01  0.40000000000E+01  0.51109989000E-03 0.  1.
     -623   -1    0    0    0    0  0.00000000000E+00  0.00000000000E+00  0.12525980253E-10  0.17130000000E+03  0.17130000000E+03 0. -1.
       11    1    1    2    0    0  0.73708856331E-03 -0.19631757976E-02  0.82106638577E+00  0.82106922267E+00  0.51109989000E-03 0.  1.
     -623    1    1    2    0    0 -0.10574527117E-02  0.31678060522E-03  0.89125920715E-05  0.17130000000E+03  0.17130000000E+03 0. -1.
      622    1    1    2    0    0  0.32036415638E-03  0.16463951900E-02  0.31789246993E+01  0.31789308041E+01  0.60000000000E-02 0.  1.
</event>
<event>
 5   0  0.1211800E+10  0.9118800E+02  0.7818608E-02  0.1180000E+00
       11   -1    0    0    0    0  0.00000000000E+00  0.00000000000E+00  0.39999999673E+01  0.40000000000E+01  0.51109989000E-03 0. -1.
     -623   -1    0    0    0    0  0.00000000000E+00  0.00000000000E+00  0.12525980253E-10  0.17130000000E+03  0.17130000000E+03 0.  1.
       11    1    1    2    0    0 -0.11936501440E-03  0.59001906602E-03  0.24726529636E-01  0.24739136231E-01  0.51109989000E-03 0. -1.
     -623    1    1    2    0    0 -0.84623743386E-03  0.43064945285E-03  0.17352899312E-04  0.17130000000E+03  0.17130000000E+03 0.  1.
      622    1    1    2    0    0  0.96560245237E-03 -0.10206685210E-02  0.39752561042E+01  0.39752608805E+01  0.60000000000E-02 0. -1.
</event>
<event>
 5   0  0.1211800E+10  0.9118800E+02  0.7818608E-02  0.1180000E+00
       11   -1    0    0    0    0  0.00000000000E+00  0.00000000000E+00  0.39999999673E+01  0.40000000000E+01  0.51109989000E-03 0.  1.
     -623   -1    0    0    0    0  0.00000000000E+00  0.00000000000E+00  0.12525980253E-10  0.17130000000E+03  0.17130000000E+03 0. -1.
       11    1    1    2    0    0 -0.67278529438E-03 -0.84306917010E-03  0.45648902958E-01  0.45664504463E-01  0.51109989000E-03 0.  1.
     -623    1    1    2    0    0  0.39807876255E-03 -0.86482510634E-04  0.20240116115E-04  0.17130000000E+03  0.17130000000E+03 0. -1.
      622    1    1    2    0    0  0.27470653183E-03  0.92955168074E-03  0.39543308243E+01  0.39543354951E+01  0.60000000000E-02 0.  1.
</event>
<event>
 5   0  0.1211800E+10  0.9118800E+02  0.7818608E-02  0.1180000E+00
       11   -1    0    0    0    0  0.00000000000E+00  0.00000000000E+00  0.39999999673E+01  0.40000000000E+01  0.51109989000E-03 0.  1.
     -623   -1    0    0    0    0  0.00000000000E+00  0.00000000000E+00  0.12525980253E-10  0.17130000000E+03  0.17130000000E+03 0.  1.
       11    1    1    2    0    0  0.30348529439E-04 -0.11314600349E-03  0.27760793648E+00  0.27760843169E+00  0.51109989000E-03 0.  1.
     -623    1    1    2    0    0 -0.75993345990E-05  0.25128443148E-03  0.53009840948E-05  0.17130000000E+03  0.17130000000E+03 0.  1.
      622    1    1    2    0    0 -0.22749194840E-04 -0.13813842800E-03  0.37223867299E+01  0.37223915681E+01  0.60000000000E-02 0.  1.
</event>
<event>
 5   0  0.1211800E+10  0.9118800E+02  0.7818608E-02  0.1180000E+00
       11   -1    0    0    0    0  0.00000000000E+00  0.00000000000E+00  0.39999999673E+01  0.40000000000E+01  0.51109989000E-03 0. -1.
     -623   -1    0    0    0    0  0.00000000000E+00  0.00000000000E+00  0.12525980253E-10  0.17130000000E+03  0.17130000000E+03 0. -1.
       11    1    1    2    0    0 -0.10761498044E-02 -0.56657782006E-03  0.11402541514E+00  0.11403304622E+00  0.51109989000E-03 0. -1.
     -623    1    1    2    0    0 -0.12766530757E-03  0.20890542904E-03  0.12433590690E-04  0.17130000000E+03  0.17130000000E+03 0. -1.
      622    1    1    2    0    0  0.12038151116E-02  0.35767239167E-03  0.38859621063E+01  0.38859669413E+01  0.60000000000E-02 0. -1.
</event>
<event>
 5   0  0.1211800E+10  0.9118800E+02  0.7818608E-02  0.1180000E+00
       11   -1    0    0    0    0  0.00000000000E+00  0.00000000000E+00  0.39999999673E+01  0.40000000000E+01  0.51109989000E-03 0.  1.
     -623   -1    0    0    0    0  0.00000000000E+00  0.00000000000E+00  0.12525980253E-10  0.17130000000E+03  0.17130000000E+03 0. -1.
       11    1    1    2    0    0  0.50909379666E-04  0.20999729131E-02  0.92384264128E-01  0.92409555551E-01  0.51109989000E-03 0.  1.
     -623    1    1    2    0    0 -0.10147819531E-03  0.11653566060E-03  0.30494241952E-04  0.17130000000E+03  0.17130000000E+03 0. -1.
      622    1    1    2    0    0  0.50568815648E-04 -0.22165085737E-02  0.39075852090E+01  0.39075904444E+01  0.60000000000E-02 0.  1.
</event>
<event>
 5   0  0.1211800E+10  0.9118800E+02  0.7818608E-02  0.1180000E+00
       11   -1    0    0    0    0  0.00000000000E+00  0.00000000000E+00  0.39999999673E+01  0.40000000000E+01  0.51109989000E-03 0.  1.
     -623   -1    0    0    0    0  0.00000000000E+00  0.00000000000E+00  0.12525980253E-10  0.17130000000E+03  0.17130000000E+03 0.  1.
       11    1    1    2    0    0  0.47699680972E-02  0.54972144814E-02  0.44916039069E+00  0.44921964533E+00  0.51109989000E-03 0.  1.
     -623    1    1    2    0    0  0.61734431922E-03  0.28761065750E-02  0.78276332122E-04  0.17130000003E+03  0.17130000000E+03 0.  1.
      622    1    1    2    0    0 -0.53873124166E-02 -0.83733210572E-02  0.35507613014E+01  0.35507803304E+01  0.60000000000E-02 0.  1.
</event>
<event>
 5   0  0.1211800E+10  0.9118800E+02  0.7818608E-02  0.1180000E+00
       11   -1    0    0    0    0  0.00000000000E+00  0.00000000000E+00  0.39999999673E+01  0.40000000000E+01  0.51109989000E-03 0. -1.
     -623   -1    0    0    0    0  0.00000000000E+00  0.00000000000E+00  0.12525980253E-10  0.17130000000E+03  0.17130000000E+03 0.  1.
       11    1    1    2    0    0 -0.12577821453E-02  0.62334172119E-04  0.11451205859E+00  0.11452012351E+00  0.51109989000E-03 0. -1.
     -623    1    1    2    0    0 -0.28371376720E-02  0.35337766486E-02  0.16546830247E-04  0.17130000006E+03  0.17130000000E+03 0.  1.
      622    1    1    2    0    0  0.40949198306E-02 -0.35961108373E-02  0.38854713807E+01  0.38854798353E+01  0.60000000000E-02 0. -1.
</event>
<event>
 5   0  0.1211800E+10  0.9118800E+02  0.7818608E-02  0.1180000E+00
       11   -1    0    0    0    0  0.00000000000E+00  0.00000000000E+00  0.39999999673E+01  0.40000000000E+01  0.51109989000E-03 0.  1.
     -623   -1    0    0    0    0  0.00000000000E+00  0.00000000000E+00  0.12525980253E-10  0.17130000000E+03  0.17130000000E+03 0.  1.
       11    1    1    2    0    0 -0.12488823130E-02  0.99940656025E-03  0.13082915391E+00  0.13083992990E+00  0.51109989000E-03 0.  1.
     -623    1    1    2    0    0  0.48955669077E-03 -0.17138150245E-02  0.15545263210E-04  0.17130000001E+03  0.17130000000E+03 0.  1.
      622    1    1    2    0    0  0.75932561910E-03  0.71440847502E-03  0.38691552934E+01  0.38691600860E+01  0.60000000000E-02 0.  1.
</event>
<event>
 5   0  0.1211800E+10  0.9118800E+02  0.7818608E-02  0.1180000E+00
       11   -1    0    0    0    0  0.00000000000E+00  0.00000000000E+00  0.39999999673E+01  0.40000000000E+01  0.51109989000E-03 0.  1.
     -623   -1    0    0    0    0  0.00000000000E+00  0.00000000000E+00  0.12525980253E-10  0.17130000000E+03  0.17130000000E+03 0. -1.
       11    1    1    2    0    0 -0.14382425446E-02 -0.90757851026E-03  0.89721462797E-01  0.89739034706E-01  0.51109989000E-03 0.  1.
     -623    1    1    2    0    0  0.38926248365E-04 -0.30875536815E-04  0.22505545112E-04  0.17130000000E+03  0.17130000000E+03 0. -1.
      622    1    1    2    0    0  0.13993162963E-02  0.93845404703E-03  0.39102559935E+01  0.39102609598E+01  0.60000000000E-02 0.  1.
</event>
<event>
 5   0  0.1211800E+10  0.9118800E+02  0.7818608E-02  0.1180000E+00
       11   -1    0    0    0    0  0.00000000000E+00  0.00000000000E+00  0.39999999673E+01  0.40000000000E+01  0.51109989000E-03 0. -1.
     -623   -1    0    0    0    0  0.00000000000E+00  0.00000000000E+00  0.12525980253E-10  0.17130000000E+03  0.17130000000E+03 0. -1.
       11    1    1    2    0    0 -0.82768037805E-03 -0.75053347635E-03  0.17738697160E+00  0.17739122658E+00  0.51109989000E-03 0. -1.
     -623    1    1    2    0    0 -0.11208975404E-02 -0.38873326736E-04  0.95130026172E-05  0.17130000000E+03  0.17130000000E+03 0. -1.
      622    1    1    2    0    0  0.19485779184E-02  0.78940680309E-03  0.38226034828E+01  0.38226087697E+01  0.60000000000E-02 0. -1.
</event>
<event>
 5   0  0.1211800E+10  0.9118800E+02  0.7818608E-02  0.1180000E+00
       11   -1    0    0    0    0  0.00000000000E+00  0.00000000000E+00  0.39999999673E+01  0.40000000000E+01  0.51109989000E-03 0.  1.
     -623   -1    0    0    0    0  0.00000000000E+00  0.00000000000E+00  0.12525980253E-10  0.17130000000E+03  0.17130000000E+03 0. -1.
       11    1    1    2    0    0  0.52939615547E-03  0.16243369338E-02  0.12080074087E+00  0.12081390214E+00  0.51109989000E-03 0.  1.
     -623    1    1    2    0    0 -0.11892655223E-02 -0.89311492617E-03  0.17900272785E-04  0.17130000001E+03  0.17130000000E+03 0. -1.
      622    1    1    2    0    0  0.65986936307E-03 -0.73122201040E-03  0.38791813137E+01  0.38791860789E+01  0.60000000000E-02 0.  0.
</event>
<event>
 5   0  0.1211800E+10  0.9118800E+02  0.7818608E-02  0.1180000E+00
       11   -1    0    0    0    0  0.00000000000E+00  0.00000000000E+00  0.39999999673E+01  0.40000000000E+01  0.51109989000E-03 0. -1.
     -623   -1    0    0    0    0  0.00000000000E+00  0.00000000000E+00  0.12525980253E-10  0.17130000000E+03  0.17130000000E+03 0. -1.
       11    1    1    2    0    0  0.11950551714E-02  0.18894763965E-02  0.15713357796E+00  0.15715031282E+00  0.51109989000E-03 0. -1.
     -623    1    1    2    0    0 -0.34354276053E-04  0.40024650760E-04  0.22045954919E-04  0.17130000000E+03  0.17130000000E+03 0. -1.
      622    1    1    2    0    0 -0.11607008954E-02 -0.19295010473E-02  0.38428443434E+01  0.38428496872E+01  0.60000000000E-02 0. -1.
</event>
<event>
 5   0  0.1211800E+10  0.9118800E+02  0.7818608E-02  0.1180000E+00
       11   -1    0    0    0    0  0.00000000000E+00  0.00000000000E+00  0.39999999673E+01  0.40000000000E+01  0.51109989000E-03 0. -1.
     -623   -1    0    0    0    0  0.00000000000E+00  0.00000000000E+00  0.12525980253E-10  0.17130000000E+03  0.17130000000E+03 0.  1.
       11    1    1    2    0    0 -0.21766223777E-04 -0.21249910175E-02  0.61244443010E+00  0.61244833026E+00  0.51109989000E-03 0. -1.
     -623    1    1    2    0    0  0.11249718860E-03  0.77754759233E-04  0.98009856777E-05  0.17130000000E+03  0.17130000000E+03 0.  1.
      622    1    1    2    0    0 -0.90730964820E-04  0.20472362582E-02  0.33875457363E+01  0.33875516697E+01  0.60000000000E-02 0. -1.
</event>
<event>
 5   0  0.1211800E+10  0.9118800E+02  0.7818608E-02  0.1180000E+00
       11   -1    0    0    0    0  0.00000000000E+00  0.00000000000E+00  0.39999999673E+01  0.40000000000E+01  0.51109989000E-03 0.  1.
     -623   -1    0    0    0    0  0.00000000000E+00  0.00000000000E+00  0.12525980253E-10  0.17130000000E+03  0.17130000000E+03 0. -1.
       11    1    1    2    0    0  0.14171294386E-02  0.13873429066E-03  0.55237539484E-01  0.55258252726E-01  0.51109989000E-03 0.  1.
     -623    1    1    2    0    0 -0.10573604649E-02  0.45294402697E-03  0.25308284794E-04  0.17130000000E+03  0.17130000000E+03 0. -1.
      622    1    1    2    0    0 -0.35976897387E-03 -0.59167831755E-03  0.39447371189E+01  0.39447417427E+01  0.60000000000E-02 0.  1.
</event>
<event>
 5   0  0.1211800E+10  0.9118800E+02  0.7818608E-02  0.1180000E+00
       11   -1    0    0    0    0  0.00000000000E+00  0.00000000000E+00  0.39999999673E+01  0.40000000000E+01  0.51109989000E-03 0. -1.
     -623   -1    0    0    0    0  0.00000000000E+00  0.00000000000E+00  0.12525980253E-10  0.17130000000E+03  0.17130000000E+03 0. -1.
       11    1    1    2    0    0  0.11908475584E-03 -0.51824615281E-03  0.47358815719E+00  0.47358873151E+00  0.51109989000E-03 0. -1.
     -623    1    1    2    0    0  0.20350030614E-03 -0.29097588649E-04  0.57033789846E-05  0.17130000000E+03  0.17130000000E+03 0. -1.
      622    1    1    2    0    0 -0.32258506492E-03  0.54734374188E-03  0.35264061646E+01  0.35264113261E+01  0.60000000000E-02 0. -1.
</event>
<event>
 5   0  0.1211800E+10  0.9118800E+02  0.7818608E-02  0.1180000E+00
       11   -1    0    0    0    0  0.00000000000E+00  0.00000000000E+00  0.39999999673E+01  0.40000000000E+01  0.51109989000E-03 0.  1.
     -623   -1    0    0    0    0  0.00000000000E+00  0.00000000000E+00  0.12525980253E-10  0.17130000000E+03  0.17130000000E+03 0. -1.
       11    1    1    2    0    0 -0.55970686174E-03  0.11432073084E-03  0.67283234135E-02  0.67718461002E-02  0.51109989000E-03 0. -1.
     -623    1    1    2    0    0  0.34853660223E-03 -0.11215237630E-04  0.48004956981E-04  0.17130000000E+03  0.17130000000E+03 0. -1.
      622    1    1    2    0    0  0.21117025951E-03 -0.10310549321E-03  0.39932236390E+01  0.39932281535E+01  0.60000000000E-02 0.  1.
</event>
<event>
 5   0  0.1211800E+10  0.9118800E+02  0.7818608E-02  0.1180000E+00
       11   -1    0    0    0    0  0.00000000000E+00  0.00000000000E+00  0.39999999673E+01  0.40000000000E+01  0.51109989000E-03 0.  1.
     -623   -1    0    0    0    0  0.00000000000E+00  0.00000000000E+00  0.12525980253E-10  0.17130000000E+03  0.17130000000E+03 0. -1.
       11    1    1    2    0    0  0.65919225849E-03 -0.10050738088E-02  0.74055221778E-02  0.75198197862E-02  0.51109989000E-03 0. -1.
     -623    1    1    2    0    0  0.43186944915E-02 -0.60733506616E-02  0.12831368193E-03  0.17130000016E+03  0.17130000000E+03 0. -1.
      622    1    1    2    0    0 -0.49778867539E-02  0.70784244758E-02  0.39924661351E+01  0.39924800217E+01  0.60000000000E-02 0.  1.
</event>
<event>
 5   0  0.1211800E+10  0.9118800E+02  0.7818608E-02  0.1180000E+00
       11   -1    0    0    0    0  0.00000000000E+00  0.00000000000E+00  0.39999999673E+01  0.40000000000E+01  0.51109989000E-03 0. -1.
     -623   -1    0    0    0    0  0.00000000000E+00  0.00000000000E+00  0.12525980253E-10  0.17130000000E+03  0.17130000000E+03 0. -1.
       11    1    1    2    0    0  0.15675593685E-03 -0.84944540116E-03  0.17563978921E+00  0.17564265685E+00  0.51109989000E-03 0. -1.
     -623    1    1    2    0    0  0.13919623650E-03  0.25430265241E-03  0.75996781619E-05  0.17130000000E+03  0.17130000000E+03 0. -1.
      622    1    1    2    0    0 -0.29595217335E-03  0.59514274875E-03  0.38243525785E+01  0.38243573429E+01  0.60000000000E-02 0. -1.
</event>
<event>
 5   0  0.1211800E+10  0.9118800E+02  0.7818608E-02  0.1180000E+00
       11   -1    0    0    0    0  0.00000000000E+00  0.00000000000E+00  0.39999999673E+01  0.40000000000E+01  0.51109989000E-03 0. -1.
     -623   -1    0    0    0    0  0.00000000000E+00  0.00000000000E+00  0.12525980253E-10  0.17130000000E+03  0.17130000000E+03 0. -1.
       11    1    1    2    0    0  0.38982021470E-03 -0.11594813718E-02  0.85404940348E-01  0.85415229414E-01  0.51109989000E-03 0. -1.
     -623    1    1    2    0    0 -0.17844216662E-03 -0.13203744575E-03  0.15073520792E-04  0.17130000000E+03  0.17130000000E+03 0. -1.
      622    1    1    2    0    0 -0.21137804707E-03  0.12915188183E-02  0.39145799763E+01  0.39145847932E+01  0.60000000000E-02 0. -1.
</event>
<event>
 5   0  0.1211800E+10  0.9118800E+02  0.7818608E-02  0.1180000E+00
       11   -1    0    0    0    0  0.00000000000E+00  0.00000000000E+00  0.39999999673E+01  0.40000000000E+01  0.51109989000E-03 0.  1.
     -623   -1    0    0    0    0  0.00000000000E+00  0.00000000000E+00  0.12525980253E-10  0.17130000000E+03  0.17130000000E+03 0. -1.
       11    1    1    2    0    0  0.17983415668E-02  0.56044485848E-05  0.39280847113E+00  0.39281292020E+00  0.51109989000E-03 0.  1.
     -623    1    1    2    0    0  0.36711916493E-03  0.38672861012E-03  0.10078624366E-04  0.17130000000E+03  0.17130000000E+03 0. -1.
      622    1    1    2    0    0 -0.21654607283E-02 -0.39233305510E-03  0.36071813803E+01  0.36071870416E+01  0.60000000000E-02 0.  1.
</event>
<event>
 5   0  0.1211800E+10  0.9118800E+02  0.7818608E-02  0.1180000E+00
       11   -1    0    0    0    0  0.00000000000E+00  0.00000000000E+00  0.39999999673E+01  0.40000000000E+01  0.51109989000E-03 0. -1.
     -623   -1    0    0    0    0  0.00000000000E+00  0.00000000000E+00  0.12525980253E-10  0.17130000000E+03  0.17130000000E+03 0.  1.
       11    1    1    2    0    0  0.14498928220E-02 -0.18974405232E-02  0.26548228240E-01  0.26660309690E-01  0.51109989000E-03 0. -1.
     -623    1    1    2    0    0 -0.18401521881E-02  0.15174285118E-02  0.11663298831E-03  0.17130000002E+03  0.17130000000E+03 0.  1.
      622    1    1    2    0    0  0.39025936605E-03  0.38001201139E-03  0.39733351061E+01  0.39733396737E+01  0.60000000000E-02 0. -1.
</event>
<event>
 5   0  0.1211800E+10  0.9118800E+02  0.7818608E-02  0.1180000E+00
       11   -1    0    0    0    0  0.00000000000E+00  0.00000000000E+00  0.39999999673E+01  0.40000000000E+01  0.51109989000E-03 0.  1.
     -623   -1    0    0    0    0  0.00000000000E+00  0.00000000000E+00  0.12525980253E-10  0.17130000000E+03  0.17130000000E+03 0.  1.
       11    1    1    2    0    0 -0.47708224303E-03  0.52664880563E-03  0.10497765502E+00  0.10498130426E+00  0.51109989000E-03 0. -1.
     -623    1    1    2    0    0  0.10898133561E-04 -0.50946367458E-04  0.82948398381E-05  0.17130000000E+03  0.17130000000E+03 0.  1.
      622    1    1    2    0    0  0.46618410942E-03 -0.47570243795E-03  0.38950140350E+01  0.38950187132E+01  0.60000000000E-02 0.  1.
</event>
<event>
 5   0  0.1211800E+10  0.9118800E+02  0.7818608E-02  0.1180000E+00
       11   -1    0    0    0    0  0.00000000000E+00  0.00000000000E+00  0.39999999673E+01  0.40000000000E+01  0.51109989000E-03 0. -1.
     -623   -1    0    0    0    0  0.00000000000E+00  0.00000000000E+00  0.12525980253E-10  0.17130000000E+03  0.17130000000E+03 0.  1.
       11    1    1    2    0    0  0.75385549241E-03  0.16547686794E-02  0.16623720374E+00  0.16624793439E+00  0.51109989000E-03 0. -1.
     -623    1    1    2    0    0 -0.44592044979E-03 -0.20370118299E-02  0.15437264395E-04  0.17130000001E+03  0.17130000000E+03 0.  1.
      622    1    1    2    0    0 -0.30793504527E-03  0.38224313838E-03  0.38337473026E+01  0.38337520292E+01  0.60000000000E-02 0. -1.
</event>
<event>
 5   0  0.1211800E+10  0.9118800E+02  0.7818608E-02  0.1180000E+00
       11   -1    0    0    0    0  0.00000000000E+00  0.00000000000E+00  0.39999999673E+01  0.40000000000E+01  0.51109989000E-03 0.  1.
     -623   -1    0    0    0    0  0.00000000000E+00  0.00000000000E+00  0.12525980253E-10  0.17130000000E+03  0.17130000000E+03 0.  1.
       11    1    1    2    0    0 -0.29442888038E-03  0.45150126926E-03  0.47432343698E+00  0.47432401861E+00  0.51109989000E-03 0.  1.
     -623    1    1    2    0    0  0.74175753916E-03 -0.89143627297E-03  0.57141505487E-05  0.17130000000E+03  0.17130000000E+03 0.  1.
      622    1    1    2    0    0 -0.44732865878E-03  0.43993500371E-03  0.35256708162E+01  0.35256759775E+01  0.60000000000E-02 0.  1.
</event>
<event>
 5   0  0.1211800E+10  0.9118800E+02  0.7818608E-02  0.1180000E+00
       11   -1    0    0    0    0  0.00000000000E+00  0.00000000000E+00  0.39999999673E+01  0.40000000000E+01  0.51109989000E-03 0.  1.
     -623   -1    0    0    0    0  0.00000000000E+00  0.00000000000E+00  0.12525980253E-10  0.17130000000E+03  0.17130000000E+03 0.  1.
       11    1    1    2    0    0 -0.64639912137E-03  0.35312212486E-03  0.37109723602E+00  0.37109831896E+00  0.51109989000E-03 0.  1.
     -623    1    1    2    0    0 -0.87919552628E-04  0.26351879398E-04  0.61046390822E-05  0.17130000000E+03  0.17130000000E+03 0.  1.
      622    1    1    2    0    0  0.73431867285E-03 -0.37947400391E-03  0.36288965746E+01  0.36289016289E+01  0.60000000000E-02 0.  1.
</event>
<event>
 5   0  0.1211800E+10  0.9118800E+02  0.7818608E-02  0.1180000E+00
       11   -1    0    0    0    0  0.00000000000E+00  0.00000000000E+00  0.39999999673E+01  0.40000000000E+01  0.51109989000E-03 0.  1.
     -623   -1    0    0    0    0  0.00000000000E+00  0.00000000000E+00  0.12525980253E-10  0.17130000000E+03  0.17130000000E+03 0. -1.
       11    1    1    2    0    0  0.77263566923E-02 -0.55608526495E-02  0.29949063052E+00  0.29964231787E+00  0.51109989000E-03 0.  1.
     -623    1    1    2    0    0  0.12049825426E-03  0.39083883415E-03  0.16845128931E-03  0.17130000000E+03  0.17130000000E+03 0. -1.
      622    1    1    2    0    0 -0.78468549466E-02  0.51700138153E-02  0.37003408856E+01  0.37003576816E+01  0.60000000000E-02 0.  1.
</event>
<event>
 5   0  0.1211800E+10  0.9118800E+02  0.7818608E-02  0.1180000E+00
       11   -1    0    0    0    0  0.00000000000E+00  0.00000000000E+00  0.39999999673E+01  0.40000000000E+01  0.51109989000E-03 0. -1.
     -623   -1    0    0    0    0  0.00000000000E+00  0.00000000000E+00  0.12525980253E-10  0.17130000000E+03  0.17130000000E+03 0.  1.
       11    1    1    2    0    0  0.53895192675E-02 -0.10761884822E-01  0.73320402349E+00  0.73330298402E+00  0.51109989000E-03 0. -1.
     -623    1    1    2    0    0  0.49783552184E-03  0.11888557939E-01  0.11035085218E-03  0.17130000041E+03  0.17130000000E+03 0.  1.
      622    1    1    2    0    0 -0.58873547893E-02 -0.11266731176E-02  0.32666855930E+01  0.32666966027E+01  0.60000000000E-02 0. -1.
</event>
<event>
 5   0  0.1211800E+10  0.9118800E+02  0.7818608E-02  0.1180000E+00
       11   -1    0    0    0    0  0.00000000000E+00  0.00000000000E+00  0.39999999673E+01  0.40000000000E+01  0.51109989000E-03 0.  1.
     -623   -1    0    0    0    0  0.00000000000E+00  0.00000000000E+00  0.12525980253E-10  0.17130000000E+03  0.17130000000E+03 0.  1.
       11    1    1    2    0    0  0.39471206108E-02 -0.79688634239E-03  0.11667978382E+01  0.11668048985E+01  0.51109989000E-03 0.  1.
     -623    1    1    2    0    0 -0.51424011963E-03 -0.40285921879E-03  0.15715974642E-04  0.17130000000E+03  0.17130000000E+03 0.  1.
      622    1    1    2    0    0 -0.34328804914E-02  0.11997455610E-02  0.28331864112E+01  0.28331950982E+01  0.60000000000E-02 0.  0.
</event>
<event>
 5   0  0.1211800E+10  0.9118800E+02  0.7818608E-02  0.1180000E+00
       11   -1    0    0    0    0  0.00000000000E+00  0.00000000000E+00  0.39999999673E+01  0.40000000000E+01  0.51109989000E-03 0. -1.
     -623   -1    0    0    0    0  0.00000000000E+00  0.00000000000E+00  0.12525980253E-10  0.17130000000E+03  0.17130000000E+03 0.  1.
       11    1    1    2    0    0 -0.32726384071E-02  0.61976542010E-02  0.26524936847E+00  0.26534243870E+00  0.51109989000E-03 0. -1.
     -623    1    1    2    0    0  0.95076757778E-03  0.10288001057E-02  0.10557634690E-03  0.17130000001E+03  0.17130000000E+03 0.  1.
      622    1    1    2    0    0  0.23218708282E-02 -0.72264543079E-02  0.37346450269E+01  0.37346575599E+01  0.60000000000E-02 0. -1.
</event>
<event>
 5   0  0.1211800E+10  0.9118800E+02  0.7818608E-02  0.1180000E+00
       11   -1    0    0    0    0  0.00000000000E+00  0.00000000000E+00  0.39999999673E+01  0.40000000000E+01  0.51109989000E-03 0. -1.
     -623   -1    0    0    0    0  0.00000000000E+00  0.00000000000E+00  0.12525980253E-10  0.17130000000E+03  0.17130000000E+03 0.  1.
       11    1    1    2    0    0  0.38901137213E-03 -0.12694351622E-02  0.23039271120E-01  0.23083154731E-01  0.51109989000E-03 0. -1.
     -623    1    1    2    0    0 -0.27642307738E-03  0.13408833798E-02  0.48384805618E-04  0.17130000001E+03  0.17130000000E+03 0.  1.
      622    1    1    2    0    0 -0.11258829410E-03 -0.71448220826E-04  0.39769123209E+01  0.39769168493E+01  0.60000000000E-02 0. -1.
</event>
<event>
 5   0  0.1211800E+10  0.9118800E+02  0.7818608E-02  0.1180000E+00
       11   -1    0    0    0    0  0.00000000000E+00  0.00000000000E+00  0.39999999673E+01  0.40000000000E+01  0.51109989000E-03 0. -1.
     -623   -1    0    0    0    0  0.00000000000E+00  0.00000000000E+00  0.12525980253E-10  0.17130000000E+03  0.17130000000E+03 0.  1.
       11    1    1    2    0    0 -0.51882220277E-02  0.83534771057E-02  0.36937760001E+00  0.36950882376E+00  0.51109989000E-03 0. -1.
     -623    1    1    2    0    0  0.20299416264E-03  0.14880845745E-03  0.14952795954E-03  0.17130000000E+03  0.17130000000E+03 0.  1.
      622    1    1    2    0    0  0.49852278650E-02 -0.85022855632E-02  0.36304728394E+01  0.36304911760E+01  0.60000000000E-02 0. -1.
</event>
<event>
 5   0  0.1211800E+10  0.9118800E+02  0.7818608E-02  0.1180000E+00
       11   -1    0    0    0    0  0.00000000000E+00  0.00000000000E+00  0.39999999673E+01  0.40000000000E+01  0.51109989000E-03 0. -1.
     -623   -1    0    0    0    0  0.00000000000E+00  0.00000000000E+00  0.12525980253E-10  0.17130000000E+03  0.17130000000E+03 0.  1.
       11    1    1    2    0    0 -0.60766951608E-03 -0.30972262287E-03  0.66377993876E-01  0.66383465444E-01  0.51109989000E-03 0. -1.
     -623    1    1    2    0    0  0.45806498630E-03 -0.66588671922E-06  0.10030576493E-04  0.17130000000E+03  0.17130000000E+03 0.  1.
      622    1    1    2    0    0  0.14960453110E-03  0.31038850959E-03  0.39336119313E+01  0.39336165224E+01  0.60000000000E-02 0. -1.
</event>
<event>
 5   0  0.1211800E+10  0.9118800E+02  0.7818608E-02  0.1180000E+00
       11   -1    0    0    0    0  0.00000000000E+00  0.00000000000E+00  0.39999999673E+01  0.40000000000E+01  0.51109989000E-03 0.  1.
     -623   -1    0    0    0    0  0.00000000000E+00  0.00000000000E+00  0.12525980253E-10  0.17130000000E+03  0.17130000000E+03 0.  1.
       11    1    1    2    0    0 -0.44337262532E-03 -0.89549815112E-03  0.12356247000E-01  0.12407117282E-01  0.51109989000E-03 0.  1.
     -623    1    1    2    0    0  0.85595056693E-04 -0.81072094500E-04  0.55487327939E-04  0.17130000000E+03  0.17130000000E+03 0.  1.
      622    1    1    2    0    0  0.35777756863E-03  0.97657024562E-03  0.39875882329E+01  0.39875928825E+01  0.60000000000E-02 0.  1.
</event>
<event>
 5   0  0.1211800E+10  0.9118800E+02  0.7818608E-02  0.1180000E+00
       11   -1    0    0    0    0  0.00000000000E+00  0.00000000000E+00  0.39999999673E+01  0.40000000000E+01  0.51109989000E-03 0. -1.
     -623   -1    0    0    0    0  0.00000000000E+00  0.00000000000E+00  0.12525980253E-10  0.17130000000E+03  0.17130000000E+03 0. -1.
       11    1    1    2    0    0 -0.58028990009E-03 -0.10594276038E-02  0.32709757709E-01  0.32736044289E-01  0.51109989000E-03 0. -1.
     -623    1    1    2    0    0  0.28721387258E-03  0.30189163643E-03  0.30874733914E-04  0.17130000000E+03  0.17130000000E+03 0. -1.
      622    1    1    2    0    0  0.29307602732E-03  0.75753596718E-03  0.39672593376E+01  0.39672639579E+01  0.60000000000E-02 0. -1.
</event>
<event>
 5   0  0.1211800E+10  0.9118800E+02  0.7818608E-02  0.1180000E+00
       11   -1    0    0    0    0  0.00000000000E+00  0.00000000000E+00  0.39999999673E+01  0.40000000000E+01  0.51109989000E-03 0.  1.
     -623   -1    0    0    0    0  0.00000000000E+00  0.00000000000E+00  0.12525980253E-10  0.17130000000E+03  0.17130000000E+03 0. -1.
       11    1    1    2    0    0  0.44833859942E-02 -0.32885815042E-02  0.40096068910E-01  0.40482977699E-01  0.51109989000E-03 0.  1.
     -623    1    1    2    0    0 -0.92288732648E-03  0.93990767319E-03  0.39372511049E-03  0.17130000001E+03  0.17130000000E+03 0. -1.
      622    1    1    2    0    0 -0.35604986676E-02  0.23486738309E-02  0.39595101738E+01  0.39595170172E+01  0.60000000000E-02 0.  1.
</event>
<event>
 5   0  0.1211800E+10  0.9118800E+02  0.7818608E-02  0.1180000E+00
       11   -1    0    0    0    0  0.00000000000E+00  0.00000000000E+00  0.39999999673E+01  0.40000000000E+01  0.51109989000E-03 0. -1.
     -623   -1    0    0    0    0  0.00000000000E+00  0.00000000000E+00  0.12525980253E-10  0.17130000000E+03  0.17130000000E+03 0.  1.
       11    1    1    2    0    0  0.25846543870E-02  0.30721935563E-02  0.10678136941E-01  0.11419397547E-01  0.51109989000E-03 0. -1.
     -623    1    1    2    0    0 -0.16799152200E-03 -0.90010337082E-03  0.74706848817E-03  0.17130000000E+03  0.17130000000E+03 0.  1.
      622    1    1    2    0    0 -0.24166628650E-02 -0.21720901855E-02  0.39885747619E+01  0.39885805984E+01  0.60000000000E-02 0. -1.
</event>
<event>
 5   0  0.1211800E+10  0.9118800E+02  0.7818608E-02  0.1180000E+00
       11   -1    0    0    0    0  0.00000000000E+00  0.00000000000E+00  0.39999999673E+01  0.40000000000E+01  0.51109989000E-03 0.  1.
     -623   -1    0    0    0    0  0.00000000000E+00  0.00000000000E+00  0.12525980253E-10  0.17130000000E+03  0.17130000000E+03 0. -1.
       11    1    1    2    0    0  0.16998664241E-02  0.10482723055E-02  0.23904474238E+00  0.23905363102E+00  0.51109989000E-03 0.  1.
     -623    1    1    2    0    0 -0.56171753791E-04  0.14739422117E-04  0.14151452083E-04  0.17130000000E+03  0.17130000000E+03 0. -1.
      622    1    1    2    0    0 -0.16436946701E-02 -0.10630117276E-02  0.37609410911E+01  0.37609463866E+01  0.60000000000E-02 0.  1.
</event>
<event>
 5   0  0.1211800E+10  0.9118800E+02  0.7818608E-02  0.1180000E+00
       11   -1    0    0    0    0  0.00000000000E+00  0.00000000000E+00  0.39999999673E+01  0.40000000000E+01  0.51109989000E-03 0. -1.
     -623   -1    0    0    0    0  0.00000000000E+00  0.00000000000E+00  0.12525980253E-10  0.17130000000E+03  0.17130000000E+03 0.  1.
       11    1    1    2    0    0  0.44105210057E-02 -0.11573723681E-02  0.73213183556E+00  0.73214621359E+00  0.51109989000E-03 0. -1.
     -623    1    1    2    0    0 -0.76056308786E-04 -0.38025298764E-03  0.23090397351E-04  0.17130000000E+03  0.17130000000E+03 0.  1.
      622    1    1    2    0    0 -0.43344646967E-02  0.15376253569E-02  0.32678450540E+01  0.32678537986E+01  0.60000000000E-02 0. -1.
</event>
<event>
 5   0  0.1211800E+10  0.9118800E+02  0.7818608E-02  0.1180000E+00
       11   -1    0    0    0    0  0.00000000000E+00  0.00000000000E+00  0.39999999673E+01  0.40000000000E+01  0.51109989000E-03 0. -1.
     -623   -1    0    0    0    0  0.00000000000E+00  0.00000000000E+00  0.12525980253E-10  0.17130000000E+03  0.17130000000E+03 0.  1.
       11    1    1    2    0    0  0.98261905429E-03 -0.43641368235E-03  0.81159030126E-01  0.81167760787E-01  0.51109989000E-03 0. -1.
     -623    1    1    2    0    0 -0.87138538941E-03  0.64899125217E-03  0.13302019208E-04  0.17130000000E+03  0.17130000000E+03 0.  1.
      622    1    1    2    0    0 -0.11123366022E-03 -0.21257757329E-03  0.39188276567E+01  0.39188322572E+01  0.60000000000E-02 0. -1.
</event>
<event>
 5   0  0.1211800E+10  0.9118800E+02  0.7818608E-02  0.1180000E+00
       11   -1    0    0    0    0  0.00000000000E+00  0.00000000000E+00  0.39999999673E+01  0.40000000000E+01  0.51109989000E-03 0.  1.
     -623   -1    0    0    0    0  0.00000000000E+00  0.00000000000E+00  0.12525980253E-10  0.17130000000E+03  0.17130000000E+03 0. -1.
       11    1    1    2    0    0 -0.16274457291E-02 -0.17773724991E-02  0.19959191744E+00  0.19960712002E+00  0.51109989000E-03 0.  1.
     -623    1    1    2    0    0  0.13733966237E-02  0.28363312844E-03  0.20214082586E-04  0.17130000001E+03  0.17130000000E+03 0. -1.
      622    1    1    2    0    0  0.25404910533E-03  0.14937393707E-02  0.38003878358E+01  0.38003928742E+01  0.60000000000E-02 0.  1.
</event>
<event>
 5   0  0.1211800E+10  0.9118800E+02  0.7818608E-02  0.1180000E+00
       11   -1    0    0    0    0  0.00000000000E+00  0.00000000000E+00  0.39999999673E+01  0.40000000000E+01  0.51109989000E-03 0. -1.
     -623   -1    0    0    0    0  0.00000000000E+00  0.00000000000E+00  0.12525980253E-10  0.17130000000E+03  0.17130000000E+03 0.  1.
       11    1    1    2    0    0  0.23415276942E-03  0.26514290548E-02  0.10230769165E+01  0.10230805067E+01  0.51109989000E-03 0. -1.
     -623    1    1    2    0    0  0.17516371094E-02 -0.26286129910E-03  0.11233822458E-04  0.17130000001E+03  0.17130000000E+03 0.  1.
      622    1    1    2    0    0 -0.19857898788E-02 -0.23885677557E-02  0.29769118170E+01  0.29769194841E+01  0.60000000000E-02 0. -1.
</event>
<event>
 5   0  0.1211800E+10  0.9118800E+02  0.7818608E-02  0.1180000E+00
       11   -1    0    0    0    0  0.00000000000E+00  0.00000000000E+00  0.39999999673E+01  0.40000000000E+01  0.51109989000E-03 0. -1.
     -623   -1    0    0    0    0  0.00000000000E+00  0.00000000000E+00  0.12525980253E-10  0.17130000000E+03  0.17130000000E+03 0. -1.
       11    1    1    2    0    0  0.21789011355E-03  0.60991917575E-02  0.53199851430E+00  0.53203376590E+00  0.51109989000E-03 0. -1.
     -623    1    1    2    0    0 -0.12357311664E-02 -0.12195494121E-02  0.44000482030E-04  0.17130000001E+03  0.17130000000E+03 0. -1.
      622    1    1    2    0    0  0.10178410527E-02 -0.48796423456E-02  0.34679574520E+01  0.34679662247E+01  0.60000000000E-02 0. -1.
</event>
<event>
 5   0  0.1211800E+10  0.9118800E+02  0.7818608E-02  0.1180000E+00
       11   -1    0    0    0    0  0.00000000000E+00  0.00000000000E+00  0.39999999673E+01  0.40000000000E+01  0.51109989000E-03 0. -1.
     -623   -1    0    0    0    0  0.00000000000E+00  0.00000000000E+00  0.12525980253E-10  0.17130000000E+03  0.17130000000E+03 0.  1.
       11    1    1    2    0    0  0.15003000033E-02 -0.17827129281E-02  0.59890851487E+00  0.59891326532E+00  0.51109989000E-03 0. -1.
     -623    1    1    2    0    0 -0.45141179626E-03 -0.72386764144E-03  0.11097766694E-04  0.17130000000E+03  0.17130000000E+03 0.  1.
      622    1    1    2    0    0 -0.10488882070E-02  0.25065805696E-02  0.34010803547E+01  0.34010867326E+01  0.60000000000E-02 0. -1.
</event>
<event>
 5   0  0.1211800E+10  0.9118800E+02  0.7818608E-02  0.1180000E+00
       11   -1    0    0    0    0  0.00000000000E+00  0.00000000000E+00  0.39999999673E+01  0.40000000000E+01  0.51109989000E-03 0.  1.
     -623   -1    0    0    0    0  0.00000000000E+00  0.00000000000E+00  0.12525980253E-10  0.17130000000E+03  0.17130000000E+03 0.  1.
       11    1    1    2    0    0 -0.69331583205E-04  0.16691260032E-02  0.70502905177E+00  0.70503121623E+00  0.51109989000E-03 0.  1.
     -623    1    1    2    0    0 -0.64561119571E-04  0.52935616518E-04  0.80474386945E-05  0.17130000000E+03  0.17130000000E+03 0.  1.
      622    1    1    2    0    0  0.13389270293E-03 -0.17220616198E-02  0.32949628775E+01  0.32949687931E+01  0.60000000000E-02 0.  0.
</event>
<event>
 5   0  0.1211800E+10  0.9118800E+02  0.7818608E-02  0.1180000E+00
       11   -1    0    0    0    0  0.00000000000E+00  0.00000000000E+00  0.39999999673E+01  0.40000000000E+01  0.51109989000E-03 0.  1.
     -623   -1    0    0    0    0  0.00000000000E+00  0.00000000000E+00  0.12525980253E-10  0.17130000000E+03  0.17130000000E+03 0.  1.
       11    1    1    2    0    0 -0.34977512349E-02  0.82211005293E-02  0.11407164753E+01  0.11407515764E+01  0.51109989000E-03 0.  1.
     -623    1    1    2    0    0 -0.18473255594E-03  0.22697740929E-03  0.56216060945E-04  0.17130000000E+03  0.17130000000E+03 0.  1.
      622    1    1    2    0    0  0.36824837908E-02 -0.84480779386E-02  0.28592272760E+01  0.28592484234E+01  0.60000000000E-02 0.  1.
</event>
<event>
 5   0  0.1211800E+10  0.9118800E+02  0.7818608E-02  0.1180000E+00
       11   -1    0    0    0    0  0.00000000000E+00  0.00000000000E+00  0.39999999673E+01  0.40000000000E+01  0.51109989000E-03 0.  1.
     -623   -1    0    0    0    0  0.00000000000E+00  0.00000000000E+00  0.12525980253E-10  0.17130000000E+03  0.17130000000E+03 0.  1.
       11    1    1    2    0    0  0.27232941774E-02 -0.11754359844E-02  0.10897490432E+01  0.10897531997E+01  0.51109989000E-03 0.  1.
     -623    1    1    2    0    0 -0.67924235725E-03 -0.14371041966E-03  0.11327167870E-04  0.17130000000E+03  0.17130000000E+03 0.  1.
      622    1    1    2    0    0 -0.20440518202E-02  0.13191464040E-02  0.29102395970E+01  0.29102467989E+01  0.60000000000E-02 0.  1.
</event>
<event>
 5   0  0.1211800E+10  0.9118800E+02  0.7818608E-02  0.1180000E+00
       11   -1    0    0    0    0  0.00000000000E+00  0.00000000000E+00  0.39999999673E+01  0.40000000000E+01  0.51109989000E-03 0.  1.
     -623   -1    0    0    0    0  0.00000000000E+00  0.00000000000E+00  0.12525980253E-10  0.17130000000E+03  0.17130000000E+03 0.  1.
       11    1    1    2    0    0 -0.42534989373E-03  0.15196134541E-02  0.30280827367E+00  0.30281281673E+00  0.51109989000E-03 0.  1.
     -623    1    1    2    0    0  0.90952087314E-03 -0.41730381266E-02  0.10416097557E-04  0.17130000005E+03  0.17130000000E+03 0.  1.
      622    1    1    2    0    0 -0.48417097941E-03  0.26534246726E-02  0.36971812776E+01  0.36971871300E+01  0.60000000000E-02 0.  1.
</event>
<event>
 5   0  0.1211800E+10  0.9118800E+02  0.7818608E-02  0.1180000E+00
       11   -1    0    0    0    0  0.00000000000E+00  0.00000000000E+00  0.39999999673E+01  0.40000000000E+01  0.51109989000E-03 0.  1.
     -623   -1    0    0    0    0  0.00000000000E+00  0.00000000000E+00  0.12525980253E-10  0.17130000000E+03  0.17130000000E+03 0. -1.
       11    1    1    2    0    0 -0.14056483643E-02 -0.84268062686E-03  0.57959772688E-01  0.57985191470E-01  0.51109989000E-03 0.  1.
     -623    1    1    2    0    0  0.34960837814E-03  0.18475024395E-02  0.30232177370E-04  0.17130000001E+03  0.17130000000E+03 0. -1.
      622    1    1    2    0    0  0.10560399861E-02 -0.10048218126E-02  0.39420099625E+01  0.39420147982E+01  0.60000000000E-02 0.  1.
</event>
<event>
 5   0  0.1211800E+10  0.9118800E+02  0.7818608E-02  0.1180000E+00
       11   -1    0    0    0    0  0.00000000000E+00  0.00000000000E+00  0.39999999673E+01  0.40000000000E+01  0.51109989000E-03 0.  1.
     -623   -1    0    0    0    0  0.00000000000E+00  0.00000000000E+00  0.12525980253E-10  0.17130000000E+03  0.17130000000E+03 0. -1.
       11    1    1    2    0    0 -0.45412405311E-03 -0.15636426740E-02  0.21020413166E+00  0.21021105917E+00  0.51109989000E-03 0.  1.
     -623    1    1    2    0    0  0.61250551155E-03  0.49890404149E-03  0.11799175356E-04  0.17130000000E+03  0.17130000000E+03 0. -1.
      622    1    1    2    0    0 -0.15838145844E-03  0.10647386325E-02  0.37897840365E+01  0.37897889390E+01  0.60000000000E-02 0.  1.
</event>
<event>
 5   0  0.1211800E+10  0.9118800E+02  0.7818608E-02  0.1180000E+00
       11   -1    0    0    0    0  0.00000000000E+00  0.00000000000E+00  0.39999999673E+01  0.40000000000E+01  0.51109989000E-03 0. -1.
     -623   -1    0    0    0    0  0.00000000000E+00  0.00000000000E+00  0.12525980253E-10  0.17130000000E+03  0.17130000000E+03 0.  1.
       11    1    1    2    0    0  0.60615858233E-03 -0.55158176998E-03  0.55849775212E-01  0.55858126379E-01  0.51109989000E-03 0.  1.
     -623    1    1    2    0    0 -0.39226882793E-04  0.18070142330E-04  0.12959095127E-04  0.17130000000E+03  0.17130000000E+03 0.  1.
      622    1    1    2    0    0 -0.56693169953E-03  0.53351162765E-03  0.39441372331E+01  0.39441418736E+01  0.60000000000E-02 0. -1.
</event>
<event>
 5   0  0.1211800E+10  0.9118800E+02  0.7818608E-02  0.1180000E+00
       11   -1    0    0    0    0  0.00000000000E+00  0.00000000000E+00  0.39999999673E+01  0.40000000000E+01  0.51109989000E-03 0. -1.
     -623   -1    0    0    0    0  0.00000000000E+00  0.00000000000E+00  0.12525980253E-10  0.17130000000E+03  0.17130000000E+03 0.  1.
       11    1    1    2    0    0  0.16654863552E-02  0.20624805653E-02  0.10568447815E+01  0.10568482299E+01  0.51109989000E-03 0. -1.
     -623    1    1    2    0    0 -0.29450808551E-03 -0.21162767748E-03  0.10433346546E-04  0.17130000000E+03  0.17130000000E+03 0.  1.
      622    1    1    2    0    0 -0.13709782675E-02 -0.18508528863E-02  0.29431447826E+01  0.29431517998E+01  0.60000000000E-02 0.  0.
</event>
<event>
 5   0  0.1211800E+10  0.9118800E+02  0.7818608E-02  0.1180000E+00
       11   -1    0    0    0    0  0.00000000000E+00  0.00000000000E+00  0.39999999673E+01  0.40000000000E+01  0.51109989000E-03 0. -1.
     -623   -1    0    0    0    0  0.00000000000E+00  0.00000000000E+00  0.12525980253E-10  0.17130000000E+03  0.17130000000E+03 0.  1.
       11    1    1    2    0    0 -0.35760083079E-02  0.45273562693E-02  0.39808270932E+00  0.39812484156E+00  0.51109989000E-03 0. -1.
     -623    1    1    2    0    0  0.98463527370E-03  0.67975031700E-03  0.51797251361E-04  0.17130000000E+03  0.17130000000E+03 0.  1.
      622    1    1    2    0    0  0.25913730342E-02 -0.52071065863E-02  0.36018654608E+01  0.36018751543E+01  0.60000000000E-02 0. -1.
</event>
<event>
 5   0  0.1211800E+10  0.9118800E+02  0.7818608E-02  0.1180000E+00
       11   -1    0    0    0    0  0.00000000000E+00  0.00000000000E+00  0.39999999673E+01  0.40000000000E+01  0.51109989000E-03 0.  1.
     -623   -1    0    0    0    0  0.00000000000E+00  0.00000000000E+00  0.12525980253E-10  0.17130000000E+03  0.17130000000E+03 0. -1.
       11    1    1    2    0    0 -0.66760732832E-04  0.85768538946E-03  0.25728752163E-02  0.27606142792E-02  0.51109989000E-03 0.  1.
     -623    1    1    2    0    0 -0.62043915516E-03 -0.74403365619E-04  0.19234659658E-03  0.17130000000E+03  0.17130000000E+03 0. -1.
      622    1    1    2    0    0  0.68719988828E-03 -0.78328202380E-03  0.39972347474E+01  0.39972393863E+01  0.60000000000E-02 0.  1.
</event>
<event>
 5   0  0.1211800E+10  0.9118800E+02  0.7818608E-02  0.1180000E+00
       11   -1    0    0    0    0  0.00000000000E+00  0.00000000000E+00  0.39999999673E+01  0.40000000000E+01  0.51109989000E-03 0. -1.
     -623   -1    0    0    0    0  0.00000000000E+00  0.00000000000E+00  0.12525980253E-10  0.17130000000E+03  0.17130000000E+03 0.  1.
       11    1    1    2    0    0 -0.70195919835E-02  0.59263175149E-02  0.10303874552E+01  0.10304285347E+01  0.51109989000E-03 0. -1.
     -623    1    1    2    0    0  0.29165125746E-03 -0.77222054494E-03  0.59204640329E-04  0.17130000000E+03  0.17130000000E+03 0.  1.
      622    1    1    2    0    0  0.67279407261E-02 -0.51540969699E-02  0.29695533075E+01  0.29695714633E+01  0.60000000000E-02 0.  1.
</event>
<event>
 5   0  0.1211800E+10  0.9118800E+02  0.7818608E-02  0.1180000E+00
       11   -1    0    0    0    0  0.00000000000E+00  0.00000000000E+00  0.39999999673E+01  0.40000000000E+01  0.51109989000E-03 0.  1.
     -623   -1    0    0    0    0  0.00000000000E+00  0.00000000000E+00  0.12525980253E-10  0.17130000000E+03  0.17130000000E+03 0.  1.
       11    1    1    2    0    0  0.36173827918E-02  0.46527323953E-02  0.34299515744E+00  0.34304616691E+00  0.51109989000E-03 0.  1.
     -623    1    1    2    0    0  0.10546279145E-03  0.28806018490E-02  0.65577553564E-04  0.17130000002E+03  0.17130000000E+03 0.  1.
      622    1    1    2    0    0 -0.37228455835E-02 -0.75333342505E-02  0.36569392410E+01  0.36569538174E+01  0.60000000000E-02 0.  1.
</event>
<event>
 5   0  0.1211800E+10  0.9118800E+02  0.7818608E-02  0.1180000E+00
       11   -1    0    0    0    0  0.00000000000E+00  0.00000000000E+00  0.39999999673E+01  0.40000000000E+01  0.51109989000E-03 0.  1.
     -623   -1    0    0    0    0  0.00000000000E+00  0.00000000000E+00  0.12525980253E-10  0.17130000000E+03  0.17130000000E+03 0.  1.
       11    1    1    2    0    0  0.41474072357E-03 -0.14103523840E-02  0.39550159780E-01  0.39580771410E-01  0.51109989000E-03 0.  1.
     -623    1    1    2    0    0 -0.11583592035E-03 -0.17162126741E-03  0.35451331516E-04  0.17130000000E+03  0.17130000000E+03 0.  1.
      622    1    1    2    0    0 -0.29890480313E-03  0.15819736516E-02  0.39604143593E+01  0.39604192315E+01  0.60000000000E-02 0.  1.
</event>
<event>
 5   0  0.1211800E+10  0.9118800E+02  0.7818608E-02  0.1180000E+00
       11   -1    0    0    0    0  0.00000000000E+00  0.00000000000E+00  0.39999999673E+01  0.40000000000E+01  0.51109989000E-03 0. -1.
     -623   -1    0    0    0    0  0.00000000000E+00  0.00000000000E+00  0.12525980253E-10  0.17130000000E+03  0.17130000000E+03 0.  1.
       11    1    1    2    0    0  0.81060941351E-03 -0.30232186551E-02  0.15049920548E+00  0.15053261777E+00  0.51109989000E-03 0.  1.
     -623    1    1    2    0    0 -0.28486756752E-04  0.64843823646E-04  0.39271875302E-04  0.17130000000E+03  0.17130000000E+03 0.  1.
      622    1    1    2    0    0 -0.78212265680E-03  0.29583748315E-02  0.38494614840E+01  0.38494673762E+01  0.60000000000E-02 0. -1.
</event>
<event>
 5   0  0.1211800E+10  0.9118800E+02  0.7818608E-02  0.1180000E+00
       11   -1    0    0    0    0  0.00000000000E+00  0.00000000000E+00  0.39999999673E+01  0.40000000000E+01  0.51109989000E-03 0. -1.
     -623   -1    0    0    0    0  0.00000000000E+00  0.00000000000E+00  0.12525980253E-10  0.17130000000E+03  0.17130000000E+03 0.  1.
       11    1    1    2    0    0 -0.23276005850E-02  0.11197513774E-02  0.90610762658E-01  0.90649010476E-01  0.51109989000E-03 0. -1.
     -623    1    1    2    0    0 -0.55364330814E-03  0.38927461643E-03  0.44173872247E-04  0.17130000000E+03  0.17130000000E+03 0.  1.
      622    1    1    2    0    0  0.28812438936E-02 -0.15090259942E-02  0.39093450346E+01  0.39093509920E+01  0.60000000000E-02 0. -1.
</event>
<event>
 5   0  0.1211800E+10  0.9118800E+02  0.7818608E-02  0.1180000E+00
       11   -1    0    0    0    0  0.00000000000E+00  0.00000000000E+00  0.39999999673E+01  0.40000000000E+01  0.51109989000E-03 0. -1.
     -623   -1    0    0    0    0  0.00000000000E+00  0.00000000000E+00  0.12525980253E-10  0.17130000000E+03  0.17130000000E+03 0.  1.
       11    1    1    2    0    0  0.23866477391E-02 -0.30977371452E-02  0.41558896502E+00  0.41560767694E+00  0.51109989000E-03 0. -1.
     -623    1    1    2    0    0  0.20380637246E-02  0.13892718223E-02  0.26857000186E-04  0.17130000002E+03  0.17130000000E+03 0.  1.
      622    1    1    2    0    0 -0.44247114645E-02  0.17084653224E-02  0.35843841467E+01  0.35843923067E+01  0.60000000000E-02 0. -1.
</event>
<event>
 5   0  0.1211800E+10  0.9118800E+02  0.7818608E-02  0.1180000E+00
       11   -1    0    0    0    0  0.00000000000E+00  0.00000000000E+00  0.39999999673E+01  0.40000000000E+01  0.51109989000E-03 0.  1.
     -623   -1    0    0    0    0  0.00000000000E+00  0.00000000000E+00  0.12525980253E-10  0.17130000000E+03  0.17130000000E+03 0.  1.
       11    1    1    2    0    0  0.38746206065E-03 -0.37298354481E-03  0.44286544534E-01  0.44292758928E-01  0.51109989000E-03 0.  1.
     -623    1    1    2    0    0 -0.18777835328E-03 -0.20392992740E-02  0.11484959728E-04  0.17130000001E+03  0.17130000000E+03 0.  1.
      622    1    1    2    0    0 -0.19968370609E-03  0.24122828327E-02  0.39557019651E+01  0.39557072560E+01  0.60000000000E-02 0.  1.
</event>
<event>
 5   0  0.1211800E+10  0.9118800E+02  0.7818608E-02  0.1180000E+00
       11   -1    0    0    0    0  0.00000000000E+00  0.00000000000E+00  0.39999999673E+01  0.40000000000E+01  0.51109989000E-03 0.  1.
     -623   -1    0    0    0    0  0.00000000000E+00  0.00000000000E+00  0.12525980253E-10  0.17130000000E+03  0.17130000000E+03 0.  1.
       11    1    1    2    0    0  0.72621038043E-03  0.12237697114E-02  0.23923868823E+00  0.23924346628E+00  0.51109989000E-03 0.  1.
     -623    1    1    2    0    0 -0.51809543631E-03 -0.15868504726E-03  0.96891262844E-05  0.17130000000E+03  0.17130000000E+03 0.  1.
      622    1    1    2    0    0 -0.20811494412E-03 -0.10650846642E-02  0.37607515900E+01  0.37607565329E+01  0.60000000000E-02 0.  1.
</event>
<event>
 5   0  0.1211800E+10  0.9118800E+02  0.7818608E-02  0.1180000E+00
       11   -1    0    0    0    0  0.00000000000E+00  0.00000000000E+00  0.39999999673E+01  0.40000000000E+01  0.51109989000E-03 0. -1.
     -623   -1    0    0    0    0  0.00000000000E+00  0.00000000000E+00  0.12525980253E-10  0.17130000000E+03  0.17130000000E+03 0. -1.
       11    1    1    2    0    0  0.57255002806E-03 -0.59858098523E-03  0.14471134122E-01  0.14503829102E-01  0.51109989000E-03 0. -1.
     -623    1    1    2    0    0 -0.88541321366E-04 -0.29603681077E-04  0.37257643739E-04  0.17130000000E+03  0.17130000000E+03 0. -1.
      622    1    1    2    0    0 -0.48400870651E-03  0.62818466637E-03  0.39854915838E+01  0.39854961791E+01  0.60000000000E-02 0. -1.
</event>
<event>
 5   0  0.1211800E+10  0.9118800E+02  0.7818608E-02  0.1180000E+00
       11   -1    0    0    0    0  0.00000000000E+00  0.00000000000E+00  0.39999999673E+01  0.40000000000E+01  0.51109989000E-03 0. -1.
     -623   -1    0    0    0    0  0.00000000000E+00  0.00000000000E+00  0.12525980253E-10  0.17130000000E+03  0.17130000000E+03 0.  1.
       11    1    1    2    0    0 -0.40022351105E-02 -0.39994631182E-04  0.57835222410E+00  0.57836629901E+00  0.51109989000E-03 0. -1.
     -623    1    1    2    0    0  0.85595643443E-02  0.60755905783E-02  0.27982780945E-04  0.17130000032E+03  0.17130000000E+03 0.  1.
      622    1    1    2    0    0 -0.45573292530E-02 -0.60355959607E-02  0.34216197694E+01  0.34216333883E+01  0.60000000000E-02 0. -1.
</event>
<event>
 5   0  0.1211800E+10  0.9118800E+02  0.7818608E-02  0.1180000E+00
       11   -1    0    0    0    0  0.00000000000E+00  0.00000000000E+00  0.39999999673E+01  0.40000000000E+01  0.51109989000E-03 0.  1.
     -623   -1    0    0    0    0  0.00000000000E+00  0.00000000000E+00  0.12525980253E-10  0.17130000000E+03  0.17130000000E+03 0.  1.
       11    1    1    2    0    0  0.10793164397E-02 -0.10330249280E-02  0.15096702676E-01  0.15179055183E-01  0.51109989000E-03 0.  1.
     -623    1    1    2    0    0  0.22066879996E-03  0.24898103885E-03  0.87126540240E-04  0.17130000000E+03  0.17130000000E+03 0.  1.
      622    1    1    2    0    0 -0.12999852397E-02  0.78404388916E-03  0.39848161381E+01  0.39848209445E+01  0.60000000000E-02 0.  1.
</event>
<event>
 5   0  0.1211800E+10  0.9118800E+02  0.7818608E-02  0.1180000E+00
       11   -1    0    0    0    0  0.00000000000E+00  0.00000000000E+00  0.39999999673E+01  0.40000000000E+01  0.51109989000E-03 0. -1.
     -623   -1    0    0    0    0  0.00000000000E+00  0.00000000000E+00  0.12525980253E-10  0.17130000000E+03  0.17130000000E+03 0. -1.
       11    1    1    2    0    0  0.34890855397E-02  0.11106658025E-02  0.27261457998E+00  0.27263964813E+00  0.51109989000E-03 0. -1.
     -623    1    1    2    0    0 -0.29148411470E-03 -0.44623901626E-03  0.31296292513E-04  0.17130000000E+03  0.17130000000E+03 0. -1.
      622    1    1    2    0    0 -0.31976014250E-02 -0.66442678621E-03  0.37273540911E+01  0.37273603510E+01  0.60000000000E-02 0. -1.
</event>
<event>
 5   0  0.1211800E+10  0.9118800E+02  0.7818608E-02  0.1180000E+00
       11   -1    0    0    0    0  0.00000000000E+00  0.00000000000E+00  0.39999999673E+01  0.40000000000E+01  0.51109989000E-03 0.  1.
     -623   -1    0    0    0    0  0.00000000000E+00  0.00000000000E+00  0.12525980253E-10  0.17130000000E+03  0.17130000000E+03 0. -1.
       11    1    1    2    0    0 -0.11274828044E-02 -0.51500753413E-03  0.14639229694E+00  0.14639843672E+00  0.51109989000E-03 0.  1.
     -623    1    1    2    0    0  0.76459391651E-04 -0.12212728565E-03  0.10974159342E-04  0.17130000000E+03  0.17130000000E+03 0. -1.
      622    1    1    2    0    0  0.10510234128E-02  0.63713481978E-03  0.38535966963E+01  0.38536015632E+01  0.60000000000E-02 0.  1.
</event>
<event>
 5   0  0.1211800E+10  0.9118800E+02  0.7818608E-02  0.1180000E+00
       11   -1    0    0    0    0  0.00000000000E+00  0.00000000000E+00  0.39999999673E+01  0.40000000000E+01  0.51109989000E-03 0. -1.
     -623   -1    0    0    0    0  0.00000000000E+00  0.00000000000E+00  0.12525980253E-10  0.17130000000E+03  0.17130000000E+03 0.  1.
       11    1    1    2    0    0  0.63786896544E-02  0.12782914841E-02  0.56976470033E+00  0.56980206798E+00  0.51109989000E-03 0. -1.
     -623    1    1    2    0    0  0.26308538049E-04  0.22101262547E-03  0.48890188310E-04  0.17130000000E+03  0.17130000000E+03 0.  1.
      622    1    1    2    0    0 -0.64049981925E-02 -0.14993041098E-02  0.34301863806E+01  0.34301979356E+01  0.60000000000E-02 0. -1.
</event>
<event>
 5   0  0.1211800E+10  0.9118800E+02  0.7818608E-02  0.1180000E+00
       11   -1    0    0    0    0  0.00000000000E+00  0.00000000000E+00  0.39999999673E+01  0.40000000000E+01  0.51109989000E-03 0.  1.
     -623   -1    0    0    0    0  0.00000000000E+00  0.00000000000E+00  0.12525980253E-10  0.17130000000E+03  0.17130000000E+03 0.  1.
       11    1    1    2    0    0 -0.59000653701E-04 -0.17933990600E-02  0.62104603029E+00  0.62104883280E+00  0.51109989000E-03 0.  1.
     -623    1    1    2    0    0  0.35044070831E-04 -0.12651465776E-04  0.85797290219E-05  0.17130000000E+03  0.17130000000E+03 0.  1.
      622    1    1    2    0    0  0.23956582771E-04  0.18060505258E-02  0.33789453687E+01  0.33789511786E+01  0.60000000000E-02 0.  1.
</event>
<event>
 5   0  0.1211800E+10  0.9118800E+02  0.7818608E-02  0.1180000E+00
       11   -1    0    0    0    0  0.00000000000E+00  0.00000000000E+00  0.39999999673E+01  0.40000000000E+01  0.51109989000E-03 0. -1.
     -623   -1    0    0    0    0  0.00000000000E+00  0.00000000000E+00  0.12525980253E-10  0.17130000000E+03  0.17130000000E+03 0.  1.
       11    1    1    2    0    0  0.66420881061E-03 -0.12927995906E-02  0.63826384811E+00  0.63826570763E+00  0.51109989000E-03 0. -1.
     -623    1    1    2    0    0 -0.40915511947E-03 -0.18244631191E-03  0.75152159011E-05  0.17130000000E+03  0.17130000000E+03 0.  1.
      622    1    1    2    0    0 -0.25505369121E-03  0.14752459025E-02  0.33617286034E+01  0.33617342911E+01  0.60000000000E-02 0. -1.
</event>
<event>
 5   0  0.1211800E+10  0.9118800E+02  0.7818608E-02  0.1180000E+00
       11   -1    0    0    0    0  0.00000000000E+00  0.00000000000E+00  0.39999999673E+01  0.40000000000E+01  0.51109989000E-03 0. -1.
     -623   -1    0    0    0    0  0.00000000000E+00  0.00000000000E+00  0.12525980253E-10  0.17130000000E+03  0.17130000000E+03 0. -1.
       11    1    1    2    0    0  0.66168863136E-03 -0.42768351795E-02  0.42962984807E+00  0.42965194836E+00  0.51109989000E-03 0. -1.
     -623    1    1    2    0    0  0.61605263215E-04  0.82799938826E-03  0.28850186103E-04  0.17130000000E+03  0.17130000000E+03 0. -1.
      622    1    1    2    0    0 -0.72329389482E-03  0.34488357879E-02  0.35703412848E+01  0.35703480653E+01  0.60000000000E-02 0.  0.
</event>
<event>
 5   0  0.1211800E+10  0.9118800E+02  0.7818608E-02  0.1180000E+00
       11   -1    0    0    0    0  0.00000000000E+00  0.00000000000E+00  0.39999999673E+01  0.40000000000E+01  0.51109989000E-03 0. -1.
     -623   -1    0    0    0    0  0.00000000000E+00  0.00000000000E+00  0.12525980253E-10  0.17130000000E+03  0.17130000000E+03 0.  1.
       11    1    1    2    0    0  0.10335090610E-02  0.13697536066E-03  0.66181237965E-02  0.67192029968E-02  0.51109989000E-03 0. -1.
     -623    1    1    2    0    0 -0.26615528730E-03 -0.76905341731E-03  0.10567985262E-03  0.17130000000E+03  0.17130000000E+03 0.  1.
      622    1    1    2    0    0 -0.76735377385E-03  0.63207805636E-03  0.39932761622E+01  0.39932807935E+01  0.60000000000E-02 0. -1.
</event>
<event>
 5   0  0.1211800E+10  0.9118800E+02  0.7818608E-02  0.1180000E+00
       11   -1    0    0    0    0  0.00000000000E+00  0.00000000000E+00  0.39999999673E+01  0.40000000000E+01  0.51109989000E-03 0. -1.
     -623   -1    0    0    0    0  0.00000000000E+00  0.00000000000E+00  0.12525980253E-10  0.17130000000E+03  0.17130000000E+03 0.  1.
       11    1    1    2    0    0  0.21652270108E-02  0.12869444814E-02  0.72735744169E-01  0.72781138607E-01  0.51109989000E-03 0. -1.
     -623    1    1    2    0    0  0.14941734299E-02 -0.46852069890E-02  0.53190998127E-04  0.17130000007E+03  0.17130000000E+03 0.  1.
      622    1    1    2    0    0 -0.36594004416E-02  0.33982625102E-02  0.39272110345E+01  0.39272187931E+01  0.60000000000E-02 0. -1.
</event>
<event>
 5   0  0.1211800E+10  0.9118800E+02  0.7818608E-02  0.1180000E+00
       11   -1    0    0    0    0  0.00000000000E+00  0.00000000000E+00  0.39999999673E+01  0.40000000000E+01  0.51109989000E-03 0. -1.
     -623   -1    0    0    0    0  0.00000000000E+00  0.00000000000E+00  0.12525980253E-10  0.17130000000E+03  0.17130000000E+03 0. -1.
       11    1    1    2    0    0  0.93584099072E-03  0.14585869257E-02  0.11597504751E+01  0.11597518825E+01  0.51109989000E-03 0. -1.
     -623    1    1    2    0    0 -0.20822676411E-02 -0.20916779310E-02  0.80396073217E-05  0.17130000003E+03  0.17130000000E+03 0. -1.
      622    1    1    2    0    0  0.11464266504E-02  0.63309100523E-03  0.28402414527E+01  0.28402480921E+01  0.60000000000E-02 0. -1.
</event>
<event>
 5   0  0.1211800E+10  0.9118800E+02  0.7818608E-02  0.1180000E+00
       11   -1    0    0    0    0  0.00000000000E+00  0.00000000000E+00  0.39999999673E+01  0.40000000000E+01  0.51109989000E-03 0.  1.
     -623   -1    0    0    0    0  0.00000000000E+00  0.00000000000E+00  0.12525980253E-10  0.17130000000E+03  0.17130000000E+03 0. -1.
       11    1    1    2    0    0  0.27390230875E-03  0.98785085376E-03  0.44255386617E-01  0.44270208261E-01  0.51109989000E-03 0.  1.
     -623    1    1    2    0    0 -0.87876108749E-04  0.22233366617E-03  0.19529027433E-04  0.17130000000E+03  0.17130000000E+03 0. -1.
      622    1    1    2    0    0 -0.18602619939E-03 -0.12101845215E-02  0.39557250797E+01  0.39557298195E+01  0.60000000000E-02 0.  1.
</event>
<event>
 5   0  0.1211800E+10  0.9118800E+02  0.7818608E-02  0.1180000E+00
       11   -1    0    0    0    0  0.00000000000E+00  0.00000000000E+00  0.39999999673E+01  0.40000000000E+01  0.51109989000E-03 0.  1.
     -623   -1    0    0    0    0  0.00000000000E+00  0.00000000000E+00  0.12525980253E-10  0.17130000000E+03  0.17130000000E+03 0. -1.
       11    1    1    2    0    0  0.80394498864E-03  0.31920984195E-03  0.68066346550E-01  0.68073761306E-01  0.51109989000E-03 0.  1.
     -623    1    1    2    0    0  0.31560922286E-04 -0.73979787747E-04  0.12056462672E-04  0.17130000000E+03  0.17130000000E+03 0. -1.
      622    1    1    2    0    0 -0.83550591125E-03 -0.24523005344E-03  0.39319216056E+01  0.39319262800E+01  0.60000000000E-02 0.  1.
</event>
<event>
 5   0  0.1211800E+10  0.9118800E+02  0.7818608E-02  0.1180000E+00
       11   -1    0    0    0    0  0.00000000000E+00  0.00000000000E+00  0.39999999673E+01  0.40000000000E+01  0.51109989000E-03 0.  1.
     -623   -1    0    0    0    0  0.00000000000E+00  0.00000000000E+00  0.12525980253E-10  0.17130000000E+03  0.17130000000E+03 0.  1.
       11    1    1    2    0    0 -0.79656043415E-02  0.23766547666E-02  0.49985215709E-02  0.97131755570E-02  0.51109989000E-03 0.  1.
     -623    1    1    2    0    0  0.10910772241E-01 -0.15027732020E-02  0.47207340010E-02  0.17130000042E+03  0.17130000000E+03 0.  1.
      622    1    1    2    0    0 -0.29451678991E-02 -0.87388156466E-03  0.39902807118E+01  0.39902864053E+01  0.60000000000E-02 0.  1.
</event>
<event>
 5   0  0.1211800E+10  0.9118800E+02  0.7818608E-02  0.1180000E+00
       11   -1    0    0    0    0  0.00000000000E+00  0.00000000000E+00  0.39999999673E+01  0.40000000000E+01  0.51109989000E-03 0. -1.
     -623   -1    0    0    0    0  0.00000000000E+00  0.00000000000E+00  0.12525980253E-10  0.17130000000E+03  0.17130000000E+03 0.  1.
       11    1    1    2    0    0  0.32740145621E-02  0.63628015696E-03  0.27134394117E+00  0.27136491972E+00  0.51109989000E-03 0. -1.
     -623    1    1    2    0    0  0.51313383124E-03  0.99612441187E-05  0.27753487322E-04  0.17130000000E+03  0.17130000000E+03 0.  1.
      622    1    1    2    0    0 -0.37871483927E-02 -0.64624140107E-03  0.37286282677E+01  0.37286350745E+01  0.60000000000E-02 0. -1.
</event>
<event>
 5   0  0.1211800E+10  0.9118800E+02  0.7818608E-02  0.1180000E+00
       11   -1    0    0    0    0  0.00000000000E+00  0.00000000000E+00  0.39999999673E+01  0.40000000000E+01  0.51109989000E-03 0. -1.
     -623   -1    0    0    0    0  0.00000000000E+00  0.00000000000E+00  0.12525980253E-10  0.17130000000E+03  0.17130000000E+03 0. -1.
       11    1    1    2    0    0 -0.12938487534E-02  0.47302751537E-03  0.89240158575E+00  0.89240279542E+00  0.51109989000E-03 0. -1.
     -623    1    1    2    0    0 -0.15117938859E-02  0.12771489067E-02  0.87400843598E-05  0.17130000001E+03  0.17130000000E+03 0. -1.
      622    1    1    2    0    0  0.28056426372E-02 -0.17501764203E-02  0.31075896360E+01  0.31075971876E+01  0.60000000000E-02 0.  0.
</event>
<event>
 5   0  0.1211800E+10  0.9118800E+02  0.7818608E-02  0.1180000E+00
       11   -1    0    0    0    0  0.00000000000E+00  0.00000000000E+00  0.39999999673E+01  0.40000000000E+01  0.51109989000E-03 0. -1.
     -623   -1    0    0    0    0  0.00000000000E+00  0.00000000000E+00  0.12525980253E-10  0.17130000000E+03  0.17130000000E+03 0.  1.
       11    1    1    2    0    0 -0.26396029141E-03  0.12313839303E-02  0.51431371360E-01  0.51449326181E-01  0.51109989000E-03 0. -1.
     -623    1    1    2    0    0  0.16677306923E-03 -0.12955087528E-02  0.22487516483E-04  0.17130000000E+03  0.17130000000E+03 0.  1.
      622    1    1    2    0    0  0.97187221913E-04  0.64124824596E-04  0.39485461151E+01  0.39485506754E+01  0.60000000000E-02 0. -1.
</event>
<event>
 5   0  0.1211800E+10  0.9118800E+02  0.7818608E-02  0.1180000E+00
       11   -1    0    0    0    0  0.00000000000E+00  0.00000000000E+00  0.39999999673E+01  0.40000000000E+01  0.51109989000E-03 0.  1.
     -623   -1    0    0    0    0  0.00000000000E+00  0.00000000000E+00  0.12525980253E-10  0.17130000000E+03  0.17130000000E+03 0. -1.
       11    1    1    2    0    0 -0.60470900644E-03  0.20377574627E-03  0.30158177539E-01  0.30169257418E-01  0.51109989000E-03 0.  1.
     -623    1    1    2    0    0 -0.25982384988E-03 -0.32606090144E-03  0.15677967703E-04  0.17130000000E+03  0.17130000000E+03 0. -1.
      622    1    1    2    0    0  0.86453285803E-03  0.12228515731E-03  0.39698261381E+01  0.39698307684E+01  0.60000000000E-02 0.  1.
</event>
<event>
 5   0  0.1211800E+10  0.9118800E+02  0.7818608E-02  0.1180000E+00
       11   -1    0    0    0    0  0.00000000000E+00  0.00000000000E+00  0.39999999673E+01  0.40000000000E+01  0.51109989000E-03 0.  1.
     -623   -1    0    0    0    0  0.00000000000E+00  0.00000000000E+00  0.12525980253E-10  0.17130000000E+03  0.17130000000E+03 0.  1.
       11    1    1    2    0    0  0.44860931394E-03  0.73989005171E-03  0.14790018566E+00  0.14790359978E+00  0.51109989000E-03 0.  1.
     -623    1    1    2    0    0  0.21914075148E-02 -0.62006401149E-03  0.89759295880E-05  0.17130000002E+03  0.17130000000E+03 0.  1.
      622    1    1    2    0    0 -0.26400168288E-02 -0.11982604022E-03  0.38520908058E+01  0.38520963851E+01  0.60000000000E-02 0.  1.
</event>
<event>
 5   0  0.1211800E+10  0.9118800E+02  0.7818608E-02  0.1180000E+00
       11   -1    0    0    0    0  0.00000000000E+00  0.00000000000E+00  0.39999999673E+01  0.40000000000E+01  0.51109989000E-03 0.  1.
     -623   -1    0    0    0    0  0.00000000000E+00  0.00000000000E+00  0.12525980253E-10  0.17130000000E+03  0.17130000000E+03 0. -1.
       11    1    1    2    0    0  0.46290663368E-03  0.33105766368E-02  0.40847842909E+00  0.40849242643E+00  0.51109989000E-03 0.  1.
     -623    1    1    2    0    0  0.13161210044E-02 -0.73093965017E-05  0.20941286765E-04  0.17130000001E+03  0.17130000000E+03 0. -1.
      622    1    1    2    0    0 -0.17790276386E-02 -0.33032672403E-02  0.35915005986E+01  0.35915075701E+01  0.60000000000E-02 0.  1.
</event>
<event>
 5   0  0.1211800E+10  0.9118800E+02  0.7818608E-02  0.1180000E+00
       11   -1    0    0    0    0  0.00000000000E+00  0.00000000000E+00  0.39999999673E+01  0.40000000000E+01  0.51109989000E-03 0.  1.
     -623   -1    0    0    0    0  0.00000000000E+00  0.00000000000E+00  0.12525980253E-10  0.17130000000E+03  0.17130000000E+03 0.  1.
       11    1    1    2    0    0  0.64458990160E-03  0.88327179118E-03  0.60869440878E+00  0.60869560551E+00  0.51109989000E-03 0.  1.
     -623    1    1    2    0    0  0.82656489941E-04 -0.58925612673E-04  0.66499819136E-05  0.17130000000E+03  0.17130000000E+03 0.  1.
      622    1    1    2    0    0 -0.72724639154E-03 -0.82434617851E-03  0.33912989086E+01  0.33913043945E+01  0.60000000000E-02 0.  1.
</event>
<event>
 5   0  0.1211800E+10  0.9118800E+02  0.7818608E-02  0.1180000E+00
       11   -1    0    0    0    0  0.00000000000E+00  0.00000000000E+00  0.39999999673E+01  0.40000000000E+01  0.51109989000E-03 0.  1.
     -623   -1    0    0    0    0  0.00000000000E+00  0.00000000000E+00  0.12525980253E-10  0.17130000000E+03  0.17130000000E+03 0.  1.
       11    1    1    2    0    0 -0.26138139632E-02  0.13764063873E-02  0.28635317224E+00  0.28636886526E+00  0.51109989000E-03 0.  1.
     -623    1    1    2    0    0  0.29225874320E-04  0.27974329934E-03  0.21776322138E-04  0.17130000000E+03  0.17130000000E+03 0.  1.
      622    1    1    2    0    0  0.25845880888E-02 -0.16561496866E-02  0.37136250188E+01  0.37136311345E+01  0.60000000000E-02 0.  1.
</event>
<event>
 5   0  0.1211800E+10  0.9118800E+02  0.7818608E-02  0.1180000E+00
       11   -1    0    0    0    0  0.00000000000E+00  0.00000000000E+00  0.39999999673E+01  0.40000000000E+01  0.51109989000E-03 0. -1.
     -623   -1    0    0    0    0  0.00000000000E+00  0.00000000000E+00  0.12525980253E-10  0.17130000000E+03  0.17130000000E+03 0. -1.
       11    1    1    2    0    0  0.70556181660E-04 -0.13157751567E-02  0.51700949833E-01  0.51720263703E-01  0.51109989000E-03 0. -1.
     -623    1    1    2    0    0  0.13721811703E-03  0.10732002598E-03  0.24030674152E-04  0.17130000000E+03  0.17130000000E+03 0. -1.
      622    1    1    2    0    0 -0.20777429869E-03  0.12084551307E-02  0.39482749869E+01  0.39482797362E+01  0.60000000000E-02 0. -1.
</event>
<event>
 5   0  0.1211800E+10  0.9118800E+02  0.7818608E-02  0.1180000E+00
       11   -1    0    0    0    0  0.00000000000E+00  0.00000000000E+00  0.39999999673E+01  0.40000000000E+01  0.51109989000E-03 0.  1.
     -623   -1    0    0    0    0  0.00000000000E+00  0.00000000000E+00  0.12525980253E-10  0.17130000000E+03  0.17130000000E+03 0.  1.
       11    1    1    2    0    0  0.11367450054E-03 -0.10529575468E-02  0.53311738255E-01  0.53324706273E-01  0.51109989000E-03 0.  1.
     -623    1    1    2    0    0  0.12197747927E-03 -0.64076179616E-04  0.17661351225E-04  0.17130000000E+03  0.17130000000E+03 0.  1.
      622    1    1    2    0    0 -0.23565197982E-03  0.11170337265E-02  0.39466705678E+01  0.39466752937E+01  0.60000000000E-02 0.  1.
</event>
<event>
 5   0  0.1211800E+10  0.9118800E+02  0.7818608E-02  0.1180000E+00
       11   -1    0    0    0    0  0.00000000000E+00  0.00000000000E+00  0.39999999673E+01  0.40000000000E+01  0.51109989000E-03 0. -1.
     -623   -1    0    0    0    0  0.00000000000E+00  0.00000000000E+00  0.12525980253E-10  0.17130000000E+03  0.17130000000E+03 0.  1.
       11    1    1    2    0    0  0.34313021239E-03  0.54595344572E-05  0.81128330671E-02  0.81361570548E-02  0.51109989000E-03 0. -1.
     -623    1    1    2    0    0 -0.36928127375E-04 -0.21017830750E-04  0.27812303782E-04  0.17130000000E+03  0.17130000000E+03 0.  1.
      622    1    1    2    0    0 -0.30620208508E-03  0.15558296260E-04  0.39918593157E+01  0.39918638366E+01  0.60000000000E-02 0. -1.
</event>
<event>
 5   0  0.1211800E+10  0.9118800E+02  0.7818608E-02  0.1180000E+00
       11   -1    0    0    0    0  0.00000000000E+00  0.00000000000E+00  0.39999999673E+01  0.40000000000E+01  0.51109989000E-03 0. -1.
     -623   -1    0    0    0    0  0.00000000000E+00  0.00000000000E+00  0.12525980253E-10  0.17130000000E+03  0.17130000000E+03 0. -1.
       11    1    1    2    0    0  0.20157067520E-03  0.59088116990E-03  0.19837979519E+00  0.19838143596E+00  0.51109989000E-03 0. -1.
     -623    1    1    2    0    0 -0.37860873142E-03  0.31310049321E-03  0.64552647401E-05  0.17130000000E+03  0.17130000000E+03 0. -1.
      622    1    1    2    0    0  0.17703805514E-03 -0.90398166221E-03  0.38016137054E+01  0.38016185519E+01  0.60000000000E-02 0. -1.
</event>
<event>
 5   0  0.1211800E+10  0.9118800E+02  0.7818608E-02  0.1180000E+00
       11   -1    0    0    0    0  0.00000000000E+00  0.00000000000E+00  0.39999999673E+01  0.40000000000E+01  0.51109989000E-03 0. -1.
     -623   -1    0    0    0    0  0.00000000000E+00  0.00000000000E+00  0.12525980253E-10  0.17130000000E+03  0.17130000000E+03 0.  1.
       11    1    1    2    0    0  0.10321137115E-02 -0.13767462454E-03  0.34847252292E+00  0.34847445339E+00  0.51109989000E-03 0. -1.
     -623    1    1    2    0    0 -0.90010521354E-02  0.10344198152E-01  0.30336067923E-04  0.17130000055E+03  0.17130000000E+03 0.  1.
      622    1    1    2    0    0  0.79689385956E-02 -0.10206523725E-01  0.36514971847E+01  0.36515250741E+01  0.60000000000E-02 0. -1.
</event>
<event>
 5   0  0.1211800E+10  0.9118800E+02  0.7818608E-02  0.1180000E+00
       11   -1    0    0    0    0  0.00000000000E+00  0.00000000000E+00  0.39999999673E+01  0.40000000000E+01  0.51109989000E-03 0. -1.
     -623   -1    0    0    0    0  0.00000000000E+00  0.00000000000E+00  0.12525980253E-10  0.17130000000E+03  0.17130000000E+03 0.  1.
       11    1    1    2    0    0  0.54402571647E-03 -0.14851994675E-02  0.75775923452E-01  0.75794152667E-01  0.51109989000E-03 0.  1.
     -623    1    1    2    0    0 -0.12316115368E-03  0.13023443691E-03  0.23040081162E-04  0.17130000000E+03  0.17130000000E+03 0.  1.
      622    1    1    2    0    0 -0.42086456279E-03  0.13549650306E-02  0.39242010038E+01  0.39242058472E+01  0.60000000000E-02 0. -1.
</event>
<event>
 5   0  0.1211800E+10  0.9118800E+02  0.7818608E-02  0.1180000E+00
       11   -1    0    0    0    0  0.00000000000E+00  0.00000000000E+00  0.39999999673E+01  0.40000000000E+01  0.51109989000E-03 0. -1.
     -623   -1    0    0    0    0  0.00000000000E+00  0.00000000000E+00  0.12525980253E-10  0.17130000000E+03  0.17130000000E+03 0. -1.
       11    1    1    2    0    0  0.25540488504E-03 -0.37998821545E-03  0.51418392672E-01  0.51422971042E-01  0.51109989000E-03 0.  1.
     -623    1    1    2    0    0  0.15031233789E-02  0.28447566393E-03  0.95039102002E-05  0.17130000001E+03  0.17130000000E+03 0. -1.
      622    1    1    2    0    0 -0.17585282836E-02  0.95512547779E-04  0.39485721233E+01  0.39485770747E+01  0.60000000000E-02 0. -1.
</event>
<event>
 5   0  0.1211800E+10  0.9118800E+02  0.7818608E-02  0.1180000E+00
       11   -1    0    0    0    0  0.00000000000E+00  0.00000000000E+00  0.39999999673E+01  0.40000000000E+01  0.51109989000E-03 0.  1.
     -623   -1    0    0    0    0  0.00000000000E+00  0.00000000000E+00  0.12525980253E-10  0.17130000000E+03  0.17130000000E+03 0.  1.
       11    1    1    2    0    0 -0.45789682606E-02  0.97745569659E-03  0.21764891105E+00  0.21769986695E+00  0.51109989000E-03 0.  1.
     -623    1    1    2    0    0  0.46890723793E-03  0.16593064822E-03  0.58088946487E-04  0.17130000000E+03  0.17130000000E+03 0.  1.
      622    1    1    2    0    0  0.41100610227E-02 -0.11433863448E-02  0.37822929674E+01  0.37823001323E+01  0.60000000000E-02 0.  0.
</event>
<event>
 5   0  0.1211800E+10  0.9118800E+02  0.7818608E-02  0.1180000E+00
       11   -1    0    0    0    0  0.00000000000E+00  0.00000000000E+00  0.39999999673E+01  0.40000000000E+01  0.51109989000E-03 0.  1.
     -623   -1    0    0    0    0  0.00000000000E+00  0.00000000000E+00  0.12525980253E-10  0.17130000000E+03  0.17130000000E+03 0. -1.
       11    1    1    2    0    0  0.16132077403E-03 -0.66862193220E-04  0.48955296486E+00  0.48955326280E+00  0.51109989000E-03 0.  1.
     -623    1    1    2    0    0 -0.31618843867E-03  0.12959974428E-02  0.56166513440E-05  0.17130000001E+03  0.17130000000E+03 0. -1.
      622    1    1    2    0    0  0.15486766464E-03 -0.12291352496E-02  0.35104413858E+01  0.35104467320E+01  0.60000000000E-02 0.  1.
</event>
<event>
 5   0  0.1211800E+10  0.9118800E+02  0.7818608E-02  0.1180000E+00
       11   -1    0    0    0    0  0.00000000000E+00  0.00000000000E+00  0.39999999673E+01  0.40000000000E+01  0.51109989000E-03 0.  1.
     -623   -1    0    0    0    0  0.00000000000E+00  0.00000000000E+00  0.12525980253E-10  0.17130000000E+03  0.17130000000E+03 0. -1.
       11    1    1    2    0    0 -0.31292299050E-02  0.58851910017E-02  0.40425025810E+00  0.40430552797E+00  0.51109989000E-03 0.  1.
     -623    1    1    2    0    0 -0.38138888904E-03 -0.58464165824E-03  0.65865316578E-04  0.17130000000E+03  0.17130000000E+03 0. -1.
      622    1    1    2    0    0  0.35106187940E-02 -0.53005493434E-02  0.35956838439E+01  0.35956944706E+01  0.60000000000E-02 0.  1.
</event>
<event>
 5   0  0.1211800E+10  0.9118800E+02  0.7818608E-02  0.1180000E+00
       11   -1    0    0    0    0  0.00000000000E+00  0.00000000000E+00  0.39999999673E+01  0.40000000000E+01  0.51109989000E-03 0. -1.
     -623   -1    0    0    0    0  0.00000000000E+00  0.00000000000E+00  0.12525980253E-10  0.17130000000E+03  0.17130000000E+03 0. -1.
       11    1    1    2    0    0  0.21942978975E-02 -0.52606328918E-03  0.18044484950E+00  0.18045968142E+00  0.51109989000E-03 0. -1.
     -623    1    1    2    0    0 -0.14306018532E-04  0.32872344838E-04  0.20165849957E-04  0.17130000000E+03  0.17130000000E+03 0. -1.
      622    1    1    2    0    0 -0.21799918790E-02  0.49319094434E-03  0.38195349520E+01  0.38195403186E+01  0.60000000000E-02 0. -1.
</event>
<event>
 5   0  0.1211800E+10  0.9118800E+02  0.7818608E-02  0.1180000E+00
       11   -1    0    0    0    0  0.00000000000E+00  0.00000000000E+00  0.39999999673E+01  0.40000000000E+01  0.51109989000E-03 0.  1.
     -623   -1    0    0    0    0  0.00000000000E+00  0.00000000000E+00  0.12525980253E-10  0.17130000000E+03  0.17130000000E+03 0.  1.
       11    1    1    2    0    0  0.22522157752E-03  0.11367299642E-03  0.27982057944E+00  0.27982115993E+00  0.51109989000E-03 0.  1.
     -623    1    1    2    0    0 -0.11465447790E-02 -0.51946242773E-03  0.55271771608E-05  0.17130000000E+03  0.17130000000E+03 0.  1.
      622    1    1    2    0    0  0.92132319598E-03  0.40578942883E-03  0.37201738416E+01  0.37201788163E+01  0.60000000000E-02 0.  1.
</event>
<event>
 5   0  0.1211800E+10  0.9118800E+02  0.7818608E-02  0.1180000E+00
       11   -1    0    0    0    0  0.00000000000E+00  0.00000000000E+00  0.39999999673E+01  0.40000000000E+01  0.51109989000E-03 0.  1.
     -623   -1    0    0    0    0  0.00000000000E+00  0.00000000000E+00  0.12525980253E-10  0.17130000000E+03  0.17130000000E+03 0. -1.
       11    1    1    2    0    0  0.39187790253E-04 -0.25776614068E-02  0.17210934199E+00  0.17212940683E+00  0.51109989000E-03 0.  1.
     -623    1    1    2    0    0  0.60916445397E-04  0.24214849232E-02  0.24756183638E-04  0.17130000002E+03  0.17130000000E+03 0. -1.
      622    1    1    2    0    0 -0.10010423547E-03  0.15617649065E-03  0.38278658575E+01  0.38278705644E+01  0.60000000000E-02 0.  1.
</event>
<event>
 5   0  0.1211800E+10  0.9118800E+02  0.7818608E-02  0.1180000E+00
       11   -1    0    0    0    0  0.00000000000E+00  0.00000000000E+00  0.39999999673E+01  0.40000000000E+01  0.51109989000E-03 0. -1.
     -623   -1    0    0    0    0  0.00000000000E+00  0.00000000000E+00  0.12525980253E-10  0.17130000000E+03  0.17130000000E+03 0. -1.
       11    1    1    2    0    0 -0.14477674539E-01 -0.20022640219E-01  0.50985179013E+00  0.51045040729E+00  0.51109989000E-03 0. -1.
     -623    1    1    2    0    0 -0.73947456869E-02  0.16080610444E-01  0.67543385775E-03  0.17130000092E+03  0.17130000000E+03 0. -1.
      622    1    1    2    0    0  0.21872420227E-01  0.39420297715E-02  0.34894727441E+01  0.34895486777E+01  0.60000000000E-02 0. -1.
</event>
<event>
 5   0  0.1211800E+10  0.9118800E+02  0.7818608E-02  0.1180000E+00
       11   -1    0    0    0    0  0.00000000000E+00  0.00000000000E+00  0.39999999673E+01  0.40000000000E+01  0.51109989000E-03 0.  1.
     -623   -1    0    0    0    0  0.00000000000E+00  0.00000000000E+00  0.12525980253E-10  0.17130000000E+03  0.17130000000E+03 0.  1.
       11    1    1    2    0    0 -0.23594684091E-02 -0.14740251872E-02  0.55455449485E+00  0.55456170876E+00  0.51109989000E-03 0.  1.
     -623    1    1    2    0    0  0.68052933721E-03  0.21873554696E-02  0.12903801182E-04  0.17130000002E+03  0.17130000000E+03 0.  1.
      622    1    1    2    0    0  0.16789390719E-02 -0.71333028241E-03  0.34454325687E+01  0.34454382759E+01  0.60000000000E-02 0.  1.
</event>
<event>
 5   0  0.1211800E+10  0.9118800E+02  0.7818608E-02  0.1180000E+00
       11   -1    0    0    0    0  0.00000000000E+00  0.00000000000E+00  0.39999999673E+01  0.40000000000E+01  0.51109989000E-03 0.  1.
     -623   -1    0    0    0    0  0.00000000000E+00  0.00000000000E+00  0.12525980253E-10  0.17130000000E+03  0.17130000000E+03 0.  1.
       11    1    1    2    0    0 -0.29061421552E-02 -0.18328422030E-02  0.56750446820E+00  0.56751509903E+00  0.51109989000E-03 0.  1.
     -623    1    1    2    0    0 -0.61713061974E-03  0.46510023102E-03  0.17924685449E-04  0.17130000000E+03  0.17130000000E+03 0.  1.
      622    1    1    2    0    0  0.35232727715E-02  0.13677419746E-02  0.34324775522E+01  0.34324848769E+01  0.60000000000E-02 0.  1.
</event>
<event>
 5   0  0.1211800E+10  0.9118800E+02  0.7818608E-02  0.1180000E+00
       11   -1    0    0    0    0  0.00000000000E+00  0.00000000000E+00  0.39999999673E+01  0.40000000000E+01  0.51109989000E-03 0.  1.
     -623   -1    0    0    0    0  0.00000000000E+00  0.00000000000E+00  0.12525980253E-10  0.17130000000E+03  0.17130000000E+03 0.  1.
       11    1    1    2    0    0  0.38742778538E-03  0.12282989267E-02  0.52684051194E+00  0.52684233416E+00  0.51109989000E-03 0.  1.
     -623    1    1    2    0    0  0.10803516091E-03 -0.42651938208E-03  0.71006381734E-05  0.17130000000E+03  0.17130000000E+03 0.  1.
      622    1    1    2    0    0 -0.49546294698E-03 -0.80177954187E-03  0.34731523804E+01  0.34731576909E+01  0.60000000000E-02 0.  1.
</event>
<event>
 5   0  0.1211800E+10  0.9118800E+02  0.7818608E-02  0.1180000E+00
       11   -1    0    0    0    0  0.00000000000E+00  0.00000000000E+00  0.39999999673E+01  0.40000000000E+01  0.51109989000E-03 0.  1.
     -623   -1    0    0    0    0  0.00000000000E+00  0.00000000000E+00  0.12525980253E-10  0.17130000000E+03  0.17130000000E+03 0.  1.
       11    1    1    2    0    0 -0.17315258772E-02  0.27201326822E-02  0.29750525258E+00  0.29752316521E+00  0.51109989000E-03 0.  1.
     -623    1    1    2    0    0  0.14093036153E-02 -0.27661519940E-02  0.22784048279E-04  0.17130000003E+03  0.17130000000E+03 0.  1.
      622    1    1    2    0    0  0.32222225639E-03  0.46019322499E-04  0.37024719463E+01  0.37024768222E+01  0.60000000000E-02 0.  1.
</event>
<event>
 5   0  0.1211800E+10  0.9118800E+02  0.7818608E-02  0.1180000E+00
       11   -1    0    0    0    0  0.00000000000E+00  0.00000000000E+00  0.39999999673E+01  0.40000000000E+01  0.51109989000E-03 0. -1.
     -623   -1    0    0    0    0  0.00000000000E+00  0.00000000000E+00  0.12525980253E-10  0.17130000000E+03  0.17130000000E+03 0.  1.
       11    1    1    2    0    0  0.38363903958E-03  0.26541764064E-04  0.29161737667E+00  0.29161807811E+00  0.51109989000E-03 0. -1.
     -623    1    1    2    0    0  0.93612238734E-05 -0.58403126373E-03  0.55863967874E-05  0.17130000000E+03  0.17130000000E+03 0.  1.
      622    1    1    2    0    0 -0.39300026345E-03  0.55748949966E-03  0.37083770043E+01  0.37083819209E+01  0.60000000000E-02 0. -1.
</event>
<event>
 5   0  0.1211800E+10  0.9118800E+02  0.7818608E-02  0.1180000E+00
       11   -1    0    0    0    0  0.00000000000E+00  0.00000000000E+00  0.39999999673E+01  0.40000000000E+01  0.51109989000E-03 0.  1.
     -623   -1    0    0    0    0  0.00000000000E+00  0.00000000000E+00  0.12525980253E-10  0.17130000000E+03  0.17130000000E+03 0.  1.
       11    1    1    2    0    0 -0.13025613923E-02 -0.80726792853E-02  0.18057465073E+00  0.18076042301E+00  0.51109989000E-03 0.  1.
     -623    1    1    2    0    0 -0.81342983196E-03 -0.45520298956E-03  0.20056231246E-03  0.17130000000E+03  0.17130000000E+03 0.  1.
      622    1    1    2    0    0  0.21159912245E-02  0.85278822749E-02  0.38192247554E+01  0.38192395754E+01  0.60000000000E-02 0.  1.
</event>
<event>
 5   0  0.1211800E+10  0.9118800E+02  0.7818608E-02  0.1180000E+00
       11   -1    0    0    0    0  0.00000000000E+00  0.00000000000E+00  0.39999999673E+01  0.40000000000E+01  0.51109989000E-03 0.  1.
     -623   -1    0    0    0    0  0.00000000000E+00  0.00000000000E+00  0.12525980253E-10  0.17130000000E+03  0.17130000000E+03 0. -1.
       11    1    1    2    0    0 -0.36761122029E-03 -0.56186043725E-03  0.10972546615E+01  0.10972549860E+01  0.51109989000E-03 0.  1.
     -623    1    1    2    0    0  0.14973185609E-03 -0.17199939776E-02  0.74066253064E-05  0.17130000001E+03  0.17130000000E+03 0. -1.
      622    1    1    2    0    0  0.21787936420E-03  0.22818544149E-02  0.29027378992E+01  0.29027450053E+01  0.60000000000E-02 0.  1.
</event>
<event>
 5   0  0.1211800E+10  0.9118800E+02  0.7818608E-02  0.1180000E+00
       11   -1    0    0    0    0  0.00000000000E+00  0.00000000000E+00  0.39999999673E+01  0.40000000000E+01  0.51109989000E-03 0. -1.
     -623   -1    0    0    0    0  0.00000000000E+00  0.00000000000E+00  0.12525980253E-10  0.17130000000E+03  0.17130000000E+03 0. -1.
       11    1    1    2    0    0 -0.62620870700E-03 -0.49838875204E-03  0.22494359907E+00  0.22494560345E+00  0.51109989000E-03 0. -1.
     -623    1    1    2    0    0 -0.35771685677E-04  0.11552988553E-04  0.68293254660E-05  0.17130000000E+03  0.17130000000E+03 0. -1.
      622    1    1    2    0    0  0.66198039268E-03  0.48683576349E-03  0.37750495390E+01  0.37750543965E+01  0.60000000000E-02 0. -1.
</event>
<event>
 5   0  0.1211800E+10  0.9118800E+02  0.7818608E-02  0.1180000E+00
       11   -1    0    0    0    0  0.00000000000E+00  0.00000000000E+00  0.39999999673E+01  0.40000000000E+01  0.51109989000E-03 0. -1.
     -623   -1    0    0    0    0  0.00000000000E+00  0.00000000000E+00  0.12525980253E-10  0.17130000000E+03  0.17130000000E+03 0. -1.
       11    1    1    2    0    0  0.14685850852E-03  0.51061754254E-03  0.25884136172E-01  0.25894633154E-01  0.51109989000E-03 0. -1.
     -623    1    1    2    0    0  0.13372618771E-02 -0.23300471176E-02  0.15708340838E-04  0.17130000002E+03  0.17130000000E+03 0. -1.
      622    1    1    2    0    0 -0.14841203894E-02  0.18194295817E-02  0.39741001342E+01  0.39741053571E+01  0.60000000000E-02 0. -1.
</event>
<event>
 5   0  0.1211800E+10  0.9118800E+02  0.7818608E-02  0.1180000E+00
       11   -1    0    0    0    0  0.00000000000E+00  0.00000000000E+00  0.39999999673E+01  0.40000000000E+01  0.51109989000E-03 0. -1.
     -623   -1    0    0    0    0  0.00000000000E+00  0.00000000000E+00  0.12525980253E-10  0.17130000000E+03  0.17130000000E+03 0.  1.
       11    1    1    2    0    0 -0.96453323168E-03 -0.36893170581E-03  0.22134938316E+00  0.22135238214E+00  0.51109989000E-03 0. -1.
     -623    1    1    2    0    0  0.80724813642E-05 -0.19935354338E-04  0.78710211029E-05  0.17130000000E+03  0.17130000000E+03 0.  1.
      622    1    1    2    0    0  0.95646075031E-03  0.38886706015E-03  0.37786427132E+01  0.37786476179E+01  0.60000000000E-02 0. -1.
</event>
<event>
 5   0  0.1211800E+10  0.9118800E+02  0.7818608E-02  0.1180000E+00
       11   -1    0    0    0    0  0.00000000000E+00  0.00000000000E+00  0.39999999673E+01  0.40000000000E+01  0.51109989000E-03 0. -1.
     -623   -1    0    0    0    0  0.00000000000E+00  0.00000000000E+00  0.12525980253E-10  0.17130000000E+03  0.17130000000E+03 0.  1.
       11    1    1    2    0    0 -0.84938571423E-03 -0.23630223926E-03  0.12130584273E-01  0.12173314666E-01  0.51109989000E-03 0.  1.
     -623    1    1    2    0    0  0.67611222996E-03  0.82949401720E-04  0.47219566833E-04  0.17130000000E+03  0.17130000000E+03 0.  1.
      622    1    1    2    0    0  0.17327348427E-03  0.15335283754E-03  0.39878221635E+01  0.39878266840E+01  0.60000000000E-02 0. -1.
</event>
<event>
 5   0  0.1211800E+10  0.9118800E+02  0.7818608E-02  0.1180000E+00
       11   -1    0    0    0    0  0.00000000000E+00  0.00000000000E+00  0.39999999673E+01  0.40000000000E+01  0.51109989000E-03 0. -1.
     -623   -1    0    0    0    0  0.00000000000E+00  0.00000000000E+00  0.12525980253E-10  0.17130000000E+03  0.17130000000E+03 0.  1.
       11    1    1    2    0    0  0.86631998493E-04  0.19076474559E-03  0.63506339027E+00  0.63506363050E+00  0.51109989000E-03 0. -1.
     -623    1    1    2    0    0 -0.17022042526E-03 -0.10155665071E-03  0.55592109161E-05  0.17130000000E+03  0.17130000000E+03 0.  1.
      622    1    1    2    0    0  0.83588427939E-04 -0.89208094172E-04  0.33649310455E+01  0.33649363970E+01  0.60000000000E-02 0. -1.
</event>
<event>
 5   0  0.1211800E+10  0.9118800E+02  0.7818608E-02  0.1180000E+00
       11   -1    0    0    0    0  0.00000000000E+00  0.00000000000E+00  0.39999999673E+01  0.40000000000E+01  0.51109989000E-03 0.  1.
     -623   -1    0    0    0    0  0.00000000000E+00  0.00000000000E+00  0.12525980253E-10  0.17130000000E+03  0.17130000000E+03 0.  1.
       11    1    1    2    0    0  0.43298690589E-03  0.15772348563E-03  0.98246376197E-01  0.98248786313E-01  0.51109989000E-03 0.  1.
     -623    1    1    2    0    0  0.16199449173E-04  0.31767948404E-04  0.70212522982E-05  0.17130000000E+03  0.17130000000E+03 0.  1.
      622    1    1    2    0    0 -0.44918635507E-03 -0.18949143404E-03  0.39017465699E+01  0.39017512137E+01  0.60000000000E-02 0.  1.
</event>
<event>
 5   0  0.1211800E+10  0.9118800E+02  0.7818608E-02  0.1180000E+00
       11   -1    0    0    0    0  0.00000000000E+00  0.00000000000E+00  0.39999999673E+01  0.40000000000E+01  0.51109989000E-03 0.  1.
     -623   -1    0    0    0    0  0.00000000000E+00  0.00000000000E+00  0.12525980253E-10  0.17130000000E+03  0.17130000000E+03 0. -1.
       11    1    1    2    0    0 -0.34662621549E-02  0.49063702002E-02  0.27148638168E+00  0.27155331724E+00  0.51109989000E-03 0.  1.
     -623    1    1    2    0    0  0.14521872594E-03  0.26421808153E-04  0.76472916057E-04  0.17130000000E+03  0.17130000000E+03 0. -1.
      622    1    1    2    0    0  0.33210434291E-02 -0.49327920083E-02  0.37284371098E+01  0.37284466798E+01  0.60000000000E-02 0.  1.
</event>
<event>
 5   0  0.1211800E+10  0.9118800E+02  0.7818608E-02  0.1180000E+00
       11   -1    0    0    0    0  0.00000000000E+00  0.00000000000E+00  0.39999999673E+01  0.40000000000E+01  0.51109989000E-03 0. -1.
     -623   -1    0    0    0    0  0.00000000000E+00  0.00000000000E+00  0.12525980253E-10  0.17130000000E+03  0.17130000000E+03 0.  1.
       11    1    1    2    0    0  0.16007039171E-03  0.12036289008E-02  0.35331616366E+00  0.35331861976E+00  0.51109989000E-03 0. -1.
     -623    1    1    2    0    0  0.11191566597E-02  0.68221330618E-03  0.80764698445E-05  0.17130000001E+03  0.17130000000E+03 0.  1.
      622    1    1    2    0    0 -0.12792270609E-02 -0.18858422127E-02  0.36466757612E+01  0.36466814092E+01  0.60000000000E-02 0. -1.
</event>
<event>
 5   0  0.1211800E+10  0.9118800E+02  0.7818608E-02  0.1180000E+00
       11   -1    0    0    0    0  0.00000000000E+00  0.00000000000E+00  0.39999999673E+01  0.40000000000E+01  0.51109989000E-03 0. -1.
     -623   -1    0    0    0    0  0.00000000000E+00  0.00000000000E+00  0.12525980253E-10  0.17130000000E+03  0.17130000000E+03 0.  1.
       11    1    1    2    0    0 -0.14597012460E-02  0.23239676813E-03  0.18055676078E+00  0.18056353402E+00  0.51109989000E-03 0. -1.
     -623    1    1    2    0    0 -0.29024787261E-03 -0.24689780088E-03  0.11854685392E-04  0.17130000000E+03  0.17130000000E+03 0.  1.
      622    1    1    2    0    0  0.17499491186E-02  0.14501032751E-04  0.38194313519E+01  0.38194364656E+01  0.60000000000E-02 0. -1.
</event>
<event>
 5   0  0.1211800E+10  0.9118800E+02  0.7818608E-02  0.1180000E+00
       11   -1    0    0    0    0  0.00000000000E+00  0.00000000000E+00  0.39999999673E+01  0.40000000000E+01  0.51109989000E-03 0. -1.
     -623   -1    0    0    0    0  0.00000000000E+00  0.00000000000E+00  0.12525980253E-10  0.17130000000E+03  0.17130000000E+03 0.  1.
       11    1    1    2    0    0 -0.22940473868E-03  0.41363494911E-03  0.31756362341E+00  0.31756438694E+00  0.51109989000E-03 0. -1.
     -623    1    1    2    0    0  0.15573412648E-04  0.26984816651E-04  0.56515413691E-05  0.17130000000E+03  0.17130000000E+03 0.  1.
      622    1    1    2    0    0  0.21383132610E-03 -0.44061976566E-03  0.36824306763E+01  0.36824355969E+01  0.60000000000E-02 0. -1.
</event>
<event>
 5   0  0.1211800E+10  0.9118800E+02  0.7818608E-02  0.1180000E+00
       11   -1    0    0    0    0  0.00000000000E+00  0.00000000000E+00  0.39999999673E+01  0.40000000000E+01  0.51109989000E-03 0.  1.
     -623   -1    0    0    0    0  0.00000000000E+00  0.00000000000E+00  0.12525980253E-10  0.17130000000E+03  0.17130000000E+03 0.  1.
       11    1    1    2    0    0 -0.21756371802E-03 -0.10416875284E-03  0.14604690488E+00  0.14604799839E+00  0.51109989000E-03 0.  1.
     -623    1    1    2    0    0  0.20459306493E-03  0.13841803062E-03  0.57317534723E-05  0.17130000000E+03  0.17130000000E+03 0.  1.
      622    1    1    2    0    0  0.12970650304E-04 -0.34249279662E-04  0.38539473851E+01  0.38539520558E+01  0.60000000000E-02 0.  1.
</event>
<event>
 5   0  0.1211800E+10  0.9118800E+02  0.7818608E-02  0.1180000E+00
       11   -1    0    0    0    0  0.00000000000E+00  0.00000000000E+00  0.39999999673E+01  0.40000000000E+01  0.51109989000E-03 0.  1.
     -623   -1    0    0    0    0  0.00000000000E+00  0.00000000000E+00  0.12525980253E-10  0.17130000000E+03  0.17130000000E+03 0.  1.
       11    1    1    2    0    0  0.20830149179E-02  0.77034930777E-03  0.16071132137E+00  0.16072747876E+00  0.51109989000E-03 0.  1.
     -623    1    1    2    0    0  0.66819538125E-04 -0.19982996331E-03  0.21457568092E-04  0.17130000000E+03  0.17130000000E+03 0.  1.
      622    1    1    2    0    0 -0.21498344560E-02 -0.57051934446E-03  0.38392671884E+01  0.38392725211E+01  0.60000000000E-02 0.  1.
</event>
<event>
 5   0  0.1211800E+10  0.9118800E+02  0.7818608E-02  0.1180000E+00
       11   -1    0    0    0    0  0.00000000000E+00  0.00000000000E+00  0.39999999673E+01  0.40000000000E+01  0.51109989000E-03 0.  1.
     -623   -1    0    0    0    0  0.00000000000E+00  0.00000000000E+00  0.12525980253E-10  0.17130000000E+03  0.17130000000E+03 0. -1.
       11    1    1    2    0    0  0.15167890994E-03 -0.18148845792E-03  0.42868175757E-01  0.42871874934E-01  0.51109989000E-03 0. -1.
     -623    1    1    2    0    0  0.47023886502E-03  0.41741397492E-03  0.82723517907E-05  0.17130000000E+03  0.17130000000E+03 0. -1.
      622    1    1    2    0    0 -0.62191778143E-03 -0.23592552274E-03  0.39571235743E+01  0.39571281789E+01  0.60000000000E-02 0.  1.
</event>
<event>
 5   0  0.1211800E+10  0.9118800E+02  0.7818608E-02  0.1180000E+00
       11   -1    0    0    0    0  0.00000000000E+00  0.00000000000E+00  0.39999999673E+01  0.40000000000E+01  0.51109989000E-03 0.  1.
     -623   -1    0    0    0    0  0.00000000000E+00  0.00000000000E+00  0.12525980253E-10  0.17130000000E+03  0.17130000000E+03 0.  1.
       11    1    1    2    0    0 -0.56816799667E-03  0.25325846248E-03  0.28876857666E-01  0.28888078597E-01  0.51109989000E-03 0.  1.
     -623    1    1    2    0    0  0.87349795590E-03  0.38937835808E-03  0.15787434849E-04  0.17130000000E+03  0.17130000000E+03 0.  1.
      622    1    1    2    0    0 -0.30532995923E-03 -0.64263682056E-03  0.39711073223E+01  0.39711119187E+01  0.60000000000E-02 0.  1.
</event>
<event>
 5   0  0.1211800E+10  0.9118800E+02  0.7818608E-02  0.1180000E+00
       11   -1    0    0    0    0  0.00000000000E+00  0.00000000000E+00  0.39999999673E+01  0.40000000000E+01  0.51109989000E-03 0. -1.
     -623   -1    0    0    0    0  0.00000000000E+00  0.00000000000E+00  0.12525980253E-10  0.17130000000E+03  0.17130000000E+03 0.  1.
       11    1    1    2    0    0 -0.10670085799E-03 -0.72206981093E-03  0.57853257616E-01  0.57860119338E-01  0.51109989000E-03 0.  1.
     -623    1    1    2    0    0 -0.42697019224E-06 -0.32675181790E-04  0.11468841430E-04  0.17130000000E+03  0.17130000000E+03 0.  1.
      622    1    1    2    0    0  0.10712782818E-03  0.75474499282E-03  0.39421352525E+01  0.39421398923E+01  0.60000000000E-02 0. -1.
</event>
<event>
 5   0  0.1211800E+10  0.9118800E+02  0.7818608E-02  0.1180000E+00
       11   -1    0    0    0    0  0.00000000000E+00  0.00000000000E+00  0.39999999673E+01  0.40000000000E+01  0.51109989000E-03 0. -1.
     -623   -1    0    0    0    0  0.00000000000E+00  0.00000000000E+00  0.12525980253E-10  0.17130000000E+03  0.17130000000E+03 0. -1.
       11    1    1    2    0    0  0.18042268480E-02 -0.16993017875E-05  0.48220587870E+00  0.48220952490E+00  0.51109989000E-03 0. -1.
     -623    1    1    2    0    0  0.14948969962E-04  0.52506598995E-04  0.92011772703E-05  0.17130000000E+03  0.17130000000E+03 0. -1.
      622    1    1    2    0    0 -0.18191758179E-02 -0.50807297208E-04  0.35177848875E+01  0.35177904751E+01  0.60000000000E-02 0. -1.
</event>
<event>
 5   0  0.1211800E+10  0.9118800E+02  0.7818608E-02  0.1180000E+00
       11   -1    0    0    0    0  0.00000000000E+00  0.00000000000E+00  0.39999999673E+01  0.40000000000E+01  0.51109989000E-03 0. -1.
     -623   -1    0    0    0    0  0.00000000000E+00  0.00000000000E+00  0.12525980253E-10  0.17130000000E+03  0.17130000000E+03 0.  1.
       11    1    1    2    0    0  0.90674698089E-04 -0.16360508522E-04  0.18646368021E-01  0.18653598929E-01  0.51109989000E-03 0. -1.
     -623    1    1    2    0    0 -0.74572244138E-04 -0.30943588221E-05  0.11719451734E-04  0.17130000000E+03  0.17130000000E+03 0.  1.
      622    1    1    2    0    0 -0.16102453740E-04  0.19454867353E-04  0.39813418912E+01  0.39813464124E+01  0.60000000000E-02 0. -1.
</event>
<event>
 5   0  0.1211800E+10  0.9118800E+02  0.7818608E-02  0.1180000E+00
       11   -1    0    0    0    0  0.00000000000E+00  0.00000000000E+00  0.39999999673E+01  0.40000000000E+01  0.51109989000E-03 0.  1.
     -623   -1    0    0    0    0  0.00000000000E+00  0.00000000000E+00  0.12525980253E-10  0.17130000000E+03  0.17130000000E+03 0. -1.
       11    1    1    2    0    0  0.68063745664E-03 -0.38277446109E-02  0.33589707748E+00  0.33591996485E+00  0.51109989000E-03 0.  1.
     -623    1    1    2    0    0  0.94419456144E-03  0.17633718839E-03  0.29949634188E-04  0.17130000000E+03  0.17130000000E+03 0. -1.
      622    1    1    2    0    0 -0.16248320163E-02  0.36514074229E-02  0.36640729329E+01  0.36640800251E+01  0.60000000000E-02 0.  1.
</event>
<event>
 5   0  0.1211800E+10  0.9118800E+02  0.7818608E-02  0.1180000E+00
       11   -1    0    0    0    0  0.00000000000E+00  0.00000000000E+00  0.39999999673E+01  0.40000000000E+01  0.51109989000E-03 0. -1.
     -623   -1    0    0    0    0  0.00000000000E+00  0.00000000000E+00  0.12525980253E-10  0.17130000000E+03  0.17130000000E+03 0.  1.
       11    1    1    2    0    0  0.21965857183E-02  0.30987266789E-02  0.52194370887E+00  0.52195777947E+00  0.51109989000E-03 0. -1.
     -623    1    1    2    0    0  0.14253513434E-03 -0.12989285090E-03  0.21267064680E-04  0.17130000000E+03  0.17130000000E+03 0.  1.
      622    1    1    2    0    0 -0.23391208526E-02 -0.29688338280E-02  0.34780349914E+01  0.34780422204E+01  0.60000000000E-02 0. -1.
</event>
<event>
 5   0  0.1211800E+10  0.9118800E+02  0.7818608E-02  0.1180000E+00
       11   -1    0    0    0    0  0.00000000000E+00  0.00000000000E+00  0.39999999673E+01  0.40000000000E+01  0.51109989000E-03 0. -1.
     -623   -1    0    0    0    0  0.00000000000E+00  0.00000000000E+00  0.12525980253E-10  0.17130000000E+03  0.17130000000E+03 0.  1.
       11    1    1    2    0    0 -0.48015393877E-03  0.39984845376E-03  0.65766351038E+00  0.65766400580E+00  0.51109989000E-03 0. -1.
     -623    1    1    2    0    0  0.28303022298E-04  0.27637454390E-04  0.59061306055E-05  0.17130000000E+03  0.17130000000E+03 0.  1.
      622    1    1    2    0    0  0.45185091648E-03 -0.42748590815E-03  0.33423305509E+01  0.33423359942E+01  0.60000000000E-02 0. -1.
</event>
<event>
 5   0  0.1211800E+10  0.9118800E+02  0.7818608E-02  0.1180000E+00
       11   -1    0    0    0    0  0.00000000000E+00  0.00000000000E+00  0.39999999673E+01  0.40000000000E+01  0.51109989000E-03 0. -1.
     -623   -1    0    0    0    0  0.00000000000E+00  0.00000000000E+00  0.12525980253E-10  0.17130000000E+03  0.17130000000E+03 0. -1.
       11    1    1    2    0    0 -0.79649765593E-03  0.37802371413E-03  0.48525705706E-01  0.48536405371E-01  0.51109989000E-03 0. -1.
     -623    1    1    2    0    0 -0.56470168011E-04 -0.23935760157E-04  0.15330240415E-04  0.17130000000E+03  0.17130000000E+03 0. -1.
      622    1    1    2    0    0  0.85296782394E-03 -0.35408795397E-03  0.39514589314E+01  0.39514635946E+01  0.60000000000E-02 0. -1.
</event>
<event>
 5   0  0.1211800E+10  0.9118800E+02  0.7818608E-02  0.1180000E+00
       11   -1    0    0    0    0  0.00000000000E+00  0.00000000000E+00  0.39999999673E+01  0.40000000000E+01  0.51109989000E-03 0. -1.
     -623   -1    0    0    0    0  0.00000000000E+00  0.00000000000E+00  0.12525980253E-10  0.17130000000E+03  0.17130000000E+03 0. -1.
       11    1    1    2    0    0 -0.10120900352E-02 -0.37711189128E-04  0.30586692683E+00  0.30586903064E+00  0.51109989000E-03 0. -1.
     -623    1    1    2    0    0 -0.95629056913E-04  0.58619397964E-04  0.71099351513E-05  0.17130000000E+03  0.17130000000E+03 0. -1.
      622    1    1    2    0    0  0.11077190936E-02 -0.20908209772E-04  0.36941259945E+01  0.36941310332E+01  0.60000000000E-02 0. -1.
</event>
<event>
 5   0  0.1211800E+10  0.9118800E+02  0.7818608E-02  0.1180000E+00
       11   -1    0    0    0    0  0.00000000000E+00  0.00000000000E+00  0.39999999673E+01  0.40000000000E+01  0.51109989000E-03 0. -1.
     -623   -1    0    0    0    0  0.00000000000E+00  0.00000000000E+00  0.12525980253E-10  0.17130000000E+03  0.17130000000E+03 0.  1.
       11    1    1    2    0    0  0.40421491940E-03 -0.14031939644E-02  0.24525102674E+00  0.24525590653E+00  0.51109989000E-03 0. -1.
     -623    1    1    2    0    0  0.90988289783E-03  0.11573199540E-02  0.98854115498E-05  0.17130000001E+03  0.17130000000E+03 0.  1.
      622    1    1    2    0    0 -0.13140978217E-02  0.24587400481E-03  0.37547390747E+01  0.37547441066E+01  0.60000000000E-02 0. -1.
</event>
<event>
 5   0  0.1211800E+10  0.9118800E+02  0.7818608E-02  0.1180000E+00
       11   -1    0    0    0    0  0.00000000000E+00  0.00000000000E+00  0.39999999673E+01  0.40000000000E+01  0.51109989000E-03 0. -1.
     -623   -1    0    0    0    0  0.00000000000E+00  0.00000000000E+00  0.12525980253E-10  0.17130000000E+03  0.17130000000E+03 0.  1.
       11    1    1    2    0    0  0.23229297195E-03 -0.10486464128E-03  0.81447294407E-02  0.81647288612E-02  0.51109989000E-03 0.  1.
     -623    1    1    2    0    0  0.23943229899E-03 -0.22972708466E-03  0.24518205346E-04  0.17130000000E+03  0.17130000000E+03 0.  1.
      622    1    1    2    0    0 -0.47172527064E-03  0.33459172566E-03  0.39918307147E+01  0.39918352658E+01  0.60000000000E-02 0. -1.
</event>
<event>
 5   0  0.1211800E+10  0.9118800E+02  0.7818608E-02  0.1180000E+00
       11   -1    0    0    0    0  0.00000000000E+00  0.00000000000E+00  0.39999999673E+01  0.40000000000E+01  0.51109989000E-03 0. -1.
     -623   -1    0    0    0    0  0.00000000000E+00  0.00000000000E+00  0.12525980253E-10  0.17130000000E+03  0.17130000000E+03 0.  1.
       11    1    1    2    0    0 -0.12932109286E-02  0.31631002689E-03  0.13283227472E+00  0.13283992953E+00  0.51109989000E-03 0. -1.
     -623    1    1    2    0    0 -0.50838876236E-04 -0.18482655774E-02  0.12823732186E-04  0.17130000001E+03  0.17130000000E+03 0.  1.
      622    1    1    2    0    0  0.13440498050E-02  0.15319555553E-02  0.38671548794E+01  0.38671600709E+01  0.60000000000E-02 0. -1.
</event>
<event>
 5   0  0.1211800E+10  0.9118800E+02  0.7818608E-02  0.1180000E+00
       11   -1    0    0    0    0  0.00000000000E+00  0.00000000000E+00  0.39999999673E+01  0.40000000000E+01  0.51109989000E-03 0.  1.
     -623   -1    0    0    0    0  0.00000000000E+00  0.00000000000E+00  0.12525980253E-10  0.17130000000E+03  0.17130000000E+03 0.  1.
       11    1    1    2    0    0  0.31408060297E-03  0.17589906677E-02  0.70657080514E+00  0.70657324927E+00  0.51109989000E-03 0.  1.
     -623    1    1    2    0    0  0.17830568473E-02 -0.56073542679E-04  0.89941760764E-05  0.17130000001E+03  0.17130000000E+03 0.  1.
      622    1    1    2    0    0 -0.20971374575E-02 -0.17029171248E-02  0.32934201843E+01  0.32934267576E+01  0.60000000000E-02 0.  1.
</event>
<event>
 5   0  0.1211800E+10  0.9118800E+02  0.7818608E-02  0.1180000E+00
       11   -1    0    0    0    0  0.00000000000E+00  0.00000000000E+00  0.39999999673E+01  0.40000000000E+01  0.51109989000E-03 0. -1.
     -623   -1    0    0    0    0  0.00000000000E+00  0.00000000000E+00  0.12525980253E-10  0.17130000000E+03  0.17130000000E+03 0. -1.
       11    1    1    2    0    0 -0.72743024634E-03 -0.78737185329E-03  0.48023860155E+00  0.48024006991E+00  0.51109989000E-03 0. -1.
     -623    1    1    2    0    0 -0.61588383423E-03  0.11889083825E-04  0.68925867587E-05  0.17130000000E+03  0.17130000000E+03 0. -1.
      622    1    1    2    0    0  0.13433140745E-02  0.77548276959E-03  0.35197544341E+01  0.35197598898E+01  0.60000000000E-02 0. -1.
</event>
<event>
 5   0  0.1211800E+10  0.9118800E+02  0.7818608E-02  0.1180000E+00
       11   -1    0    0    0    0  0.00000000000E+00  0.00000000000E+00  0.39999999673E+01  0.40000000000E+01  0.51109989000E-03 0.  1.
     -623   -1    0    0    0    0  0.00000000000E+00  0.00000000000E+00  0.12525980253E-10  0.17130000000E+03  0.17130000000E+03 0.  1.
       11    1    1    2    0    0  0.88105097803E-03  0.12416113141E-03  0.13782082200E+00  0.13782464172E+00  0.51109989000E-03 0.  1.
     -623    1    1    2    0    0 -0.45727390288E-03 -0.32780601969E-03  0.84772163835E-05  0.17130000000E+03  0.17130000000E+03 0.  1.
      622    1    1    2    0    0 -0.42377707691E-03  0.20364488702E-03  0.38621706527E+01  0.38621753419E+01  0.60000000000E-02 0.  1.
</event>
<event>
 5   0  0.1211800E+10  0.9118800E+02  0.7818608E-02  0.1180000E+00
       11   -1    0    0    0    0  0.00000000000E+00  0.00000000000E+00  0.39999999673E+01  0.40000000000E+01  0.51109989000E-03 0.  1.
     -623   -1    0    0    0    0  0.00000000000E+00  0.00000000000E+00  0.12525980253E-10  0.17130000000E+03  0.17130000000E+03 0. -1.
       11    1    1    2    0    0  0.19178726076E-02 -0.23761160307E-02  0.32791253761E+00  0.32792715305E+00  0.51109989000E-03 0.  1.
     -623    1    1    2    0    0  0.92908105355E-04 -0.61719950836E-04  0.20844464854E-04  0.17130000000E+03  0.17130000000E+03 0. -1.
      622    1    1    2    0    0 -0.20107807130E-02  0.24378359816E-02  0.36720665853E+01  0.36720728469E+01  0.60000000000E-02 0.  1.
</event>
<event>
 5   0  0.1211800E+10  0.9118800E+02  0.7818608E-02  0.1180000E+00
       11   -1    0    0    0    0  0.00000000000E+00  0.00000000000E+00  0.39999999673E+01  0.40000000000E+01  0.51109989000E-03 0. -1.
     -623   -1    0    0    0    0  0.00000000000E+00  0.00000000000E+00  0.12525980253E-10  0.17130000000E+03  0.17130000000E+03 0. -1.
       11    1    1    2    0    0 -0.69844284770E-03 -0.16091324947E-03  0.32974685514E-01  0.32986433929E-01  0.51109989000E-03 0. -1.
     -623    1    1    2    0    0  0.26526339394E-03  0.23476273339E-03  0.16277900357E-04  0.17130000000E+03  0.17130000000E+03 0. -1.
      622    1    1    2    0    0  0.43317945203E-03 -0.73849485448E-04  0.39670090299E+01  0.39670135916E+01  0.60000000000E-02 0. -1.
</event>
<event>
 5   0  0.1211800E+10  0.9118800E+02  0.7818608E-02  0.1180000E+00
       11   -1    0    0    0    0  0.00000000000E+00  0.00000000000E+00  0.39999999673E+01  0.40000000000E+01  0.51109989000E-03 0.  1.
     -623   -1    0    0    0    0  0.00000000000E+00  0.00000000000E+00  0.12525980253E-10  0.17130000000E+03  0.17130000000E+03 0. -1.
       11    1    1    2    0    0 -0.14128057373E-02  0.14644975923E-02  0.97846643510E-02  0.10007080000E-01  0.51109989000E-03 0. -1.
     -623    1    1    2    0    0  0.85415491435E-03 -0.14717705029E-02  0.22694201620E-03  0.17130000001E+03  0.17130000000E+03 0. -1.
      622    1    1    2    0    0  0.55865082290E-03  0.72729105966E-05  0.39899883610E+01  0.39899929114E+01  0.60000000000E-02 0.  1.
</event>
<event>
 5   0  0.1211800E+10  0.9118800E+02  0.7818608E-02  0.1180000E+00
       11   -1    0    0    0    0  0.00000000000E+00  0.00000000000E+00  0.39999999673E+01  0.40000000000E+01  0.51109989000E-03 0.  1.
     -623   -1    0    0    0    0  0.00000000000E+00  0.00000000000E+00  0.12525980253E-10  0.17130000000E+03  0.17130000000E+03 0.  1.
       11    1    1    2    0    0  0.24117695499E-02  0.26379806050E-02  0.11278759822E+00  0.11284537700E+00  0.51109989000E-03 0. -1.
     -623    1    1    2    0    0  0.35542580794E-03  0.87623966775E-04  0.64317712360E-04  0.17130000000E+03  0.17130000000E+03 0.  1.
      622    1    1    2    0    0 -0.27671953582E-02 -0.27256045718E-02  0.38871480553E+01  0.38871546265E+01  0.60000000000E-02 0.  1.
</event>
<event>
 5   0  0.1211800E+10  0.9118800E+02  0.7818608E-02  0.1180000E+00
       11   -1    0    0    0    0  0.00000000000E+00  0.00000000000E+00  0.39999999673E+01  0.40000000000E+01  0.51109989000E-03 0. -1.
     -623   -1    0    0    0    0  0.00000000000E+00  0.00000000000E+00  0.12525980253E-10  0.17130000000E+03  0.17130000000E+03 0.  1.
       11    1    1    2    0    0  0.56873320767E-03 -0.80402146886E-03  0.56674445891E-01  0.56685306264E-01  0.51109989000E-03 0. -1.
     -623    1    1    2    0    0  0.96453443633E-03  0.96934998494E-03  0.15699436305E-04  0.17130000001E+03  0.17130000000E+03 0.  1.
      622    1    1    2    0    0 -0.15332676440E-02 -0.16532851609E-03  0.39433098220E+01  0.39433146883E+01  0.60000000000E-02 0. -1.
</event>
<event>
 5   0  0.1211800E+10  0.9118800E+02  0.7818608E-02  0.1180000E+00
       11   -1    0    0    0    0  0.00000000000E+00  0.00000000000E+00  0.39999999673E+01  0.40000000000E+01  0.51109989000E-03 0. -1.
     -623   -1    0    0    0    0  0.00000000000E+00  0.00000000000E+00  0.12525980253E-10  0.17130000000E+03  0.17130000000E+03 0. -1.
       11    1    1    2    0    0  0.11407739459E-04  0.20945994883E-02  0.22780931397E+00  0.22781951679E+00  0.51109989000E-03 0. -1.
     -623    1    1    2    0    0  0.76338490550E-04 -0.54087485258E-04  0.15494900047E-04  0.17130000000E+03  0.17130000000E+03 0. -1.
      622    1    1    2    0    0 -0.87746230009E-04 -0.20405120030E-02  0.37721751585E+01  0.37721804832E+01  0.60000000000E-02 0. -1.
</event>
<event>
 5   0  0.1211800E+10  0.9118800E+02  0.7818608E-02  0.1180000E+00
       11   -1    0    0    0    0  0.00000000000E+00  0.00000000000E+00  0.39999999673E+01  0.40000000000E+01  0.51109989000E-03 0. -1.
     -623   -1    0    0    0    0  0.00000000000E+00  0.00000000000E+00  0.12525980253E-10  0.17130000000E+03  0.17130000000E+03 0. -1.
       11    1    1    2    0    0 -0.87978382318E-03  0.85551940683E-03  0.98251687726E-01  0.98260680321E-01  0.51109989000E-03 0. -1.
     -623    1    1    2    0    0  0.36548520471E-03 -0.14550980072E-02  0.13659819430E-04  0.17130000001E+03  0.17130000000E+03 0. -1.
      622    1    1    2    0    0  0.51429861855E-03  0.59957860003E-03  0.39017346190E+01  0.39017393122E+01  0.60000000000E-02 0. -1.
</event>
<event>
 5   0  0.1211800E+10  0.9118800E+02  0.7818608E-02  0.1180000E+00
       11   -1    0    0    0    0  0.00000000000E+00  0.00000000000E+00  0.39999999673E+01  0.40000000000E+01  0.51109989000E-03 0.  1.
     -623   -1    0    0    0    0  0.00000000000E+00  0.00000000000E+00  0.12525980253E-10  0.17130000000E+03  0.17130000000E+03 0.  1.
       11    1    1    2    0    0 -0.82879936644E-03 -0.45267406101E-03  0.67204035292E+00  0.67204121079E+00  0.51109989000E-03 0.  1.
     -623    1    1    2    0    0  0.56508852520E-03  0.82066415415E-03  0.62676449897E-05  0.17130000000E+03  0.17130000000E+03 0.  1.
      622    1    1    2    0    0  0.26371084123E-03 -0.36799009314E-03  0.33279533468E+01  0.33279587863E+01  0.60000000000E-02 0.  1.
</event>
<event>
 5   0  0.1211800E+10  0.9118800E+02  0.7818608E-02  0.1180000E+00
       11   -1    0    0    0    0  0.00000000000E+00  0.00000000000E+00  0.39999999673E+01  0.40000000000E+01  0.51109989000E-03 0.  1.
     -623   -1    0    0    0    0  0.00000000000E+00  0.00000000000E+00  0.12525980253E-10  0.17130000000E+03  0.17130000000E+03 0.  1.
       11    1    1    2    0    0  0.28433308295E-03 -0.19740836595E-02  0.44748186002E+00  0.44748659659E+00  0.51109989000E-03 0.  1.
     -623    1    1    2    0    0  0.35869945174E-04 -0.74001959775E-05  0.10337803256E-04  0.17130000000E+03  0.17130000000E+03 0.  1.
      622    1    1    2    0    0 -0.32020302833E-03  0.19814838555E-02  0.35525077933E+01  0.35525134272E+01  0.60000000000E-02 0.  1.
</event>
<event>
 5   0  0.1211800E+10  0.9118800E+02  0.7818608E-02  0.1180000E+00
       11   -1    0    0    0    0  0.00000000000E+00  0.00000000000E+00  0.39999999673E+01  0.40000000000E+01  0.51109989000E-03 0. -1.
     -623   -1    0    0    0    0  0.00000000000E+00  0.00000000000E+00  0.12525980253E-10  0.17130000000E+03  0.17130000000E+03 0. -1.
       11    1    1    2    0    0  0.99119348808E-03 -0.70634342600E-03  0.17512687875E+00  0.17513185396E+00  0.51109989000E-03 0. -1.
     -623    1    1    2    0    0 -0.86580061682E-03  0.15053383105E-02  0.97429221642E-05  0.17130000001E+03  0.17130000000E+03 0. -1.
      622    1    1    2    0    0 -0.12539285774E-03 -0.79899490796E-03  0.38248634081E+01  0.38248681996E+01  0.60000000000E-02 0. -1.
</event>
<event>
 5   0  0.1211800E+10  0.9118800E+02  0.7818608E-02  0.1180000E+00
       11   -1    0    0    0    0  0.00000000000E+00  0.00000000000E+00  0.39999999673E+01  0.40000000000E+01  0.51109989000E-03 0.  1.
     -623   -1    0    0    0    0  0.00000000000E+00  0.00000000000E+00  0.12525980253E-10  0.17130000000E+03  0.17130000000E+03 0. -1.
       11    1    1    2    0    0  0.31618858929E-02  0.47005642275E-03  0.14299115845E+00  0.14302779831E+00  0.51109989000E-03 0.  1.
     -623    1    1    2    0    0 -0.24704226536E-03 -0.22022579783E-03  0.42383941543E-04  0.17130000000E+03  0.17130000000E+03 0. -1.
      622    1    1    2    0    0 -0.29148436275E-02 -0.24983062491E-03  0.38569664250E+01  0.38569722014E+01  0.60000000000E-02 0.  1.
</event>
<event>
 5   0  0.1211800E+10  0.9118800E+02  0.7818608E-02  0.1180000E+00
       11   -1    0    0    0    0  0.00000000000E+00  0.00000000000E+00  0.39999999673E+01  0.40000000000E+01  0.51109989000E-03 0.  1.
     -623   -1    0    0    0    0  0.00000000000E+00  0.00000000000E+00  0.12525980253E-10  0.17130000000E+03  0.17130000000E+03 0.  1.
       11    1    1    2    0    0  0.50082157642E-03 -0.45066959805E-03  0.15590738563E-01  0.15613656759E-01  0.51109989000E-03 0.  1.
     -623    1    1    2    0    0  0.37823655908E-03  0.13376241888E-03  0.27513238724E-04  0.17130000000E+03  0.17130000000E+03 0.  1.
      622    1    1    2    0    0 -0.87905813604E-03  0.31690717898E-03  0.39843817213E+01  0.39843863485E+01  0.60000000000E-02 0.  1.
</event>
<event>
 5   0  0.1211800E+10  0.9118800E+02  0.7818608E-02  0.1180000E+00
       11   -1    0    0    0    0  0.00000000000E+00  0.00000000000E+00  0.39999999673E+01  0.40000000000E+01  0.51109989000E-03 0.  1.
     -623   -1    0    0    0    0  0.00000000000E+00  0.00000000000E+00  0.12525980253E-10  0.17130000000E+03  0.17130000000E+03 0.  1.
       11    1    1    2    0    0 -0.13000531206E-03 -0.92161814105E-03  0.20008355253E-01  0.20036511284E-01  0.51109989000E-03 0.  1.
     -623    1    1    2    0    0  0.10077643152E-02  0.96786763104E-04  0.32831306316E-04  0.17130000000E+03  0.17130000000E+03 0.  1.
      622    1    1    2    0    0 -0.87775900369E-03  0.82483137789E-03  0.39799587830E+01  0.39799634879E+01  0.60000000000E-02 0.  1.
</event>
<event>
 5   0  0.1211800E+10  0.9118800E+02  0.7818608E-02  0.1180000E+00
       11   -1    0    0    0    0  0.00000000000E+00  0.00000000000E+00  0.39999999673E+01  0.40000000000E+01  0.51109989000E-03 0. -1.
     -623   -1    0    0    0    0  0.00000000000E+00  0.00000000000E+00  0.12525980253E-10  0.17130000000E+03  0.17130000000E+03 0.  1.
       11    1    1    2    0    0  0.49930093995E-02 -0.82329870685E-03  0.10250806411E+01  0.10250932592E+01  0.51109989000E-03 0. -1.
     -623    1    1    2    0    0 -0.97864622194E-04 -0.38666645451E-03  0.22909986796E-04  0.17130000000E+03  0.17130000000E+03 0.  1.
      622    1    1    2    0    0 -0.48951447771E-02  0.12099651623E-02  0.29748964258E+01  0.29749067499E+01  0.60000000000E-02 0. -1.
</event>
<event>
 5   0  0.1211800E+10  0.9118800E+02  0.7818608E-02  0.1180000E+00
       11   -1    0    0    0    0  0.00000000000E+00  0.00000000000E+00  0.39999999673E+01  0.40000000000E+01  0.51109989000E-03 0. -1.
     -623   -1    0    0    0    0  0.00000000000E+00  0.00000000000E+00  0.12525980253E-10  0.17130000000E+03  0.17130000000E+03 0. -1.
       11    1    1    2    0    0  0.44921115732E-03  0.32000673672E-03  0.15699754814E-01  0.15717751725E-01  0.51109989000E-03 0. -1.
     -623    1    1    2    0    0 -0.11255578316E-03  0.76118505911E-04  0.22515996046E-04  0.17130000000E+03  0.17130000000E+03 0. -1.
      622    1    1    2    0    0 -0.33665537444E-03 -0.39612524244E-03  0.39842776866E+01  0.39842822383E+01  0.60000000000E-02 0. -1.
</event>
<event>
 5   0  0.1211800E+10  0.9118800E+02  0.7818608E-02  0.1180000E+00
       11   -1    0    0    0    0  0.00000000000E+00  0.00000000000E+00  0.39999999673E+01  0.40000000000E+01  0.51109989000E-03 0.  1.
     -623   -1    0    0    0    0  0.00000000000E+00  0.00000000000E+00  0.12525980253E-10  0.17130000000E+03  0.17130000000E+03 0. -1.
       11    1    1    2    0    0  0.28970376220E-02  0.35096602906E-02  0.19079866603E+00  0.19085361595E+00  0.51109989000E-03 0.  1.
     -623    1    1    2    0    0 -0.95938914460E-04  0.10494761477E-03  0.62387738067E-04  0.17130000000E+03  0.17130000000E+03 0. -1.
      622    1    1    2    0    0 -0.28010987075E-02 -0.36146079054E-02  0.38091389136E+01  0.38091463840E+01  0.60000000000E-02 0.  1.
</event>
<event>
 5   0  0.1211800E+10  0.9118800E+02  0.7818608E-02  0.1180000E+00
       11   -1    0    0    0    0  0.00000000000E+00  0.00000000000E+00  0.39999999673E+01  0.40000000000E+01  0.51109989000E-03 0. -1.
     -623   -1    0    0    0    0  0.00000000000E+00  0.00000000000E+00  0.12525980253E-10  0.17130000000E+03  0.17130000000E+03 0. -1.
       11    1    1    2    0    0  0.20034966469E-02 -0.15781997734E-02  0.75889030702E+00  0.75889476479E+00  0.51109989000E-03 0. -1.
     -623    1    1    2    0    0 -0.15233802223E-03  0.87657709097E-04  0.10850272701E-04  0.17130000000E+03  0.17130000000E+03 0. -1.
      622    1    1    2    0    0 -0.18511586247E-02  0.14905420643E-02  0.32410988101E+01  0.32411052351E+01  0.60000000000E-02 0.  0.
</event>
<event>
 5   0  0.1211800E+10  0.9118800E+02  0.7818608E-02  0.1180000E+00
       11   -1    0    0    0    0  0.00000000000E+00  0.00000000000E+00  0.39999999673E+01  0.40000000000E+01  0.51109989000E-03 0. -1.
     -623   -1    0    0    0    0  0.00000000000E+00  0.00000000000E+00  0.12525980253E-10  0.17130000000E+03  0.17130000000E+03 0.  1.
       11    1    1    2    0    0 -0.80648334627E-03  0.55168806545E-03  0.11955928162E+00  0.11956436685E+00  0.51109989000E-03 0. -1.
     -623    1    1    2    0    0 -0.20745738501E-05 -0.41058367502E-04  0.98090859773E-05  0.17130000000E+03  0.17130000000E+03 0.  1.
      622    1    1    2    0    0  0.80855792012E-03 -0.51062969788E-03  0.38804308835E+01  0.38804356400E+01  0.60000000000E-02 0.  0.
</event>
<event>
 5   0  0.1211800E+10  0.9118800E+02  0.7818608E-02  0.1180000E+00
       11   -1    0    0    0    0  0.00000000000E+00  0.00000000000E+00  0.39999999673E+01  0.40000000000E+01  0.51109989000E-03 0. -1.
     -623   -1    0    0    0    0  0.00000000000E+00  0.00000000000E+00  0.12525980253E-10  0.17130000000E+03  0.17130000000E+03 0. -1.
       11    1    1    2    0    0  0.31067772728E-02  0.14412143744E-02  0.26308761919E+00  0.26311040601E+00  0.51109989000E-03 0. -1.
     -623    1    1    2    0    0  0.77971128629E-04 -0.68169387194E-03  0.29006690641E-04  0.17130000000E+03  0.17130000000E+03 0. -1.
      622    1    1    2    0    0 -0.31847484015E-02 -0.75952050251E-03  0.37368833415E+01  0.37368895926E+01  0.60000000000E-02 0. -1.
</event>
<event>
 5   0  0.1211800E+10  0.9118800E+02  0.7818608E-02  0.1180000E+00
       11   -1    0    0    0    0  0.00000000000E+00  0.00000000000E+00  0.39999999673E+01  0.40000000000E+01  0.51109989000E-03 0. -1.
     -623   -1    0    0    0    0  0.00000000000E+00  0.00000000000E+00  0.12525980253E-10  0.17130000000E+03  0.17130000000E+03 0. -1.
       11    1    1    2    0    0  0.66032977695E-03  0.50176268039E-03  0.90070128180E-01  0.90075396278E-01  0.51109989000E-03 0. -1.
     -623    1    1    2    0    0 -0.16494108638E-02  0.18516633708E-03  0.10032616703E-04  0.17130000001E+03  0.17130000000E+03 0. -1.
      622    1    1    2    0    0  0.98908108540E-03 -0.68692901731E-03  0.39099198031E+01  0.39099245922E+01  0.60000000000E-02 0. -1.
</event>
<event>
 5   0  0.1211800E+10  0.9118800E+02  0.7818608E-02  0.1180000E+00
       11   -1    0    0    0    0  0.00000000000E+00  0.00000000000E+00  0.39999999673E+01  0.40000000000E+01  0.51109989000E-03 0. -1.
     -623   -1    0    0    0    0  0.00000000000E+00  0.00000000000E+00  0.12525980253E-10  0.17130000000E+03  0.17130000000E+03 0.  1.
       11    1    1    2    0    0  0.95461862113E-03 -0.27496274023E-03  0.11822641382E+00  0.11823169223E+00  0.51109989000E-03 0. -1.
     -623    1    1    2    0    0 -0.95413094244E-03  0.92478600727E-04  0.98898125165E-05  0.17130000000E+03  0.17130000000E+03 0.  1.
      622    1    1    2    0    0 -0.48766578384E-06  0.18248413825E-03  0.38817637178E+01  0.38817683592E+01  0.60000000000E-02 0. -1.
</event>
<event>
 5   0  0.1211800E+10  0.9118800E+02  0.7818608E-02  0.1180000E+00
       11   -1    0    0    0    0  0.00000000000E+00  0.00000000000E+00  0.39999999673E+01  0.40000000000E+01  0.51109989000E-03 0.  1.
     -623   -1    0    0    0    0  0.00000000000E+00  0.00000000000E+00  0.12525980253E-10  0.17130000000E+03  0.17130000000E+03 0. -1.
       11    1    1    2    0    0 -0.34813564915E-03 -0.97201655530E-03  0.27523404435E-01  0.27547504958E-01  0.51109989000E-03 0. -1.
     -623    1    1    2    0    0  0.39819289279E-03  0.32480174174E-03  0.28652903815E-04  0.17130000000E+03  0.17130000000E+03 0. -1.
      622    1    1    2    0    0 -0.50057242912E-04  0.64721481415E-03  0.39724479027E+01  0.39724524869E+01  0.60000000000E-02 0.  1.
</event>
<event>
 5   0  0.1211800E+10  0.9118800E+02  0.7818608E-02  0.1180000E+00
       11   -1    0    0    0    0  0.00000000000E+00  0.00000000000E+00  0.39999999673E+01  0.40000000000E+01  0.51109989000E-03 0.  1.
     -623   -1    0    0    0    0  0.00000000000E+00  0.00000000000E+00  0.12525980253E-10  0.17130000000E+03  0.17130000000E+03 0.  1.
       11    1    1    2    0    0  0.81036594877E-04 -0.61827820057E-02  0.47550711023E+00  0.47554758590E+00  0.51109989000E-03 0.  1.
     -623    1    1    2    0    0 -0.51177287881E-02  0.70673879312E-02  0.49482379375E-04  0.17130000022E+03  0.17130000000E+03 0.  1.
      622    1    1    2    0    0  0.50366921933E-02 -0.88460592553E-03  0.35244433748E+01  0.35244521918E+01  0.60000000000E-02 0.  1.
</event>
<event>
 5   0  0.1211800E+10  0.9118800E+02  0.7818608E-02  0.1180000E+00
       11   -1    0    0    0    0  0.00000000000E+00  0.00000000000E+00  0.39999999673E+01  0.40000000000E+01  0.51109989000E-03 0.  1.
     -623   -1    0    0    0    0  0.00000000000E+00  0.00000000000E+00  0.12525980253E-10  0.17130000000E+03  0.17130000000E+03 0.  1.
       11    1    1    2    0    0  0.72824073739E-03 -0.10261319148E-02  0.13452753443E+00  0.13453438974E+00  0.51109989000E-03 0.  1.
     -623    1    1    2    0    0  0.90155120159E-03  0.77125407817E-03  0.11835387726E-04  0.17130000000E+03  0.17130000000E+03 0.  1.
      622    1    1    2    0    0 -0.16297919390E-02  0.25487783664E-03  0.38654605975E+01  0.38654656061E+01  0.60000000000E-02 0.  1.
</event>
<event>
 5   0  0.1211800E+10  0.9118800E+02  0.7818608E-02  0.1180000E+00
       11   -1    0    0    0    0  0.00000000000E+00  0.00000000000E+00  0.39999999673E+01  0.40000000000E+01  0.51109989000E-03 0.  1.
     -623   -1    0    0    0    0  0.00000000000E+00  0.00000000000E+00  0.12525980253E-10  0.17130000000E+03  0.17130000000E+03 0.  1.
       11    1    1    2    0    0  0.16873169909E-03  0.46615371030E-04  0.13115955169E+00  0.13116066432E+00  0.51109989000E-03 0.  1.
     -623    1    1    2    0    0  0.56760599408E-04 -0.29327792321E-04  0.57391695476E-05  0.17130000000E+03  0.17130000000E+03 0.  1.
      622    1    1    2    0    0 -0.22549229850E-03 -0.17287578710E-04  0.38688346765E+01  0.38688393357E+01  0.60000000000E-02 0.  1.
</event>
<event>
 5   0  0.1211800E+10  0.9118800E+02  0.7818608E-02  0.1180000E+00
       11   -1    0    0    0    0  0.00000000000E+00  0.00000000000E+00  0.39999999673E+01  0.40000000000E+01  0.51109989000E-03 0. -1.
     -623   -1    0    0    0    0  0.00000000000E+00  0.00000000000E+00  0.12525980253E-10  0.17130000000E+03  0.17130000000E+03 0.  1.
       11    1    1    2    0    0  0.86358659889E-02 -0.11729624658E-03  0.16602452045E+00  0.16624979565E+00  0.51109989000E-03 0. -1.
     -623    1    1    2    0    0 -0.54359523047E-02 -0.26956834726E-03  0.23137927458E-03  0.17130000009E+03  0.17130000000E+03 0.  1.
      622    1    1    2    0    0 -0.31999136842E-02  0.38686459384E-03  0.38337440676E+01  0.38337501177E+01  0.60000000000E-02 0. -1.
</event>
<event>
 5   0  0.1211800E+10  0.9118800E+02  0.7818608E-02  0.1180000E+00
       11   -1    0    0    0    0  0.00000000000E+00  0.00000000000E+00  0.39999999673E+01  0.40000000000E+01  0.51109989000E-03 0.  1.
     -623   -1    0    0    0    0  0.00000000000E+00  0.00000000000E+00  0.12525980253E-10  0.17130000000E+03  0.17130000000E+03 0.  1.
       11    1    1    2    0    0  0.17383559567E-02  0.14003313252E-02  0.21022030725E+00  0.21023277959E+00  0.51109989000E-03 0.  1.
     -623    1    1    2    0    0  0.27204224985E-02 -0.26064072034E-02  0.20045626997E-04  0.17130000004E+03  0.17130000000E+03 0.  1.
      622    1    1    2    0    0 -0.44587784649E-02  0.12060758875E-02  0.37897596288E+01  0.37897671933E+01  0.60000000000E-02 0.  1.
</event>
<event>
 5   0  0.1211800E+10  0.9118800E+02  0.7818608E-02  0.1180000E+00
       11   -1    0    0    0    0  0.00000000000E+00  0.00000000000E+00  0.39999999673E+01  0.40000000000E+01  0.51109989000E-03 0.  1.
     -623   -1    0    0    0    0  0.00000000000E+00  0.00000000000E+00  0.12525980253E-10  0.17130000000E+03  0.17130000000E+03 0. -1.
       11    1    1    2    0    0  0.16826404286E-03 -0.57508634614E-04  0.78363788211E-01  0.78365656674E-01  0.51109989000E-03 0.  1.
     -623    1    1    2    0    0 -0.10710642761E-03  0.12716629374E-04  0.64265150801E-05  0.17130000000E+03  0.17130000000E+03 0. -1.
      622    1    1    2    0    0 -0.61157614587E-04  0.44792005160E-04  0.39216297777E+01  0.39216343684E+01  0.60000000000E-02 0.  1.
</event>
<event>
 5   0  0.1211800E+10  0.9118800E+02  0.7818608E-02  0.1180000E+00
       11   -1    0    0    0    0  0.00000000000E+00  0.00000000000E+00  0.39999999673E+01  0.40000000000E+01  0.51109989000E-03 0.  1.
     -623   -1    0    0    0    0  0.00000000000E+00  0.00000000000E+00  0.12525980253E-10  0.17130000000E+03  0.17130000000E+03 0. -1.
       11    1    1    2    0    0  0.11513338341E-02 -0.11761687831E-04  0.42063199792E+00  0.42063388428E+00  0.51109989000E-03 0.  1.
     -623    1    1    2    0    0 -0.20395734134E-03  0.13316272414E-03  0.70101541350E-05  0.17130000000E+03  0.17130000000E+03 0. -1.
      622    1    1    2    0    0 -0.94737648865E-03 -0.12140103899E-03  0.35793610398E+01  0.35793661961E+01  0.60000000000E-02 0.  0.
</event>
<event>
 5   0  0.1211800E+10  0.9118800E+02  0.7818608E-02  0.1180000E+00
       11   -1    0    0    0    0  0.00000000000E+00  0.00000000000E+00  0.39999999673E+01  0.40000000000E+01  0.51109989000E-03 0.  1.
     -623   -1    0    0    0    0  0.00000000000E+00  0.00000000000E+00  0.12525980253E-10  0.17130000000E+03  0.17130000000E+03 0.  1.
       11    1    1    2    0    0  0.19560665805E-03  0.10054736543E-02  0.10228336511E+00  0.10228977095E+00  0.51109989000E-03 0.  1.
     -623    1    1    2    0    0 -0.11312253613E-03  0.42008267887E-04  0.11132963762E-04  0.17130000000E+03  0.17130000000E+03 0.  1.
      622    1    1    2    0    0 -0.82484120896E-04 -0.10474819226E-02  0.38977055056E+01  0.38977102653E+01  0.60000000000E-02 0.  1.
</event>
<event>
 5   0  0.1211800E+10  0.9118800E+02  0.7818608E-02  0.1180000E+00
       11   -1    0    0    0    0  0.00000000000E+00  0.00000000000E+00  0.39999999673E+01  0.40000000000E+01  0.51109989000E-03 0.  1.
     -623   -1    0    0    0    0  0.00000000000E+00  0.00000000000E+00  0.12525980253E-10  0.17130000000E+03  0.17130000000E+03 0. -1.
       11    1    1    2    0    0  0.34088575724E-02  0.92339983436E-03  0.79953167296E+00  0.79953963646E+00  0.51109989000E-03 0.  1.
     -623    1    1    2    0    0 -0.14947640200E-04  0.10048441571E-03  0.15518393587E-04  0.17130000000E+03  0.17130000000E+03 0. -1.
      622    1    1    2    0    0 -0.33939099321E-02 -0.10238842503E-02  0.32004527870E+01  0.32004603745E+01  0.60000000000E-02 0.  1.
</event>
<event>
 5   0  0.1211800E+10  0.9118800E+02  0.7818608E-02  0.1180000E+00
       11   -1    0    0    0    0  0.00000000000E+00  0.00000000000E+00  0.39999999673E+01  0.40000000000E+01  0.51109989000E-03 0.  1.
     -623   -1    0    0    0    0  0.00000000000E+00  0.00000000000E+00  0.12525980253E-10  0.17130000000E+03  0.17130000000E+03 0.  1.
       11    1    1    2    0    0 -0.14316476211E-02 -0.53689645537E-03  0.54520633240E+00  0.54520871598E+00  0.51109989000E-03 0.  1.
     -623    1    1    2    0    0 -0.11445302195E-03  0.16109993920E-03  0.79276151546E-05  0.17130000000E+03  0.17130000000E+03 0.  1.
      622    1    1    2    0    0  0.15461006422E-02  0.37579651735E-03  0.34547856782E+01  0.34547912548E+01  0.60000000000E-02 0.  1.
</event>
<event>
 5   0  0.1211800E+10  0.9118800E+02  0.7818608E-02  0.1180000E+00
       11   -1    0    0    0    0  0.00000000000E+00  0.00000000000E+00  0.39999999673E+01  0.40000000000E+01  0.51109989000E-03 0.  1.
     -623   -1    0    0    0    0  0.00000000000E+00  0.00000000000E+00  0.12525980253E-10  0.17130000000E+03  0.17130000000E+03 0. -1.
       11    1    1    2    0    0  0.85532585159E-03 -0.13035275466E-03  0.28105331048E+00  0.28105510692E+00  0.51109989000E-03 0.  1.
     -623    1    1    2    0    0  0.29622806097E-03 -0.60100696595E-03  0.68553972512E-05  0.17130000000E+03  0.17130000000E+03 0. -1.
      622    1    1    2    0    0 -0.11515539126E-02  0.73135972060E-03  0.37189398015E+01  0.37189448918E+01  0.60000000000E-02 0.  1.
</event>
<event>
 5   0  0.1211800E+10  0.9118800E+02  0.7818608E-02  0.1180000E+00
       11   -1    0    0    0    0  0.00000000000E+00  0.00000000000E+00  0.39999999673E+01  0.40000000000E+01  0.51109989000E-03 0.  1.
     -623   -1    0    0    0    0  0.00000000000E+00  0.00000000000E+00  0.12525980253E-10  0.17130000000E+03  0.17130000000E+03 0. -1.
       11    1    1    2    0    0  0.64112043217E-03 -0.10303540503E-02  0.55711827244E+00  0.55711982856E+00  0.51109989000E-03 0.  1.
     -623    1    1    2    0    0 -0.10544193186E-03  0.38719441926E-04  0.69361824564E-05  0.17130000000E+03  0.17130000000E+03 0. -1.
      622    1    1    2    0    0 -0.53567849982E-03  0.99163460821E-03  0.34428747773E+01  0.34428801900E+01  0.60000000000E-02 0.  1.
</event>
<event>
 5   0  0.1211800E+10  0.9118800E+02  0.7818608E-02  0.1180000E+00
       11   -1    0    0    0    0  0.00000000000E+00  0.00000000000E+00  0.39999999673E+01  0.40000000000E+01  0.51109989000E-03 0.  1.
     -623   -1    0    0    0    0  0.00000000000E+00  0.00000000000E+00  0.12525980253E-10  0.17130000000E+03  0.17130000000E+03 0. -1.
       11    1    1    2    0    0  0.20217547728E-02  0.44256245181E-03  0.11309820906E+00  0.11311829856E+00  0.51109989000E-03 0.  1.
     -623    1    1    2    0    0 -0.60092619196E-04 -0.73330967273E-03  0.25195292139E-04  0.17130000000E+03  0.17130000000E+03 0. -1.
      622    1    1    2    0    0 -0.19616621536E-02  0.29074722092E-03  0.38868765630E+01  0.38868816999E+01  0.60000000000E-02 0.  1.
</event>
<event>
 5   0  0.1211800E+10  0.9118800E+02  0.7818608E-02  0.1180000E+00
       11   -1    0    0    0    0  0.00000000000E+00  0.00000000000E+00  0.39999999673E+01  0.40000000000E+01  0.51109989000E-03 0.  1.
     -623   -1    0    0    0    0  0.00000000000E+00  0.00000000000E+00  0.12525980253E-10  0.17130000000E+03  0.17130000000E+03 0.  1.
       11    1    1    2    0    0  0.15147310269E-02 -0.12826036382E-02  0.35881351755E+00  0.35881937111E+00  0.51109989000E-03 0.  1.
     -623    1    1    2    0    0 -0.36823853519E-02 -0.10543097752E-02  0.12202335688E-04  0.17130000004E+03  0.17130000000E+03 0.  1.
      622    1    1    2    0    0  0.21676543069E-02  0.23369134082E-02  0.36411742278E+01  0.36411805664E+01  0.60000000000E-02 0.  1.
</event>
<event>
 5   0  0.1211800E+10  0.9118800E+02  0.7818608E-02  0.1180000E+00
       11   -1    0    0    0    0  0.00000000000E+00  0.00000000000E+00  0.39999999673E+01  0.40000000000E+01  0.51109989000E-03 0.  1.
     -623   -1    0    0    0    0  0.00000000000E+00  0.00000000000E+00  0.12525980253E-10  0.17130000000E+03  0.17130000000E+03 0.  1.
       11    1    1    2    0    0 -0.13615591094E-02 -0.69871277662E-03  0.23910435980E-01  0.23964812008E-01  0.51109989000E-03 0.  1.
     -623    1    1    2    0    0 -0.17046994082E-03  0.45076797242E-04  0.59219499689E-04  0.17130000000E+03  0.17130000000E+03 0.  1.
      622    1    1    2    0    0  0.15320290502E-02  0.65363597939E-03  0.39760303104E+01  0.39760351864E+01  0.60000000000E-02 0.  1.
</event>
<event>
 5   0  0.1211800E+10  0.9118800E+02  0.7818608E-02  0.1180000E+00
       11   -1    0    0    0    0  0.00000000000E+00  0.00000000000E+00  0.39999999673E+01  0.40000000000E+01  0.51109989000E-03 0.  1.
     -623   -1    0    0    0    0  0.00000000000E+00  0.00000000000E+00  0.12525980253E-10  0.17130000000E+03  0.17130000000E+03 0.  1.
       11    1    1    2    0    0  0.26443795945E-04  0.46131057473E-04  0.31512572433E-01  0.31516761759E-01  0.51109989000E-03 0.  1.
     -623    1    1    2    0    0 -0.30103826322E-04  0.26629444778E-05  0.86927310585E-05  0.17130000000E+03  0.17130000000E+03 0.  1.
      622    1    1    2    0    0  0.36600308077E-05 -0.48794001989E-04  0.39684787594E+01  0.39684832954E+01  0.60000000000E-02 0.  1.
</event>
<event>
 5   0  0.1211800E+10  0.9118800E+02  0.7818608E-02  0.1180000E+00
       11   -1    0    0    0    0  0.00000000000E+00  0.00000000000E+00  0.39999999673E+01  0.40000000000E+01  0.51109989000E-03 0.  1.
     -623   -1    0    0    0    0  0.00000000000E+00  0.00000000000E+00  0.12525980253E-10  0.17130000000E+03  0.17130000000E+03 0. -1.
       11    1    1    2    0    0 -0.46342503366E-03  0.74292478763E-03  0.43867275039E+00  0.43867392201E+00  0.51109989000E-03 0.  1.
     -623    1    1    2    0    0 -0.18246332740E-03  0.33611468332E-03  0.64157508159E-05  0.17130000000E+03  0.17130000000E+03 0. -1.
      622    1    1    2    0    0  0.64588836106E-03 -0.10790394709E-02  0.35613208012E+01  0.35613260776E+01  0.60000000000E-02 0.  1.
</event>
<event>
 5   0  0.1211800E+10  0.9118800E+02  0.7818608E-02  0.1180000E+00
       11   -1    0    0    0    0  0.00000000000E+00  0.00000000000E+00  0.39999999673E+01  0.40000000000E+01  0.51109989000E-03 0.  1.
     -623   -1    0    0    0    0  0.00000000000E+00  0.00000000000E+00  0.12525980253E-10  0.17130000000E+03  0.17130000000E+03 0. -1.
       11    1    1    2    0    0  0.16069437429E-02  0.58799010773E-02  0.85584714962E+00  0.85586900881E+00  0.51109989000E-03 0.  1.
     -623    1    1    2    0    0 -0.65784918250E-02 -0.94512762865E-02  0.33897459433E-04  0.17130000039E+03  0.17130000000E+03 0. -1.
      622    1    1    2    0    0  0.49715480821E-02  0.35713752093E-02  0.31441189203E+01  0.31441306041E+01  0.60000000000E-02 0.  1.
</event>
<event>
 5   0  0.1211800E+10  0.9118800E+02  0.7818608E-02  0.1180000E+00
       11   -1    0    0    0    0  0.00000000000E+00  0.00000000000E+00  0.39999999673E+01  0.40000000000E+01  0.51109989000E-03 0.  1.
     -623   -1    0    0    0    0  0.00000000000E+00  0.00000000000E+00  0.12525980253E-10  0.17130000000E+03  0.17130000000E+03 0.  1.
       11    1    1    2    0    0  0.54938900074E-02 -0.34883829993E-02  0.36327226680E+00  0.36333091348E+00  0.51109989000E-03 0.  1.
     -623    1    1    2    0    0  0.15794206515E-02  0.23255493408E-03  0.71907321641E-04  0.17130000001E+03  0.17130000000E+03 0.  1.
      622    1    1    2    0    0 -0.70733106589E-02  0.32558280652E-02  0.36366557932E+01  0.36366690791E+01  0.60000000000E-02 0.  1.
</event>
<event>
 5   0  0.1211800E+10  0.9118800E+02  0.7818608E-02  0.1180000E+00
       11   -1    0    0    0    0  0.00000000000E+00  0.00000000000E+00  0.39999999673E+01  0.40000000000E+01  0.51109989000E-03 0. -1.
     -623   -1    0    0    0    0  0.00000000000E+00  0.00000000000E+00  0.12525980253E-10  0.17130000000E+03  0.17130000000E+03 0. -1.
       11    1    1    2    0    0  0.27413227106E-03  0.14486351564E-02  0.27672642332E+00  0.27673082278E+00  0.51109989000E-03 0. -1.
     -623    1    1    2    0    0  0.10081100790E-02 -0.32482669199E-03  0.95949583332E-05  0.17130000000E+03  0.17130000000E+03 0. -1.
      622    1    1    2    0    0 -0.12822423659E-02 -0.11238084593E-02  0.37232640121E+01  0.37232692369E+01  0.60000000000E-02 0. -1.
</event>
<event>
 5   0  0.1211800E+10  0.9118800E+02  0.7818608E-02  0.1180000E+00
       11   -1    0    0    0    0  0.00000000000E+00  0.00000000000E+00  0.39999999673E+01  0.40000000000E+01  0.51109989000E-03 0. -1.
     -623   -1    0    0    0    0  0.00000000000E+00  0.00000000000E+00  0.12525980253E-10  0.17130000000E+03  0.17130000000E+03 0. -1.
       11    1    1    2    0    0 -0.21612104293E-03 -0.56175268653E-03  0.29083087370E-01  0.29093804640E-01  0.51109989000E-03 0.  1.
     -623    1    1    2    0    0  0.23091987052E-03 -0.31206797514E-03  0.15314216075E-04  0.17130000000E+03  0.17130000000E+03 0. -1.
      622    1    1    2    0    0 -0.14798828122E-04  0.87382066240E-03  0.39709015751E+01  0.39709062042E+01  0.60000000000E-02 0. -1.
</event>
<event>
 5   0  0.1211800E+10  0.9118800E+02  0.7818608E-02  0.1180000E+00
       11   -1    0    0    0    0  0.00000000000E+00  0.00000000000E+00  0.39999999673E+01  0.40000000000E+01  0.51109989000E-03 0.  1.
     -623   -1    0    0    0    0  0.00000000000E+00  0.00000000000E+00  0.12525980253E-10  0.17130000000E+03  0.17130000000E+03 0. -1.
       11    1    1    2    0    0 -0.10408453953E-02 -0.40708014604E-03  0.15376271805E-01  0.15425304895E-01  0.51109989000E-03 0.  1.
     -623    1    1    2    0    0  0.91871640412E-04 -0.89594754691E-04  0.53661889405E-04  0.17130000000E+03  0.17130000000E+03 0. -1.
      622    1    1    2    0    0  0.94897375482E-03  0.49667490079E-03  0.39845700362E+01  0.39845746976E+01  0.60000000000E-02 0.  1.
</event>
<event>
 5   0  0.1211800E+10  0.9118800E+02  0.7818608E-02  0.1180000E+00
       11   -1    0    0    0    0  0.00000000000E+00  0.00000000000E+00  0.39999999673E+01  0.40000000000E+01  0.51109989000E-03 0. -1.
     -623   -1    0    0    0    0  0.00000000000E+00  0.00000000000E+00  0.12525980253E-10  0.17130000000E+03  0.17130000000E+03 0.  1.
       11    1    1    2    0    0  0.45074637679E-03 -0.76316004969E-03  0.21921640249E-03  0.10463565260E-02  0.51109989000E-03 0. -1.
     -623    1    1    2    0    0  0.12160452442E-02  0.74232454886E-03  0.83196402840E-03  0.17130000001E+03  0.17130000000E+03 0.  1.
      622    1    1    2    0    0 -0.16667916210E-02  0.20835500831E-04  0.39989487869E+01  0.39989536355E+01  0.60000000000E-02 0. -1.
</event>
<event>
 5   0  0.1211800E+10  0.9118800E+02  0.7818608E-02  0.1180000E+00
       11   -1    0    0    0    0  0.00000000000E+00  0.00000000000E+00  0.39999999673E+01  0.40000000000E+01  0.51109989000E-03 0.  1.
     -623   -1    0    0    0    0  0.00000000000E+00  0.00000000000E+00  0.12525980253E-10  0.17130000000E+03  0.17130000000E+03 0.  1.
       11    1    1    2    0    0  0.22059466158E-03  0.50988367783E-04  0.39719820782E-01  0.39723754202E-01  0.51109989000E-03 0. -1.
     -623    1    1    2    0    0  0.98434680339E-03  0.96546342708E-03  0.87652171339E-05  0.17130000001E+03  0.17130000000E+03 0.  1.
      622    1    1    2    0    0 -0.12049414692E-02 -0.10164517991E-02  0.39602713987E+01  0.39602762576E+01  0.60000000000E-02 0.  1.
</event>
<event>
 5   0  0.1211800E+10  0.9118800E+02  0.7818608E-02  0.1180000E+00
       11   -1    0    0    0    0  0.00000000000E+00  0.00000000000E+00  0.39999999673E+01  0.40000000000E+01  0.51109989000E-03 0. -1.
     -623   -1    0    0    0    0  0.00000000000E+00  0.00000000000E+00  0.12525980253E-10  0.17130000000E+03  0.17130000000E+03 0.  1.
       11    1    1    2    0    0 -0.39706115836E-03 -0.57469630270E-03  0.68544439658E-01  0.68549904175E-01  0.51109989000E-03 0. -1.
     -623    1    1    2    0    0  0.23120883608E-03  0.15084348403E-02  0.10131522842E-04  0.17130000001E+03  0.17130000000E+03 0.  1.
      622    1    1    2    0    0  0.16585232228E-03 -0.93373853761E-03  0.39314453962E+01  0.39314500890E+01  0.60000000000E-02 0. -1.
</event>
<event>
 5   0  0.1211800E+10  0.9118800E+02  0.7818608E-02  0.1180000E+00
       11   -1    0    0    0    0  0.00000000000E+00  0.00000000000E+00  0.39999999673E+01  0.40000000000E+01  0.51109989000E-03 0.  1.
     -623   -1    0    0    0    0  0.00000000000E+00  0.00000000000E+00  0.12525980253E-10  0.17130000000E+03  0.17130000000E+03 0.  1.
       11    1    1    2    0    0 -0.14784771090E-03  0.76284368281E-05  0.36714640469E-01  0.36718496225E-01  0.51109989000E-03 0.  1.
     -623    1    1    2    0    0  0.12451982117E-04  0.89023246871E-05  0.83671574149E-05  0.17130000000E+03  0.17130000000E+03 0.  1.
      622    1    1    2    0    0  0.13539572888E-03 -0.16530761442E-04  0.39632769266E+01  0.39632814706E+01  0.60000000000E-02 0.  1.
</event>
<event>
 5   0  0.1211800E+10  0.9118800E+02  0.7818608E-02  0.1180000E+00
       11   -1    0    0    0    0  0.00000000000E+00  0.00000000000E+00  0.39999999673E+01  0.40000000000E+01  0.51109989000E-03 0.  1.
     -623   -1    0    0    0    0  0.00000000000E+00  0.00000000000E+00  0.12525980253E-10  0.17130000000E+03  0.17130000000E+03 0. -1.
       11    1    1    2    0    0 -0.13692872757E-03 -0.42044123680E-03  0.22330457787E+00  0.22330560056E+00  0.51109989000E-03 0.  1.
     -623    1    1    2    0    0 -0.34997067916E-04  0.19602174754E-03  0.57668217401E-05  0.17130000000E+03  0.17130000000E+03 0. -1.
      622    1    1    2    0    0  0.17192579516E-03  0.22441949105E-03  0.37766895861E+01  0.37766943628E+01  0.60000000000E-02 0.  1.
</event>
<event>
 5   0  0.1211800E+10  0.9118800E+02  0.7818608E-02  0.1180000E+00
       11   -1    0    0    0    0  0.00000000000E+00  0.00000000000E+00  0.39999999673E+01  0.40000000000E+01  0.51109989000E-03 0.  1.
     -623   -1    0    0    0    0  0.00000000000E+00  0.00000000000E+00  0.12525980253E-10  0.17130000000E+03  0.17130000000E+03 0. -1.
       11    1    1    2    0    0 -0.43303311929E-03 -0.21382413976E-04  0.13141439063E+00  0.13141609971E+00  0.51109989000E-03 0.  1.
     -623    1    1    2    0    0 -0.26319883901E-04  0.91059796014E-04  0.63572257063E-05  0.17130000000E+03  0.17130000000E+03 0. -1.
      622    1    1    2    0    0  0.45935300320E-03 -0.69677382039E-04  0.38685792195E+01  0.38685839003E+01  0.60000000000E-02 0.  1.
</event>
<event>
 5   0  0.1211800E+10  0.9118800E+02  0.7818608E-02  0.1180000E+00
       11   -1    0    0    0    0  0.00000000000E+00  0.00000000000E+00  0.39999999673E+01  0.40000000000E+01  0.51109989000E-03 0.  1.
     -623   -1    0    0    0    0  0.00000000000E+00  0.00000000000E+00  0.12525980253E-10  0.17130000000E+03  0.17130000000E+03 0. -1.
       11    1    1    2    0    0 -0.10033823974E-02 -0.55170123825E-03  0.24265668474E-01  0.24298046013E-01  0.51109989000E-03 0.  1.
     -623    1    1    2    0    0  0.68710132056E-03  0.10423164475E-02  0.36919809870E-04  0.17130000000E+03  0.17130000000E+03 0. -1.
      622    1    1    2    0    0  0.31628107407E-03 -0.49061521335E-03  0.39756973949E+01  0.39757019653E+01  0.60000000000E-02 0.  1.
</event>
<event>
 5   0  0.1211800E+10  0.9118800E+02  0.7818608E-02  0.1180000E+00
       11   -1    0    0    0    0  0.00000000000E+00  0.00000000000E+00  0.39999999673E+01  0.40000000000E+01  0.51109989000E-03 0.  1.
     -623   -1    0    0    0    0  0.00000000000E+00  0.00000000000E+00  0.12525980253E-10  0.17130000000E+03  0.17130000000E+03 0. -1.
       11    1    1    2    0    0 -0.96113490369E-03 -0.10602251736E-02  0.31739857684E-01  0.31776211962E-01  0.51109989000E-03 0.  1.
     -623    1    1    2    0    0 -0.74316104143E-04  0.65327729125E-05  0.41132683729E-04  0.17130000000E+03  0.17130000000E+03 0. -1.
      622    1    1    2    0    0  0.10354510079E-02  0.10536924007E-02  0.39682189806E+01  0.39682237916E+01  0.60000000000E-02 0.  1.
</event>
<event>
 5   0  0.1211800E+10  0.9118800E+02  0.7818608E-02  0.1180000E+00
       11   -1    0    0    0    0  0.00000000000E+00  0.00000000000E+00  0.39999999673E+01  0.40000000000E+01  0.51109989000E-03 0. -1.
     -623   -1    0    0    0    0  0.00000000000E+00  0.00000000000E+00  0.12525980253E-10  0.17130000000E+03  0.17130000000E+03 0.  1.
       11    1    1    2    0    0 -0.68913337270E-03  0.30731119424E-02  0.91926860933E-01  0.91982215161E-01  0.51109989000E-03 0. -1.
     -623    1    1    2    0    0  0.21303194989E-02 -0.20701633166E-02  0.60347708430E-04  0.17130000003E+03  0.17130000000E+03 0.  1.
      622    1    1    2    0    0 -0.14411861265E-02 -0.10029486256E-02  0.39080127593E+01  0.39080177597E+01  0.60000000000E-02 0. -1.
</event>
<event>
 5   0  0.1211800E+10  0.9118800E+02  0.7818608E-02  0.1180000E+00
       11   -1    0    0    0    0  0.00000000000E+00  0.00000000000E+00  0.39999999673E+01  0.40000000000E+01  0.51109989000E-03 0.  1.
     -623   -1    0    0    0    0  0.00000000000E+00  0.00000000000E+00  0.12525980253E-10  0.17130000000E+03  0.17130000000E+03 0.  1.
       11    1    1    2    0    0 -0.57106202667E-03 -0.54435686346E-03  0.25764364421E-01  0.25781507549E-01  0.51109989000E-03 0.  1.
     -623    1    1    2    0    0 -0.46632717557E-03 -0.22355748838E-04  0.21816120427E-04  0.17130000000E+03  0.17130000000E+03 0.  1.
      622    1    1    2    0    0  0.10373892022E-02  0.56671261230E-03  0.39742137868E+01  0.39742184918E+01  0.60000000000E-02 0.  1.
</event>
<event>
 5   0  0.1211800E+10  0.9118800E+02  0.7818608E-02  0.1180000E+00
       11   -1    0    0    0    0  0.00000000000E+00  0.00000000000E+00  0.39999999673E+01  0.40000000000E+01  0.51109989000E-03 0. -1.
     -623   -1    0    0    0    0  0.00000000000E+00  0.00000000000E+00  0.12525980253E-10  0.17130000000E+03  0.17130000000E+03 0.  1.
       11    1    1    2    0    0  0.93687543383E-04 -0.18528869434E-04  0.23546715100E-01  0.23552454984E-01  0.51109989000E-03 0. -1.
     -623    1    1    2    0    0  0.16827464232E-04  0.27273182728E-04  0.10235448438E-04  0.17130000000E+03  0.17130000000E+03 0.  1.
      622    1    1    2    0    0 -0.11051500775E-03 -0.87443135143E-05  0.39764430492E+01  0.39764475774E+01  0.60000000000E-02 0. -1.
</event>
<event>
 5   0  0.1211800E+10  0.9118800E+02  0.7818608E-02  0.1180000E+00
       11   -1    0    0    0    0  0.00000000000E+00  0.00000000000E+00  0.39999999673E+01  0.40000000000E+01  0.51109989000E-03 0.  1.
     -623   -1    0    0    0    0  0.00000000000E+00  0.00000000000E+00  0.12525980253E-10  0.17130000000E+03  0.17130000000E+03 0. -1.
       11    1    1    2    0    0  0.52307534195E-02 -0.74094216092E-03  0.59185229941E-01  0.59422743482E-01  0.51109989000E-03 0.  1.
     -623    1    1    2    0    0  0.23585352704E-03 -0.21066081294E-02  0.24688271984E-03  0.17130000001E+03  0.17130000000E+03 0. -1.
      622    1    1    2    0    0 -0.54666069466E-02  0.28475502910E-02  0.39405678560E+01  0.39405772445E+01  0.60000000000E-02 0.  1.
</event>
<event>
 5   0  0.1211800E+10  0.9118800E+02  0.7818608E-02  0.1180000E+00
       11   -1    0    0    0    0  0.00000000000E+00  0.00000000000E+00  0.39999999673E+01  0.40000000000E+01  0.51109989000E-03 0.  1.
     -623   -1    0    0    0    0  0.00000000000E+00  0.00000000000E+00  0.12525980253E-10  0.17130000000E+03  0.17130000000E+03 0. -1.
       11    1    1    2    0    0  0.20116450683E-03 -0.12087695492E-03  0.35263992237E-01  0.35268476718E-01  0.51109989000E-03 0.  1.
     -623    1    1    2    0    0 -0.12373894428E-04  0.34413641127E-04  0.89973148678E-05  0.17130000000E+03  0.17130000000E+03 0. -1.
      622    1    1    2    0    0 -0.18879061231E-03  0.86463313536E-04  0.39647270076E+01  0.39647315531E+01  0.60000000000E-02 0.  1.
</event>
<event>
 5   0  0.1211800E+10  0.9118800E+02  0.7818608E-02  0.1180000E+00
       11   -1    0    0    0    0  0.00000000000E+00  0.00000000000E+00  0.39999999673E+01  0.40000000000E+01  0.51109989000E-03 0.  1.
     -623   -1    0    0    0    0  0.00000000000E+00  0.00000000000E+00  0.12525980253E-10  0.17130000000E+03  0.17130000000E+03 0. -1.
       11    1    1    2    0    0  0.37801094016E-03 -0.27186128094E-03  0.27980466786E+00  0.27980552207E+00  0.51109989000E-03 0.  1.
     -623    1    1    2    0    0 -0.25665558859E-03 -0.34205436674E-03  0.57131966611E-05  0.17130000000E+03  0.17130000000E+03 0. -1.
      622    1    1    2    0    0 -0.12135534964E-03  0.61391565025E-03  0.37201896163E+01  0.37201945074E+01  0.60000000000E-02 0.  1.
</event>
<event>
 5   0  0.1211800E+10  0.9118800E+02  0.7818608E-02  0.1180000E+00
       11   -1    0    0    0    0  0.00000000000E+00  0.00000000000E+00  0.39999999673E+01  0.40000000000E+01  0.51109989000E-03 0. -1.
     -623   -1    0    0    0    0  0.00000000000E+00  0.00000000000E+00  0.12525980253E-10  0.17130000000E+03  0.17130000000E+03 0. -1.
       11    1    1    2    0    0  0.10943632160E-02  0.20218980489E-02  0.77683139418E+00  0.77683496439E+00  0.51109989000E-03 0. -1.
     -623    1    1    2    0    0 -0.12146480725E-03  0.81026793879E-04  0.99550669432E-05  0.17130000000E+03  0.17130000000E+03 0. -1.
      622    1    1    2    0    0 -0.97289840877E-03 -0.21029248428E-02  0.32231586181E+01  0.32231650355E+01  0.60000000000E-02 0. -1.
</event>
<event>
 5   0  0.1211800E+10  0.9118800E+02  0.7818608E-02  0.1180000E+00
       11   -1    0    0    0    0  0.00000000000E+00  0.00000000000E+00  0.39999999673E+01  0.40000000000E+01  0.51109989000E-03 0. -1.
     -623   -1    0    0    0    0  0.00000000000E+00  0.00000000000E+00  0.12525980253E-10  0.17130000000E+03  0.17130000000E+03 0. -1.
       11    1    1    2    0    0 -0.12372576604E-02 -0.12764597086E-05  0.22857624834E-01  0.22896791135E-01  0.51109989000E-03 0. -1.
     -623    1    1    2    0    0 -0.22345248957E-03 -0.42804194487E-04  0.43928217027E-04  0.17130000000E+03  0.17130000000E+03 0. -1.
      622    1    1    2    0    0  0.14607101503E-02  0.44080654261E-04  0.39770984204E+01  0.39771032148E+01  0.60000000000E-02 0. -1.
</event>
<event>
 5   0  0.1211800E+10  0.9118800E+02  0.7818608E-02  0.1180000E+00
       11   -1    0    0    0    0  0.00000000000E+00  0.00000000000E+00  0.39999999673E+01  0.40000000000E+01  0.51109989000E-03 0.  1.
     -623   -1    0    0    0    0  0.00000000000E+00  0.00000000000E+00  0.12525980253E-10  0.17130000000E+03  0.17130000000E+03 0.  1.
       11    1    1    2    0    0  0.10113332166E-02  0.57880787523E-03  0.24949301660E-01  0.24981727119E-01  0.51109989000E-03 0.  1.
     -623    1    1    2    0    0 -0.20102967141E-03 -0.22192852261E-03  0.37019978572E-04  0.17130000000E+03  0.17130000000E+03 0.  1.
      622    1    1    2    0    0 -0.81030354490E-03 -0.35687935234E-03  0.39750136508E+01  0.39750182777E+01  0.60000000000E-02 0.  1.
</event>
<event>
 5   0  0.1211800E+10  0.9118800E+02  0.7818608E-02  0.1180000E+00
       11   -1    0    0    0    0  0.00000000000E+00  0.00000000000E+00  0.39999999673E+01  0.40000000000E+01  0.51109989000E-03 0. -1.
     -623   -1    0    0    0    0  0.00000000000E+00  0.00000000000E+00  0.12525980253E-10  0.17130000000E+03  0.17130000000E+03 0. -1.
       11    1    1    2    0    0 -0.90651442760E-03  0.15263339955E-02  0.27645239031E+00  0.27645856253E+00  0.51109989000E-03 0. -1.
     -623    1    1    2    0    0  0.27206395935E-02 -0.21456402791E-02  0.11502159363E-04  0.17130000004E+03  0.17130000000E+03 0. -1.
      622    1    1    2    0    0 -0.18141251713E-02  0.61930628777E-03  0.37235360828E+01  0.37235414103E+01  0.60000000000E-02 0. -1.
</event>
<event>
 5   0  0.1211800E+10  0.9118800E+02  0.7818608E-02  0.1180000E+00
       11   -1    0    0    0    0  0.00000000000E+00  0.00000000000E+00  0.39999999673E+01  0.40000000000E+01  0.51109989000E-03 0. -1.
     -623   -1    0    0    0    0  0.00000000000E+00  0.00000000000E+00  0.12525980253E-10  0.17130000000E+03  0.17130000000E+03 0. -1.
       11    1    1    2    0    0  0.37961890068E-02  0.50953079562E-03  0.69015208617E+00  0.69016290392E+00  0.51109989000E-03 0. -1.
     -623    1    1    2    0    0 -0.23401251871E-03 -0.15377096791E-03  0.18159673476E-04  0.17130000000E+03  0.17130000000E+03 0. -1.
      622    1    1    2    0    0 -0.35621764864E-02 -0.35575982658E-03  0.33098297511E+01  0.33098371255E+01  0.60000000000E-02 0. -1.
</event>
<event>
 5   0  0.1211800E+10  0.9118800E+02  0.7818608E-02  0.1180000E+00
       11   -1    0    0    0    0  0.00000000000E+00  0.00000000000E+00  0.39999999673E+01  0.40000000000E+01  0.51109989000E-03 0. -1.
     -623   -1    0    0    0    0  0.00000000000E+00  0.00000000000E+00  0.12525980253E-10  0.17130000000E+03  0.17130000000E+03 0. -1.
       11    1    1    2    0    0  0.12017739120E-02 -0.10956511593E-02  0.27551379792E+00  0.27551907153E+00  0.51109989000E-03 0. -1.
     -623    1    1    2    0    0  0.84243992566E-04 -0.12172776391E-02  0.11018406461E-04  0.17130000000E+03  0.17130000000E+03 0. -1.
      622    1    1    2    0    0 -0.12860179045E-02  0.23129287984E-02  0.37244751510E+01  0.37244809241E+01  0.60000000000E-02 0. -1.
</event>
<event>
 5   0  0.1211800E+10  0.9118800E+02  0.7818608E-02  0.1180000E+00
       11   -1    0    0    0    0  0.00000000000E+00  0.00000000000E+00  0.39999999673E+01  0.40000000000E+01  0.51109989000E-03 0.  1.
     -623   -1    0    0    0    0  0.00000000000E+00  0.00000000000E+00  0.12525980253E-10  0.17130000000E+03  0.17130000000E+03 0. -1.
       11    1    1    2    0    0 -0.34286986472E-02  0.12253194964E-03  0.62880534028E+00  0.62881490773E+00  0.51109989000E-03 0. -1.
     -623    1    1    2    0    0  0.21513643069E-03  0.28325756593E-03  0.16430626594E-04  0.17130000000E+03  0.17130000000E+03 0. -1.
      622    1    1    2    0    0  0.32135622165E-02 -0.40578951557E-03  0.33711781964E+01  0.33711850919E+01  0.60000000000E-02 0.  1.
</event>
<event>
 5   0  0.1211800E+10  0.9118800E+02  0.7818608E-02  0.1180000E+00
       11   -1    0    0    0    0  0.00000000000E+00  0.00000000000E+00  0.39999999673E+01  0.40000000000E+01  0.51109989000E-03 0.  1.
     -623   -1    0    0    0    0  0.00000000000E+00  0.00000000000E+00  0.12525980253E-10  0.17130000000E+03  0.17130000000E+03 0.  1.
       11    1    1    2    0    0  0.19383664651E-02  0.19706223019E-02  0.42014367698E+00  0.42015308060E+00  0.51109989000E-03 0.  1.
     -623    1    1    2    0    0 -0.64674820998E-03  0.25107123102E-03  0.15322960951E-04  0.17130000000E+03  0.17130000000E+03 0.  1.
      622    1    1    2    0    0 -0.12916182551E-02 -0.22216935330E-02  0.35798409674E+01  0.35798469180E+01  0.60000000000E-02 0.  1.
</event>
<event>
 5   0  0.1211800E+10  0.9118800E+02  0.7818608E-02  0.1180000E+00
       11   -1    0    0    0    0  0.00000000000E+00  0.00000000000E+00  0.39999999673E+01  0.40000000000E+01  0.51109989000E-03 0.  1.
     -623   -1    0    0    0    0  0.00000000000E+00  0.00000000000E+00  0.12525980253E-10  0.17130000000E+03  0.17130000000E+03 0.  1.
       11    1    1    2    0    0  0.29228629508E-02 -0.50365971277E-03  0.43220912018E+00  0.43221959881E+00  0.51109989000E-03 0.  1.
     -623    1    1    2    0    0 -0.19834885774E-03 -0.28640640917E-03  0.16619254906E-04  0.17130000000E+03  0.17130000000E+03 0.  1.
      622    1    1    2    0    0 -0.27245140930E-02  0.79006612194E-03  0.35677742279E+01  0.35677804008E+01  0.60000000000E-02 0.  1.
</event>
<event>
 5   0  0.1211800E+10  0.9118800E+02  0.7818608E-02  0.1180000E+00
       11   -1    0    0    0    0  0.00000000000E+00  0.00000000000E+00  0.39999999673E+01  0.40000000000E+01  0.51109989000E-03 0. -1.
     -623   -1    0    0    0    0  0.00000000000E+00  0.00000000000E+00  0.12525980253E-10  0.17130000000E+03  0.17130000000E+03 0.  1.
       11    1    1    2    0    0 -0.78446579927E-02  0.41198205506E-02  0.57237438469E+00  0.57244319286E+00  0.51109989000E-03 0. -1.
     -623    1    1    2    0    0 -0.24834485390E-02  0.67597699936E-02  0.10700606807E-03  0.17130000015E+03  0.17130000000E+03 0.  1.
      622    1    1    2    0    0  0.10328106532E-01 -0.10879590546E-01  0.34275185777E+01  0.34275566568E+01  0.60000000000E-02 0. -1.
</event>
<event>
 5   0  0.1211800E+10  0.9118800E+02  0.7818608E-02  0.1180000E+00
       11   -1    0    0    0    0  0.00000000000E+00  0.00000000000E+00  0.39999999673E+01  0.40000000000E+01  0.51109989000E-03 0. -1.
     -623   -1    0    0    0    0  0.00000000000E+00  0.00000000000E+00  0.12525980253E-10  0.17130000000E+03  0.17130000000E+03 0. -1.
       11    1    1    2    0    0  0.11169524359E-02  0.11093081378E-02  0.16165383862E-01  0.16249892486E-01  0.51109989000E-03 0.  1.
     -623    1    1    2    0    0 -0.67018562505E-04 -0.29227748586E-03  0.89216767585E-04  0.17130000000E+03  0.17130000000E+03 0. -1.
      622    1    1    2    0    0 -0.10499338733E-02 -0.81703065183E-03  0.39837453676E+01  0.39837501081E+01  0.60000000000E-02 0. -1.
</event>
<event>
 5   0  0.1211800E+10  0.9118800E+02  0.7818608E-02  0.1180000E+00
       11   -1    0    0    0    0  0.00000000000E+00  0.00000000000E+00  0.39999999673E+01  0.40000000000E+01  0.51109989000E-03 0.  1.
     -623   -1    0    0    0    0  0.00000000000E+00  0.00000000000E+00  0.12525980253E-10  0.17130000000E+03  0.17130000000E+03 0.  1.
       11    1    1    2    0    0  0.20489341904E-02  0.23735748907E-02  0.53808190651E+00  0.53809128531E+00  0.51109989000E-03 0.  1.
     -623    1    1    2    0    0  0.21641992318E-05  0.69509197046E-04  0.16015283679E-04  0.17130000000E+03  0.17130000000E+03 0.  1.
      622    1    1    2    0    0 -0.20510983897E-02 -0.24430840877E-02  0.34619020456E+01  0.34619087147E+01  0.60000000000E-02 0.  1.
</event>
<event>
 5   0  0.1211800E+10  0.9118800E+02  0.7818608E-02  0.1180000E+00
       11   -1    0    0    0    0  0.00000000000E+00  0.00000000000E+00  0.39999999673E+01  0.40000000000E+01  0.51109989000E-03 0. -1.
     -623   -1    0    0    0    0  0.00000000000E+00  0.00000000000E+00  0.12525980253E-10  0.17130000000E+03  0.17130000000E+03 0. -1.
       11    1    1    2    0    0  0.73856595295E-03  0.45079464801E-03  0.37436708361E-01  0.37450194278E-01  0.51109989000E-03 0. -1.
     -623    1    1    2    0    0  0.16202016142E-02 -0.35423994690E-02  0.19948193167E-04  0.17130000004E+03  0.17130000000E+03 0. -1.
      622    1    1    2    0    0 -0.23587675728E-02  0.30916048335E-02  0.39625433249E+01  0.39625497755E+01  0.60000000000E-02 0. -1.
</event>
<event>
 5   0  0.1211800E+10  0.9118800E+02  0.7818608E-02  0.1180000E+00
       11   -1    0    0    0    0  0.00000000000E+00  0.00000000000E+00  0.39999999673E+01  0.40000000000E+01  0.51109989000E-03 0. -1.
     -623   -1    0    0    0    0  0.00000000000E+00  0.00000000000E+00  0.12525980253E-10  0.17130000000E+03  0.17130000000E+03 0. -1.
       11    1    1    2    0    0 -0.10133222335E-02  0.66958894747E-03  0.14183927808E-01  0.14245006229E-01  0.51109989000E-03 0. -1.
     -623    1    1    2    0    0 -0.33441069018E-04 -0.35428926851E-05  0.65754986562E-04  0.17130000000E+03  0.17130000000E+03 0. -1.
      622    1    1    2    0    0  0.10467633026E-02 -0.66604605478E-03  0.39857502900E+01  0.39857549992E+01  0.60000000000E-02 0. -1.
</event>
<event>
 5   0  0.1211800E+10  0.9118800E+02  0.7818608E-02  0.1180000E+00
       11   -1    0    0    0    0  0.00000000000E+00  0.00000000000E+00  0.39999999673E+01  0.40000000000E+01  0.51109989000E-03 0.  1.
     -623   -1    0    0    0    0  0.00000000000E+00  0.00000000000E+00  0.12525980253E-10  0.17130000000E+03  0.17130000000E+03 0. -1.
       11    1    1    2    0    0  0.25292386501E-02 -0.10327693513E-03  0.67825188532E-01  0.67874333416E-01  0.51109989000E-03 0.  1.
     -623    1    1    2    0    0 -0.16743877145E-03 -0.83311444135E-03  0.54512835062E-04  0.17130000000E+03  0.17130000000E+03 0. -1.
      622    1    1    2    0    0 -0.23617998784E-02  0.93639137744E-03  0.39321202706E+01  0.39321256691E+01  0.60000000000E-02 0.  1.
</event>
<event>
 5   0  0.1211800E+10  0.9118800E+02  0.7818608E-02  0.1180000E+00
       11   -1    0    0    0    0  0.00000000000E+00  0.00000000000E+00  0.39999999673E+01  0.40000000000E+01  0.51109989000E-03 0. -1.
     -623   -1    0    0    0    0  0.00000000000E+00  0.00000000000E+00  0.12525980253E-10  0.17130000000E+03  0.17130000000E+03 0.  1.
       11    1    1    2    0    0  0.36771137336E-03 -0.13513437027E-03  0.10615930524E-01  0.10635444370E-01  0.51109989000E-03 0. -1.
     -623    1    1    2    0    0  0.17562676216E-04 -0.20441074422E-03  0.24026383077E-04  0.17130000000E+03  0.17130000000E+03 0.  1.
      622    1    1    2    0    0 -0.38527404966E-03  0.33954511545E-03  0.39893600294E+01  0.39893645745E+01  0.60000000000E-02 0. -1.
</event>
<event>
 5   0  0.1211800E+10  0.9118800E+02  0.7818608E-02  0.1180000E+00
       11   -1    0    0    0    0  0.00000000000E+00  0.00000000000E+00  0.39999999673E+01  0.40000000000E+01  0.51109989000E-03 0. -1.
     -623   -1    0    0    0    0  0.00000000000E+00  0.00000000000E+00  0.12525980253E-10  0.17130000000E+03  0.17130000000E+03 0. -1.
       11    1    1    2    0    0 -0.98182075904E-03 -0.28509346183E-02  0.57901361069E-01  0.57982071686E-01  0.51109989000E-03 0.  1.
     -623    1    1    2    0    0 -0.10269900114E-02 -0.12443300489E-02  0.87890861584E-04  0.17130000001E+03  0.17130000000E+03 0. -1.
      622    1    1    2    0    0  0.20088107707E-02  0.40952646676E-02  0.39420107168E+01  0.39420179220E+01  0.60000000000E-02 0. -1.
</event>
<event>
 5   0  0.1211800E+10  0.9118800E+02  0.7818608E-02  0.1180000E+00
       11   -1    0    0    0    0  0.00000000000E+00  0.00000000000E+00  0.39999999673E+01  0.40000000000E+01  0.51109989000E-03 0.  1.
     -623   -1    0    0    0    0  0.00000000000E+00  0.00000000000E+00  0.12525980253E-10  0.17130000000E+03  0.17130000000E+03 0. -1.
       11    1    1    2    0    0  0.11725480712E-02 -0.11934700199E-02  0.35803752121E+00  0.35804179513E+00  0.51109989000E-03 0.  1.
     -623    1    1    2    0    0 -0.61232572191E-03 -0.42503503061E-04  0.94375881323E-05  0.17130000000E+03  0.17130000000E+03 0. -1.
      622    1    1    2    0    0 -0.56022234928E-03  0.12359735230E-02  0.36419530086E+01  0.36419582038E+01  0.60000000000E-02 0.  1.
</event>
<event>
 5   0  0.1211800E+10  0.9118800E+02  0.7818608E-02  0.1180000E+00
       11   -1    0    0    0    0  0.00000000000E+00  0.00000000000E+00  0.39999999673E+01  0.40000000000E+01  0.51109989000E-03 0. -1.
     -623   -1    0    0    0    0  0.00000000000E+00  0.00000000000E+00  0.12525980253E-10  0.17130000000E+03  0.17130000000E+03 0.  1.
       11    1    1    2    0    0  0.75099877200E-02 -0.13358349840E-01  0.39351739179E+00  0.39381600309E+00  0.51109989000E-03 0. -1.
     -623    1    1    2    0    0 -0.19097712241E-02 -0.28980771603E-02  0.34459573199E-03  0.17130000004E+03  0.17130000000E+03 0.  1.
      622    1    1    2    0    0 -0.56002164958E-02  0.16256427001E-01  0.36061379802E+01  0.36061839618E+01  0.60000000000E-02 0. -1.
</event>
<event>
 5   0  0.1211800E+10  0.9118800E+02  0.7818608E-02  0.1180000E+00
       11   -1    0    0    0    0  0.00000000000E+00  0.00000000000E+00  0.39999999673E+01  0.40000000000E+01  0.51109989000E-03 0.  1.
     -623   -1    0    0    0    0  0.00000000000E+00  0.00000000000E+00  0.12525980253E-10  0.17130000000E+03  0.17130000000E+03 0.  1.
       11    1    1    2    0    0  0.87088081131E-04 -0.10549251106E-03  0.20705055599E+00  0.20705123200E+00  0.51109989000E-03 0.  1.
     -623    1    1    2    0    0 -0.60271144137E-04  0.10563561632E-03  0.53891567631E-05  0.17130000000E+03  0.17130000000E+03 0.  1.
      622    1    1    2    0    0 -0.26816935954E-04 -0.14310708903E-06  0.37929440913E+01  0.37929488370E+01  0.60000000000E-02 0.  1.
</event>
<event>
 5   0  0.1211800E+10  0.9118800E+02  0.7818608E-02  0.1180000E+00
       11   -1    0    0    0    0  0.00000000000E+00  0.00000000000E+00  0.39999999673E+01  0.40000000000E+01  0.51109989000E-03 0. -1.
     -623   -1    0    0    0    0  0.00000000000E+00  0.00000000000E+00  0.12525980253E-10  0.17130000000E+03  0.17130000000E+03 0.  1.
       11    1    1    2    0    0  0.13499418818E-02  0.59910136930E-03  0.67235707512E+00  0.67235889148E+00  0.51109989000E-03 0. -1.
     -623    1    1    2    0    0  0.13429303326E-04  0.33672217370E-04  0.75324230937E-05  0.17130000000E+03  0.17130000000E+03 0.  1.
      622    1    1    2    0    0 -0.13633711851E-02 -0.63277358667E-03  0.33276353598E+01  0.33276411085E+01  0.60000000000E-02 0. -1.
</event>
<event>
 5   0  0.1211800E+10  0.9118800E+02  0.7818608E-02  0.1180000E+00
       11   -1    0    0    0    0  0.00000000000E+00  0.00000000000E+00  0.39999999673E+01  0.40000000000E+01  0.51109989000E-03 0.  1.
     -623   -1    0    0    0    0  0.00000000000E+00  0.00000000000E+00  0.12525980253E-10  0.17130000000E+03  0.17130000000E+03 0.  1.
       11    1    1    2    0    0 -0.65062585707E-03  0.14549760269E-02  0.12176714274E+00  0.12177864568E+00  0.51109989000E-03 0.  1.
     -623    1    1    2    0    0  0.32386342165E-04  0.46169228012E-04  0.16451417162E-04  0.17130000000E+03  0.17130000000E+03 0.  1.
      622    1    1    2    0    0  0.61823951463E-03 -0.15011452553E-02  0.38782164077E+01  0.38782213888E+01  0.60000000000E-02 0.  1.
</event>
<event>
 5   0  0.1211800E+10  0.9118800E+02  0.7818608E-02  0.1180000E+00
       11   -1    0    0    0    0  0.00000000000E+00  0.00000000000E+00  0.39999999673E+01  0.40000000000E+01  0.51109989000E-03 0. -1.
     -623   -1    0    0    0    0  0.00000000000E+00  0.00000000000E+00  0.12525980253E-10  0.17130000000E+03  0.17130000000E+03 0.  1.
       11    1    1    2    0    0 -0.18951542036E-02  0.54143092295E-03  0.38754749890E+00  0.38755284785E+00  0.51109989000E-03 0. -1.
     -623    1    1    2    0    0  0.12350875233E-02  0.50080850808E-03  0.10514930311E-04  0.17130000001E+03  0.17130000000E+03 0.  1.
      622    1    1    2    0    0  0.66006668034E-03 -0.10422394310E-02  0.36124419535E+01  0.36124471470E+01  0.60000000000E-02 0. -1.
</event>
<event>
 5   0  0.1211800E+10  0.9118800E+02  0.7818608E-02  0.1180000E+00
       11   -1    0    0    0    0  0.00000000000E+00  0.00000000000E+00  0.39999999673E+01  0.40000000000E+01  0.51109989000E-03 0. -1.
     -623   -1    0    0    0    0  0.00000000000E+00  0.00000000000E+00  0.12525980253E-10  0.17130000000E+03  0.17130000000E+03 0.  1.
       11    1    1    2    0    0  0.12489983020E-02 -0.32108922625E-03  0.91259873865E-01  0.91270416324E-01  0.51109989000E-03 0. -1.
     -623    1    1    2    0    0 -0.85099024281E-04 -0.66719237229E-04  0.15307458783E-04  0.17130000000E+03  0.17130000000E+03 0.  1.
      622    1    1    2    0    0 -0.11638992777E-02  0.38780846354E-03  0.39087247894E+01  0.39087295870E+01  0.60000000000E-02 0. -1.
</event>
<event>
 5   0  0.1211800E+10  0.9118800E+02  0.7818608E-02  0.1180000E+00
       11   -1    0    0    0    0  0.00000000000E+00  0.00000000000E+00  0.39999999673E+01  0.40000000000E+01  0.51109989000E-03 0. -1.
     -623   -1    0    0    0    0  0.00000000000E+00  0.00000000000E+00  0.12525980253E-10  0.17130000000E+03  0.17130000000E+03 0.  1.
       11    1    1    2    0    0 -0.13096412669E-02 -0.40122893191E-03  0.13980805682E-01  0.14057037212E-01  0.51109989000E-03 0. -1.
     -623    1    1    2    0    0 -0.77811886529E-04 -0.12851475929E-03  0.80991527074E-04  0.17130000000E+03  0.17130000000E+03 0.  1.
      622    1    1    2    0    0  0.13874531535E-02  0.52974369119E-03  0.39859381702E+01  0.39859429627E+01  0.60000000000E-02 0. -1.
</event>
<event>
 5   0  0.1211800E+10  0.9118800E+02  0.7818608E-02  0.1180000E+00
       11   -1    0    0    0    0  0.00000000000E+00  0.00000000000E+00  0.39999999673E+01  0.40000000000E+01  0.51109989000E-03 0. -1.
     -623   -1    0    0    0    0  0.00000000000E+00  0.00000000000E+00  0.12525980253E-10  0.17130000000E+03  0.17130000000E+03 0. -1.
       11    1    1    2    0    0 -0.43081444437E-02  0.11066654415E-02  0.10767687273E+01  0.10767780357E+01  0.51109989000E-03 0. -1.
     -623    1    1    2    0    0  0.12046619516E-02  0.24208463345E-03  0.17396332513E-04  0.17130000000E+03  0.17130000000E+03 0. -1.
      622    1    1    2    0    0  0.31034824938E-02 -0.13487500746E-02  0.29232138380E+01  0.29232219542E+01  0.60000000000E-02 0.  0.
</event>
<event>
 5   0  0.1211800E+10  0.9118800E+02  0.7818608E-02  0.1180000E+00
       11   -1    0    0    0    0  0.00000000000E+00  0.00000000000E+00  0.39999999673E+01  0.40000000000E+01  0.51109989000E-03 0.  1.
     -623   -1    0    0    0    0  0.00000000000E+00  0.00000000000E+00  0.12525980253E-10  0.17130000000E+03  0.17130000000E+03 0.  1.
       11    1    1    2    0    0 -0.26911229132E-03  0.75556718121E-04  0.16347728514E-01  0.16358104441E-01  0.51109989000E-03 0.  1.
     -623    1    1    2    0    0  0.14177166864E-04 -0.30673743459E-04  0.14870182303E-04  0.17130000000E+03  0.17130000000E+03 0.  1.
      622    1    1    2    0    0  0.25493512452E-03 -0.44882974790E-04  0.39836373520E+01  0.39836418789E+01  0.60000000000E-02 0.  1.
</event>
<event>
 5   0  0.1211800E+10  0.9118800E+02  0.7818608E-02  0.1180000E+00
       11   -1    0    0    0    0  0.00000000000E+00  0.00000000000E+00  0.39999999673E+01  0.40000000000E+01  0.51109989000E-03 0.  1.
     -623   -1    0    0    0    0  0.00000000000E+00  0.00000000000E+00  0.12525980253E-10  0.17130000000E+03  0.17130000000E+03 0.  1.
       11    1    1    2    0    0  0.49008886146E-03 -0.43617178716E-04  0.19612030927E+00  0.19612159244E+00  0.51109989000E-03 0.  1.
     -623    1    1    2    0    0  0.12871587906E-04  0.14412970704E-03  0.60171789031E-05  0.17130000000E+03  0.17130000000E+03 0.  1.
      622    1    1    2    0    0 -0.50296044937E-03 -0.10051252832E-03  0.38038736409E+01  0.38038784075E+01  0.60000000000E-02 0.  1.
</event>
<event>
 5   0  0.1211800E+10  0.9118800E+02  0.7818608E-02  0.1180000E+00
       11   -1    0    0    0    0  0.00000000000E+00  0.00000000000E+00  0.39999999673E+01  0.40000000000E+01  0.51109989000E-03 0. -1.
     -623   -1    0    0    0    0  0.00000000000E+00  0.00000000000E+00  0.12525980253E-10  0.17130000000E+03  0.17130000000E+03 0. -1.
       11    1    1    2    0    0  0.11852783114E-02 -0.15529024563E-02  0.84602118341E+00  0.84602359328E+00  0.51109989000E-03 0. -1.
     -623    1    1    2    0    0  0.12449547637E-02  0.18374148788E-02  0.90478163659E-05  0.17130000001E+03  0.17130000000E+03 0. -1.
      622    1    1    2    0    0 -0.24302330859E-02 -0.28451243849E-03  0.31539697709E+01  0.31539764271E+01  0.60000000000E-02 0. -1.
</event>
<event>
 5   0  0.1211800E+10  0.9118800E+02  0.7818608E-02  0.1180000E+00
       11   -1    0    0    0    0  0.00000000000E+00  0.00000000000E+00  0.39999999673E+01  0.40000000000E+01  0.51109989000E-03 0. -1.
     -623   -1    0    0    0    0  0.00000000000E+00  0.00000000000E+00  0.12525980253E-10  0.17130000000E+03  0.17130000000E+03 0. -1.
       11    1    1    2    0    0  0.36091858111E-02 -0.18867884278E-02  0.14782456016E+00  0.14788153367E+00  0.51109989000E-03 0. -1.
     -623    1    1    2    0    0  0.46604920271E-03  0.13055571503E-03  0.64170314273E-04  0.17130000000E+03  0.17130000000E+03 0. -1.
      622    1    1    2    0    0 -0.40752350143E-02  0.17562327126E-02  0.38521112410E+01  0.38521184697E+01  0.60000000000E-02 0. -1.
</event>
<event>
 5   0  0.1211800E+10  0.9118800E+02  0.7818608E-02  0.1180000E+00
       11   -1    0    0    0    0  0.00000000000E+00  0.00000000000E+00  0.39999999673E+01  0.40000000000E+01  0.51109989000E-03 0.  1.
     -623   -1    0    0    0    0  0.00000000000E+00  0.00000000000E+00  0.12525980253E-10  0.17130000000E+03  0.17130000000E+03 0. -1.
       11    1    1    2    0    0 -0.12200546830E-02  0.69090279211E-03  0.88512127311E+00  0.88512253119E+00  0.51109989000E-03 0.  1.
     -623    1    1    2    0    0 -0.85463092869E-04 -0.22178757639E-02  0.76664036763E-05  0.17130000001E+03  0.17130000000E+03 0. -1.
      622    1    1    2    0    0  0.13055177757E-02  0.15269729676E-02  0.31148710204E+01  0.31148774469E+01  0.60000000000E-02 0.  1.
</event>
<event>
 5   0  0.1211800E+10  0.9118800E+02  0.7818608E-02  0.1180000E+00
       11   -1    0    0    0    0  0.00000000000E+00  0.00000000000E+00  0.39999999673E+01  0.40000000000E+01  0.51109989000E-03 0.  1.
     -623   -1    0    0    0    0  0.00000000000E+00  0.00000000000E+00  0.12525980253E-10  0.17130000000E+03  0.17130000000E+03 0.  1.
       11    1    1    2    0    0  0.93383766157E-04 -0.14026260803E-02  0.38160827281E+00  0.38161120421E+00  0.51109989000E-03 0.  1.
     -623    1    1    2    0    0 -0.16412715337E-03  0.75241343947E-04  0.81176143900E-05  0.17130000000E+03  0.17130000000E+03 0.  1.
      622    1    1    2    0    0  0.70743387209E-04  0.13273847363E-02  0.36183835769E+01  0.36183887957E+01  0.60000000000E-02 0.  1.
</event>
<event>
 5   0  0.1211800E+10  0.9118800E+02  0.7818608E-02  0.1180000E+00
       11   -1    0    0    0    0  0.00000000000E+00  0.00000000000E+00  0.39999999673E+01  0.40000000000E+01  0.51109989000E-03 0.  1.
     -623   -1    0    0    0    0  0.00000000000E+00  0.00000000000E+00  0.12525980253E-10  0.17130000000E+03  0.17130000000E+03 0. -1.
       11    1    1    2    0    0 -0.21766417815E-03 -0.12824011091E-02  0.56976274674E+00  0.56976446074E+00  0.51109989000E-03 0.  1.
     -623    1    1    2    0    0 -0.57776327309E-03  0.16688757573E-02  0.70519204196E-05  0.17130000001E+03  0.17130000000E+03 0. -1.
      622    1    1    2    0    0  0.79542745782E-03 -0.38647466716E-03  0.34302302143E+01  0.34302355757E+01  0.60000000000E-02 0.  1.
</event>
<event>
 5   0  0.1211800E+10  0.9118800E+02  0.7818608E-02  0.1180000E+00
       11   -1    0    0    0    0  0.00000000000E+00  0.00000000000E+00  0.39999999673E+01  0.40000000000E+01  0.51109989000E-03 0. -1.
     -623   -1    0    0    0    0  0.00000000000E+00  0.00000000000E+00  0.12525980253E-10  0.17130000000E+03  0.17130000000E+03 0. -1.
       11    1    1    2    0    0  0.83219140712E-03  0.12078033018E-02  0.17451267976E+00  0.17451959188E+00  0.51109989000E-03 0. -1.
     -623    1    1    2    0    0 -0.69904677582E-03 -0.45666913965E-03  0.11662867556E-04  0.17130000000E+03  0.17130000000E+03 0. -1.
      622    1    1    2    0    0 -0.13314463129E-03 -0.75113416215E-03  0.38254756247E+01  0.38254804061E+01  0.60000000000E-02 0. -1.
</event>
<event>
 5   0  0.1211800E+10  0.9118800E+02  0.7818608E-02  0.1180000E+00
       11   -1    0    0    0    0  0.00000000000E+00  0.00000000000E+00  0.39999999673E+01  0.40000000000E+01  0.51109989000E-03 0. -1.
     -623   -1    0    0    0    0  0.00000000000E+00  0.00000000000E+00  0.12525980253E-10  0.17130000000E+03  0.17130000000E+03 0. -1.
       11    1    1    2    0    0  0.65442963767E-03 -0.32575988536E-03  0.83158787899E+00  0.83158835737E+00  0.51109989000E-03 0. -1.
     -623    1    1    2    0    0 -0.20358901599E-04  0.23378692342E-04  0.62046971161E-05  0.17130000000E+03  0.17130000000E+03 0. -1.
      622    1    1    2    0    0 -0.63407073576E-03  0.30238119266E-03  0.31684059451E+01  0.31684117040E+01  0.60000000000E-02 0. -1.
</event>
<event>
 5   0  0.1211800E+10  0.9118800E+02  0.7818608E-02  0.1180000E+00
       11   -1    0    0    0    0  0.00000000000E+00  0.00000000000E+00  0.39999999673E+01  0.40000000000E+01  0.51109989000E-03 0. -1.
     -623   -1    0    0    0    0  0.00000000000E+00  0.00000000000E+00  0.12525980253E-10  0.17130000000E+03  0.17130000000E+03 0. -1.
       11    1    1    2    0    0  0.46830397662E-05  0.13537680535E-03  0.70972891917E-01  0.70974861458E-01  0.51109989000E-03 0. -1.
     -623    1    1    2    0    0 -0.13066776055E-03 -0.14297959571E-03  0.65203293427E-05  0.17130000000E+03  0.17130000000E+03 0. -1.
      622    1    1    2    0    0  0.12598472157E-03  0.76027912196E-05  0.39290205792E+01  0.39290251625E+01  0.60000000000E-02 0. -1.
</event>
<event>
 5   0  0.1211800E+10  0.9118800E+02  0.7818608E-02  0.1180000E+00
       11   -1    0    0    0    0  0.00000000000E+00  0.00000000000E+00  0.39999999673E+01  0.40000000000E+01  0.51109989000E-03 0.  1.
     -623   -1    0    0    0    0  0.00000000000E+00  0.00000000000E+00  0.12525980253E-10  0.17130000000E+03  0.17130000000E+03 0.  1.
       11    1    1    2    0    0 -0.23297955426E-02  0.29886757485E-02  0.49030687486E+00  0.49032178505E+00  0.51109989000E-03 0.  1.
     -623    1    1    2    0    0 -0.86346870189E-05 -0.10770235784E-03  0.21967731988E-04  0.17130000000E+03  0.17130000000E+03 0.  1.
      622    1    1    2    0    0  0.23384302296E-02 -0.28809733902E-02  0.35096711400E+01  0.35096782302E+01  0.60000000000E-02 0.  1.
</event>
<event>
 5   0  0.1211800E+10  0.9118800E+02  0.7818608E-02  0.1180000E+00
       11   -1    0    0    0    0  0.00000000000E+00  0.00000000000E+00  0.39999999673E+01  0.40000000000E+01  0.51109989000E-03 0.  1.
     -623   -1    0    0    0    0  0.00000000000E+00  0.00000000000E+00  0.12525980253E-10  0.17130000000E+03  0.17130000000E+03 0.  1.
       11    1    1    2    0    0  0.41502266394E-02 -0.13869187071E-02  0.46918872316E+00  0.46920940644E+00  0.51109989000E-03 0.  1.
     -623    1    1    2    0    0 -0.40686055609E-02 -0.27201872143E-02  0.28208258100E-04  0.17130000007E+03  0.17130000000E+03 0.  1.
      622    1    1    2    0    0 -0.81621078515E-04  0.41071059214E-02  0.35307830359E+01  0.35307905236E+01  0.60000000000E-02 0.  1.
</event>
<event>
 5   0  0.1211800E+10  0.9118800E+02  0.7818608E-02  0.1180000E+00
       11   -1    0    0    0    0  0.00000000000E+00  0.00000000000E+00  0.39999999673E+01  0.40000000000E+01  0.51109989000E-03 0.  1.
     -623   -1    0    0    0    0  0.00000000000E+00  0.00000000000E+00  0.12525980253E-10  0.17130000000E+03  0.17130000000E+03 0.  1.
       11    1    1    2    0    0  0.36304392674E-03  0.23719793467E-03  0.52996332691E-02  0.53418535769E-02  0.51109989000E-03 0. -1.
     -623    1    1    2    0    0  0.11963093643E-03 -0.12791672247E-02  0.46863567126E-04  0.17130000000E+03  0.17130000000E+03 0.  1.
      622    1    1    2    0    0 -0.48267486310E-03  0.10419692894E-02  0.39946534685E+01  0.39946581396E+01  0.60000000000E-02 0.  1.
</event>
<event>
 5   0  0.1211800E+10  0.9118800E+02  0.7818608E-02  0.1180000E+00
       11   -1    0    0    0    0  0.00000000000E+00  0.00000000000E+00  0.39999999673E+01  0.40000000000E+01  0.51109989000E-03 0.  1.
     -623   -1    0    0    0    0  0.00000000000E+00  0.00000000000E+00  0.12525980253E-10  0.17130000000E+03  0.17130000000E+03 0.  1.
       11    1    1    2    0    0 -0.17161231444E-02 -0.15335192851E-03  0.56475438891E+00  0.56475724839E+00  0.51109989000E-03 0.  1.
     -623    1    1    2    0    0 -0.37765306902E-04 -0.55803325352E-04  0.85207624241E-05  0.17130000000E+03  0.17130000000E+03 0.  1.
      622    1    1    2    0    0  0.17538884511E-02  0.20915525343E-03  0.34352370270E+01  0.34352427209E+01  0.60000000000E-02 0.  1.
</event>
<event>
 5   0  0.1211800E+10  0.9118800E+02  0.7818608E-02  0.1180000E+00
       11   -1    0    0    0    0  0.00000000000E+00  0.00000000000E+00  0.39999999673E+01  0.40000000000E+01  0.51109989000E-03 0.  1.
     -623   -1    0    0    0    0  0.00000000000E+00  0.00000000000E+00  0.12525980253E-10  0.17130000000E+03  0.17130000000E+03 0.  1.
       11    1    1    2    0    0 -0.13690465726E-02  0.19302243622E-01  0.75103355166E+00  0.75128297454E+00  0.51109989000E-03 0.  1.
     -623    1    1    2    0    0  0.85383219551E-02 -0.16274541861E-01  0.26523846608E-03  0.17130000099E+03  0.17130000000E+03 0.  1.
      622    1    1    2    0    0 -0.71692753825E-02 -0.30277017612E-02  0.32487011772E+01  0.32487160394E+01  0.60000000000E-02 0.  1.
</event>
<event>
 5   0  0.1211800E+10  0.9118800E+02  0.7818608E-02  0.1180000E+00
       11   -1    0    0    0    0  0.00000000000E+00  0.00000000000E+00  0.39999999673E+01  0.40000000000E+01  0.51109989000E-03 0.  1.
     -623   -1    0    0    0    0  0.00000000000E+00  0.00000000000E+00  0.12525980253E-10  0.17130000000E+03  0.17130000000E+03 0. -1.
       11    1    1    2    0    0  0.36423600220E-03 -0.34389382812E-03  0.88685141120E+00  0.88685169994E+00  0.51109989000E-03 0.  1.
     -623    1    1    2    0    0 -0.28855401443E-04  0.85177029107E-04  0.60668808244E-05  0.17130000000E+03  0.17130000000E+03 0. -1.
      622    1    1    2    0    0 -0.33538060076E-03  0.25871679901E-03  0.31131424893E+01  0.31131483000E+01  0.60000000000E-02 0.  1.
</event>
<event>
 5   0  0.1211800E+10  0.9118800E+02  0.7818608E-02  0.1180000E+00
       11   -1    0    0    0    0  0.00000000000E+00  0.00000000000E+00  0.39999999673E+01  0.40000000000E+01  0.51109989000E-03 0. -1.
     -623   -1    0    0    0    0  0.00000000000E+00  0.00000000000E+00  0.12525980253E-10  0.17130000000E+03  0.17130000000E+03 0.  1.
       11    1    1    2    0    0  0.57567281243E-03 -0.98954460940E-03  0.14940676957E+00  0.14941202968E+00  0.51109989000E-03 0. -1.
     -623    1    1    2    0    0  0.16423007890E-04  0.90939430310E-04  0.10052487986E-04  0.17130000000E+03  0.17130000000E+03 0.  1.
      622    1    1    2    0    0 -0.59209582038E-03  0.89860517877E-03  0.38505831593E+01  0.38505879843E+01  0.60000000000E-02 0. -1.
</event>
<event>
 5   0  0.1211800E+10  0.9118800E+02  0.7818608E-02  0.1180000E+00
       11   -1    0    0    0    0  0.00000000000E+00  0.00000000000E+00  0.39999999673E+01  0.40000000000E+01  0.51109989000E-03 0.  1.
     -623   -1    0    0    0    0  0.00000000000E+00  0.00000000000E+00  0.12525980253E-10  0.17130000000E+03  0.17130000000E+03 0.  1.
       11    1    1    2    0    0 -0.31989954759E-03 -0.97386069155E-03  0.26908663011E+00  0.26908906791E+00  0.51109989000E-03 0. -1.
     -623    1    1    2    0    0 -0.56676575475E-03 -0.34550351752E-03  0.75696492039E-05  0.17130000000E+03  0.17130000000E+03 0.  1.
      622    1    1    2    0    0  0.88666530234E-03  0.13193642091E-02  0.37309057676E+01  0.37309109308E+01  0.60000000000E-02 0.  1.
</event>
<event>
 5   0  0.1211800E+10  0.9118800E+02  0.7818608E-02  0.1180000E+00
       11   -1    0    0    0    0  0.00000000000E+00  0.00000000000E+00  0.39999999673E+01  0.40000000000E+01  0.51109989000E-03 0. -1.
     -623   -1    0    0    0    0  0.00000000000E+00  0.00000000000E+00  0.12525980253E-10  0.17130000000E+03  0.17130000000E+03 0.  1.
       11    1    1    2    0    0 -0.27369640847E-02 -0.69897067910E-02  0.10126068566E+01  0.10126348079E+01  0.51109989000E-03 0. -1.
     -623    1    1    2    0    0  0.29032770210E-03  0.21969065357E-03  0.42617546090E-04  0.17130000000E+03  0.17130000000E+03 0.  1.
      622    1    1    2    0    0  0.24466363826E-02  0.67700161374E-02  0.29873504940E+01  0.29873651925E+01  0.60000000000E-02 0.  0.
</event>
<event>
 5   0  0.1211800E+10  0.9118800E+02  0.7818608E-02  0.1180000E+00
       11   -1    0    0    0    0  0.00000000000E+00  0.00000000000E+00  0.39999999673E+01  0.40000000000E+01  0.51109989000E-03 0. -1.
     -623   -1    0    0    0    0  0.00000000000E+00  0.00000000000E+00  0.12525980253E-10  0.17130000000E+03  0.17130000000E+03 0.  1.
       11    1    1    2    0    0 -0.10449674170E-02  0.46540359823E-03  0.15824442988E-01  0.15873965277E-01  0.51109989000E-03 0. -1.
     -623    1    1    2    0    0  0.15236794412E-02 -0.79066035067E-03  0.54058227279E-04  0.17130000001E+03  0.17130000000E+03 0.  1.
      622    1    1    2    0    0 -0.47871202420E-03  0.32525675244E-03  0.39841214661E+01  0.39841260261E+01  0.60000000000E-02 0. -1.
</event>
<event>
 5   0  0.1211800E+10  0.9118800E+02  0.7818608E-02  0.1180000E+00
       11   -1    0    0    0    0  0.00000000000E+00  0.00000000000E+00  0.39999999673E+01  0.40000000000E+01  0.51109989000E-03 0.  1.
     -623   -1    0    0    0    0  0.00000000000E+00  0.00000000000E+00  0.12525980253E-10  0.17130000000E+03  0.17130000000E+03 0. -1.
       11    1    1    2    0    0  0.41471511722E-03  0.79631051796E-03  0.10192125061E+01  0.10192130297E+01  0.51109989000E-03 0.  1.
     -623    1    1    2    0    0 -0.54813545656E-04 -0.49367527129E-04  0.66449709530E-05  0.17130000000E+03  0.17130000000E+03 0. -1.
      622    1    1    2    0    0 -0.35990157157E-03 -0.74694299083E-03  0.29807808163E+01  0.29807869703E+01  0.60000000000E-02 0.  1.
</event>
<event>
 5   0  0.1211800E+10  0.9118800E+02  0.7818608E-02  0.1180000E+00
       11   -1    0    0    0    0  0.00000000000E+00  0.00000000000E+00  0.39999999673E+01  0.40000000000E+01  0.51109989000E-03 0. -1.
     -623   -1    0    0    0    0  0.00000000000E+00  0.00000000000E+00  0.12525980253E-10  0.17130000000E+03  0.17130000000E+03 0. -1.
       11    1    1    2    0    0 -0.74555915480E-03 -0.33617267805E-03  0.26379698806E+00  0.26379875095E+00  0.51109989000E-03 0.  1.
     -623    1    1    2    0    0  0.17934659654E-03  0.54199654320E-04  0.66016283413E-05  0.17130000000E+03  0.17130000000E+03 0. -1.
      622    1    1    2    0    0  0.56621255746E-03  0.28197302349E-03  0.37361963956E+01  0.37362012669E+01  0.60000000000E-02 0. -1.
</event>
<event>
 5   0  0.1211800E+10  0.9118800E+02  0.7818608E-02  0.1180000E+00
       11   -1    0    0    0    0  0.00000000000E+00  0.00000000000E+00  0.39999999673E+01  0.40000000000E+01  0.51109989000E-03 0.  1.
     -623   -1    0    0    0    0  0.00000000000E+00  0.00000000000E+00  0.12525980253E-10  0.17130000000E+03  0.17130000000E+03 0.  1.
       11    1    1    2    0    0 -0.11253898668E-02 -0.14412232325E-03  0.42946504125E-01  0.42964528530E-01  0.51109989000E-03 0.  1.
     -623    1    1    2    0    0  0.39832361091E-03 -0.67432545409E-03  0.22693855903E-04  0.17130000000E+03  0.17130000000E+03 0.  1.
      622    1    1    2    0    0  0.72706625588E-03  0.81844777734E-03  0.39570307694E+01  0.39570354697E+01  0.60000000000E-02 0.  1.
</event>
<event>
 5   0  0.1211800E+10  0.9118800E+02  0.7818608E-02  0.1180000E+00
       11   -1    0    0    0    0  0.00000000000E+00  0.00000000000E+00  0.39999999673E+01  0.40000000000E+01  0.51109989000E-03 0.  1.
     -623   -1    0    0    0    0  0.00000000000E+00  0.00000000000E+00  0.12525980253E-10  0.17130000000E+03  0.17130000000E+03 0.  1.
       11    1    1    2    0    0 -0.21956169031E-02 -0.23613197988E-02  0.90844287345E-01  0.90902928055E-01  0.51109989000E-03 0. -1.
     -623    1    1    2    0    0  0.83383777261E-03 -0.25169644659E-03  0.64325469337E-04  0.17130000000E+03  0.17130000000E+03 0.  1.
      622    1    1    2    0    0  0.13617791305E-02  0.26130162454E-02  0.39090913545E+01  0.39090970697E+01  0.60000000000E-02 0.  1.
</event>
<event>
 5   0  0.1211800E+10  0.9118800E+02  0.7818608E-02  0.1180000E+00
       11   -1    0    0    0    0  0.00000000000E+00  0.00000000000E+00  0.39999999673E+01  0.40000000000E+01  0.51109989000E-03 0.  1.
     -623   -1    0    0    0    0  0.00000000000E+00  0.00000000000E+00  0.12525980253E-10  0.17130000000E+03  0.17130000000E+03 0.  1.
       11    1    1    2    0    0  0.28785049293E-02 -0.12806779576E-02  0.65613220940E+00  0.65613997238E+00  0.51109989000E-03 0.  1.
     -623    1    1    2    0    0  0.22846089299E-05  0.27694015959E-04  0.14589031126E-04  0.17130000000E+03  0.17130000000E+03 0.  1.
      622    1    1    2    0    0 -0.28807895383E-02  0.12529839416E-02  0.33438531689E+01  0.33438600276E+01  0.60000000000E-02 0.  1.
</event>
<event>
 5   0  0.1211800E+10  0.9118800E+02  0.7818608E-02  0.1180000E+00
       11   -1    0    0    0    0  0.00000000000E+00  0.00000000000E+00  0.39999999673E+01  0.40000000000E+01  0.51109989000E-03 0.  1.
     -623   -1    0    0    0    0  0.00000000000E+00  0.00000000000E+00  0.12525980253E-10  0.17130000000E+03  0.17130000000E+03 0. -1.
       11    1    1    2    0    0  0.26290396787E-02 -0.25787025773E-02  0.81205845073E-01  0.81290910031E-01  0.51109989000E-03 0.  1.
     -623    1    1    2    0    0  0.55618486847E-02  0.34946603766E-02  0.98419006057E-04  0.17130000013E+03  0.17130000000E+03 0. -1.
      622    1    1    2    0    0 -0.81908883675E-02 -0.91595780187E-03  0.39186957063E+01  0.39187089670E+01  0.60000000000E-02 0.  1.
</event>
<event>
 5   0  0.1211800E+10  0.9118800E+02  0.7818608E-02  0.1180000E+00
       11   -1    0    0    0    0  0.00000000000E+00  0.00000000000E+00  0.39999999673E+01  0.40000000000E+01  0.51109989000E-03 0. -1.
     -623   -1    0    0    0    0  0.00000000000E+00  0.00000000000E+00  0.12525980253E-10  0.17130000000E+03  0.17130000000E+03 0.  1.
       11    1    1    2    0    0 -0.66718618270E-03  0.80317524930E-03  0.45702371686E+00  0.45702519539E+00  0.51109989000E-03 0.  1.
     -623    1    1    2    0    0 -0.68724799292E-03  0.23599688019E-02  0.82149185836E-05  0.17130000002E+03  0.17130000000E+03 0.  1.
      622    1    1    2    0    0  0.13544341867E-02 -0.31631440893E-02  0.35429681002E+01  0.35429748516E+01  0.60000000000E-02 0. -1.
</event>
<event>
 5   0  0.1211800E+10  0.9118800E+02  0.7818608E-02  0.1180000E+00
       11   -1    0    0    0    0  0.00000000000E+00  0.00000000000E+00  0.39999999673E+01  0.40000000000E+01  0.51109989000E-03 0. -1.
     -623   -1    0    0    0    0  0.00000000000E+00  0.00000000000E+00  0.12525980253E-10  0.17130000000E+03  0.17130000000E+03 0.  1.
       11    1    1    2    0    0 -0.24960710914E-03  0.59152195179E-03  0.20213102872E+00  0.20213269452E+00  0.51109989000E-03 0. -1.
     -623    1    1    2    0    0  0.78013241825E-04  0.89311772422E-04  0.64376143794E-05  0.17130000000E+03  0.17130000000E+03 0.  1.
      622    1    1    2    0    0  0.17159386661E-03 -0.68083372501E-03  0.37978625370E+01  0.37978673414E+01  0.60000000000E-02 0. -1.
</event>
<event>
 5   0  0.1211800E+10  0.9118800E+02  0.7818608E-02  0.1180000E+00
       11   -1    0    0    0    0  0.00000000000E+00  0.00000000000E+00  0.39999999673E+01  0.40000000000E+01  0.51109989000E-03 0.  1.
     -623   -1    0    0    0    0  0.00000000000E+00  0.00000000000E+00  0.12525980253E-10  0.17130000000E+03  0.17130000000E+03 0.  1.
       11    1    1    2    0    0 -0.46894286432E-03  0.11271835484E-03  0.44021762309E-01  0.44027370950E-01  0.51109989000E-03 0.  1.
     -623    1    1    2    0    0  0.34608246955E-03 -0.36587555047E-03  0.10136833731E-04  0.17130000000E+03  0.17130000000E+03 0.  1.
      622    1    1    2    0    0  0.12286039436E-03  0.25315719607E-03  0.39559680730E+01  0.39559726331E+01  0.60000000000E-02 0.  1.
</event>
<event>
 5   0  0.1211800E+10  0.9118800E+02  0.7818608E-02  0.1180000E+00
       11   -1    0    0    0    0  0.00000000000E+00  0.00000000000E+00  0.39999999673E+01  0.40000000000E+01  0.51109989000E-03 0. -1.
     -623   -1    0    0    0    0  0.00000000000E+00  0.00000000000E+00  0.12525980253E-10  0.17130000000E+03  0.17130000000E+03 0.  1.
       11    1    1    2    0    0 -0.68690619255E-03  0.17396221351E-04  0.44642862007E+00  0.44642944144E+00  0.51109989000E-03 0. -1.
     -623    1    1    2    0    0  0.36420275254E-04  0.73291494263E-05  0.59136867376E-05  0.17130000000E+03  0.17130000000E+03 0.  1.
      622    1    1    2    0    0  0.65048591751E-03 -0.24725370733E-04  0.35535654098E+01  0.35535705348E+01  0.60000000000E-02 0. -1.
</event>
<event>
 5   0  0.1211800E+10  0.9118800E+02  0.7818608E-02  0.1180000E+00
       11   -1    0    0    0    0  0.00000000000E+00  0.00000000000E+00  0.39999999673E+01  0.40000000000E+01  0.51109989000E-03 0.  1.
     -623   -1    0    0    0    0  0.00000000000E+00  0.00000000000E+00  0.12525980253E-10  0.17130000000E+03  0.17130000000E+03 0.  1.
       11    1    1    2    0    0  0.36202711404E-03 -0.75423024825E-03  0.92643111317E-02  0.93160404660E-02  0.51109989000E-03 0.  1.
     -623    1    1    2    0    0 -0.54098563884E-03  0.56460146743E-03  0.56217513746E-04  0.17130000000E+03  0.17130000000E+03 0.  1.
      622    1    1    2    0    0  0.17895852481E-03  0.18962878081E-03  0.39906794387E+01  0.39906839577E+01  0.60000000000E-02 0.  1.
</event>
<event>
 5   0  0.1211800E+10  0.9118800E+02  0.7818608E-02  0.1180000E+00
       11   -1    0    0    0    0  0.00000000000E+00  0.00000000000E+00  0.39999999673E+01  0.40000000000E+01  0.51109989000E-03 0.  1.
     -623   -1    0    0    0    0  0.00000000000E+00  0.00000000000E+00  0.12525980253E-10  0.17130000000E+03  0.17130000000E+03 0. -1.
       11    1    1    2    0    0  0.71797421149E-02 -0.19840451629E-02  0.13787446449E+00  0.13807647994E+00  0.51109989000E-03 0.  1.
     -623    1    1    2    0    0 -0.89262458785E-02 -0.44140731344E-03  0.20803353131E-03  0.17130000023E+03  0.17130000000E+03 0. -1.
      622    1    1    2    0    0  0.17465037652E-02  0.24254524764E-02  0.38619174700E+01  0.38619232875E+01  0.60000000000E-02 0.  1.
</event>
<event>
 5   0  0.1211800E+10  0.9118800E+02  0.7818608E-02  0.1180000E+00
       11   -1    0    0    0    0  0.00000000000E+00  0.00000000000E+00  0.39999999673E+01  0.40000000000E+01  0.51109989000E-03 0. -1.
     -623   -1    0    0    0    0  0.00000000000E+00  0.00000000000E+00  0.12525980253E-10  0.17130000000E+03  0.17130000000E+03 0. -1.
       11    1    1    2    0    0  0.85346599592E-03 -0.83321498142E-03  0.18709554162E+00  0.18710004161E+00  0.51109989000E-03 0. -1.
     -623    1    1    2    0    0 -0.40728104152E-04  0.68581118102E-03  0.92790106465E-05  0.17130000000E+03  0.17130000000E+03 0. -1.
      622    1    1    2    0    0 -0.81273789125E-03  0.14740379160E-03  0.38128951981E+01  0.38129000084E+01  0.60000000000E-02 0. -1.
</event>
<event>
 5   0  0.1211800E+10  0.9118800E+02  0.7818608E-02  0.1180000E+00
       11   -1    0    0    0    0  0.00000000000E+00  0.00000000000E+00  0.39999999673E+01  0.40000000000E+01  0.51109989000E-03 0.  1.
     -623   -1    0    0    0    0  0.00000000000E+00  0.00000000000E+00  0.12525980253E-10  0.17130000000E+03  0.17130000000E+03 0.  1.
       11    1    1    2    0    0  0.94456612973E-03  0.15212409334E-02  0.13056771544E+00  0.13058099369E+00  0.51109989000E-03 0.  1.
     -623    1    1    2    0    0  0.40766389766E-04 -0.17653769679E-05  0.18321282826E-04  0.17130000000E+03  0.17130000000E+03 0.  1.
      622    1    1    2    0    0 -0.98533251950E-03 -0.15194755564E-02  0.38694139306E+01  0.38694190063E+01  0.60000000000E-02 0.  1.
</event>
<event>
 5   0  0.1211800E+10  0.9118800E+02  0.7818608E-02  0.1180000E+00
       11   -1    0    0    0    0  0.00000000000E+00  0.00000000000E+00  0.39999999673E+01  0.40000000000E+01  0.51109989000E-03 0.  1.
     -623   -1    0    0    0    0  0.00000000000E+00  0.00000000000E+00  0.12525980253E-10  0.17130000000E+03  0.17130000000E+03 0. -1.
       11    1    1    2    0    0 -0.17830650849E-02 -0.21263469935E-02  0.39880731077E+00  0.39881729278E+00  0.51109989000E-03 0.  1.
     -623    1    1    2    0    0  0.16933935679E-03  0.70521737786E-04  0.15896203233E-04  0.17130000000E+03  0.17130000000E+03 0. -1.
      622    1    1    2    0    0  0.16137257281E-02  0.20558252557E-02  0.36011767612E+01  0.36011827080E+01  0.60000000000E-02 0.  0.
</event>
<event>
 5   0  0.1211800E+10  0.9118800E+02  0.7818608E-02  0.1180000E+00
       11   -1    0    0    0    0  0.00000000000E+00  0.00000000000E+00  0.39999999673E+01  0.40000000000E+01  0.51109989000E-03 0. -1.
     -623   -1    0    0    0    0  0.00000000000E+00  0.00000000000E+00  0.12525980253E-10  0.17130000000E+03  0.17130000000E+03 0. -1.
       11    1    1    2    0    0  0.28850313826E-02  0.64631854140E-02  0.50506029942E+00  0.50511014981E+00  0.51109989000E-03 0. -1.
     -623    1    1    2    0    0  0.75399109375E-04 -0.27642612909E-04  0.62147285538E-04  0.17130000000E+03  0.17130000000E+03 0. -1.
      622    1    1    2    0    0 -0.29604304920E-02 -0.64355428011E-02  0.34948775207E+01  0.34948898502E+01  0.60000000000E-02 0. -1.
</event>
<event>
 5   0  0.1211800E+10  0.9118800E+02  0.7818608E-02  0.1180000E+00
       11   -1    0    0    0    0  0.00000000000E+00  0.00000000000E+00  0.39999999673E+01  0.40000000000E+01  0.51109989000E-03 0.  1.
     -623   -1    0    0    0    0  0.00000000000E+00  0.00000000000E+00  0.12525980253E-10  0.17130000000E+03  0.17130000000E+03 0. -1.
       11    1    1    2    0    0  0.54286188604E-02  0.11682406136E-02  0.50412324175E+00  0.50415408238E+00  0.51109989000E-03 0.  1.
     -623    1    1    2    0    0  0.61789737726E-04  0.22977301269E-04  0.40471435014E-04  0.17130000000E+03  0.17130000000E+03 0. -1.
      622    1    1    2    0    0 -0.54904085981E-02 -0.11912179148E-02  0.34958362540E+01  0.34958459174E+01  0.60000000000E-02 0.  1.
</event>
<event>
 5   0  0.1211800E+10  0.9118800E+02  0.7818608E-02  0.1180000E+00
       11   -1    0    0    0    0  0.00000000000E+00  0.00000000000E+00  0.39999999673E+01  0.40000000000E+01  0.51109989000E-03 0. -1.
     -623   -1    0    0    0    0  0.00000000000E+00  0.00000000000E+00  0.12525980253E-10  0.17130000000E+03  0.17130000000E+03 0.  1.
       11    1    1    2    0    0 -0.22192746212E-02  0.11004372331E-02  0.43557719402E+00  0.43558453751E+00  0.51109989000E-03 0. -1.
     -623    1    1    2    0    0  0.11301666821E-02  0.22505543893E-02  0.14120844640E-04  0.17130000002E+03  0.17130000000E+03 0.  1.
      622    1    1    2    0    0  0.10891079338E-02 -0.33509916330E-02  0.35644086713E+01  0.35644154628E+01  0.60000000000E-02 0. -1.
</event>
<event>
 5   0  0.1211800E+10  0.9118800E+02  0.7818608E-02  0.1180000E+00
       11   -1    0    0    0    0  0.00000000000E+00  0.00000000000E+00  0.39999999673E+01  0.40000000000E+01  0.51109989000E-03 0.  1.
     -623   -1    0    0    0    0  0.00000000000E+00  0.00000000000E+00  0.12525980253E-10  0.17130000000E+03  0.17130000000E+03 0.  1.
       11    1    1    2    0    0 -0.33714626595E-03 -0.55901261655E-05  0.18072051474E+00  0.18072155203E+00  0.51109989000E-03 0.  1.
     -623    1    1    2    0    0  0.68208157664E-04  0.53034547823E-04  0.57273699676E-05  0.17130000000E+03  0.17130000000E+03 0.  1.
      622    1    1    2    0    0  0.26893810828E-03 -0.47444421657E-04  0.38192737253E+01  0.38192784480E+01  0.60000000000E-02 0.  1.
</event>
<event>
 5   0  0.1211800E+10  0.9118800E+02  0.7818608E-02  0.1180000E+00
       11   -1    0    0    0    0  0.00000000000E+00  0.00000000000E+00  0.39999999673E+01  0.40000000000E+01  0.51109989000E-03 0. -1.
     -623   -1    0    0    0    0  0.00000000000E+00  0.00000000000E+00  0.12525980253E-10  0.17130000000E+03  0.17130000000E+03 0. -1.
       11    1    1    2    0    0  0.20203158834E-02 -0.82913321685E-04  0.67628733627E-02  0.70771625286E-02  0.51109989000E-03 0.  1.
     -623    1    1    2    0    0 -0.13201630292E-02  0.30899352585E-03  0.31883795285E-03  0.17130000001E+03  0.17130000000E+03 0. -1.
      622    1    1    2    0    0 -0.70015285425E-03 -0.22608020416E-03  0.39929182560E+01  0.39929228318E+01  0.60000000000E-02 0. -1.
</event>
<event>
 5   0  0.1211800E+10  0.9118800E+02  0.7818608E-02  0.1180000E+00
       11   -1    0    0    0    0  0.00000000000E+00  0.00000000000E+00  0.39999999673E+01  0.40000000000E+01  0.51109989000E-03 0.  1.
     -623   -1    0    0    0    0  0.00000000000E+00  0.00000000000E+00  0.12525980253E-10  0.17130000000E+03  0.17130000000E+03 0.  1.
       11    1    1    2    0    0  0.15924143543E-04 -0.22338312859E-02  0.92452730134E-02  0.95250486604E-02  0.51109989000E-03 0.  1.
     -623    1    1    2    0    0 -0.42030074758E-02 -0.75226363549E-03  0.28762115645E-03  0.17130000005E+03  0.17130000000E+03 0.  1.
      622    1    1    2    0    0  0.41870833344E-02  0.29860949218E-02  0.39904670752E+01  0.39904748999E+01  0.60000000000E-02 0.  1.
</event>
<event>
 5   0  0.1211800E+10  0.9118800E+02  0.7818608E-02  0.1180000E+00
       11   -1    0    0    0    0  0.00000000000E+00  0.00000000000E+00  0.39999999673E+01  0.40000000000E+01  0.51109989000E-03 0.  1.
     -623   -1    0    0    0    0  0.00000000000E+00  0.00000000000E+00  0.12525980253E-10  0.17130000000E+03  0.17130000000E+03 0.  1.
       11    1    1    2    0    0  0.15456546644E-03 -0.45329749922E-02  0.45255395606E+00  0.45257697259E+00  0.51109989000E-03 0.  1.
     -623    1    1    2    0    0  0.38475677030E-03  0.21528364740E-03  0.30727180210E-04  0.17130000000E+03  0.17130000000E+03 0.  1.
      622    1    1    2    0    0 -0.53932223706E-03  0.43176913446E-02  0.35474152876E+01  0.35474230303E+01  0.60000000000E-02 0.  1.
</event>
<event>
 5   0  0.1211800E+10  0.9118800E+02  0.7818608E-02  0.1180000E+00
       11   -1    0    0    0    0  0.00000000000E+00  0.00000000000E+00  0.39999999673E+01  0.40000000000E+01  0.51109989000E-03 0.  1.
     -623   -1    0    0    0    0  0.00000000000E+00  0.00000000000E+00  0.12525980253E-10  0.17130000000E+03  0.17130000000E+03 0.  1.
       11    1    1    2    0    0 -0.24933416159E-02  0.15036542369E-02  0.28994693933E-01  0.29145003462E-01  0.51109989000E-03 0.  1.
     -623    1    1    2    0    0 -0.38562388123E-03  0.27256030719E-03  0.15625156662E-03  0.17130000000E+03  0.17130000000E+03 0.  1.
      622    1    1    2    0    0  0.28789654972E-02 -0.17762145441E-02  0.39708490219E+01  0.39708549958E+01  0.60000000000E-02 0.  1.
</event>
<event>
 5   0  0.1211800E+10  0.9118800E+02  0.7818608E-02  0.1180000E+00
       11   -1    0    0    0    0  0.00000000000E+00  0.00000000000E+00  0.39999999673E+01  0.40000000000E+01  0.51109989000E-03 0. -1.
     -623   -1    0    0    0    0  0.00000000000E+00  0.00000000000E+00  0.12525980253E-10  0.17130000000E+03  0.17130000000E+03 0. -1.
       11    1    1    2    0    0  0.14022017851E-02 -0.30763194166E-03  0.45468534524E+00  0.45468789867E+00  0.51109989000E-03 0. -1.
     -623    1    1    2    0    0 -0.14944846557E-04 -0.29769803962E-04  0.78853997083E-05  0.17130000000E+03  0.17130000000E+03 0. -1.
      622    1    1    2    0    0 -0.13872569385E-02  0.33740174563E-03  0.35453067367E+01  0.35453121013E+01  0.60000000000E-02 0. -1.
</event>
<event>
 5   0  0.1211800E+10  0.9118800E+02  0.7818608E-02  0.1180000E+00
       11   -1    0    0    0    0  0.00000000000E+00  0.00000000000E+00  0.39999999673E+01  0.40000000000E+01  0.51109989000E-03 0. -1.
     -623   -1    0    0    0    0  0.00000000000E+00  0.00000000000E+00  0.12525980253E-10  0.17130000000E+03  0.17130000000E+03 0. -1.
       11    1    1    2    0    0  0.18298612098E-03  0.11097759324E-03  0.14881268902E+00  0.14881372059E+00  0.51109989000E-03 0. -1.
     -623    1    1    2    0    0  0.67823057878E-03 -0.15759701899E-02  0.60563425968E-05  0.17130000001E+03  0.17130000000E+03 0. -1.
      622    1    1    2    0    0 -0.86121669975E-03  0.14649925967E-02  0.38511812220E+01  0.38511862708E+01  0.60000000000E-02 0. -1.
</event>
<event>
 5   0  0.1211800E+10  0.9118800E+02  0.7818608E-02  0.1180000E+00
       11   -1    0    0    0    0  0.00000000000E+00  0.00000000000E+00  0.39999999673E+01  0.40000000000E+01  0.51109989000E-03 0.  1.
     -623   -1    0    0    0    0  0.00000000000E+00  0.00000000000E+00  0.12525980253E-10  0.17130000000E+03  0.17130000000E+03 0.  1.
       11    1    1    2    0    0  0.66601662391E-03 -0.56111864290E-04  0.31623732460E-01  0.31634923810E-01  0.51109989000E-03 0.  1.
     -623    1    1    2    0    0 -0.22251278842E-04  0.19901095741E-02  0.16229636475E-04  0.17130000001E+03  0.17130000000E+03 0.  1.
      622    1    1    2    0    0 -0.64376534491E-03 -0.19339977241E-02  0.39683600339E+01  0.39683650933E+01  0.60000000000E-02 0.  1.
</event>
<event>
 5   0  0.1211800E+10  0.9118800E+02  0.7818608E-02  0.1180000E+00
       11   -1    0    0    0    0  0.00000000000E+00  0.00000000000E+00  0.39999999673E+01  0.40000000000E+01  0.51109989000E-03 0.  1.
     -623   -1    0    0    0    0  0.00000000000E+00  0.00000000000E+00  0.12525980253E-10  0.17130000000E+03  0.17130000000E+03 0. -1.
       11    1    1    2    0    0  0.81712879960E-03 -0.24549405906E-03  0.19454103653E+00  0.19454357888E+00  0.51109989000E-03 0.  1.
     -623    1    1    2    0    0 -0.60052818141E-03 -0.18780442417E-03  0.72717519073E-05  0.17130000000E+03  0.17130000000E+03 0. -1.
      622    1    1    2    0    0 -0.21660061820E-03  0.43329848323E-03  0.38054516591E+01  0.38054564200E+01  0.60000000000E-02 0.  1.
</event>
<event>
 5   0  0.1211800E+10  0.9118800E+02  0.7818608E-02  0.1180000E+00
       11   -1    0    0    0    0  0.00000000000E+00  0.00000000000E+00  0.39999999673E+01  0.40000000000E+01  0.51109989000E-03 0.  1.
     -623   -1    0    0    0    0  0.00000000000E+00  0.00000000000E+00  0.12525980253E-10  0.17130000000E+03  0.17130000000E+03 0.  1.
       11    1    1    2    0    0 -0.65721769311E-03 -0.10272081311E-02  0.20476325009E+00  0.20476751916E+00  0.51109989000E-03 0.  1.
     -623    1    1    2    0    0  0.13254216834E-03 -0.13697218135E-03  0.91941520495E-05  0.17130000000E+03  0.17130000000E+03 0.  1.
      622    1    1    2    0    0  0.52467552394E-03  0.11641803133E-02  0.37952275479E+01  0.37952325055E+01  0.60000000000E-02 0.  1.
</event>
<event>
 5   0  0.1211800E+10  0.9118800E+02  0.7818608E-02  0.1180000E+00
       11   -1    0    0    0    0  0.00000000000E+00  0.00000000000E+00  0.39999999673E+01  0.40000000000E+01  0.51109989000E-03 0. -1.
     -623   -1    0    0    0    0  0.00000000000E+00  0.00000000000E+00  0.12525980253E-10  0.17130000000E+03  0.17130000000E+03 0.  1.
       11    1    1    2    0    0 -0.70323716876E-02  0.24585850513E-02  0.60534417985E+00  0.60539023464E+00  0.51109989000E-03 0. -1.
     -623    1    1    2    0    0  0.62841452055E-02 -0.40413371013E-02  0.51939064445E-04  0.17130000016E+03  0.17130000000E+03 0.  1.
      622    1    1    2    0    0  0.74822648210E-03  0.15827520500E-02  0.33946038484E+01  0.33946096024E+01  0.60000000000E-02 0. -1.
</event>
<event>
 5   0  0.1211800E+10  0.9118800E+02  0.7818608E-02  0.1180000E+00
       11   -1    0    0    0    0  0.00000000000E+00  0.00000000000E+00  0.39999999673E+01  0.40000000000E+01  0.51109989000E-03 0.  1.
     -623   -1    0    0    0    0  0.00000000000E+00  0.00000000000E+00  0.12525980253E-10  0.17130000000E+03  0.17130000000E+03 0.  1.
       11    1    1    2    0    0  0.44835420140E-02 -0.32649277298E-02  0.42898408241E-01  0.43258485326E-01  0.51109989000E-03 0.  1.
     -623    1    1    2    0    0 -0.25877140849E-02  0.37999274625E-02  0.36514607973E-03  0.17130000006E+03  0.17130000000E+03 0.  1.
      622    1    1    2    0    0 -0.18958279291E-02 -0.53499973273E-03  0.39567364130E+01  0.39567414526E+01  0.60000000000E-02 0.  1.
</event>
<event>
 5   0  0.1211800E+10  0.9118800E+02  0.7818608E-02  0.1180000E+00
       11   -1    0    0    0    0  0.00000000000E+00  0.00000000000E+00  0.39999999673E+01  0.40000000000E+01  0.51109989000E-03 0. -1.
     -623   -1    0    0    0    0  0.00000000000E+00  0.00000000000E+00  0.12525980253E-10  0.17130000000E+03  0.17130000000E+03 0. -1.
       11    1    1    2    0    0 -0.29683718700E-02  0.35823655915E-02  0.26978059435E+00  0.26982119058E+00  0.51109989000E-03 0. -1.
     -623    1    1    2    0    0  0.90268066828E-03 -0.29709095455E-02  0.46039329067E-04  0.17130000003E+03  0.17130000000E+03 0. -1.
      622    1    1    2    0    0  0.20656911995E-02 -0.61145603881E-03  0.37301733434E+01  0.37301787910E+01  0.60000000000E-02 0. -1.
</event>
<event>
 5   0  0.1211800E+10  0.9118800E+02  0.7818608E-02  0.1180000E+00
       11   -1    0    0    0    0  0.00000000000E+00  0.00000000000E+00  0.39999999673E+01  0.40000000000E+01  0.51109989000E-03 0.  1.
     -623   -1    0    0    0    0  0.00000000000E+00  0.00000000000E+00  0.12525980253E-10  0.17130000000E+03  0.17130000000E+03 0. -1.
       11    1    1    2    0    0  0.42828731897E-03 -0.17678674755E-03  0.11676368825E+00  0.11676572613E+00  0.51109989000E-03 0.  1.
     -623    1    1    2    0    0  0.28507997783E-04  0.28331820392E-03  0.66691177434E-05  0.17130000000E+03  0.17130000000E+03 0. -1.
      622    1    1    2    0    0 -0.45679531675E-03 -0.10653145637E-03  0.38832296100E+01  0.38832342736E+01  0.60000000000E-02 0.  1.
</event>
<event>
 5   0  0.1211800E+10  0.9118800E+02  0.7818608E-02  0.1180000E+00
       11   -1    0    0    0    0  0.00000000000E+00  0.00000000000E+00  0.39999999673E+01  0.40000000000E+01  0.51109989000E-03 0.  1.
     -623   -1    0    0    0    0  0.00000000000E+00  0.00000000000E+00  0.12525980253E-10  0.17130000000E+03  0.17130000000E+03 0. -1.
       11    1    1    2    0    0  0.10867380797E-03 -0.26832225963E-02  0.91242935891E+00  0.91243345386E+00  0.51109989000E-03 0.  1.
     -623    1    1    2    0    0 -0.27068022131E-02 -0.30691057113E-02  0.16392655156E-04  0.17130000005E+03  0.17130000000E+03 0. -1.
      622    1    1    2    0    0  0.25981284052E-02  0.57523283077E-02  0.30875542158E+01  0.30875664973E+01  0.60000000000E-02 0.  1.
</event>
<event>
 5   0  0.1211800E+10  0.9118800E+02  0.7818608E-02  0.1180000E+00
       11   -1    0    0    0    0  0.00000000000E+00  0.00000000000E+00  0.39999999673E+01  0.40000000000E+01  0.51109989000E-03 0.  1.
     -623   -1    0    0    0    0  0.00000000000E+00  0.00000000000E+00  0.12525980253E-10  0.17130000000E+03  0.17130000000E+03 0. -1.
       11    1    1    2    0    0  0.51486816668E-03 -0.91577219909E-02  0.10248357852E+01  0.10248769569E+01  0.51109989000E-03 0.  1.
     -623    1    1    2    0    0  0.13055681745E-04  0.69058726617E-04  0.61118589719E-04  0.17130000000E+03  0.17130000000E+03 0. -1.
      622    1    1    2    0    0 -0.52792384843E-03  0.90886632643E-02  0.29751030636E+01  0.29751230431E+01  0.60000000000E-02 0.  1.
</event>
<event>
 5   0  0.1211800E+10  0.9118800E+02  0.7818608E-02  0.1180000E+00
       11   -1    0    0    0    0  0.00000000000E+00  0.00000000000E+00  0.39999999673E+01  0.40000000000E+01  0.51109989000E-03 0.  1.
     -623   -1    0    0    0    0  0.00000000000E+00  0.00000000000E+00  0.12525980253E-10  0.17130000000E+03  0.17130000000E+03 0.  1.
       11    1    1    2    0    0 -0.94716320905E-03  0.23565116643E-03  0.53447260469E-01  0.53458615056E-01  0.51109989000E-03 0.  1.
     -623    1    1    2    0    0 -0.27033539764E-03  0.30553077484E-03  0.16108295136E-04  0.17130000000E+03  0.17130000000E+03 0.  1.
      622    1    1    2    0    0  0.12174986067E-02 -0.54118194128E-03  0.39465365986E+01  0.39465413845E+01  0.60000000000E-02 0.  1.
</event>
<event>
 5   0  0.1211800E+10  0.9118800E+02  0.7818608E-02  0.1180000E+00
       11   -1    0    0    0    0  0.00000000000E+00  0.00000000000E+00  0.39999999673E+01  0.40000000000E+01  0.51109989000E-03 0.  1.
     -623   -1    0    0    0    0  0.00000000000E+00  0.00000000000E+00  0.12525980253E-10  0.17130000000E+03  0.17130000000E+03 0. -1.
       11    1    1    2    0    0  0.67246977621E-02 -0.13814388980E-02  0.25268223550E+00  0.25277599430E+00  0.51109989000E-03 0.  1.
     -623    1    1    2    0    0 -0.21227254801E-02  0.27679633047E-02  0.10164762959E-03  0.17130000004E+03  0.17130000000E+03 0. -1.
      622    1    1    2    0    0 -0.46019722821E-02 -0.13865244067E-02  0.37472160842E+01  0.37472239702E+01  0.60000000000E-02 0.  1.
</event>
<event>
 5   0  0.1211800E+10  0.9118800E+02  0.7818608E-02  0.1180000E+00
       11   -1    0    0    0    0  0.00000000000E+00  0.00000000000E+00  0.39999999673E+01  0.40000000000E+01  0.51109989000E-03 0.  1.
     -623   -1    0    0    0    0  0.00000000000E+00  0.00000000000E+00  0.12525980253E-10  0.17130000000E+03  0.17130000000E+03 0.  1.
       11    1    1    2    0    0 -0.49732851214E-03  0.60825084252E-03  0.48924831749E-02  0.49814575628E-02  0.51109989000E-03 0. -1.
     -623    1    1    2    0    0 -0.14018178823E-03  0.10766309753E-03  0.93562490618E-04  0.17130000000E+03  0.17130000000E+03 0.  1.
      622    1    1    2    0    0  0.63751030042E-03 -0.71591394008E-03  0.39950139231E+01  0.39950185437E+01  0.60000000000E-02 0.  1.
</event>
<event>
 5   0  0.1211800E+10  0.9118800E+02  0.7818608E-02  0.1180000E+00
       11   -1    0    0    0    0  0.00000000000E+00  0.00000000000E+00  0.39999999673E+01  0.40000000000E+01  0.51109989000E-03 0.  1.
     -623   -1    0    0    0    0  0.00000000000E+00  0.00000000000E+00  0.12525980253E-10  0.17130000000E+03  0.17130000000E+03 0. -1.
       11    1    1    2    0    0 -0.55857733836E-02  0.66421138708E-02  0.11736420719E+01  0.11736742703E+01  0.51109989000E-03 0.  1.
     -623    1    1    2    0    0  0.17704450809E-01 -0.14390968289E-01  0.76657740204E-04  0.17130000152E+03  0.17130000000E+03 0. -1.
      622    1    1    2    0    0 -0.12118677558E-01  0.77488545256E-02  0.28262812676E+01  0.28263242401E+01  0.60000000000E-02 0.  1.
</event>
<event>
 5   0  0.1211800E+10  0.9118800E+02  0.7818608E-02  0.1180000E+00
       11   -1    0    0    0    0  0.00000000000E+00  0.00000000000E+00  0.39999999673E+01  0.40000000000E+01  0.51109989000E-03 0. -1.
     -623   -1    0    0    0    0  0.00000000000E+00  0.00000000000E+00  0.12525980253E-10  0.17130000000E+03  0.17130000000E+03 0.  1.
       11    1    1    2    0    0  0.15307615369E-02 -0.62174747428E-03  0.13296723814E+00  0.13297848487E+00  0.51109989000E-03 0. -1.
     -623    1    1    2    0    0 -0.99064304497E-07  0.44097241607E-04  0.16214929325E-04  0.17130000000E+03  0.17130000000E+03 0.  1.
      622    1    1    2    0    0 -0.15306624725E-02  0.57765023267E-03  0.38670165143E+01  0.38670215151E+01  0.60000000000E-02 0. -1.
</event>
<event>
 5   0  0.1211800E+10  0.9118800E+02  0.7818608E-02  0.1180000E+00
       11   -1    0    0    0    0  0.00000000000E+00  0.00000000000E+00  0.39999999673E+01  0.40000000000E+01  0.51109989000E-03 0. -1.
     -623   -1    0    0    0    0  0.00000000000E+00  0.00000000000E+00  0.12525980253E-10  0.17130000000E+03  0.17130000000E+03 0.  1.
       11    1    1    2    0    0  0.33464357929E-03  0.20876106806E-03  0.31480493709E-01  0.31487112837E-01  0.51109989000E-03 0. -1.
     -623    1    1    2    0    0 -0.44759566723E-03 -0.32785912971E-03  0.11126487248E-04  0.17130000000E+03  0.17130000000E+03 0.  1.
      622    1    1    2    0    0  0.11295208933E-03  0.11909806267E-03  0.39685083596E+01  0.39685128987E+01  0.60000000000E-02 0. -1.
</event>
<event>
 5   0  0.1211800E+10  0.9118800E+02  0.7818608E-02  0.1180000E+00
       11   -1    0    0    0    0  0.00000000000E+00  0.00000000000E+00  0.39999999673E+01  0.40000000000E+01  0.51109989000E-03 0.  1.
     -623   -1    0    0    0    0  0.00000000000E+00  0.00000000000E+00  0.12525980253E-10  0.17130000000E+03  0.17130000000E+03 0. -1.
       11    1    1    2    0    0  0.96783402073E-03 -0.14016593769E-02  0.17971280545E+00  0.17972160420E+00  0.51109989000E-03 0.  1.
     -623    1    1    2    0    0  0.90638006893E-04  0.17098295791E-03  0.13822777504E-04  0.17130000000E+03  0.17130000000E+03 0. -1.
      622    1    1    2    0    0 -0.10584720276E-02  0.12306764190E-02  0.38202733391E+01  0.38202783957E+01  0.60000000000E-02 0.  1.
</event>
<event>
 5   0  0.1211800E+10  0.9118800E+02  0.7818608E-02  0.1180000E+00
       11   -1    0    0    0    0  0.00000000000E+00  0.00000000000E+00  0.39999999673E+01  0.40000000000E+01  0.51109989000E-03 0.  1.
     -623   -1    0    0    0    0  0.00000000000E+00  0.00000000000E+00  0.12525980253E-10  0.17130000000E+03  0.17130000000E+03 0. -1.
       11    1    1    2    0    0  0.47466977485E-03 -0.43578778549E-03  0.43047004870E-01  0.43054861210E-01  0.51109989000E-03 0.  1.
     -623    1    1    2    0    0 -0.38918860301E-03  0.53732871154E-03  0.12376177033E-04  0.17130000000E+03  0.17130000000E+03 0. -1.
      622    1    1    2    0    0 -0.85481168889E-04 -0.10154093013E-03  0.39569406166E+01  0.39569451678E+01  0.60000000000E-02 0.  1.
</event>
<event>
 5   0  0.1211800E+10  0.9118800E+02  0.7818608E-02  0.1180000E+00
       11   -1    0    0    0    0  0.00000000000E+00  0.00000000000E+00  0.39999999673E+01  0.40000000000E+01  0.51109989000E-03 0.  1.
     -623   -1    0    0    0    0  0.00000000000E+00  0.00000000000E+00  0.12525980253E-10  0.17130000000E+03  0.17130000000E+03 0.  1.
       11    1    1    2    0    0 -0.57392742543E-02 -0.13819365478E-02  0.14197784284E+00  0.14210143595E+00  0.51109989000E-03 0.  1.
     -623    1    1    2    0    0  0.99324149761E-03 -0.22482129992E-03  0.13148321344E-03  0.17130000000E+03  0.17130000000E+03 0.  1.
      622    1    1    2    0    0  0.47460327562E-02  0.16067578478E-02  0.38578906432E+01  0.38578985629E+01  0.60000000000E-02 0.  1.
</event>
<event>
 5   0  0.1211800E+10  0.9118800E+02  0.7818608E-02  0.1180000E+00
       11   -1    0    0    0    0  0.00000000000E+00  0.00000000000E+00  0.39999999673E+01  0.40000000000E+01  0.51109989000E-03 0. -1.
     -623   -1    0    0    0    0  0.00000000000E+00  0.00000000000E+00  0.12525980253E-10  0.17130000000E+03  0.17130000000E+03 0.  1.
       11    1    1    2    0    0  0.47068153937E-02  0.62784741944E-02  0.27992236479E+00  0.28003279251E+00  0.51109989000E-03 0. -1.
     -623    1    1    2    0    0  0.75656955062E-02 -0.54317409510E-02  0.13582759915E-03  0.17130000025E+03  0.17130000000E+03 0.  1.
      622    1    1    2    0    0 -0.12272510897E-01 -0.84673324582E-03  0.37199417732E+01  0.37199669524E+01  0.60000000000E-02 0. -1.
</event>
<event>
 5   0  0.1211800E+10  0.9118800E+02  0.7818608E-02  0.1180000E+00
       11   -1    0    0    0    0  0.00000000000E+00  0.00000000000E+00  0.39999999673E+01  0.40000000000E+01  0.51109989000E-03 0.  1.
     -623   -1    0    0    0    0  0.00000000000E+00  0.00000000000E+00  0.12525980253E-10  0.17130000000E+03  0.17130000000E+03 0. -1.
       11    1    1    2    0    0 -0.47477122901E-03  0.60287032891E-04  0.16328132292E-01  0.16343138300E-01  0.51109989000E-03 0. -1.
     -623    1    1    2    0    0 -0.33936942561E-03 -0.48221220803E-03  0.19598384929E-04  0.17130000000E+03  0.17130000000E+03 0. -1.
      622    1    1    2    0    0  0.81414065340E-03  0.42192517340E-03  0.39836522222E+01  0.39836568462E+01  0.60000000000E-02 0.  1.
</event>
<event>
 5   0  0.1211800E+10  0.9118800E+02  0.7818608E-02  0.1180000E+00
       11   -1    0    0    0    0  0.00000000000E+00  0.00000000000E+00  0.39999999673E+01  0.40000000000E+01  0.51109989000E-03 0.  1.
     -623   -1    0    0    0    0  0.00000000000E+00  0.00000000000E+00  0.12525980253E-10  0.17130000000E+03  0.17130000000E+03 0.  1.
       11    1    1    2    0    0  0.12843802617E-02 -0.22259374062E-02  0.27067838179E+00  0.27069106380E+00  0.51109989000E-03 0.  1.
     -623    1    1    2    0    0 -0.37347057293E-03  0.11558711402E-03  0.18184804645E-04  0.17130000000E+03  0.17130000000E+03 0.  1.
      622    1    1    2    0    0 -0.91090968881E-03  0.21103502922E-02  0.37293034008E+01  0.37293089357E+01  0.60000000000E-02 0.  1.
</event>
<event>
 5   0  0.1211800E+10  0.9118800E+02  0.7818608E-02  0.1180000E+00
       11   -1    0    0    0    0  0.00000000000E+00  0.00000000000E+00  0.39999999673E+01  0.40000000000E+01  0.51109989000E-03 0.  1.
     -623   -1    0    0    0    0  0.00000000000E+00  0.00000000000E+00  0.12525980253E-10  0.17130000000E+03  0.17130000000E+03 0. -1.
       11    1    1    2    0    0 -0.31112748364E-03  0.38274917573E-04  0.11206951074E-01  0.11222978248E-01  0.51109989000E-03 0.  1.
     -623    1    1    2    0    0  0.48766406534E-04 -0.48617254504E-04  0.20515854667E-04  0.17130000000E+03  0.17130000000E+03 0. -1.
      622    1    1    2    0    0  0.26236107728E-03  0.10342336752E-04  0.39887724857E+01  0.39887770070E+01  0.60000000000E-02 0.  1.
</event>
<event>
 5   0  0.1211800E+10  0.9118800E+02  0.7818608E-02  0.1180000E+00
       11   -1    0    0    0    0  0.00000000000E+00  0.00000000000E+00  0.39999999673E+01  0.40000000000E+01  0.51109989000E-03 0.  1.
     -623   -1    0    0    0    0  0.00000000000E+00  0.00000000000E+00  0.12525980253E-10  0.17130000000E+03  0.17130000000E+03 0.  1.
       11    1    1    2    0    0 -0.22370750578E-03 -0.58885961514E-03  0.26285107077E-01  0.26297621144E-01  0.51109989000E-03 0.  1.
     -623    1    1    2    0    0  0.57728663846E-04 -0.13951100692E-04  0.17060410944E-04  0.17130000000E+03  0.17130000000E+03 0.  1.
      622    1    1    2    0    0  0.16597884166E-03  0.60281071590E-03  0.39736978190E+01  0.39737023980E+01  0.60000000000E-02 0.  1.
</event>
<event>
 5   0  0.1211800E+10  0.9118800E+02  0.7818608E-02  0.1180000E+00
       11   -1    0    0    0    0  0.00000000000E+00  0.00000000000E+00  0.39999999673E+01  0.40000000000E+01  0.51109989000E-03 0.  1.
     -623   -1    0    0    0    0  0.00000000000E+00  0.00000000000E+00  0.12525980253E-10  0.17130000000E+03  0.17130000000E+03 0. -1.
       11    1    1    2    0    0 -0.49070598635E-03  0.11785557411E-02  0.34737924436E+00  0.34738196617E+00  0.51109989000E-03 0.  1.
     -623    1    1    2    0    0  0.27751782891E-03  0.43506344193E-06  0.78138705559E-05  0.17130000000E+03  0.17130000000E+03 0. -1.
      622    1    1    2    0    0  0.21318815309E-03 -0.11789908045E-02  0.36526129718E+01  0.36526180963E+01  0.60000000000E-02 0.  1.
</event>
<event>
 5   0  0.1211800E+10  0.9118800E+02  0.7818608E-02  0.1180000E+00
       11   -1    0    0    0    0  0.00000000000E+00  0.00000000000E+00  0.39999999673E+01  0.40000000000E+01  0.51109989000E-03 0. -1.
     -623   -1    0    0    0    0  0.00000000000E+00  0.00000000000E+00  0.12525980253E-10  0.17130000000E+03  0.17130000000E+03 0. -1.
       11    1    1    2    0    0  0.14485301025E-02 -0.70388213751E-03  0.63085656033E+00  0.63085882306E+00  0.51109989000E-03 0. -1.
     -623    1    1    2    0    0 -0.18406433398E-03 -0.42015148635E-03  0.79980958732E-05  0.17130000000E+03  0.17130000000E+03 0. -1.
      622    1    1    2    0    0 -0.12644657704E-02  0.11240336196E-02  0.33691353686E+01  0.33691411360E+01  0.60000000000E-02 0. -1.
</event>
<event>
 5   0  0.1211800E+10  0.9118800E+02  0.7818608E-02  0.1180000E+00
       11   -1    0    0    0    0  0.00000000000E+00  0.00000000000E+00  0.39999999673E+01  0.40000000000E+01  0.51109989000E-03 0.  1.
     -623   -1    0    0    0    0  0.00000000000E+00  0.00000000000E+00  0.12525980253E-10  0.17130000000E+03  0.17130000000E+03 0.  1.
       11    1    1    2    0    0  0.78085926953E-04 -0.96778928290E-05  0.12817512009E+00  0.12817616324E+00  0.51109989000E-03 0.  1.
     -623    1    1    2    0    0 -0.21248749519E-05  0.35897261746E-04  0.56603223242E-05  0.17130000000E+03  0.17130000000E+03 0.  1.
      622    1    1    2    0    0 -0.75961052001E-04 -0.26219368917E-04  0.38718191869E+01  0.38718238368E+01  0.60000000000E-02 0.  1.
</event>
<event>
 5   0  0.1211800E+10  0.9118800E+02  0.7818608E-02  0.1180000E+00
       11   -1    0    0    0    0  0.00000000000E+00  0.00000000000E+00  0.39999999673E+01  0.40000000000E+01  0.51109989000E-03 0.  1.
     -623   -1    0    0    0    0  0.00000000000E+00  0.00000000000E+00  0.12525980253E-10  0.17130000000E+03  0.17130000000E+03 0.  1.
       11    1    1    2    0    0  0.32023859882E-02  0.44936776213E-04  0.17250090626E+00  0.17253139186E+00  0.51109989000E-03 0.  1.
     -623    1    1    2    0    0 -0.75268909789E-03  0.90653725637E-02  0.47023702951E-04  0.17130000024E+03  0.17130000000E+03 0.  1.
      622    1    1    2    0    0 -0.24496968914E-02 -0.91103093269E-02  0.38274520316E+01  0.38274683608E+01  0.60000000000E-02 0.  1.
</event>
<event>
 5   0  0.1211800E+10  0.9118800E+02  0.7818608E-02  0.1180000E+00
       11   -1    0    0    0    0  0.00000000000E+00  0.00000000000E+00  0.39999999673E+01  0.40000000000E+01  0.51109989000E-03 0.  1.
     -623   -1    0    0    0    0  0.00000000000E+00  0.00000000000E+00  0.12525980253E-10  0.17130000000E+03  0.17130000000E+03 0.  1.
       11    1    1    2    0    0  0.66793949674E-03  0.57306322872E-03  0.25139937290E+00  0.25140143289E+00  0.51109989000E-03 0.  1.
     -623    1    1    2    0    0 -0.34603870518E-04  0.37317054941E-04  0.69323570653E-05  0.17130000000E+03  0.17130000000E+03 0.  1.
      622    1    1    2    0    0 -0.63333562608E-03 -0.61038028381E-03  0.37485936779E+01  0.37485985829E+01  0.60000000000E-02 0.  1.
</event>
<event>
 5   0  0.1211800E+10  0.9118800E+02  0.7818608E-02  0.1180000E+00
       11   -1    0    0    0    0  0.00000000000E+00  0.00000000000E+00  0.39999999673E+01  0.40000000000E+01  0.51109989000E-03 0.  1.
     -623   -1    0    0    0    0  0.00000000000E+00  0.00000000000E+00  0.12525980253E-10  0.17130000000E+03  0.17130000000E+03 0. -1.
       11    1    1    2    0    0  0.20877633254E-02 -0.19154061738E-02  0.10244463650E+01  0.10244504105E+01  0.51109989000E-03 0.  1.
     -623    1    1    2    0    0  0.98160087641E-04  0.25206628251E-03  0.11330186409E-04  0.17130000000E+03  0.17130000000E+03 0. -1.
      622    1    1    2    0    0 -0.21859234129E-02  0.16633398917E-02  0.29755422657E+01  0.29755495829E+01  0.60000000000E-02 0.  1.
</event>
<event>
 5   0  0.1211800E+10  0.9118800E+02  0.7818608E-02  0.1180000E+00
       11   -1    0    0    0    0  0.00000000000E+00  0.00000000000E+00  0.39999999673E+01  0.40000000000E+01  0.51109989000E-03 0.  1.
     -623   -1    0    0    0    0  0.00000000000E+00  0.00000000000E+00  0.12525980253E-10  0.17130000000E+03  0.17130000000E+03 0. -1.
       11    1    1    2    0    0  0.42612012693E-04 -0.39340961443E-03  0.23628681464E+00  0.23628769876E+00  0.51109989000E-03 0. -1.
     -623    1    1    2    0    0  0.20961240147E-02 -0.62318366136E-02  0.12199050970E-04  0.17130000013E+03  0.17130000000E+03 0. -1.
      622    1    1    2    0    0 -0.21387360437E-02  0.66252462764E-02  0.37637009847E+01  0.37637122061E+01  0.60000000000E-02 0.  1.
</event>
<event>
 5   0  0.1211800E+10  0.9118800E+02  0.7818608E-02  0.1180000E+00
       11   -1    0    0    0    0  0.00000000000E+00  0.00000000000E+00  0.39999999673E+01  0.40000000000E+01  0.51109989000E-03 0. -1.
     -623   -1    0    0    0    0  0.00000000000E+00  0.00000000000E+00  0.12525980253E-10  0.17130000000E+03  0.17130000000E+03 0.  1.
       11    1    1    2    0    0 -0.19311304359E-02 -0.34540217579E-02  0.42330398421E-01  0.42518035992E-01  0.51109989000E-03 0. -1.
     -623    1    1    2    0    0  0.11307696461E-02 -0.24716329897E-03  0.19396897906E-03  0.17130000000E+03  0.17130000000E+03 0.  1.
      622    1    1    2    0    0  0.80036078984E-03  0.37011850568E-02  0.39574755997E+01  0.39574819597E+01  0.60000000000E-02 0. -1.
</event>
<event>
 5   0  0.1211800E+10  0.9118800E+02  0.7818608E-02  0.1180000E+00
       11   -1    0    0    0    0  0.00000000000E+00  0.00000000000E+00  0.39999999673E+01  0.40000000000E+01  0.51109989000E-03 0. -1.
     -623   -1    0    0    0    0  0.00000000000E+00  0.00000000000E+00  0.12525980253E-10  0.17130000000E+03  0.17130000000E+03 0.  1.
       11    1    1    2    0    0 -0.12107683348E-02  0.24683802844E-02  0.29083956138E+00  0.29085300505E+00  0.51109989000E-03 0. -1.
     -623    1    1    2    0    0 -0.17271756846E-03 -0.21233195358E-03  0.19208245368E-04  0.17130000000E+03  0.17130000000E+03 0.  1.
      622    1    1    2    0    0  0.13834859032E-02 -0.22560483308E-02  0.37091411977E+01  0.37091469947E+01  0.60000000000E-02 0. -1.
</event>
<event>
 5   0  0.1211800E+10  0.9118800E+02  0.7818608E-02  0.1180000E+00
       11   -1    0    0    0    0  0.00000000000E+00  0.00000000000E+00  0.39999999673E+01  0.40000000000E+01  0.51109989000E-03 0. -1.
     -623   -1    0    0    0    0  0.00000000000E+00  0.00000000000E+00  0.12525980253E-10  0.17130000000E+03  0.17130000000E+03 0. -1.
       11    1    1    2    0    0  0.27701724842E-02  0.39491889841E-04  0.47652458904E+00  0.47653291660E+00  0.51109989000E-03 0. -1.
     -623    1    1    2    0    0  0.49231715648E-03 -0.78906980443E-03  0.14996203301E-04  0.17130000000E+03  0.17130000000E+03 0. -1.
      622    1    1    2    0    0 -0.32624896407E-02  0.74957791459E-03  0.35234603821E+01  0.35234670809E+01  0.60000000000E-02 0.  0.
</event>
<event>
 5   0  0.1211800E+10  0.9118800E+02  0.7818608E-02  0.1180000E+00
       11   -1    0    0    0    0  0.00000000000E+00  0.00000000000E+00  0.39999999673E+01  0.40000000000E+01  0.51109989000E-03 0.  1.
     -623   -1    0    0    0    0  0.00000000000E+00  0.00000000000E+00  0.12525980253E-10  0.17130000000E+03  0.17130000000E+03 0. -1.
       11    1    1    2    0    0 -0.92703889247E-03 -0.49108927196E-03  0.27681004682E-01  0.27705591729E-01  0.51109989000E-03 0.  1.
     -623    1    1    2    0    0 -0.91855048309E-04  0.14962415126E-03  0.29231238418E-04  0.17130000000E+03  0.17130000000E+03 0. -1.
      622    1    1    2    0    0  0.10188939410E-02  0.34146512038E-03  0.39722897399E+01  0.39722944166E+01  0.60000000000E-02 0.  1.
</event>
<event>
 5   0  0.1211800E+10  0.9118800E+02  0.7818608E-02  0.1180000E+00
       11   -1    0    0    0    0  0.00000000000E+00  0.00000000000E+00  0.39999999673E+01  0.40000000000E+01  0.51109989000E-03 0. -1.
     -623   -1    0    0    0    0  0.00000000000E+00  0.00000000000E+00  0.12525980253E-10  0.17130000000E+03  0.17130000000E+03 0.  1.
       11    1    1    2    0    0 -0.22212426055E-02 -0.72865327663E-03  0.45420411916E+00  0.45421042253E+00  0.51109989000E-03 0. -1.
     -623    1    1    2    0    0  0.14444733352E-02  0.24882641360E-02  0.11893034402E-04  0.17130000002E+03  0.17130000000E+03 0.  1.
      622    1    1    2    0    0  0.77676926363E-03 -0.17596108709E-02  0.35457839737E+01  0.35457895719E+01  0.60000000000E-02 0. -1.
</event>
<event>
 5   0  0.1211800E+10  0.9118800E+02  0.7818608E-02  0.1180000E+00
       11   -1    0    0    0    0  0.00000000000E+00  0.00000000000E+00  0.39999999673E+01  0.40000000000E+01  0.51109989000E-03 0. -1.
     -623   -1    0    0    0    0  0.00000000000E+00  0.00000000000E+00  0.12525980253E-10  0.17130000000E+03  0.17130000000E+03 0.  1.
       11    1    1    2    0    0 -0.15997625020E-02  0.20536587160E-02  0.29152329319E+00  0.29153536398E+00  0.51109989000E-03 0. -1.
     -623    1    1    2    0    0  0.12190209397E-03 -0.18391849962E-05  0.17754040516E-04  0.17130000000E+03  0.17130000000E+03 0.  1.
      622    1    1    2    0    0  0.14778604080E-02 -0.20518195310E-02  0.37084589201E+01  0.37084646360E+01  0.60000000000E-02 0. -1.
</event>
<event>
 5   0  0.1211800E+10  0.9118800E+02  0.7818608E-02  0.1180000E+00
       11   -1    0    0    0    0  0.00000000000E+00  0.00000000000E+00  0.39999999673E+01  0.40000000000E+01  0.51109989000E-03 0. -1.
     -623   -1    0    0    0    0  0.00000000000E+00  0.00000000000E+00  0.12525980253E-10  0.17130000000E+03  0.17130000000E+03 0. -1.
       11    1    1    2    0    0 -0.64004786372E-02  0.54585852907E-02  0.15110282571E+00  0.15133766034E+00  0.51109989000E-03 0. -1.
     -623    1    1    2    0    0  0.32068785337E-02  0.17576385670E-02  0.24760838682E-03  0.17130000004E+03  0.17130000000E+03 0. -1.
      622    1    1    2    0    0  0.31936001036E-02 -0.72162238577E-02  0.38486495333E+01  0.38486623004E+01  0.60000000000E-02 0. -1.
</event>
<event>
 5   0  0.1211800E+10  0.9118800E+02  0.7818608E-02  0.1180000E+00
       11   -1    0    0    0    0  0.00000000000E+00  0.00000000000E+00  0.39999999673E+01  0.40000000000E+01  0.51109989000E-03 0. -1.
     -623   -1    0    0    0    0  0.00000000000E+00  0.00000000000E+00  0.12525980253E-10  0.17130000000E+03  0.17130000000E+03 0. -1.
       11    1    1    2    0    0 -0.68116553455E-04 -0.69391878001E-03  0.27113305742E+00  0.27113443568E+00  0.51109989000E-03 0. -1.
     -623    1    1    2    0    0 -0.35441586551E-03  0.48518697839E-03  0.62036614650E-05  0.17130000000E+03  0.17130000000E+03 0. -1.
      622    1    1    2    0    0  0.42253241896E-03  0.20873180162E-03  0.37288607063E+01  0.37288655633E+01  0.60000000000E-02 0. -1.
</event>
<event>
 5   0  0.1211800E+10  0.9118800E+02  0.7818608E-02  0.1180000E+00
       11   -1    0    0    0    0  0.00000000000E+00  0.00000000000E+00  0.39999999673E+01  0.40000000000E+01  0.51109989000E-03 0. -1.
     -623   -1    0    0    0    0  0.00000000000E+00  0.00000000000E+00  0.12525980253E-10  0.17130000000E+03  0.17130000000E+03 0. -1.
       11    1    1    2    0    0  0.36580932836E-03  0.42666755565E-02  0.24942102982E+00  0.24945831250E+00  0.51109989000E-03 0. -1.
     -623    1    1    2    0    0 -0.20264089838E-02 -0.24396588342E-02  0.42891343689E-04  0.17130000003E+03  0.17130000000E+03 0. -1.
      622    1    1    2    0    0  0.16605996535E-02 -0.18270167247E-02  0.37505360424E+01  0.37505416544E+01  0.60000000000E-02 0. -1.
</event>
<event>
 5   0  0.1211800E+10  0.9118800E+02  0.7818608E-02  0.1180000E+00
       11   -1    0    0    0    0  0.00000000000E+00  0.00000000000E+00  0.39999999673E+01  0.40000000000E+01  0.51109989000E-03 0. -1.
     -623   -1    0    0    0    0  0.00000000000E+00  0.00000000000E+00  0.12525980253E-10  0.17130000000E+03  0.17130000000E+03 0. -1.
       11    1    1    2    0    0  0.73207307992E-03 -0.92337351372E-03  0.34182411541E+00  0.34182652860E+00  0.51109989000E-03 0. -1.
     -623    1    1    2    0    0 -0.10381455813E-02  0.11107288498E-02  0.73253814779E-05  0.17130000001E+03  0.17130000000E+03 0. -1.
      622    1    1    2    0    0  0.30607251011E-03 -0.18735534534E-03  0.36581685600E+01  0.36581734981E+01  0.60000000000E-02 0. -1.
</event>
<event>
 5   0  0.1211800E+10  0.9118800E+02  0.7818608E-02  0.1180000E+00
       11   -1    0    0    0    0  0.00000000000E+00  0.00000000000E+00  0.39999999673E+01  0.40000000000E+01  0.51109989000E-03 0.  1.
     -623   -1    0    0    0    0  0.00000000000E+00  0.00000000000E+00  0.12525980253E-10  0.17130000000E+03  0.17130000000E+03 0. -1.
       11    1    1    2    0    0 -0.41426457056E-03 -0.92820736507E-03  0.11246570326E-01  0.11303970596E-01  0.51109989000E-03 0.  1.
     -623    1    1    2    0    0 -0.14401789803E-04 -0.13462988395E-03  0.62045088098E-04  0.17130000000E+03  0.17130000000E+03 0. -1.
      622    1    1    2    0    0  0.42866636038E-03  0.10628372492E-02  0.39886913571E+01  0.39886960345E+01  0.60000000000E-02 0.  1.
</event>
<event>
 5   0  0.1211800E+10  0.9118800E+02  0.7818608E-02  0.1180000E+00
       11   -1    0    0    0    0  0.00000000000E+00  0.00000000000E+00  0.39999999673E+01  0.40000000000E+01  0.51109989000E-03 0.  1.
     -623   -1    0    0    0    0  0.00000000000E+00  0.00000000000E+00  0.12525980253E-10  0.17130000000E+03  0.17130000000E+03 0. -1.
       11    1    1    2    0    0 -0.63154525658E-03  0.18797187830E-02  0.38239353714E+00  0.38239902021E+00  0.51109989000E-03 0.  1.
     -623    1    1    2    0    0 -0.28964703273E-04 -0.78512229355E-05  0.10970693778E-04  0.17130000000E+03  0.17130000000E+03 0. -1.
      622    1    1    2    0    0  0.66050995985E-03 -0.18718675601E-02  0.36175954595E+01  0.36176009798E+01  0.60000000000E-02 0.  1.
</event>
<event>
 5   0  0.1211800E+10  0.9118800E+02  0.7818608E-02  0.1180000E+00
       11   -1    0    0    0    0  0.00000000000E+00  0.00000000000E+00  0.39999999673E+01  0.40000000000E+01  0.51109989000E-03 0. -1.
     -623   -1    0    0    0    0  0.00000000000E+00  0.00000000000E+00  0.12525980253E-10  0.17130000000E+03  0.17130000000E+03 0. -1.
       11    1    1    2    0    0 -0.98071181935E-03 -0.24949642182E-02  0.19675269699E-01  0.19863637665E-01  0.51109989000E-03 0. -1.
     -623    1    1    2    0    0 -0.16102965833E-02  0.17186238604E-02  0.19379315585E-03  0.17130000002E+03  0.17130000000E+03 0. -1.
      622    1    1    2    0    0  0.25910084027E-02  0.77634035783E-03  0.39801309045E+01  0.39801363460E+01  0.60000000000E-02 0. -1.
</event>
<event>
 5   0  0.1211800E+10  0.9118800E+02  0.7818608E-02  0.1180000E+00
       11   -1    0    0    0    0  0.00000000000E+00  0.00000000000E+00  0.39999999673E+01  0.40000000000E+01  0.51109989000E-03 0.  1.
     -623   -1    0    0    0    0  0.00000000000E+00  0.00000000000E+00  0.12525980253E-10  0.17130000000E+03  0.17130000000E+03 0.  1.
       11    1    1    2    0    0 -0.13599715719E-02 -0.66555501141E-04  0.84610776218E+00  0.84610901212E+00  0.51109989000E-03 0.  1.
     -623    1    1    2    0    0  0.18422118025E-03  0.10591698281E-03  0.71440775908E-05  0.17130000000E+03  0.17130000000E+03 0.  1.
      622    1    1    2    0    0  0.11757503917E-02 -0.39361481673E-04  0.31538850611E+01  0.31538909877E+01  0.60000000000E-02 0.  1.
</event>
<event>
 5   0  0.1211800E+10  0.9118800E+02  0.7818608E-02  0.1180000E+00
       11   -1    0    0    0    0  0.00000000000E+00  0.00000000000E+00  0.39999999673E+01  0.40000000000E+01  0.51109989000E-03 0.  1.
     -623   -1    0    0    0    0  0.00000000000E+00  0.00000000000E+00  0.12525980253E-10  0.17130000000E+03  0.17130000000E+03 0.  1.
       11    1    1    2    0    0  0.15970492038E-02 -0.51468511201E-03  0.14515696766E+00  0.14516756507E+00  0.51109989000E-03 0.  1.
     -623    1    1    2    0    0 -0.19250368509E-04  0.13179040437E-03  0.15576211755E-04  0.17130000000E+03  0.17130000000E+03 0.  1.
      622    1    1    2    0    0 -0.15777988352E-02  0.38289470698E-03  0.38548274433E+01  0.38548324547E+01  0.60000000000E-02 0.  1.
</event>
<event>
 5   0  0.1211800E+10  0.9118800E+02  0.7818608E-02  0.1180000E+00
       11   -1    0    0    0    0  0.00000000000E+00  0.00000000000E+00  0.39999999673E+01  0.40000000000E+01  0.51109989000E-03 0.  1.
     -623   -1    0    0    0    0  0.00000000000E+00  0.00000000000E+00  0.12525980253E-10  0.17130000000E+03  0.17130000000E+03 0. -1.
       11    1    1    2    0    0  0.11354920575E-01 -0.15202179055E-01  0.10360911265E+00  0.10533351752E+00  0.51109989000E-03 0.  1.
     -623    1    1    2    0    0 -0.14353956934E-01  0.11207276032E-01  0.17331742696E-02  0.17130000098E+03  0.17130000000E+03 0. -1.
      622    1    1    2    0    0  0.29990363581E-02  0.39949030228E-02  0.38946576804E+01  0.38946655057E+01  0.60000000000E-02 0.  1.
</event>
<event>
 5   0  0.1211800E+10  0.9118800E+02  0.7818608E-02  0.1180000E+00
       11   -1    0    0    0    0  0.00000000000E+00  0.00000000000E+00  0.39999999673E+01  0.40000000000E+01  0.51109989000E-03 0. -1.
     -623   -1    0    0    0    0  0.00000000000E+00  0.00000000000E+00  0.12525980253E-10  0.17130000000E+03  0.17130000000E+03 0. -1.
       11    1    1    2    0    0 -0.13926103325E-03  0.96382752288E-03  0.34670607609E+00  0.34670782047E+00  0.51109989000E-03 0. -1.
     -623    1    1    2    0    0  0.51502615198E-03 -0.58309692158E-03  0.66797409439E-05  0.17130000000E+03  0.17130000000E+03 0. -1.
      622    1    1    2    0    0 -0.37576512289E-03 -0.38073059659E-03  0.36532872439E+01  0.36532922101E+01  0.60000000000E-02 0. -1.
</event>
<event>
 5   0  0.1211800E+10  0.9118800E+02  0.7818608E-02  0.1180000E+00
       11   -1    0    0    0    0  0.00000000000E+00  0.00000000000E+00  0.39999999673E+01  0.40000000000E+01  0.51109989000E-03 0. -1.
     -623   -1    0    0    0    0  0.00000000000E+00  0.00000000000E+00  0.12525980253E-10  0.17130000000E+03  0.17130000000E+03 0. -1.
       11    1    1    2    0    0 -0.61018072298E-02 -0.59677133059E-02  0.54078009346E+00  0.54084768314E+00  0.51109989000E-03 0. -1.
     -623    1    1    2    0    0  0.36741527826E-02  0.90255737785E-02  0.75241260824E-04  0.17130000028E+03  0.17130000000E+03 0. -1.
      622    1    1    2    0    0  0.24276544472E-02 -0.30578604726E-02  0.34591446326E+01  0.34591520397E+01  0.60000000000E-02 0. -1.
</event>
<event>
 5   0  0.1211800E+10  0.9118800E+02  0.7818608E-02  0.1180000E+00
       11   -1    0    0    0    0  0.00000000000E+00  0.00000000000E+00  0.39999999673E+01  0.40000000000E+01  0.51109989000E-03 0. -1.
     -623   -1    0    0    0    0  0.00000000000E+00  0.00000000000E+00  0.12525980253E-10  0.17130000000E+03  0.17130000000E+03 0. -1.
       11    1    1    2    0    0 -0.93900273464E-03 -0.55855577725E-03  0.12822015955E-01  0.12878626749E-01  0.51109989000E-03 0. -1.
     -623    1    1    2    0    0  0.55933373899E-04  0.19302648907E-03  0.61207367228E-04  0.17130000000E+03  0.17130000000E+03 0. -1.
      622    1    1    2    0    0  0.88306936065E-03  0.36552928787E-03  0.39871167507E+01  0.39871213797E+01  0.60000000000E-02 0. -1.
</event>
<event>
 5   0  0.1211800E+10  0.9118800E+02  0.7818608E-02  0.1180000E+00
       11   -1    0    0    0    0  0.00000000000E+00  0.00000000000E+00  0.39999999673E+01  0.40000000000E+01  0.51109989000E-03 0. -1.
     -623   -1    0    0    0    0  0.00000000000E+00  0.00000000000E+00  0.12525980253E-10  0.17130000000E+03  0.17130000000E+03 0. -1.
       11    1    1    2    0    0 -0.29303140496E-02 -0.16045146208E-02  0.12547005094E+00  0.12551556124E+00  0.51109989000E-03 0. -1.
     -623    1    1    2    0    0 -0.69808059694E-03 -0.26049142250E-03  0.52272907977E-04  0.17130000000E+03  0.17130000000E+03 0. -1.
      622    1    1    2    0    0  0.36283946466E-02  0.18650060433E-02  0.38744776439E+01  0.38744844375E+01  0.60000000000E-02 0. -1.
</event>
<event>
 5   0  0.1211800E+10  0.9118800E+02  0.7818608E-02  0.1180000E+00
       11   -1    0    0    0    0  0.00000000000E+00  0.00000000000E+00  0.39999999673E+01  0.40000000000E+01  0.51109989000E-03 0.  1.
     -623   -1    0    0    0    0  0.00000000000E+00  0.00000000000E+00  0.12525980253E-10  0.17130000000E+03  0.17130000000E+03 0.  1.
       11    1    1    2    0    0 -0.33670900889E-03  0.46885170974E-03  0.31787452133E-01  0.31796800643E-01  0.51109989000E-03 0.  1.
     -623    1    1    2    0    0 -0.21955030309E-04 -0.75268388418E-05  0.13894956500E-04  0.17130000000E+03  0.17130000000E+03 0.  1.
      622    1    1    2    0    0  0.35866403931E-03 -0.46132487086E-03  0.39681986411E+01  0.39682032202E+01  0.60000000000E-02 0.  1.
</event>
<event>
 5   0  0.1211800E+10  0.9118800E+02  0.7818608E-02  0.1180000E+00
       11   -1    0    0    0    0  0.00000000000E+00  0.00000000000E+00  0.39999999673E+01  0.40000000000E+01  0.51109989000E-03 0. -1.
     -623   -1    0    0    0    0  0.00000000000E+00  0.00000000000E+00  0.12525980253E-10  0.17130000000E+03  0.17130000000E+03 0.  1.
       11    1    1    2    0    0  0.41270783234E-02  0.36345869888E-02  0.45622742619E+00  0.45626085590E+00  0.51109989000E-03 0. -1.
     -623    1    1    2    0    0 -0.80390557163E-04  0.83273357669E-04  0.42737286424E-04  0.17130000000E+03  0.17130000000E+03 0.  1.
      622    1    1    2    0    0 -0.40466877662E-02 -0.37178603465E-02  0.35437298039E+01  0.35437391441E+01  0.60000000000E-02 0. -1.
</event>
<event>
 5   0  0.1211800E+10  0.9118800E+02  0.7818608E-02  0.1180000E+00
       11   -1    0    0    0    0  0.00000000000E+00  0.00000000000E+00  0.39999999673E+01  0.40000000000E+01  0.51109989000E-03 0. -1.
     -623   -1    0    0    0    0  0.00000000000E+00  0.00000000000E+00  0.12525980253E-10  0.17130000000E+03  0.17130000000E+03 0.  1.
       11    1    1    2    0    0  0.92222683334E-03  0.85771082135E-03  0.95497614833E-01  0.95507286792E-01  0.51109989000E-03 0. -1.
     -623    1    1    2    0    0  0.19843618665E-03 -0.12010199420E-03  0.14480050853E-04  0.17130000000E+03  0.17130000000E+03 0.  1.
      622    1    1    2    0    0 -0.11206630200E-02 -0.73760882715E-03  0.39044878725E+01  0.39044927131E+01  0.60000000000E-02 0.  0.
</event>
<event>
 5   0  0.1211800E+10  0.9118800E+02  0.7818608E-02  0.1180000E+00
       11   -1    0    0    0    0  0.00000000000E+00  0.00000000000E+00  0.39999999673E+01  0.40000000000E+01  0.51109989000E-03 0.  1.
     -623   -1    0    0    0    0  0.00000000000E+00  0.00000000000E+00  0.12525980253E-10  0.17130000000E+03  0.17130000000E+03 0. -1.
       11    1    1    2    0    0 -0.40691358645E-03  0.88948787581E-03  0.22287048950E+00  0.22287322199E+00  0.51109989000E-03 0.  1.
     -623    1    1    2    0    0 -0.94260505894E-05 -0.98537944272E-06  0.75928214911E-05  0.17130000000E+03  0.17130000000E+03 0. -1.
      622    1    1    2    0    0  0.41633963704E-03 -0.88850249637E-03  0.37771218850E+01  0.37771267780E+01  0.60000000000E-02 0.  1.
</event>
<event>
 5   0  0.1211800E+10  0.9118800E+02  0.7818608E-02  0.1180000E+00
       11   -1    0    0    0    0  0.00000000000E+00  0.00000000000E+00  0.39999999673E+01  0.40000000000E+01  0.51109989000E-03 0. -1.
     -623   -1    0    0    0    0  0.00000000000E+00  0.00000000000E+00  0.12525980253E-10  0.17130000000E+03  0.17130000000E+03 0. -1.
       11    1    1    2    0    0  0.22072694627E-02  0.51297128015E-02  0.64191635121E+00  0.64194084553E+00  0.51109989000E-03 0. -1.
     -623    1    1    2    0    0  0.35442634354E-04 -0.78299212058E-04  0.34370204730E-04  0.17130000000E+03  0.17130000000E+03 0. -1.
      622    1    1    2    0    0 -0.22427120971E-02 -0.50514135895E-02  0.33580492459E+01  0.33580591544E+01  0.60000000000E-02 0. -1.
</event>
<event>
 5   0  0.1211800E+10  0.9118800E+02  0.7818608E-02  0.1180000E+00
       11   -1    0    0    0    0  0.00000000000E+00  0.00000000000E+00  0.39999999673E+01  0.40000000000E+01  0.51109989000E-03 0. -1.
     -623   -1    0    0    0    0  0.00000000000E+00  0.00000000000E+00  0.12525980253E-10  0.17130000000E+03  0.17130000000E+03 0. -1.
       11    1    1    2    0    0  0.22745009245E-02  0.51234371083E-03  0.48805822717E+00  0.48806406360E+00  0.51109989000E-03 0. -1.
     -623    1    1    2    0    0  0.73985147539E-04 -0.67722990102E-03  0.11719637621E-04  0.17130000000E+03  0.17130000000E+03 0. -1.
      622    1    1    2    0    0 -0.23484860726E-02  0.16488619552E-03  0.35119300521E+01  0.35119359665E+01  0.60000000000E-02 0. -1.
</event>
<event>
 5   0  0.1211800E+10  0.9118800E+02  0.7818608E-02  0.1180000E+00
       11   -1    0    0    0    0  0.00000000000E+00  0.00000000000E+00  0.39999999673E+01  0.40000000000E+01  0.51109989000E-03 0. -1.
     -623   -1    0    0    0    0  0.00000000000E+00  0.00000000000E+00  0.12525980253E-10  0.17130000000E+03  0.17130000000E+03 0.  1.
       11    1    1    2    0    0 -0.54057453629E-03  0.47258481637E-03  0.31083430770E+00  0.31083555720E+00  0.51109989000E-03 0. -1.
     -623    1    1    2    0    0 -0.66028532508E-05  0.47955635803E-04  0.61733301018E-05  0.17130000000E+03  0.17130000000E+03 0.  1.
      622    1    1    2    0    0  0.54717738954E-03 -0.52054045218E-03  0.36891594863E+01  0.36891644428E+01  0.60000000000E-02 0. -1.
</event>
<event>
 5   0  0.1211800E+10  0.9118800E+02  0.7818608E-02  0.1180000E+00
       11   -1    0    0    0    0  0.00000000000E+00  0.00000000000E+00  0.39999999673E+01  0.40000000000E+01  0.51109989000E-03 0. -1.
     -623   -1    0    0    0    0  0.00000000000E+00  0.00000000000E+00  0.12525980253E-10  0.17130000000E+03  0.17130000000E+03 0. -1.
       11    1    1    2    0    0 -0.10091979759E-02  0.22609794016E-03  0.13600221132E+00  0.13600710389E+00  0.51109989000E-03 0. -1.
     -623    1    1    2    0    0  0.13430838948E-03 -0.71683594024E-03  0.96500859681E-05  0.17130000000E+03  0.17130000000E+03 0. -1.
      622    1    1    2    0    0  0.87488958541E-03  0.49073800540E-03  0.38639881357E+01  0.38639929243E+01  0.60000000000E-02 0. -1.
</event>
<event>
 5   0  0.1211800E+10  0.9118800E+02  0.7818608E-02  0.1180000E+00
       11   -1    0    0    0    0  0.00000000000E+00  0.00000000000E+00  0.39999999673E+01  0.40000000000E+01  0.51109989000E-03 0. -1.
     -623   -1    0    0    0    0  0.00000000000E+00  0.00000000000E+00  0.12525980253E-10  0.17130000000E+03  0.17130000000E+03 0. -1.
       11    1    1    2    0    0  0.41330687684E-03  0.18094215636E-04  0.17678713901E+00  0.17678836186E+00  0.51109989000E-03 0. -1.
     -623    1    1    2    0    0 -0.66504161391E-03  0.36473159117E-03  0.59274390383E-05  0.17130000000E+03  0.17130000000E+03 0. -1.
      622    1    1    2    0    0  0.25173474421E-03 -0.38282581072E-03  0.38232069439E+01  0.38232116794E+01  0.60000000000E-02 0. -1.
</event>
<event>
 5   0  0.1211800E+10  0.9118800E+02  0.7818608E-02  0.1180000E+00
       11   -1    0    0    0    0  0.00000000000E+00  0.00000000000E+00  0.39999999673E+01  0.40000000000E+01  0.51109989000E-03 0. -1.
     -623   -1    0    0    0    0  0.00000000000E+00  0.00000000000E+00  0.12525980253E-10  0.17130000000E+03  0.17130000000E+03 0.  1.
       11    1    1    2    0    0  0.59031843186E-03  0.16813518542E-03  0.29928911201E+00  0.29929017782E+00  0.51109989000E-03 0. -1.
     -623    1    1    2    0    0  0.36322754883E-03  0.12724018340E-02  0.63054285651E-05  0.17130000001E+03  0.17130000000E+03 0.  1.
      622    1    1    2    0    0 -0.95354598069E-03 -0.14405370194E-02  0.37007045499E+01  0.37007098171E+01  0.60000000000E-02 0. -1.
</event>
<event>
 5   0  0.1211800E+10  0.9118800E+02  0.7818608E-02  0.1180000E+00
       11   -1    0    0    0    0  0.00000000000E+00  0.00000000000E+00  0.39999999673E+01  0.40000000000E+01  0.51109989000E-03 0. -1.
     -623   -1    0    0    0    0  0.00000000000E+00  0.00000000000E+00  0.12525980253E-10  0.17130000000E+03  0.17130000000E+03 0.  1.
       11    1    1    2    0    0 -0.21066240816E-03  0.12095861702E-03  0.35712251378E+00  0.35712296213E+00  0.51109989000E-03 0. -1.
     -623    1    1    2    0    0  0.76570931711E-04  0.39998765908E-03  0.53970624485E-05  0.17130000000E+03  0.17130000000E+03 0.  1.
      622    1    1    2    0    0  0.13409147645E-03 -0.52094627610E-03  0.36428720565E+01  0.36428770374E+01  0.60000000000E-02 0. -1.
</event>
<event>
 5   0  0.1211800E+10  0.9118800E+02  0.7818608E-02  0.1180000E+00
       11   -1    0    0    0    0  0.00000000000E+00  0.00000000000E+00  0.39999999673E+01  0.40000000000E+01  0.51109989000E-03 0. -1.
     -623   -1    0    0    0    0  0.00000000000E+00  0.00000000000E+00  0.12525980253E-10  0.17130000000E+03  0.17130000000E+03 0. -1.
       11    1    1    2    0    0  0.67902969214E-03 -0.51868581528E-03  0.44659139376E+00  0.44659250365E+00  0.51109989000E-03 0. -1.
     -623    1    1    2    0    0 -0.39717933852E-03 -0.21041170042E-03  0.62293822358E-05  0.17130000000E+03  0.17130000000E+03 0. -1.
      622    1    1    2    0    0 -0.28185035362E-03  0.72909751570E-03  0.35534023442E+01  0.35534074958E+01  0.60000000000E-02 0. -1.
</event>
<event>
 5   0  0.1211800E+10  0.9118800E+02  0.7818608E-02  0.1180000E+00
       11   -1    0    0    0    0  0.00000000000E+00  0.00000000000E+00  0.39999999673E+01  0.40000000000E+01  0.51109989000E-03 0.  1.
     -623   -1    0    0    0    0  0.00000000000E+00  0.00000000000E+00  0.12525980253E-10  0.17130000000E+03  0.17130000000E+03 0. -1.
       11    1    1    2    0    0  0.46164232485E-03 -0.78886855574E-03  0.11652283657E-01  0.11699246333E-01  0.51109989000E-03 0.  1.
     -623    1    1    2    0    0  0.81847070024E-04  0.14157969911E-05  0.51558034399E-04  0.17130000000E+03  0.17130000000E+03 0. -1.
      622    1    1    2    0    0 -0.54348939491E-03  0.78745275875E-03  0.39882961277E+01  0.39883007557E+01  0.60000000000E-02 0.  1.
</event>
<event>
 5   0  0.1211800E+10  0.9118800E+02  0.7818608E-02  0.1180000E+00
       11   -1    0    0    0    0  0.00000000000E+00  0.00000000000E+00  0.39999999673E+01  0.40000000000E+01  0.51109989000E-03 0. -1.
     -623   -1    0    0    0    0  0.00000000000E+00  0.00000000000E+00  0.12525980253E-10  0.17130000000E+03  0.17130000000E+03 0.  1.
       11    1    1    2    0    0  0.81985010524E-03  0.63734192914E-03  0.12218537889E+00  0.12219086052E+00  0.51109989000E-03 0. -1.
     -623    1    1    2    0    0 -0.34917992856E-05 -0.14901681516E-03  0.10207532655E-04  0.17130000000E+03  0.17130000000E+03 0.  1.
      622    1    1    2    0    0 -0.81635830596E-03 -0.48832511398E-03  0.38778043809E+01  0.38778091394E+01  0.60000000000E-02 0. -1.
</event>
<event>
 5   0  0.1211800E+10  0.9118800E+02  0.7818608E-02  0.1180000E+00
       11   -1    0    0    0    0  0.00000000000E+00  0.00000000000E+00  0.39999999673E+01  0.40000000000E+01  0.51109989000E-03 0.  1.
     -623   -1    0    0    0    0  0.00000000000E+00  0.00000000000E+00  0.12525980253E-10  0.17130000000E+03  0.17130000000E+03 0.  1.
       11    1    1    2    0    0  0.70423954426E-02  0.25275006150E-02  0.76056684343E+00  0.76060381812E+00  0.51109989000E-03 0.  1.
     -623    1    1    2    0    0 -0.56709463558E-02 -0.93457353745E-02  0.50313261526E-04  0.17130000035E+03  0.17130000000E+03 0.  1.
      622    1    1    2    0    0 -0.13714490868E-02  0.68182347595E-02  0.32393828107E+01  0.32393958331E+01  0.60000000000E-02 0.  1.
</event>
<event>
 5   0  0.1211800E+10  0.9118800E+02  0.7818608E-02  0.1180000E+00
       11   -1    0    0    0    0  0.00000000000E+00  0.00000000000E+00  0.39999999673E+01  0.40000000000E+01  0.51109989000E-03 0. -1.
     -623   -1    0    0    0    0  0.00000000000E+00  0.00000000000E+00  0.12525980253E-10  0.17130000000E+03  0.17130000000E+03 0. -1.
       11    1    1    2    0    0 -0.27869253572E-02 -0.11038014010E-02  0.43867618679E+00  0.43868672582E+00  0.51109989000E-03 0. -1.
     -623    1    1    2    0    0  0.34848511155E-04  0.25957598744E-03  0.16724334601E-04  0.17130000000E+03  0.17130000000E+03 0. -1.
      622    1    1    2    0    0  0.27520768460E-02  0.84422541353E-03  0.35613070562E+01  0.35613132740E+01  0.60000000000E-02 0. -1.
</event>
<event>
 5   0  0.1211800E+10  0.9118800E+02  0.7818608E-02  0.1180000E+00
       11   -1    0    0    0    0  0.00000000000E+00  0.00000000000E+00  0.39999999673E+01  0.40000000000E+01  0.51109989000E-03 0.  1.
     -623   -1    0    0    0    0  0.00000000000E+00  0.00000000000E+00  0.12525980253E-10  0.17130000000E+03  0.17130000000E+03 0. -1.
       11    1    1    2    0    0  0.29911455842E-02  0.32100606285E-02  0.45104252624E+00  0.45106415635E+00  0.51109989000E-03 0.  1.
     -623    1    1    2    0    0 -0.46558483693E-02 -0.20510167517E-02  0.27324664730E-04  0.17130000008E+03  0.17130000000E+03 0. -1.
      622    1    1    2    0    0  0.16647027823E-02 -0.11590438781E-02  0.35489301140E+01  0.35489357657E+01  0.60000000000E-02 0.  1.
</event>
<event>
 5   0  0.1211800E+10  0.9118800E+02  0.7818608E-02  0.1180000E+00
       11   -1    0    0    0    0  0.00000000000E+00  0.00000000000E+00  0.39999999673E+01  0.40000000000E+01  0.51109989000E-03 0.  1.
     -623   -1    0    0    0    0  0.00000000000E+00  0.00000000000E+00  0.12525980253E-10  0.17130000000E+03  0.17130000000E+03 0. -1.
       11    1    1    2    0    0 -0.17672285344E-01 -0.77815353359E-02  0.15682893572E+00  0.15801404451E+00  0.51109989000E-03 0.  1.
     -623    1    1    2    0    0  0.15642813549E-01  0.27016260875E-03  0.11983585598E-02  0.17130000072E+03  0.17130000000E+03 0. -1.
      622    1    1    2    0    0  0.20294717958E-02  0.75113727271E-02  0.38419726731E+01  0.38419852368E+01  0.60000000000E-02 0.  1.
</event>
<event>
 5   0  0.1211800E+10  0.9118800E+02  0.7818608E-02  0.1180000E+00
       11   -1    0    0    0    0  0.00000000000E+00  0.00000000000E+00  0.39999999673E+01  0.40000000000E+01  0.51109989000E-03 0. -1.
     -623   -1    0    0    0    0  0.00000000000E+00  0.00000000000E+00  0.12525980253E-10  0.17130000000E+03  0.17130000000E+03 0.  1.
       11    1    1    2    0    0  0.23437070807E-02 -0.99058133136E-03  0.16649382448E+00  0.16651405054E+00  0.51109989000E-03 0. -1.
     -623    1    1    2    0    0 -0.11047166888E-01  0.95203911946E-02  0.44879566693E-04  0.17130000062E+03  0.17130000000E+03 0.  1.
      622    1    1    2    0    0  0.87034598646E-02 -0.85298099121E-02  0.38334612839E+01  0.38334853492E+01  0.60000000000E-02 0. -1.
</event>
<event>
 5   0  0.1211800E+10  0.9118800E+02  0.7818608E-02  0.1180000E+00
       11   -1    0    0    0    0  0.00000000000E+00  0.00000000000E+00  0.39999999673E+01  0.40000000000E+01  0.51109989000E-03 0. -1.
     -623   -1    0    0    0    0  0.00000000000E+00  0.00000000000E+00  0.12525980253E-10  0.17130000000E+03  0.17130000000E+03 0.  1.
       11    1    1    2    0    0  0.19280499100E-03  0.97810914574E-03  0.13212090400E+00  0.13212565371E+00  0.51109989000E-03 0. -1.
     -623    1    1    2    0    0 -0.12776217080E-03  0.62384610277E-04  0.95113484524E-05  0.17130000000E+03  0.17130000000E+03 0.  1.
      622    1    1    2    0    0 -0.65042819511E-04 -0.10404937564E-02  0.38678695736E+01  0.38678743678E+01  0.60000000000E-02 0. -1.
</event>
<event>
 5   0  0.1211800E+10  0.9118800E+02  0.7818608E-02  0.1180000E+00
       11   -1    0    0    0    0  0.00000000000E+00  0.00000000000E+00  0.39999999673E+01  0.40000000000E+01  0.51109989000E-03 0.  1.
     -623   -1    0    0    0    0  0.00000000000E+00  0.00000000000E+00  0.12525980253E-10  0.17130000000E+03  0.17130000000E+03 0. -1.
       11    1    1    2    0    0  0.19775480244E-01 -0.32756296837E-02  0.23564786834E+00  0.23649942589E+00  0.51109989000E-03 0.  1.
     -623    1    1    2    0    0 -0.32601438619E-02 -0.70530773307E-03  0.89468526834E-03  0.17130000003E+03  0.17130000000E+03 0. -1.
      622    1    1    2    0    0 -0.16515336382E-01  0.39809374167E-02  0.37634574136E+01  0.37635005391E+01  0.60000000000E-02 0.  1.
</event>
<event>
 5   0  0.1211800E+10  0.9118800E+02  0.7818608E-02  0.1180000E+00
       11   -1    0    0    0    0  0.00000000000E+00  0.00000000000E+00  0.39999999673E+01  0.40000000000E+01  0.51109989000E-03 0.  1.
     -623   -1    0    0    0    0  0.00000000000E+00  0.00000000000E+00  0.12525980253E-10  0.17130000000E+03  0.17130000000E+03 0.  1.
       11    1    1    2    0    0  0.14948140478E-02 -0.28145674496E-03  0.50001572473E-01  0.50027314137E-01  0.51109989000E-03 0.  1.
     -623    1    1    2    0    0 -0.64114953496E-03 -0.44555385356E-03  0.30426954034E-04  0.17130000000E+03  0.17130000000E+03 0.  1.
      622    1    1    2    0    0 -0.85366451134E-03  0.72701059959E-03  0.39499679775E+01  0.39499726937E+01  0.60000000000E-02 0.  1.
</event>
<event>
 5   0  0.1211800E+10  0.9118800E+02  0.7818608E-02  0.1180000E+00
       11   -1    0    0    0    0  0.00000000000E+00  0.00000000000E+00  0.39999999673E+01  0.40000000000E+01  0.51109989000E-03 0. -1.
     -623   -1    0    0    0    0  0.00000000000E+00  0.00000000000E+00  0.12525980253E-10  0.17130000000E+03  0.17130000000E+03 0.  1.
       11    1    1    2    0    0  0.58705792656E-03  0.18601952584E-02  0.25314303565E+00  0.25315106693E+00  0.51109989000E-03 0. -1.
     -623    1    1    2    0    0  0.81353954669E-04 -0.76799490844E-04  0.13286754533E-04  0.17130000000E+03  0.17130000000E+03 0.  1.
      622    1    1    2    0    0 -0.66841188110E-03 -0.17833957677E-02  0.37468436386E+01  0.37468489267E+01  0.60000000000E-02 0. -1.
</event>
<event>
 5   0  0.1211800E+10  0.9118800E+02  0.7818608E-02  0.1180000E+00
       11   -1    0    0    0    0  0.00000000000E+00  0.00000000000E+00  0.39999999673E+01  0.40000000000E+01  0.51109989000E-03 0. -1.
     -623   -1    0    0    0    0  0.00000000000E+00  0.00000000000E+00  0.12525980253E-10  0.17130000000E+03  0.17130000000E+03 0.  1.
       11    1    1    2    0    0 -0.10042239361E-02  0.66240522120E-02  0.45246475445E+00  0.45251464261E+00  0.51109989000E-03 0. -1.
     -623    1    1    2    0    0 -0.99437214287E-03 -0.65324234276E-03  0.60521449321E-04  0.17130000000E+03  0.17130000000E+03 0.  1.
      622    1    1    2    0    0  0.19985960787E-02 -0.59708098694E-02  0.35474746906E+01  0.35474853524E+01  0.60000000000E-02 0. -1.
</event>
<event>
 5   0  0.1211800E+10  0.9118800E+02  0.7818608E-02  0.1180000E+00
       11   -1    0    0    0    0  0.00000000000E+00  0.00000000000E+00  0.39999999673E+01  0.40000000000E+01  0.51109989000E-03 0.  1.
     -623   -1    0    0    0    0  0.00000000000E+00  0.00000000000E+00  0.12525980253E-10  0.17130000000E+03  0.17130000000E+03 0.  1.
       11    1    1    2    0    0 -0.16142253622E-02  0.15553689027E-02  0.19527352485E+00  0.19528705954E+00  0.51109989000E-03 0.  1.
     -623    1    1    2    0    0  0.15951383088E-03  0.42217535612E-04  0.18846623291E-04  0.17130000000E+03  0.17130000000E+03 0.  1.
      622    1    1    2    0    0  0.14547115313E-02 -0.15975864383E-02  0.38047075959E+01  0.38047129404E+01  0.60000000000E-02 0. -1.
</event>
<event>
 5   0  0.1211800E+10  0.9118800E+02  0.7818608E-02  0.1180000E+00
       11   -1    0    0    0    0  0.00000000000E+00  0.00000000000E+00  0.39999999673E+01  0.40000000000E+01  0.51109989000E-03 0. -1.
     -623   -1    0    0    0    0  0.00000000000E+00  0.00000000000E+00  0.12525980253E-10  0.17130000000E+03  0.17130000000E+03 0. -1.
       11    1    1    2    0    0  0.36203696304E-02  0.39091739999E-03  0.46779586757E+00  0.46781031928E+00  0.51109989000E-03 0. -1.
     -623    1    1    2    0    0 -0.21709041904E-03  0.45754914109E-03  0.21257261634E-04  0.17130000000E+03  0.17130000000E+03 0. -1.
      622    1    1    2    0    0 -0.34032792114E-02 -0.84846654108E-03  0.35321828425E+01  0.35321896800E+01  0.60000000000E-02 0. -1.
</event>
<event>
 5   0  0.1211800E+10  0.9118800E+02  0.7818608E-02  0.1180000E+00
       11   -1    0    0    0    0  0.00000000000E+00  0.00000000000E+00  0.39999999673E+01  0.40000000000E+01  0.51109989000E-03 0. -1.
     -623   -1    0    0    0    0  0.00000000000E+00  0.00000000000E+00  0.12525980253E-10  0.17130000000E+03  0.17130000000E+03 0. -1.
       11    1    1    2    0    0 -0.85248975282E-03 -0.21262586083E-03  0.11176271373E+00  0.11176733580E+00  0.51109989000E-03 0.  1.
     -623    1    1    2    0    0 -0.52236416389E-03  0.12370060447E-02  0.96020587503E-05  0.17130000001E+03  0.17130000000E+03 0. -1.
      622    1    1    2    0    0  0.13748539184E-02 -0.10243801879E-02  0.38882276648E+01  0.38882326722E+01  0.60000000000E-02 0. -1.
</event>
<event>
 5   0  0.1211800E+10  0.9118800E+02  0.7818608E-02  0.1180000E+00
       11   -1    0    0    0    0  0.00000000000E+00  0.00000000000E+00  0.39999999673E+01  0.40000000000E+01  0.51109989000E-03 0. -1.
     -623   -1    0    0    0    0  0.00000000000E+00  0.00000000000E+00  0.12525980253E-10  0.17130000000E+03  0.17130000000E+03 0.  1.
       11    1    1    2    0    0 -0.87739219486E-03 -0.10760950386E-02  0.20315616596E+00  0.20316155342E+00  0.51109989000E-03 0. -1.
     -623    1    1    2    0    0  0.23681949467E-03  0.65048851655E-04  0.10284434425E-04  0.17130000000E+03  0.17130000000E+03 0.  1.
      622    1    1    2    0    0  0.64057270019E-03  0.10110461870E-02  0.37968335170E+01  0.37968384464E+01  0.60000000000E-02 0. -1.
</event>
<event>
 5   0  0.1211800E+10  0.9118800E+02  0.7818608E-02  0.1180000E+00
       11   -1    0    0    0    0  0.00000000000E+00  0.00000000000E+00  0.39999999673E+01  0.40000000000E+01  0.51109989000E-03 0. -1.
     -623   -1    0    0    0    0  0.00000000000E+00  0.00000000000E+00  0.12525980253E-10  0.17130000000E+03  0.17130000000E+03 0.  1.
       11    1    1    2    0    0  0.24892743693E-02 -0.12423110186E-03  0.19252875187E+00  0.19254556197E+00  0.51109989000E-03 0. -1.
     -623    1    1    2    0    0 -0.41482281044E-04  0.71497444124E-04  0.22292261352E-04  0.17130000000E+03  0.17130000000E+03 0.  1.
      622    1    1    2    0    0 -0.24477920882E-02  0.52733657736E-04  0.38074489232E+01  0.38074544380E+01  0.60000000000E-02 0. -1.
</event>
<event>
 5   0  0.1211800E+10  0.9118800E+02  0.7818608E-02  0.1180000E+00
       11   -1    0    0    0    0  0.00000000000E+00  0.00000000000E+00  0.39999999673E+01  0.40000000000E+01  0.51109989000E-03 0.  1.
     -623   -1    0    0    0    0  0.00000000000E+00  0.00000000000E+00  0.12525980253E-10  0.17130000000E+03  0.17130000000E+03 0. -1.
       11    1    1    2    0    0 -0.67685718229E-03 -0.56067210321E-03  0.34460252151E+00  0.34460402137E+00  0.51109989000E-03 0.  1.
     -623    1    1    2    0    0  0.26228326798E-03 -0.64207254594E-03  0.66142295374E-05  0.17130000000E+03  0.17130000000E+03 0. -1.
      622    1    1    2    0    0  0.41457391431E-03  0.12027446492E-02  0.36553908316E+01  0.36553959772E+01  0.60000000000E-02 0.  1.
</event>
<event>
 5   0  0.1211800E+10  0.9118800E+02  0.7818608E-02  0.1180000E+00
       11   -1    0    0    0    0  0.00000000000E+00  0.00000000000E+00  0.39999999673E+01  0.40000000000E+01  0.51109989000E-03 0. -1.
     -623   -1    0    0    0    0  0.00000000000E+00  0.00000000000E+00  0.12525980253E-10  0.17130000000E+03  0.17130000000E+03 0. -1.
       11    1    1    2    0    0 -0.22103809607E-02 -0.57962477420E-04  0.80476049619E+00  0.80476369612E+00  0.51109989000E-03 0. -1.
     -623    1    1    2    0    0  0.97263903555E-03  0.66779725575E-03  0.91026744964E-05  0.17130000000E+03  0.17130000000E+03 0. -1.
      622    1    1    2    0    0  0.12377419266E-02 -0.60983477737E-03  0.31952303627E+01  0.31952362940E+01  0.60000000000E-02 0. -1.
</event>
<event>
 5   0  0.1211800E+10  0.9118800E+02  0.7818608E-02  0.1180000E+00
       11   -1    0    0    0    0  0.00000000000E+00  0.00000000000E+00  0.39999999673E+01  0.40000000000E+01  0.51109989000E-03 0.  1.
     -623   -1    0    0    0    0  0.00000000000E+00  0.00000000000E+00  0.12525980253E-10  0.17130000000E+03  0.17130000000E+03 0. -1.
       11    1    1    2    0    0 -0.15148287770E-01  0.26838119031E-01  0.51121495492E+00  0.51214328719E+00  0.51109989000E-03 0.  1.
     -623    1    1    2    0    0  0.12269104242E-01 -0.29497430514E-01  0.93864420395E-03  0.17130000298E+03  0.17130000000E+03 0. -1.
      622    1    1    2    0    0  0.28791835279E-02  0.26593114830E-02  0.34878463682E+01  0.34878537312E+01  0.60000000000E-02 0.  1.
</event>
<event>
 5   0  0.1211800E+10  0.9118800E+02  0.7818608E-02  0.1180000E+00
       11   -1    0    0    0    0  0.00000000000E+00  0.00000000000E+00  0.39999999673E+01  0.40000000000E+01  0.51109989000E-03 0.  1.
     -623   -1    0    0    0    0  0.00000000000E+00  0.00000000000E+00  0.12525980253E-10  0.17130000000E+03  0.17130000000E+03 0.  1.
       11    1    1    2    0    0 -0.23286806860E-03  0.75455431851E-03  0.39549278429E-01  0.39560462928E-01  0.51109989000E-03 0. -1.
     -623    1    1    2    0    0 -0.64861110109E-04  0.20832180221E-03  0.15825191747E-04  0.17130000000E+03  0.17130000000E+03 0.  1.
      622    1    1    2    0    0  0.29772917871E-03 -0.96287612070E-03  0.39604348632E+01  0.39604395364E+01  0.60000000000E-02 0.  1.
</event>
<event>
 5   0  0.1211800E+10  0.9118800E+02  0.7818608E-02  0.1180000E+00
       11   -1    0    0    0    0  0.00000000000E+00  0.00000000000E+00  0.39999999673E+01  0.40000000000E+01  0.51109989000E-03 0.  1.
     -623   -1    0    0    0    0  0.00000000000E+00  0.00000000000E+00  0.12525980253E-10  0.17130000000E+03  0.17130000000E+03 0.  1.
       11    1    1    2    0    0  0.60492234278E-03  0.27611873788E-03  0.47474946280E-01  0.47482353775E-01  0.51109989000E-03 0.  1.
     -623    1    1    2    0    0 -0.17791720457E-04 -0.65320175559E-04  0.11978159471E-04  0.17130000000E+03  0.17130000000E+03 0.  1.
      622    1    1    2    0    0 -0.58713062219E-03 -0.21079856184E-03  0.39525130722E+01  0.39525176755E+01  0.60000000000E-02 0.  1.
</event>
<event>
 5   0  0.1211800E+10  0.9118800E+02  0.7818608E-02  0.1180000E+00
       11   -1    0    0    0    0  0.00000000000E+00  0.00000000000E+00  0.39999999673E+01  0.40000000000E+01  0.51109989000E-03 0.  1.
     -623   -1    0    0    0    0  0.00000000000E+00  0.00000000000E+00  0.12525980253E-10  0.17130000000E+03  0.17130000000E+03 0. -1.
       11    1    1    2    0    0 -0.12605965732E-02 -0.25418001924E-03  0.31225679702E+00  0.31225986329E+00  0.51109989000E-03 0.  1.
     -623    1    1    2    0    0 -0.27646808772E-04  0.22930768866E-04  0.81469339204E-05  0.17130000000E+03  0.17130000000E+03 0. -1.
      622    1    1    2    0    0  0.12882433823E-02  0.23124925011E-03  0.36877350702E+01  0.36877401835E+01  0.60000000000E-02 0.  1.
</event>
<event>
 5   0  0.1211800E+10  0.9118800E+02  0.7818608E-02  0.1180000E+00
       11   -1    0    0    0    0  0.00000000000E+00  0.00000000000E+00  0.39999999673E+01  0.40000000000E+01  0.51109989000E-03 0. -1.
     -623   -1    0    0    0    0  0.00000000000E+00  0.00000000000E+00  0.12525980253E-10  0.17130000000E+03  0.17130000000E+03 0.  1.
       11    1    1    2    0    0  0.46714656094E-02  0.41591880698E-03  0.39798154130E+00  0.39800950242E+00  0.51109989000E-03 0. -1.
     -623    1    1    2    0    0  0.63601169204E-04  0.37025834947E-03  0.36124224142E-04  0.17130000000E+03  0.17130000000E+03 0.  1.
      622    1    1    2    0    0 -0.47350667786E-02 -0.78617715645E-03  0.36019823018E+01  0.36019904972E+01  0.60000000000E-02 0. -1.
</event>
<event>
 5   0  0.1211800E+10  0.9118800E+02  0.7818608E-02  0.1180000E+00
       11   -1    0    0    0    0  0.00000000000E+00  0.00000000000E+00  0.39999999673E+01  0.40000000000E+01  0.51109989000E-03 0.  1.
     -623   -1    0    0    0    0  0.00000000000E+00  0.00000000000E+00  0.12525980253E-10  0.17130000000E+03  0.17130000000E+03 0. -1.
       11    1    1    2    0    0  0.14810352321E-02  0.25705859652E-02  0.36018331773E+00  0.36019589805E+00  0.51109989000E-03 0.  1.
     -623    1    1    2    0    0 -0.67180035286E-04 -0.35229768819E-04  0.18650640049E-04  0.17130000000E+03  0.17130000000E+03 0. -1.
      622    1    1    2    0    0 -0.14138551968E-02 -0.25353561964E-02  0.36397979990E+01  0.36398041019E+01  0.60000000000E-02 0.  1.
</event>
<event>
 5   0  0.1211800E+10  0.9118800E+02  0.7818608E-02  0.1180000E+00
       11   -1    0    0    0    0  0.00000000000E+00  0.00000000000E+00  0.39999999673E+01  0.40000000000E+01  0.51109989000E-03 0. -1.
     -623   -1    0    0    0    0  0.00000000000E+00  0.00000000000E+00  0.12525980253E-10  0.17130000000E+03  0.17130000000E+03 0.  1.
       11    1    1    2    0    0  0.53922747907E-03  0.30533435807E-03  0.43779074225E-01  0.43786442623E-01  0.51109989000E-03 0. -1.
     -623    1    1    2    0    0 -0.43883491993E-03 -0.73476114657E-03  0.11912283650E-04  0.17130000000E+03  0.17130000000E+03 0.  1.
      622    1    1    2    0    0 -0.10039255914E-03  0.42942678850E-03  0.39562089809E+01  0.39562135552E+01  0.60000000000E-02 0. -1.
</event>
<event>
 5   0  0.1211800E+10  0.9118800E+02  0.7818608E-02  0.1180000E+00
       11   -1    0    0    0    0  0.00000000000E+00  0.00000000000E+00  0.39999999673E+01  0.40000000000E+01  0.51109989000E-03 0.  1.
     -623   -1    0    0    0    0  0.00000000000E+00  0.00000000000E+00  0.12525980253E-10  0.17130000000E+03  0.17130000000E+03 0.  1.
       11    1    1    2    0    0 -0.13180367172E-02 -0.25591815627E-02  0.21960685901E+00  0.21962631987E+00  0.51109989000E-03 0.  1.
     -623    1    1    2    0    0  0.17621259689E-02  0.43876209052E-02  0.24723172689E-04  0.17130000007E+03  0.17130000000E+03 0.  1.
      622    1    1    2    0    0 -0.44408925753E-03 -0.18284393569E-02  0.37803683984E+01  0.37803736281E+01  0.60000000000E-02 0.  1.
</event>
<event>
 5   0  0.1211800E+10  0.9118800E+02  0.7818608E-02  0.1180000E+00
       11   -1    0    0    0    0  0.00000000000E+00  0.00000000000E+00  0.39999999673E+01  0.40000000000E+01  0.51109989000E-03 0. -1.
     -623   -1    0    0    0    0  0.00000000000E+00  0.00000000000E+00  0.12525980253E-10  0.17130000000E+03  0.17130000000E+03 0.  1.
       11    1    1    2    0    0 -0.85385230761E-03 -0.73404395202E-02  0.40670172059E-01  0.41339269856E-01  0.51109989000E-03 0. -1.
     -623    1    1    2    0    0 -0.34132574388E-02  0.58258136610E-02  0.67633611573E-03  0.17130000013E+03  0.17130000000E+03 0.  1.
      622    1    1    2    0    0  0.42671097464E-02  0.15146258592E-02  0.39586534592E+01  0.39586605957E+01  0.60000000000E-02 0. -1.
</event>
<event>
 5   0  0.1211800E+10  0.9118800E+02  0.7818608E-02  0.1180000E+00
       11   -1    0    0    0    0  0.00000000000E+00  0.00000000000E+00  0.39999999673E+01  0.40000000000E+01  0.51109989000E-03 0.  1.
     -623   -1    0    0    0    0  0.00000000000E+00  0.00000000000E+00  0.12525980253E-10  0.17130000000E+03  0.17130000000E+03 0.  1.
       11    1    1    2    0    0 -0.15269758859E-02 -0.89536783129E-03  0.12587834446E+00  0.12589182723E+00  0.51109989000E-03 0.  1.
     -623    1    1    2    0    0 -0.10972805352E-03  0.20343035179E-03  0.18504049992E-04  0.17130000000E+03  0.17130000000E+03 0.  1.
      622    1    1    2    0    0  0.16367039395E-02  0.69193747950E-03  0.38741031189E+01  0.38741081726E+01  0.60000000000E-02 0.  1.
</event>
<event>
 5   0  0.1211800E+10  0.9118800E+02  0.7818608E-02  0.1180000E+00
       11   -1    0    0    0    0  0.00000000000E+00  0.00000000000E+00  0.39999999673E+01  0.40000000000E+01  0.51109989000E-03 0. -1.
     -623   -1    0    0    0    0  0.00000000000E+00  0.00000000000E+00  0.12525980253E-10  0.17130000000E+03  0.17130000000E+03 0. -1.
       11    1    1    2    0    0 -0.39115381468E-03  0.71684141561E-03  0.25422805098E-01  0.25441051564E-01  0.51109989000E-03 0. -1.
     -623    1    1    2    0    0  0.13730056162E-04 -0.10926527462E-02  0.22781806880E-04  0.17130000000E+03  0.17130000000E+03 0. -1.
      622    1    1    2    0    0  0.37742375851E-03  0.37581133054E-03  0.39745543805E+01  0.39745589449E+01  0.60000000000E-02 0. -1.
</event>
<event>
 5   0  0.1211800E+10  0.9118800E+02  0.7818608E-02  0.1180000E+00
       11   -1    0    0    0    0  0.00000000000E+00  0.00000000000E+00  0.39999999673E+01  0.40000000000E+01  0.51109989000E-03 0. -1.
     -623   -1    0    0    0    0  0.00000000000E+00  0.00000000000E+00  0.12525980253E-10  0.17130000000E+03  0.17130000000E+03 0.  1.
       11    1    1    2    0    0  0.52466483871E-03  0.82162030110E-04  0.22209041398E+00  0.22209163701E+00  0.51109989000E-03 0. -1.
     -623    1    1    2    0    0  0.29812818596E-04 -0.24857292528E-04  0.59960595835E-05  0.17130000000E+03  0.17130000000E+03 0.  1.
      622    1    1    2    0    0 -0.55447765730E-03 -0.57304737582E-04  0.37779035573E+01  0.37779083630E+01  0.60000000000E-02 0. -1.
</event>
<event>
 5   0  0.1211800E+10  0.9118800E+02  0.7818608E-02  0.1180000E+00
       11   -1    0    0    0    0  0.00000000000E+00  0.00000000000E+00  0.39999999673E+01  0.40000000000E+01  0.51109989000E-03 0.  1.
     -623   -1    0    0    0    0  0.00000000000E+00  0.00000000000E+00  0.12525980253E-10  0.17130000000E+03  0.17130000000E+03 0. -1.
       11    1    1    2    0    0 -0.73887143382E-03  0.20125318342E-03  0.13196623969E-01  0.13228701415E-01  0.51109989000E-03 0.  1.
     -623    1    1    2    0    0 -0.17236690097E-04  0.25306242120E-03  0.36657516928E-04  0.17130000000E+03  0.17130000000E+03 0. -1.
      622    1    1    2    0    0  0.75610812396E-03 -0.45431560522E-03  0.39867666955E+01  0.39867713080E+01  0.60000000000E-02 0.  1.
</event>
<event>
 5   0  0.1211800E+10  0.9118800E+02  0.7818608E-02  0.1180000E+00
       11   -1    0    0    0    0  0.00000000000E+00  0.00000000000E+00  0.39999999673E+01  0.40000000000E+01  0.51109989000E-03 0.  1.
     -623   -1    0    0    0    0  0.00000000000E+00  0.00000000000E+00  0.12525980253E-10  0.17130000000E+03  0.17130000000E+03 0.  1.
       11    1    1    2    0    0  0.64812017168E-03  0.15286446105E-02  0.66008926960E+00  0.66009155567E+00  0.51109989000E-03 0.  1.
     -623    1    1    2    0    0 -0.79036008959E-03 -0.37717210165E-03  0.78465698943E-05  0.17130000000E+03  0.17130000000E+03 0.  1.
      622    1    1    2    0    0  0.14223991791E-03 -0.11514725088E-02  0.33399028512E+01  0.33399084421E+01  0.60000000000E-02 0.  1.
</event>
<event>
 5   0  0.1211800E+10  0.9118800E+02  0.7818608E-02  0.1180000E+00
       11   -1    0    0    0    0  0.00000000000E+00  0.00000000000E+00  0.39999999673E+01  0.40000000000E+01  0.51109989000E-03 0. -1.
     -623   -1    0    0    0    0  0.00000000000E+00  0.00000000000E+00  0.12525980253E-10  0.17130000000E+03  0.17130000000E+03 0. -1.
       11    1    1    2    0    0 -0.15440512635E-02 -0.66927149800E-03  0.11365036799E+01  0.11365050408E+01  0.51109989000E-03 0. -1.
     -623    1    1    2    0    0  0.14051779296E-03  0.10008369777E-02  0.79803962696E-05  0.17130000000E+03  0.17130000000E+03 0. -1.
      622    1    1    2    0    0  0.14035334706E-02 -0.33156547968E-03  0.28634883070E+01  0.28634949562E+01  0.60000000000E-02 0. -1.
</event>
<event>
 5   0  0.1211800E+10  0.9118800E+02  0.7818608E-02  0.1180000E+00
       11   -1    0    0    0    0  0.00000000000E+00  0.00000000000E+00  0.39999999673E+01  0.40000000000E+01  0.51109989000E-03 0.  1.
     -623   -1    0    0    0    0  0.00000000000E+00  0.00000000000E+00  0.12525980253E-10  0.17130000000E+03  0.17130000000E+03 0.  1.
       11    1    1    2    0    0  0.12810697251E-02 -0.23263063802E-02  0.53565802746E+00  0.53566485459E+00  0.51109989000E-03 0.  1.
     -623    1    1    2    0    0 -0.21320990604E-04 -0.13507454494E-03  0.13093794708E-04  0.17130000000E+03  0.17130000000E+03 0.  1.
      622    1    1    2    0    0 -0.12597487344E-02  0.24613809260E-02  0.34643288712E+01  0.34643351704E+01  0.60000000000E-02 0.  1.
</event>
<event>
 5   0  0.1211800E+10  0.9118800E+02  0.7818608E-02  0.1180000E+00
       11   -1    0    0    0    0  0.00000000000E+00  0.00000000000E+00  0.39999999673E+01  0.40000000000E+01  0.51109989000E-03 0. -1.
     -623   -1    0    0    0    0  0.00000000000E+00  0.00000000000E+00  0.12525980253E-10  0.17130000000E+03  0.17130000000E+03 0. -1.
       11    1    1    2    0    0  0.16006071967E-02  0.26810179697E-03  0.11024689472E+01  0.11024702602E+01  0.51109989000E-03 0. -1.
     -623    1    1    2    0    0 -0.11294853704E-02  0.19713559732E-02  0.84113281171E-05  0.17130000002E+03  0.17130000000E+03 0. -1.
      622    1    1    2    0    0 -0.47112182627E-03 -0.22394577702E-02  0.28975226088E+01  0.28975297247E+01  0.60000000000E-02 0. -1.
</event>
<event>
 5   0  0.1211800E+10  0.9118800E+02  0.7818608E-02  0.1180000E+00
       11   -1    0    0    0    0  0.00000000000E+00  0.00000000000E+00  0.39999999673E+01  0.40000000000E+01  0.51109989000E-03 0. -1.
     -623   -1    0    0    0    0  0.00000000000E+00  0.00000000000E+00  0.12525980253E-10  0.17130000000E+03  0.17130000000E+03 0. -1.
       11    1    1    2    0    0  0.44941352838E-03 -0.35844662276E-03  0.31516372951E+00  0.31516466819E+00  0.51109989000E-03 0. -1.
     -623    1    1    2    0    0 -0.12959874451E-03 -0.13642338978E-03  0.58381461709E-05  0.17130000000E+03  0.17130000000E+03 0. -1.
      622    1    1    2    0    0 -0.31981478405E-03  0.49487001235E-03  0.36848303942E+01  0.36848353262E+01  0.60000000000E-02 0. -1.
</event>
<event>
 5   0  0.1211800E+10  0.9118800E+02  0.7818608E-02  0.1180000E+00
       11   -1    0    0    0    0  0.00000000000E+00  0.00000000000E+00  0.39999999673E+01  0.40000000000E+01  0.51109989000E-03 0.  1.
     -623   -1    0    0    0    0  0.00000000000E+00  0.00000000000E+00  0.12525980253E-10  0.17130000000E+03  0.17130000000E+03 0. -1.
       11    1    1    2    0    0 -0.50136814010E-03  0.23561007248E-02  0.23090656519E+00  0.23091969524E+00  0.51109989000E-03 0.  1.
     -623    1    1    2    0    0  0.50630729456E-03 -0.31901682376E-03  0.18424660672E-04  0.17130000000E+03  0.17130000000E+03 0. -1.
      622    1    1    2    0    0 -0.49391544686E-05 -0.20370839010E-02  0.37690749775E+01  0.37690803037E+01  0.60000000000E-02 0.  1.
</event>
<event>
 5   0  0.1211800E+10  0.9118800E+02  0.7818608E-02  0.1180000E+00
       11   -1    0    0    0    0  0.00000000000E+00  0.00000000000E+00  0.39999999673E+01  0.40000000000E+01  0.51109989000E-03 0. -1.
     -623   -1    0    0    0    0  0.00000000000E+00  0.00000000000E+00  0.12525980253E-10  0.17130000000E+03  0.17130000000E+03 0.  1.
       11    1    1    2    0    0  0.21066394493E-02  0.10883373602E-02  0.69937187209E+00  0.69937607845E+00  0.51109989000E-03 0. -1.
     -623    1    1    2    0    0 -0.48401470204E-03  0.15693823715E-02  0.11103981495E-04  0.17130000001E+03  0.17130000000E+03 0.  1.
      622    1    1    2    0    0 -0.16226247405E-02 -0.26577197533E-02  0.33006170465E+01  0.33006239689E+01  0.60000000000E-02 0. -1.
</event>
<event>
 5   0  0.1211800E+10  0.9118800E+02  0.7818608E-02  0.1180000E+00
       11   -1    0    0    0    0  0.00000000000E+00  0.00000000000E+00  0.39999999673E+01  0.40000000000E+01  0.51109989000E-03 0.  1.
     -623   -1    0    0    0    0  0.00000000000E+00  0.00000000000E+00  0.12525980253E-10  0.17130000000E+03  0.17130000000E+03 0. -1.
       11    1    1    2    0    0  0.32184735123E-02  0.32692988861E-03  0.99531710278E+00  0.99532249133E+00  0.51109989000E-03 0.  1.
     -623    1    1    2    0    0  0.38026154009E-03 -0.14821355996E-03  0.13507512178E-04  0.17130000000E+03  0.17130000000E+03 0. -1.
      622    1    1    2    0    0 -0.35987350524E-02 -0.17871632866E-03  0.30046693571E+01  0.30046775082E+01  0.60000000000E-02 0.  0.
</event>
<event>
 5   0  0.1211800E+10  0.9118800E+02  0.7818608E-02  0.1180000E+00
       11   -1    0    0    0    0  0.00000000000E+00  0.00000000000E+00  0.39999999673E+01  0.40000000000E+01  0.51109989000E-03 0.  1.
     -623   -1    0    0    0    0  0.00000000000E+00  0.00000000000E+00  0.12525980253E-10  0.17130000000E+03  0.17130000000E+03 0. -1.
       11    1    1    2    0    0 -0.16927515019E-02  0.31852836060E-03  0.33551593338E+00  0.33552074398E+00  0.51109989000E-03 0.  1.
     -623    1    1    2    0    0 -0.11908234651E-03 -0.61588195939E-03  0.10151112911E-04  0.17130000000E+03  0.17130000000E+03 0. -1.
      622    1    1    2    0    0  0.18118338484E-02  0.29735359878E-03  0.36644738829E+01  0.36644792549E+01  0.60000000000E-02 0.  1.
</event>
<event>
 5   0  0.1211800E+10  0.9118800E+02  0.7818608E-02  0.1180000E+00
       11   -1    0    0    0    0  0.00000000000E+00  0.00000000000E+00  0.39999999673E+01  0.40000000000E+01  0.51109989000E-03 0.  1.
     -623   -1    0    0    0    0  0.00000000000E+00  0.00000000000E+00  0.12525980253E-10  0.17130000000E+03  0.17130000000E+03 0. -1.
       11    1    1    2    0    0  0.17623622927E-03  0.15659415358E-02  0.28806442604E+00  0.28806918962E+00  0.51109989000E-03 0.  1.
     -623    1    1    2    0    0  0.26226844690E-03 -0.22833006562E-04  0.99270168188E-05  0.17130000000E+03  0.17130000000E+03 0. -1.
      622    1    1    2    0    0 -0.43850467998E-03 -0.15431085289E-02  0.37119256725E+01  0.37119308684E+01  0.60000000000E-02 0.  1.
</event>
<event>
 5   0  0.1211800E+10  0.9118800E+02  0.7818608E-02  0.1180000E+00
       11   -1    0    0    0    0  0.00000000000E+00  0.00000000000E+00  0.39999999673E+01  0.40000000000E+01  0.51109989000E-03 0. -1.
     -623   -1    0    0    0    0  0.00000000000E+00  0.00000000000E+00  0.12525980253E-10  0.17130000000E+03  0.17130000000E+03 0.  1.
       11    1    1    2    0    0 -0.12964702742E-02  0.15834718609E-03  0.28605039309E-01  0.28639403022E-01  0.51109989000E-03 0.  1.
     -623    1    1    2    0    0 -0.35635321630E-03 -0.17637196566E-03  0.39207975435E-04  0.17130000000E+03  0.17130000000E+03 0.  1.
      622    1    1    2    0    0  0.16528234905E-02  0.18024779569E-04  0.39713557201E+01  0.39713605965E+01  0.60000000000E-02 0. -1.
</event>
<event>
 5   0  0.1211800E+10  0.9118800E+02  0.7818608E-02  0.1180000E+00
       11   -1    0    0    0    0  0.00000000000E+00  0.00000000000E+00  0.39999999673E+01  0.40000000000E+01  0.51109989000E-03 0. -1.
     -623   -1    0    0    0    0  0.00000000000E+00  0.00000000000E+00  0.12525980253E-10  0.17130000000E+03  0.17130000000E+03 0.  1.
       11    1    1    2    0    0  0.84357311382E-02 -0.45735904462E-03  0.10116541278E+01  0.10116895306E+01  0.51109989000E-03 0. -1.
     -623    1    1    2    0    0 -0.15939989036E-03 -0.14640681749E-03  0.52915719128E-04  0.17130000000E+03  0.17130000000E+03 0.  1.
      622    1    1    2    0    0 -0.82763312476E-02  0.60376586231E-03  0.29882929292E+01  0.29883104746E+01  0.60000000000E-02 0. -1.
</event>
<event>
 5   0  0.1211800E+10  0.9118800E+02  0.7818608E-02  0.1180000E+00
       11   -1    0    0    0    0  0.00000000000E+00  0.00000000000E+00  0.39999999673E+01  0.40000000000E+01  0.51109989000E-03 0.  1.
     -623   -1    0    0    0    0  0.00000000000E+00  0.00000000000E+00  0.12525980253E-10  0.17130000000E+03  0.17130000000E+03 0.  1.
       11    1    1    2    0    0  0.13563840311E-03 -0.61929803653E-03  0.12906057649E+00  0.12906314560E+00  0.51109989000E-03 0.  1.
     -623    1    1    2    0    0  0.26003560902E-03 -0.35477780444E-04  0.72623141083E-05  0.17130000000E+03  0.17130000000E+03 0.  1.
      622    1    1    2    0    0 -0.39567401213E-03  0.65477581697E-03  0.38709321286E+01  0.38709368542E+01  0.60000000000E-02 0.  1.
</event>
<event>
 5   0  0.1211800E+10  0.9118800E+02  0.7818608E-02  0.1180000E+00
       11   -1    0    0    0    0  0.00000000000E+00  0.00000000000E+00  0.39999999673E+01  0.40000000000E+01  0.51109989000E-03 0. -1.
     -623   -1    0    0    0    0  0.00000000000E+00  0.00000000000E+00  0.12525980253E-10  0.17130000000E+03  0.17130000000E+03 0.  1.
       11    1    1    2    0    0 -0.10705168959E-01 -0.58004439090E-02  0.98943775625E+00  0.98951279956E+00  0.51109989000E-03 0. -1.
     -623    1    1    2    0    0 -0.14187066883E-03 -0.61337145338E-05  0.10613124270E-03  0.17130000000E+03  0.17130000000E+03 0.  1.
      622    1    1    2    0    0  0.10847039628E-01  0.58065776235E-02  0.30104560799E+01  0.30104872003E+01  0.60000000000E-02 0. -1.
</event>
<event>
 5   0  0.1211800E+10  0.9118800E+02  0.7818608E-02  0.1180000E+00
       11   -1    0    0    0    0  0.00000000000E+00  0.00000000000E+00  0.39999999673E+01  0.40000000000E+01  0.51109989000E-03 0. -1.
     -623   -1    0    0    0    0  0.00000000000E+00  0.00000000000E+00  0.12525980253E-10  0.17130000000E+03  0.17130000000E+03 0. -1.
       11    1    1    2    0    0 -0.28160700651E-02 -0.98150966046E-03  0.33380366442E-01  0.33517214922E-01  0.51109989000E-03 0. -1.
     -623    1    1    2    0    0 -0.36282194628E-03  0.59926414523E-04  0.14273522822E-03  0.17130000000E+03  0.17130000000E+03 0. -1.
      622    1    1    2    0    0  0.31788920114E-02  0.92158324594E-03  0.39664768657E+01  0.39664827846E+01  0.60000000000E-02 0. -1.
</event>
<event>
 5   0  0.1211800E+10  0.9118800E+02  0.7818608E-02  0.1180000E+00
       11   -1    0    0    0    0  0.00000000000E+00  0.00000000000E+00  0.39999999673E+01  0.40000000000E+01  0.51109989000E-03 0.  1.
     -623   -1    0    0    0    0  0.00000000000E+00  0.00000000000E+00  0.12525980253E-10  0.17130000000E+03  0.17130000000E+03 0. -1.
       11    1    1    2    0    0  0.90833178203E-03  0.69299844254E-03  0.15745747586E+00  0.15746245026E+00  0.51109989000E-03 0.  1.
     -623    1    1    2    0    0 -0.81756914498E-03 -0.40766179324E-03  0.96402661312E-05  0.17130000000E+03  0.17130000000E+03 0. -1.
      622    1    1    2    0    0 -0.90762636979E-04 -0.28533664926E-03  0.38425328516E+01  0.38425375476E+01  0.60000000000E-02 0.  1.
</event>
<event>
 5   0  0.1211800E+10  0.9118800E+02  0.7818608E-02  0.1180000E+00
       11   -1    0    0    0    0  0.00000000000E+00  0.00000000000E+00  0.39999999673E+01  0.40000000000E+01  0.51109989000E-03 0.  1.
     -623   -1    0    0    0    0  0.00000000000E+00  0.00000000000E+00  0.12525980253E-10  0.17130000000E+03  0.17130000000E+03 0.  1.
       11    1    1    2    0    0 -0.23787202677E-03 -0.24767703314E-02  0.31901585050E+00  0.31902596300E+00  0.51109989000E-03 0.  1.
     -623    1    1    2    0    0  0.60454053447E-03 -0.47266390355E-03  0.16171494888E-04  0.17130000000E+03  0.17130000000E+03 0.  1.
      622    1    1    2    0    0 -0.36666850828E-03  0.29494342354E-02  0.36809679492E+01  0.36809740391E+01  0.60000000000E-02 0.  1.
</event>
<event>
 5   0  0.1211800E+10  0.9118800E+02  0.7818608E-02  0.1180000E+00
       11   -1    0    0    0    0  0.00000000000E+00  0.00000000000E+00  0.39999999673E+01  0.40000000000E+01  0.51109989000E-03 0. -1.
     -623   -1    0    0    0    0  0.00000000000E+00  0.00000000000E+00  0.12525980253E-10  0.17130000000E+03  0.17130000000E+03 0. -1.
       11    1    1    2    0    0  0.28285786885E-03  0.10042322099E-03  0.28334754108E-01  0.28340952822E-01  0.51109989000E-03 0. -1.
     -623    1    1    2    0    0 -0.15897774082E-03  0.99634719720E-04  0.10705261040E-04  0.17130000000E+03  0.17130000000E+03 0. -1.
      622    1    1    2    0    0 -0.12388012678E-03 -0.20005794150E-03  0.39716545396E+01  0.39716590786E+01  0.60000000000E-02 0. -1.
</event>
<event>
 5   0  0.1211800E+10  0.9118800E+02  0.7818608E-02  0.1180000E+00
       11   -1    0    0    0    0  0.00000000000E+00  0.00000000000E+00  0.39999999673E+01  0.40000000000E+01  0.51109989000E-03 0. -1.
     -623   -1    0    0    0    0  0.00000000000E+00  0.00000000000E+00  0.12525980253E-10  0.17130000000E+03  0.17130000000E+03 0.  1.
       11    1    1    2    0    0 -0.15770492906E-02 -0.16281715701E-03  0.27288646267E+00  0.27289154682E+00  0.51109989000E-03 0.  1.
     -623    1    1    2    0    0  0.26174251030E-04  0.18797769368E-04  0.10206444707E-04  0.17130000000E+03  0.17130000000E+03 0.  1.
      622    1    1    2    0    0  0.15508750395E-02  0.14401938759E-03  0.37271033081E+01  0.37271084630E+01  0.60000000000E-02 0. -1.
</event>
<event>
 5   0  0.1211800E+10  0.9118800E+02  0.7818608E-02  0.1180000E+00
       11   -1    0    0    0    0  0.00000000000E+00  0.00000000000E+00  0.39999999673E+01  0.40000000000E+01  0.51109989000E-03 0.  1.
     -623   -1    0    0    0    0  0.00000000000E+00  0.00000000000E+00  0.12525980253E-10  0.17130000000E+03  0.17130000000E+03 0.  1.
       11    1    1    2    0    0 -0.51646150213E-03 -0.38257731643E-03  0.25331403520E-01  0.25344710006E-01  0.51109989000E-03 0. -1.
     -623    1    1    2    0    0  0.20120662562E-03  0.16518773390E-03  0.17821188915E-04  0.17130000000E+03  0.17130000000E+03 0.  1.
      622    1    1    2    0    0  0.31525487590E-03  0.21738958203E-03  0.39746507548E+01  0.39746553019E+01  0.60000000000E-02 0.  1.
</event>
<event>
 5   0  0.1211800E+10  0.9118800E+02  0.7818608E-02  0.1180000E+00
       11   -1    0    0    0    0  0.00000000000E+00  0.00000000000E+00  0.39999999673E+01  0.40000000000E+01  0.51109989000E-03 0. -1.
     -623   -1    0    0    0    0  0.00000000000E+00  0.00000000000E+00  0.12525980253E-10  0.17130000000E+03  0.17130000000E+03 0. -1.
       11    1    1    2    0    0  0.32791285377E-03 -0.71336194793E-03  0.11946367170E-01  0.11983043075E-01  0.51109989000E-03 0. -1.
     -623    1    1    2    0    0 -0.53332729838E-03  0.60189435554E-03  0.41165529748E-04  0.17130000000E+03  0.17130000000E+03 0. -1.
      622    1    1    2    0    0  0.20541444461E-03  0.11146759239E-03  0.39880124347E+01  0.39880169550E+01  0.60000000000E-02 0. -1.
</event>
<event>
 5   0  0.1211800E+10  0.9118800E+02  0.7818608E-02  0.1180000E+00
       11   -1    0    0    0    0  0.00000000000E+00  0.00000000000E+00  0.39999999673E+01  0.40000000000E+01  0.51109989000E-03 0. -1.
     -623   -1    0    0    0    0  0.00000000000E+00  0.00000000000E+00  0.12525980253E-10  0.17130000000E+03  0.17130000000E+03 0.  1.
       11    1    1    2    0    0 -0.36853530725E-03  0.11633776661E-02  0.73988066408E-02  0.75161709559E-02  0.51109989000E-03 0. -1.
     -623    1    1    2    0    0 -0.29535203008E-03  0.19028728369E-03  0.12212523278E-03  0.17130000000E+03  0.17130000000E+03 0.  1.
      622    1    1    2    0    0  0.66388733732E-03 -0.13536649498E-02  0.39924790355E+01  0.39924838286E+01  0.60000000000E-02 0. -1.
</event>
<event>
 5   0  0.1211800E+10  0.9118800E+02  0.7818608E-02  0.1180000E+00
       11   -1    0    0    0    0  0.00000000000E+00  0.00000000000E+00  0.39999999673E+01  0.40000000000E+01  0.51109989000E-03 0.  1.
     -623   -1    0    0    0    0  0.00000000000E+00  0.00000000000E+00  0.12525980253E-10  0.17130000000E+03  0.17130000000E+03 0.  1.
       11    1    1    2    0    0  0.22255108741E-02 -0.10163832065E-02  0.71228434146E+00  0.71228872674E+00  0.51109989000E-03 0.  1.
     -623    1    1    2    0    0  0.16319335108E-03 -0.20959002997E-03  0.10924130454E-04  0.17130000000E+03  0.17130000000E+03 0.  1.
      622    1    1    2    0    0 -0.23887042251E-02  0.12259732364E-02  0.32877047018E+01  0.32877112731E+01  0.60000000000E-02 0.  0.
</event>
<event>
 5   0  0.1211800E+10  0.9118800E+02  0.7818608E-02  0.1180000E+00
       11   -1    0    0    0    0  0.00000000000E+00  0.00000000000E+00  0.39999999673E+01  0.40000000000E+01  0.51109989000E-03 0.  1.
     -623   -1    0    0    0    0  0.00000000000E+00  0.00000000000E+00  0.12525980253E-10  0.17130000000E+03  0.17130000000E+03 0. -1.
       11    1    1    2    0    0 -0.11362489015E-02 -0.49859574321E-04  0.14702902512E-01  0.14755680615E-01  0.51109989000E-03 0.  1.
     -623    1    1    2    0    0  0.45820602809E-04  0.36141850529E-03  0.57423882589E-04  0.17130000000E+03  0.17130000000E+03 0. -1.
      622    1    1    2    0    0  0.10904282987E-02 -0.31155893097E-03  0.39852396410E+01  0.39852443190E+01  0.60000000000E-02 0.  1.
</event>
<event>
 5   0  0.1211800E+10  0.9118800E+02  0.7818608E-02  0.1180000E+00
       11   -1    0    0    0    0  0.00000000000E+00  0.00000000000E+00  0.39999999673E+01  0.40000000000E+01  0.51109989000E-03 0. -1.
     -623   -1    0    0    0    0  0.00000000000E+00  0.00000000000E+00  0.12525980253E-10  0.17130000000E+03  0.17130000000E+03 0.  1.
       11    1    1    2    0    0 -0.63810463516E-03  0.28374673406E-03  0.16029474300E+00  0.16029707903E+00  0.51109989000E-03 0. -1.
     -623    1    1    2    0    0 -0.20117076957E-04  0.75296108217E-04  0.70644802421E-05  0.17130000000E+03  0.17130000000E+03 0.  1.
      622    1    1    2    0    0  0.65822171203E-03 -0.35904284198E-03  0.38396981441E+01  0.38397029051E+01  0.60000000000E-02 0. -1.
</event>
<event>
 5   0  0.1211800E+10  0.9118800E+02  0.7818608E-02  0.1180000E+00
       11   -1    0    0    0    0  0.00000000000E+00  0.00000000000E+00  0.39999999673E+01  0.40000000000E+01  0.51109989000E-03 0. -1.
     -623   -1    0    0    0    0  0.00000000000E+00  0.00000000000E+00  0.12525980253E-10  0.17130000000E+03  0.17130000000E+03 0. -1.
       11    1    1    2    0    0  0.52394263483E-02 -0.61882235187E-02  0.75587139339E-01  0.76022513460E-01  0.51109989000E-03 0. -1.
     -623    1    1    2    0    0 -0.36797424299E-02  0.49388572392E-02  0.44054881726E-03  0.17130000011E+03  0.17130000000E+03 0. -1.
      622    1    1    2    0    0 -0.15596839185E-02  0.12493662795E-02  0.39239722792E+01  0.39239773753E+01  0.60000000000E-02 0. -1.
</event>
<event>
 5   0  0.1211800E+10  0.9118800E+02  0.7818608E-02  0.1180000E+00
       11   -1    0    0    0    0  0.00000000000E+00  0.00000000000E+00  0.39999999673E+01  0.40000000000E+01  0.51109989000E-03 0. -1.
     -623   -1    0    0    0    0  0.00000000000E+00  0.00000000000E+00  0.12525980253E-10  0.17130000000E+03  0.17130000000E+03 0.  1.
       11    1    1    2    0    0  0.47236344661E-03 -0.25921541620E-03  0.98419780018E-02  0.98699581531E-02  0.51109989000E-03 0. -1.
     -623    1    1    2    0    0 -0.67097621410E-03  0.26667178506E-03  0.32465119604E-04  0.17130000000E+03  0.17130000000E+03 0.  1.
      622    1    1    2    0    0  0.19861276841E-03 -0.74563692180E-05  0.39901255297E+01  0.39901300458E+01  0.60000000000E-02 0. -1.
</event>
<event>
 5   0  0.1211800E+10  0.9118800E+02  0.7818608E-02  0.1180000E+00
       11   -1    0    0    0    0  0.00000000000E+00  0.00000000000E+00  0.39999999673E+01  0.40000000000E+01  0.51109989000E-03 0. -1.
     -623   -1    0    0    0    0  0.00000000000E+00  0.00000000000E+00  0.12525980253E-10  0.17130000000E+03  0.17130000000E+03 0. -1.
       11    1    1    2    0    0 -0.20833731172E-02  0.32520445137E-02  0.71178166260E+00  0.71179232411E+00  0.51109989000E-03 0. -1.
     -623    1    1    2    0    0  0.22656795829E-02 -0.14300045789E-03  0.17592910636E-04  0.17130000002E+03  0.17130000000E+03 0. -1.
      622    1    1    2    0    0 -0.18230646564E-03 -0.31090440558E-02  0.32882007119E+01  0.32882076608E+01  0.60000000000E-02 0. -1.
</event>
<event>
 5   0  0.1211800E+10  0.9118800E+02  0.7818608E-02  0.1180000E+00
       11   -1    0    0    0    0  0.00000000000E+00  0.00000000000E+00  0.39999999673E+01  0.40000000000E+01  0.51109989000E-03 0.  1.
     -623   -1    0    0    0    0  0.00000000000E+00  0.00000000000E+00  0.12525980253E-10  0.17130000000E+03  0.17130000000E+03 0.  1.
       11    1    1    2    0    0  0.14593615640E-01  0.21056841058E-02  0.92344939450E+00  0.92356724333E+00  0.51109989000E-03 0.  1.
     -623    1    1    2    0    0 -0.20877091582E-01 -0.43212229457E-04  0.13204761112E-03  0.17130000127E+03  0.17130000000E+03 0.  1.
      622    1    1    2    0    0  0.62834759542E-02 -0.20624718763E-02  0.30764185275E+01  0.30764314867E+01  0.60000000000E-02 0.  1.
</event>
<event>
 5   0  0.1211800E+10  0.9118800E+02  0.7818608E-02  0.1180000E+00
       11   -1    0    0    0    0  0.00000000000E+00  0.00000000000E+00  0.39999999673E+01  0.40000000000E+01  0.51109989000E-03 0. -1.
     -623   -1    0    0    0    0  0.00000000000E+00  0.00000000000E+00  0.12525980253E-10  0.17130000000E+03  0.17130000000E+03 0. -1.
       11    1    1    2    0    0 -0.97813834226E-02 -0.70446211693E-04  0.96722788623E+00  0.96727748115E+00  0.51109989000E-03 0. -1.
     -623    1    1    2    0    0  0.32125891116E-03 -0.28058598673E-03  0.70273198566E-04  0.17130000000E+03  0.17130000000E+03 0. -1.
      622    1    1    2    0    0  0.94601245115E-02  0.35103219842E-03  0.30327018079E+01  0.30327225183E+01  0.60000000000E-02 0. -1.
</event>
<event>
 5   0  0.1211800E+10  0.9118800E+02  0.7818608E-02  0.1180000E+00
       11   -1    0    0    0    0  0.00000000000E+00  0.00000000000E+00  0.39999999673E+01  0.40000000000E+01  0.51109989000E-03 0. -1.
     -623   -1    0    0    0    0  0.00000000000E+00  0.00000000000E+00  0.12525980253E-10  0.17130000000E+03  0.17130000000E+03 0. -1.
       11    1    1    2    0    0  0.79601779910E-03 -0.18495644977E-02  0.11778589444E+01  0.11778607764E+01  0.51109989000E-03 0. -1.
     -623    1    1    2    0    0  0.24238805264E-03 -0.63407070268E-03  0.94627961613E-05  0.17130000000E+03  0.17130000000E+03 0. -1.
      622    1    1    2    0    0 -0.10384058525E-02  0.24836352023E-02  0.28221315723E+01  0.28221392343E+01  0.60000000000E-02 0.  0.
</event>
<event>
 5   0  0.1211800E+10  0.9118800E+02  0.7818608E-02  0.1180000E+00
       11   -1    0    0    0    0  0.00000000000E+00  0.00000000000E+00  0.39999999673E+01  0.40000000000E+01  0.51109989000E-03 0. -1.
     -623   -1    0    0    0    0  0.00000000000E+00  0.00000000000E+00  0.12525980253E-10  0.17130000000E+03  0.17130000000E+03 0.  1.
       11    1    1    2    0    0 -0.64987378096E-03 -0.39132764943E-02  0.83761666698E-01  0.83857105244E-01  0.51109989000E-03 0. -1.
     -623    1    1    2    0    0 -0.41589608197E-03  0.11692842388E-02  0.10111315925E-03  0.17130000000E+03  0.17130000000E+03 0.  1.
      622    1    1    2    0    0  0.10657698630E-02  0.27439922555E-02  0.39161371879E+01  0.39161428906E+01  0.60000000000E-02 0. -1.
</event>
<event>
 5   0  0.1211800E+10  0.9118800E+02  0.7818608E-02  0.1180000E+00
       11   -1    0    0    0    0  0.00000000000E+00  0.00000000000E+00  0.39999999673E+01  0.40000000000E+01  0.51109989000E-03 0. -1.
     -623   -1    0    0    0    0  0.00000000000E+00  0.00000000000E+00  0.12525980253E-10  0.17130000000E+03  0.17130000000E+03 0.  1.
       11    1    1    2    0    0 -0.20723183319E-02 -0.20475756559E-02  0.32240512250E+00  0.32241868945E+00  0.51109989000E-03 0. -1.
     -623    1    1    2    0    0  0.27585026102E-02  0.20644071123E-02  0.18527540201E-04  0.17130000003E+03  0.17130000000E+03 0.  1.
      622    1    1    2    0    0 -0.68618428719E-03 -0.16831463136E-04  0.36775763303E+01  0.36775812888E+01  0.60000000000E-02 0. -1.
</event>
<event>
 5   0  0.1211800E+10  0.9118800E+02  0.7818608E-02  0.1180000E+00
       11   -1    0    0    0    0  0.00000000000E+00  0.00000000000E+00  0.39999999673E+01  0.40000000000E+01  0.51109989000E-03 0. -1.
     -623   -1    0    0    0    0  0.00000000000E+00  0.00000000000E+00  0.12525980253E-10  0.17130000000E+03  0.17130000000E+03 0.  1.
       11    1    1    2    0    0 -0.20529911089E-02 -0.71497739582E-03  0.77640141305E+00  0.77640462478E+00  0.51109989000E-03 0. -1.
     -623    1    1    2    0    0  0.10162268873E-04  0.59518001150E-04  0.94768498906E-05  0.17130000000E+03  0.17130000000E+03 0.  1.
      622    1    1    2    0    0  0.20428288400E-02  0.65545939467E-03  0.32235890775E+01  0.32235953752E+01  0.60000000000E-02 0.  0.
</event>
<event>
 5   0  0.1211800E+10  0.9118800E+02  0.7818608E-02  0.1180000E+00
       11   -1    0    0    0    0  0.00000000000E+00  0.00000000000E+00  0.39999999673E+01  0.40000000000E+01  0.51109989000E-03 0. -1.
     -623   -1    0    0    0    0  0.00000000000E+00  0.00000000000E+00  0.12525980253E-10  0.17130000000E+03  0.17130000000E+03 0.  1.
       11    1    1    2    0    0 -0.77282717280E-03  0.40151219833E-02  0.83145375405E+00  0.83146396483E+00  0.51109989000E-03 0. -1.
     -623    1    1    2    0    0 -0.57313386182E-03 -0.80650591846E-02  0.18923962928E-04  0.17130000019E+03  0.17130000000E+03 0.  1.
      622    1    1    2    0    0  0.13459610378E-02  0.40499372461E-02  0.31685273116E+01  0.31685358666E+01  0.60000000000E-02 0. -1.
</event>
<event>
 5   0  0.1211800E+10  0.9118800E+02  0.7818608E-02  0.1180000E+00
       11   -1    0    0    0    0  0.00000000000E+00  0.00000000000E+00  0.39999999673E+01  0.40000000000E+01  0.51109989000E-03 0.  1.
     -623   -1    0    0    0    0  0.00000000000E+00  0.00000000000E+00  0.12525980253E-10  0.17130000000E+03  0.17130000000E+03 0.  1.
       11    1    1    2    0    0  0.93980644277E-03  0.26233598641E-04  0.34632181997E+00  0.34632347326E+00  0.51109989000E-03 0.  1.
     -623    1    1    2    0    0 -0.19357565318E-04 -0.25524322415E-04  0.66631456019E-05  0.17130000000E+03  0.17130000000E+03 0.  1.
      622    1    1    2    0    0 -0.92044887745E-03 -0.70927622547E-06  0.36536714842E+01  0.36536765267E+01  0.60000000000E-02 0.  1.
</event>
<event>
 5   0  0.1211800E+10  0.9118800E+02  0.7818608E-02  0.1180000E+00
       11   -1    0    0    0    0  0.00000000000E+00  0.00000000000E+00  0.39999999673E+01  0.40000000000E+01  0.51109989000E-03 0. -1.
     -623   -1    0    0    0    0  0.00000000000E+00  0.00000000000E+00  0.12525980253E-10  0.17130000000E+03  0.17130000000E+03 0.  1.
       11    1    1    2    0    0  0.11523810028E-02 -0.75295753407E-03  0.50113036940E+00  0.50113252068E+00  0.51109989000E-03 0. -1.
     -623    1    1    2    0    0  0.21687676707E-03  0.69157126515E-04  0.75980606451E-05  0.17130000000E+03  0.17130000000E+03 0.  1.
      622    1    1    2    0    0 -0.13692577698E-02  0.68380040756E-03  0.34988619999E+01  0.34988674792E+01  0.60000000000E-02 0. -1.
</event>
<event>
 5   0  0.1211800E+10  0.9118800E+02  0.7818608E-02  0.1180000E+00
       11   -1    0    0    0    0  0.00000000000E+00  0.00000000000E+00  0.39999999673E+01  0.40000000000E+01  0.51109989000E-03 0. -1.
     -623   -1    0    0    0    0  0.00000000000E+00  0.00000000000E+00  0.12525980253E-10  0.17130000000E+03  0.17130000000E+03 0.  1.
       11    1    1    2    0    0  0.26351574320E-02  0.51188971344E-03  0.58073250042E+00  0.58073892960E+00  0.51109989000E-03 0. -1.
     -623    1    1    2    0    0  0.67488241213E-04 -0.43683309373E-04  0.12761026658E-04  0.17130000000E+03  0.17130000000E+03 0.  1.
      622    1    1    2    0    0 -0.27026456731E-02 -0.46820640413E-03  0.34192547003E+01  0.34192610647E+01  0.60000000000E-02 0.  1.
</event>
<event>
 5   0  0.1211800E+10  0.9118800E+02  0.7818608E-02  0.1180000E+00
       11   -1    0    0    0    0  0.00000000000E+00  0.00000000000E+00  0.39999999673E+01  0.40000000000E+01  0.51109989000E-03 0.  1.
     -623   -1    0    0    0    0  0.00000000000E+00  0.00000000000E+00  0.12525980253E-10  0.17130000000E+03  0.17130000000E+03 0. -1.
       11    1    1    2    0    0  0.28232011325E-02  0.26984449180E-02  0.97850381194E-01  0.97929619587E-01  0.51109989000E-03 0.  1.
     -623    1    1    2    0    0 -0.22405963330E-03 -0.40017680240E-02  0.84948898950E-04  0.17130000005E+03  0.17130000000E+03 0. -1.
      622    1    1    2    0    0 -0.25991414993E-02  0.13033231041E-02  0.39020646355E+01  0.39020703317E+01  0.60000000000E-02 0.  1.
</event>
<event>
 5   0  0.1211800E+10  0.9118800E+02  0.7818608E-02  0.1180000E+00
       11   -1    0    0    0    0  0.00000000000E+00  0.00000000000E+00  0.39999999673E+01  0.40000000000E+01  0.51109989000E-03 0. -1.
     -623   -1    0    0    0    0  0.00000000000E+00  0.00000000000E+00  0.12525980253E-10  0.17130000000E+03  0.17130000000E+03 0.  1.
       11    1    1    2    0    0  0.36275170741E-02 -0.38294808556E-03  0.11105492193E+01  0.11105553274E+01  0.51109989000E-03 0. -1.
     -623    1    1    2    0    0  0.15882080955E-02  0.19274334458E-02  0.17443497460E-04  0.17130000002E+03  0.17130000000E+03 0.  1.
      622    1    1    2    0    0 -0.52157251699E-02 -0.15444853607E-02  0.28894333056E+01  0.28894446554E+01  0.60000000000E-02 0. -1.
</event>
<event>
 5   0  0.1211800E+10  0.9118800E+02  0.7818608E-02  0.1180000E+00
       11   -1    0    0    0    0  0.00000000000E+00  0.00000000000E+00  0.39999999673E+01  0.40000000000E+01  0.51109989000E-03 0. -1.
     -623   -1    0    0    0    0  0.00000000000E+00  0.00000000000E+00  0.12525980253E-10  0.17130000000E+03  0.17130000000E+03 0. -1.
       11    1    1    2    0    0  0.55615701027E-03 -0.13360498231E-02  0.72038137166E-02  0.73654934367E-02  0.51109989000E-03 0. -1.
     -623    1    1    2    0    0  0.52324741878E-03  0.10612083264E-02  0.16631491890E-03  0.17130000000E+03  0.17130000000E+03 0. -1.
      622    1    1    2    0    0 -0.10794044290E-02  0.27484149671E-03  0.39926298387E+01  0.39926345024E+01  0.60000000000E-02 0. -1.
</event>
<event>
 5   0  0.1211800E+10  0.9118800E+02  0.7818608E-02  0.1180000E+00
       11   -1    0    0    0    0  0.00000000000E+00  0.00000000000E+00  0.39999999673E+01  0.40000000000E+01  0.51109989000E-03 0.  1.
     -623   -1    0    0    0    0  0.00000000000E+00  0.00000000000E+00  0.12525980253E-10  0.17130000000E+03  0.17130000000E+03 0.  1.
       11    1    1    2    0    0  0.63548422556E-03 -0.30937864619E-03  0.28516860566E-01  0.28530196547E-01  0.51109989000E-03 0.  1.
     -623    1    1    2    0    0 -0.47429860742E-03 -0.70689968979E-04  0.17857799250E-04  0.17130000000E+03  0.17130000000E+03 0.  1.
      622    1    1    2    0    0 -0.16118561455E-03  0.38006861571E-03  0.39714652793E+01  0.39714698331E+01  0.60000000000E-02 0.  1.
</event>
<event>
 5   0  0.1211800E+10  0.9118800E+02  0.7818608E-02  0.1180000E+00
       11   -1    0    0    0    0  0.00000000000E+00  0.00000000000E+00  0.39999999673E+01  0.40000000000E+01  0.51109989000E-03 0.  1.
     -623   -1    0    0    0    0  0.00000000000E+00  0.00000000000E+00  0.12525980253E-10  0.17130000000E+03  0.17130000000E+03 0. -1.
       11    1    1    2    0    0 -0.79250092959E-03  0.16067412999E-02  0.13334742716E+00  0.13336044102E+00  0.51109989000E-03 0. -1.
     -623    1    1    2    0    0 -0.50802341052E-02  0.33112067322E-02  0.25331146809E-04  0.17130000011E+03  0.17130000000E+03 0. -1.
      622    1    1    2    0    0  0.58727350683E-02 -0.49179480540E-02  0.38666272355E+01  0.38666394781E+01  0.60000000000E-02 0.  1.
</event>
<event>
 5   0  0.1211800E+10  0.9118800E+02  0.7818608E-02  0.1180000E+00
       11   -1    0    0    0    0  0.00000000000E+00  0.00000000000E+00  0.39999999673E+01  0.40000000000E+01  0.51109989000E-03 0. -1.
     -623   -1    0    0    0    0  0.00000000000E+00  0.00000000000E+00  0.12525980253E-10  0.17130000000E+03  0.17130000000E+03 0.  1.
       11    1    1    2    0    0  0.53107489371E-02  0.87479258942E-02  0.53025272097E+00  0.53035171309E+00  0.51109989000E-03 0. -1.
     -623    1    1    2    0    0 -0.64013482904E-03 -0.37721108193E-02  0.11090165290E-03  0.17130000004E+03  0.17130000000E+03 0.  1.
      622    1    1    2    0    0 -0.46706141081E-02 -0.49758150749E-02  0.34696363447E+01  0.34696482441E+01  0.60000000000E-02 0. -1.
</event>
<event>
 5   0  0.1211800E+10  0.9118800E+02  0.7818608E-02  0.1180000E+00
       11   -1    0    0    0    0  0.00000000000E+00  0.00000000000E+00  0.39999999673E+01  0.40000000000E+01  0.51109989000E-03 0.  1.
     -623   -1    0    0    0    0  0.00000000000E+00  0.00000000000E+00  0.12525980253E-10  0.17130000000E+03  0.17130000000E+03 0.  1.
       11    1    1    2    0    0 -0.54635135958E-04 -0.20248492187E-02  0.34210582388E+00  0.34211220229E+00  0.51109989000E-03 0. -1.
     -623    1    1    2    0    0  0.55204101821E-05  0.12911704750E-03  0.11758261406E-04  0.17130000000E+03  0.17130000000E+03 0.  1.
      622    1    1    2    0    0  0.49114725776E-04  0.18957321712E-02  0.36578823852E+01  0.36578877977E+01  0.60000000000E-02 0.  1.
</event>
<event>
 5   0  0.1211800E+10  0.9118800E+02  0.7818608E-02  0.1180000E+00
       11   -1    0    0    0    0  0.00000000000E+00  0.00000000000E+00  0.39999999673E+01  0.40000000000E+01  0.51109989000E-03 0. -1.
     -623   -1    0    0    0    0  0.00000000000E+00  0.00000000000E+00  0.12525980253E-10  0.17130000000E+03  0.17130000000E+03 0.  1.
       11    1    1    2    0    0  0.28887198800E-02  0.53552653960E-02  0.27592347679E+00  0.27599103217E+00  0.51109989000E-03 0. -1.
     -623    1    1    2    0    0 -0.76341026382E-04 -0.39967615876E-03  0.76715939526E-04  0.17130000000E+03  0.17130000000E+03 0.  1.
      622    1    1    2    0    0 -0.28123788536E-02 -0.49555892373E-02  0.37239997746E+01  0.37240089673E+01  0.60000000000E-02 0. -1.
</event>
<event>
 5   0  0.1211800E+10  0.9118800E+02  0.7818608E-02  0.1180000E+00
       11   -1    0    0    0    0  0.00000000000E+00  0.00000000000E+00  0.39999999673E+01  0.40000000000E+01  0.51109989000E-03 0. -1.
     -623   -1    0    0    0    0  0.00000000000E+00  0.00000000000E+00  0.12525980253E-10  0.17130000000E+03  0.17130000000E+03 0. -1.
       11    1    1    2    0    0 -0.29722956731E-03  0.29322321770E-02  0.22854145317E-01  0.23049067491E-01  0.51109989000E-03 0. -1.
     -623    1    1    2    0    0  0.32281034296E-03 -0.11824450504E-03  0.20041171557E-03  0.17130000000E+03  0.17130000000E+03 0. -1.
      622    1    1    2    0    0 -0.25580775635E-04 -0.28139876719E-02  0.39769454101E+01  0.39769509319E+01  0.60000000000E-02 0. -1.
</event>
<event>
 5   0  0.1211800E+10  0.9118800E+02  0.7818608E-02  0.1180000E+00
       11   -1    0    0    0    0  0.00000000000E+00  0.00000000000E+00  0.39999999673E+01  0.40000000000E+01  0.51109989000E-03 0.  1.
     -623   -1    0    0    0    0  0.00000000000E+00  0.00000000000E+00  0.12525980253E-10  0.17130000000E+03  0.17130000000E+03 0.  1.
       11    1    1    2    0    0 -0.19970263772E-02  0.61528900498E-03  0.59821041159E+00  0.59821427971E+00  0.51109989000E-03 0.  1.
     -623    1    1    2    0    0  0.88546244175E-03 -0.94982649970E-03  0.93298033241E-05  0.17130000000E+03  0.17130000000E+03 0.  1.
      622    1    1    2    0    0  0.11115639355E-02  0.33453749472E-03  0.34017802260E+01  0.34017857154E+01  0.60000000000E-02 0.  1.
</event>
<event>
 5   0  0.1211800E+10  0.9118800E+02  0.7818608E-02  0.1180000E+00
       11   -1    0    0    0    0  0.00000000000E+00  0.00000000000E+00  0.39999999673E+01  0.40000000000E+01  0.51109989000E-03 0. -1.
     -623   -1    0    0    0    0  0.00000000000E+00  0.00000000000E+00  0.12525980253E-10  0.17130000000E+03  0.17130000000E+03 0.  1.
       11    1    1    2    0    0 -0.13428382499E-03 -0.62471960713E-04  0.69243140173E-01  0.69245184807E-01  0.51109989000E-03 0. -1.
     -623    1    1    2    0    0  0.41345615525E-04  0.59105145336E-04  0.65923855677E-05  0.17130000000E+03  0.17130000000E+03 0.  1.
      622    1    1    2    0    0  0.92938209553E-04  0.33668155100E-05  0.39307502259E+01  0.39307548062E+01  0.60000000000E-02 0. -1.
</event>
<event>
 5   0  0.1211800E+10  0.9118800E+02  0.7818608E-02  0.1180000E+00
       11   -1    0    0    0    0  0.00000000000E+00  0.00000000000E+00  0.39999999673E+01  0.40000000000E+01  0.51109989000E-03 0.  1.
     -623   -1    0    0    0    0  0.00000000000E+00  0.00000000000E+00  0.12525980253E-10  0.17130000000E+03  0.17130000000E+03 0.  1.
       11    1    1    2    0    0 -0.13134221813E-02 -0.61386239338E-03  0.16293052656E+00  0.16293777835E+00  0.51109989000E-03 0.  1.
     -623    1    1    2    0    0  0.49612668526E-03 -0.39173207017E-04  0.12053576243E-04  0.17130000000E+03  0.17130000000E+03 0.  1.
      622    1    1    2    0    0  0.81729549847E-03  0.65303560021E-03  0.38370573680E+01  0.38370622017E+01  0.60000000000E-02 0.  1.
</event>
<event>
 5   0  0.1211800E+10  0.9118800E+02  0.7818608E-02  0.1180000E+00
       11   -1    0    0    0    0  0.00000000000E+00  0.00000000000E+00  0.39999999673E+01  0.40000000000E+01  0.51109989000E-03 0.  1.
     -623   -1    0    0    0    0  0.00000000000E+00  0.00000000000E+00  0.12525980253E-10  0.17130000000E+03  0.17130000000E+03 0. -1.
       11    1    1    2    0    0  0.52959166356E-03 -0.15605146845E-02  0.74878568010E+00  0.74878766791E+00  0.51109989000E-03 0.  1.
     -623    1    1    2    0    0 -0.54135950614E-05  0.26709353407E-04  0.78956298970E-05  0.17130000000E+03  0.17130000000E+03 0. -1.
      622    1    1    2    0    0 -0.52417806844E-03  0.15338053308E-02  0.32512064344E+01  0.32512123749E+01  0.60000000000E-02 0.  0.
</event>
<event>
 5   0  0.1211800E+10  0.9118800E+02  0.7818608E-02  0.1180000E+00
       11   -1    0    0    0    0  0.00000000000E+00  0.00000000000E+00  0.39999999673E+01  0.40000000000E+01  0.51109989000E-03 0.  1.
     -623   -1    0    0    0    0  0.00000000000E+00  0.00000000000E+00  0.12525980253E-10  0.17130000000E+03  0.17130000000E+03 0.  1.
       11    1    1    2    0    0  0.37782705700E-03  0.14636418829E-02  0.85236845142E+00  0.85236994503E+00  0.51109989000E-03 0.  1.
     -623    1    1    2    0    0 -0.54864048169E-04 -0.16150149598E-04  0.75289749049E-05  0.17130000000E+03  0.17130000000E+03 0.  1.
      622    1    1    2    0    0 -0.32296300828E-03 -0.14474917331E-02  0.31476240272E+01  0.31476300952E+01  0.60000000000E-02 0.  1.
</event>
<event>
 5   0  0.1211800E+10  0.9118800E+02  0.7818608E-02  0.1180000E+00
       11   -1    0    0    0    0  0.00000000000E+00  0.00000000000E+00  0.39999999673E+01  0.40000000000E+01  0.51109989000E-03 0. -1.
     -623   -1    0    0    0    0  0.00000000000E+00  0.00000000000E+00  0.12525980253E-10  0.17130000000E+03  0.17130000000E+03 0. -1.
       11    1    1    2    0    0  0.36127565226E-02  0.26198915984E-02  0.32725872627E+00  0.32728955221E+00  0.51109989000E-03 0. -1.
     -623    1    1    2    0    0  0.14229047222E-04 -0.79014301264E-04  0.38364177787E-04  0.17130000000E+03  0.17130000000E+03 0. -1.
      622    1    1    2    0    0 -0.36269855699E-02 -0.25408772971E-02  0.36727028769E+01  0.36727104478E+01  0.60000000000E-02 0. -1.
</event>
<event>
 5   0  0.1211800E+10  0.9118800E+02  0.7818608E-02  0.1180000E+00
       11   -1    0    0    0    0  0.00000000000E+00  0.00000000000E+00  0.39999999673E+01  0.40000000000E+01  0.51109989000E-03 0. -1.
     -623   -1    0    0    0    0  0.00000000000E+00  0.00000000000E+00  0.12525980253E-10  0.17130000000E+03  0.17130000000E+03 0. -1.
       11    1    1    2    0    0  0.61408912733E-02 -0.14499406184E-02  0.72530370590E+00  0.72533133111E+00  0.51109989000E-03 0. -1.
     -623    1    1    2    0    0  0.31088794241E-02  0.19898294853E-02  0.46237292229E-04  0.17130000004E+03  0.17130000000E+03 0. -1.
      622    1    1    2    0    0 -0.92497707010E-02 -0.53988886920E-03  0.32746500288E+01  0.32746686338E+01  0.60000000000E-02 0. -1.
</event>
<event>
 5   0  0.1211800E+10  0.9118800E+02  0.7818608E-02  0.1180000E+00
       11   -1    0    0    0    0  0.00000000000E+00  0.00000000000E+00  0.39999999673E+01  0.40000000000E+01  0.51109989000E-03 0.  1.
     -623   -1    0    0    0    0  0.00000000000E+00  0.00000000000E+00  0.12525980253E-10  0.17130000000E+03  0.17130000000E+03 0. -1.
       11    1    1    2    0    0 -0.60216733857E-03  0.36525880771E-02  0.67089877306E-01  0.67193875206E-01  0.51109989000E-03 0. -1.
     -623    1    1    2    0    0 -0.21507634238E-04  0.19245146168E-03  0.11047136285E-03  0.17130000000E+03  0.17130000000E+03 0. -1.
      622    1    1    2    0    0  0.62367497280E-03 -0.38450395387E-02  0.39327996173E+01  0.39328061233E+01  0.60000000000E-02 0.  1.
</event>
<event>
 5   0  0.1211800E+10  0.9118800E+02  0.7818608E-02  0.1180000E+00
       11   -1    0    0    0    0  0.00000000000E+00  0.00000000000E+00  0.39999999673E+01  0.40000000000E+01  0.51109989000E-03 0. -1.
     -623   -1    0    0    0    0  0.00000000000E+00  0.00000000000E+00  0.12525980253E-10  0.17130000000E+03  0.17130000000E+03 0.  1.
       11    1    1    2    0    0 -0.31360398205E-02 -0.11065334625E-02  0.11756289680E+01  0.11756337826E+01  0.51109989000E-03 0. -1.
     -623    1    1    2    0    0 -0.33205476697E-04  0.29706579549E-02  0.13574138762E-04  0.17130000003E+03  0.17130000000E+03 0.  1.
      622    1    1    2    0    0  0.31692452971E-02 -0.18641244844E-02  0.28243574144E+01  0.28243661808E+01  0.60000000000E-02 0. -1.
</event>
<event>
 5   0  0.1211800E+10  0.9118800E+02  0.7818608E-02  0.1180000E+00
       11   -1    0    0    0    0  0.00000000000E+00  0.00000000000E+00  0.39999999673E+01  0.40000000000E+01  0.51109989000E-03 0. -1.
     -623   -1    0    0    0    0  0.00000000000E+00  0.00000000000E+00  0.12525980253E-10  0.17130000000E+03  0.17130000000E+03 0.  1.
       11    1    1    2    0    0  0.31348744876E-02 -0.10131556888E-02  0.10247445114E+01  0.10247499347E+01  0.51109989000E-03 0. -1.
     -623    1    1    2    0    0 -0.71774083273E-05  0.13430055764E-03  0.13214474301E-04  0.17130000000E+03  0.17130000000E+03 0.  1.
      622    1    1    2    0    0 -0.31276970792E-02  0.87885513082E-03  0.29752422513E+01  0.29752500750E+01  0.60000000000E-02 0. -1.
</event>
<event>
 5   0  0.1211800E+10  0.9118800E+02  0.7818608E-02  0.1180000E+00
       11   -1    0    0    0    0  0.00000000000E+00  0.00000000000E+00  0.39999999673E+01  0.40000000000E+01  0.51109989000E-03 0. -1.
     -623   -1    0    0    0    0  0.00000000000E+00  0.00000000000E+00  0.12525980253E-10  0.17130000000E+03  0.17130000000E+03 0.  1.
       11    1    1    2    0    0 -0.38726884196E-03 -0.33191985751E-03  0.55845925684E-01  0.55850593430E-01  0.51109989000E-03 0. -1.
     -623    1    1    2    0    0  0.74398246595E-04 -0.53534498631E-04  0.92300995882E-05  0.17130000000E+03  0.17130000000E+03 0.  1.
      622    1    1    2    0    0  0.31287059482E-03  0.38545435654E-03  0.39441448408E+01  0.39441494358E+01  0.60000000000E-02 0. -1.
</event>
<event>
 5   0  0.1211800E+10  0.9118800E+02  0.7818608E-02  0.1180000E+00
       11   -1    0    0    0    0  0.00000000000E+00  0.00000000000E+00  0.39999999673E+01  0.40000000000E+01  0.51109989000E-03 0.  1.
     -623   -1    0    0    0    0  0.00000000000E+00  0.00000000000E+00  0.12525980253E-10  0.17130000000E+03  0.17130000000E+03 0.  1.
       11    1    1    2    0    0  0.27920990255E-02 -0.57918331795E-02  0.92334118094E-01  0.92559125616E-01  0.51109989000E-03 0.  1.
     -623    1    1    2    0    0 -0.25407945247E-02  0.35452856869E-02  0.23029106401E-03  0.17130000006E+03  0.17130000000E+03 0.  1.
      622    1    1    2    0    0 -0.25130450080E-03  0.22465474926E-02  0.39074355582E+01  0.39074408187E+01  0.60000000000E-02 0.  1.
</event>
<event>
 5   0  0.1211800E+10  0.9118800E+02  0.7818608E-02  0.1180000E+00
       11   -1    0    0    0    0  0.00000000000E+00  0.00000000000E+00  0.39999999673E+01  0.40000000000E+01  0.51109989000E-03 0. -1.
     -623   -1    0    0    0    0  0.00000000000E+00  0.00000000000E+00  0.12525980253E-10  0.17130000000E+03  0.17130000000E+03 0. -1.
       11    1    1    2    0    0  0.82617830047E-03 -0.40861038297E-03  0.52027175541E+00  0.52027282289E+00  0.51109989000E-03 0. -1.
     -623    1    1    2    0    0  0.28766649413E-05 -0.52847496966E-03  0.64334146463E-05  0.17130000000E+03  0.17130000000E+03 0. -1.
      622    1    1    2    0    0 -0.82905496543E-03  0.93708535582E-03  0.34797218027E+01  0.34797272004E+01  0.60000000000E-02 0. -1.
</event>
<event>
 5   0  0.1211800E+10  0.9118800E+02  0.7818608E-02  0.1180000E+00
       11   -1    0    0    0    0  0.00000000000E+00  0.00000000000E+00  0.39999999673E+01  0.40000000000E+01  0.51109989000E-03 0. -1.
     -623   -1    0    0    0    0  0.00000000000E+00  0.00000000000E+00  0.12525980253E-10  0.17130000000E+03  0.17130000000E+03 0.  1.
       11    1    1    2    0    0  0.14251351942E-02  0.43915292801E-03  0.80930538764E-01  0.80945890528E-01  0.51109989000E-03 0. -1.
     -623    1    1    2    0    0  0.13715440901E-03 -0.18848822523E-03  0.20231643160E-04  0.17130000000E+03  0.17130000000E+03 0.  1.
      622    1    1    2    0    0 -0.15622896027E-02 -0.25066470346E-03  0.39190491825E+01  0.39190540948E+01  0.60000000000E-02 0. -1.
</event>
<event>
 5   0  0.1211800E+10  0.9118800E+02  0.7818608E-02  0.1180000E+00
       11   -1    0    0    0    0  0.00000000000E+00  0.00000000000E+00  0.39999999673E+01  0.40000000000E+01  0.51109989000E-03 0.  1.
     -623   -1    0    0    0    0  0.00000000000E+00  0.00000000000E+00  0.12525980253E-10  0.17130000000E+03  0.17130000000E+03 0.  1.
       11    1    1    2    0    0 -0.26054636717E-03  0.45886817732E-03  0.28464457049E+00  0.28464551845E+00  0.51109989000E-03 0.  1.
     -623    1    1    2    0    0 -0.43401001526E-04 -0.12080311769E-03  0.57879498496E-05  0.17130000000E+03  0.17130000000E+03 0.  1.
      622    1    1    2    0    0  0.30394736949E-03 -0.33806505741E-03  0.37153496824E+01  0.37153545550E+01  0.60000000000E-02 0.  1.
</event>
<event>
 5   0  0.1211800E+10  0.9118800E+02  0.7818608E-02  0.1180000E+00
       11   -1    0    0    0    0  0.00000000000E+00  0.00000000000E+00  0.39999999673E+01  0.40000000000E+01  0.51109989000E-03 0. -1.
     -623   -1    0    0    0    0  0.00000000000E+00  0.00000000000E+00  0.12525980253E-10  0.17130000000E+03  0.17130000000E+03 0.  1.
       11    1    1    2    0    0 -0.29098429426E-02  0.14335738744E-02  0.82031705856E+00  0.82032363132E+00  0.51109989000E-03 0. -1.
     -623    1    1    2    0    0  0.13315871913E-03 -0.36230783651E-03  0.13594363962E-04  0.17130000000E+03  0.17130000000E+03 0.  1.
      622    1    1    2    0    0  0.27766842231E-02 -0.10712660368E-02  0.31796693260E+01  0.31796763798E+01  0.60000000000E-02 0. -1.
</event>
<event>
 5   0  0.1211800E+10  0.9118800E+02  0.7818608E-02  0.1180000E+00
       11   -1    0    0    0    0  0.00000000000E+00  0.00000000000E+00  0.39999999673E+01  0.40000000000E+01  0.51109989000E-03 0. -1.
     -623   -1    0    0    0    0  0.00000000000E+00  0.00000000000E+00  0.12525980253E-10  0.17130000000E+03  0.17130000000E+03 0. -1.
       11    1    1    2    0    0  0.40156101945E-03 -0.20840493577E-03  0.35723578511E-01  0.35730098917E-01  0.51109989000E-03 0. -1.
     -623    1    1    2    0    0  0.73070705550E-04 -0.36087625791E-03  0.11098011325E-04  0.17130000000E+03  0.17130000000E+03 0. -1.
      622    1    1    2    0    0 -0.47463172570E-03  0.56928119717E-03  0.39642653295E+01  0.39642699393E+01  0.60000000000E-02 0. -1.
</event>
<event>
 5   0  0.1211800E+10  0.9118800E+02  0.7818608E-02  0.1180000E+00
       11   -1    0    0    0    0  0.00000000000E+00  0.00000000000E+00  0.39999999673E+01  0.40000000000E+01  0.51109989000E-03 0.  1.
     -623   -1    0    0    0    0  0.00000000000E+00  0.00000000000E+00  0.12525980253E-10  0.17130000000E+03  0.17130000000E+03 0. -1.
       11    1    1    2    0    0 -0.21852017532E-02  0.40920637034E-02  0.88341572754E+00  0.88342805535E+00  0.51109989000E-03 0.  1.
     -623    1    1    2    0    0  0.16816174220E-03 -0.48289329348E-03  0.20814049366E-04  0.17130000000E+03  0.17130000000E+03 0. -1.
      622    1    1    2    0    0  0.20170400111E-02 -0.36091704104E-02  0.31165634216E+01  0.31165719397E+01  0.60000000000E-02 0.  0.
</event>
<event>
 5   0  0.1211800E+10  0.9118800E+02  0.7818608E-02  0.1180000E+00
       11   -1    0    0    0    0  0.00000000000E+00  0.00000000000E+00  0.39999999673E+01  0.40000000000E+01  0.51109989000E-03 0. -1.
     -623   -1    0    0    0    0  0.00000000000E+00  0.00000000000E+00  0.12525980253E-10  0.17130000000E+03  0.17130000000E+03 0. -1.
       11    1    1    2    0    0  0.38855156440E-03 -0.18242680261E-02  0.37007048800E+00  0.37007554126E+00  0.51109989000E-03 0. -1.
     -623    1    1    2    0    0 -0.48559479695E-04 -0.32405033687E-03  0.10631362922E-04  0.17130000000E+03  0.17130000000E+03 0. -1.
      622    1    1    2    0    0 -0.33999208470E-03  0.21483183629E-02  0.36299188480E+01  0.36299244584E+01  0.60000000000E-02 0.  0.
</event>
<event>
 5   0  0.1211800E+10  0.9118800E+02  0.7818608E-02  0.1180000E+00
       11   -1    0    0    0    0  0.00000000000E+00  0.00000000000E+00  0.39999999673E+01  0.40000000000E+01  0.51109989000E-03 0. -1.
     -623   -1    0    0    0    0  0.00000000000E+00  0.00000000000E+00  0.12525980253E-10  0.17130000000E+03  0.17130000000E+03 0. -1.
       11    1    1    2    0    0 -0.50608517749E-02  0.15888692416E-02  0.31549513824E-01  0.31996402476E-01  0.51109989000E-03 0. -1.
     -623    1    1    2    0    0 -0.47442152519E-03 -0.20024056981E-02  0.45528761076E-03  0.17130000001E+03  0.17130000000E+03 0. -1.
      622    1    1    2    0    0  0.55352733001E-02  0.41353645650E-03  0.39679951659E+01  0.39680035846E+01  0.60000000000E-02 0. -1.
</event>
<event>
 5   0  0.1211800E+10  0.9118800E+02  0.7818608E-02  0.1180000E+00
       11   -1    0    0    0    0  0.00000000000E+00  0.00000000000E+00  0.39999999673E+01  0.40000000000E+01  0.51109989000E-03 0.  1.
     -623   -1    0    0    0    0  0.00000000000E+00  0.00000000000E+00  0.12525980253E-10  0.17130000000E+03  0.17130000000E+03 0. -1.
       11    1    1    2    0    0 -0.24691769249E-03  0.53789821153E-03  0.38237795810E+00  0.38237875774E+00  0.51109989000E-03 0. -1.
     -623    1    1    2    0    0 -0.64112287330E-02  0.10233633845E-02  0.12329670038E-04  0.17130000012E+03  0.17130000000E+03 0. -1.
      622    1    1    2    0    0  0.66581465048E-02 -0.15612616087E-02  0.36176097291E+01  0.36176211687E+01  0.60000000000E-02 0.  1.
</event>
<event>
 5   0  0.1211800E+10  0.9118800E+02  0.7818608E-02  0.1180000E+00
       11   -1    0    0    0    0  0.00000000000E+00  0.00000000000E+00  0.39999999673E+01  0.40000000000E+01  0.51109989000E-03 0.  1.
     -623   -1    0    0    0    0  0.00000000000E+00  0.00000000000E+00  0.12525980253E-10  0.17130000000E+03  0.17130000000E+03 0.  1.
       11    1    1    2    0    0  0.21590782839E-03 -0.73319578866E-03  0.50614935738E-01  0.50623286491E-01  0.51109989000E-03 0. -1.
     -623    1    1    2    0    0 -0.37247933350E-04  0.32461609821E-03  0.12901284221E-04  0.17130000000E+03  0.17130000000E+03 0.  1.
      622    1    1    2    0    0 -0.17865989507E-03  0.40857969069E-03  0.39493721273E+01  0.39493767101E+01  0.60000000000E-02 0.  1.
</event>
<event>
 5   0  0.1211800E+10  0.9118800E+02  0.7818608E-02  0.1180000E+00
       11   -1    0    0    0    0  0.00000000000E+00  0.00000000000E+00  0.39999999673E+01  0.40000000000E+01  0.51109989000E-03 0.  1.
     -623   -1    0    0    0    0  0.00000000000E+00  0.00000000000E+00  0.12525980253E-10  0.17130000000E+03  0.17130000000E+03 0.  1.
       11    1    1    2    0    0 -0.88735210509E-03  0.20397085245E-01  0.81400935282E+00  0.81426550718E+00  0.51109989000E-03 0.  1.
     -623    1    1    2    0    0  0.55595491178E-02 -0.13717426746E-01  0.27284049646E-03  0.17130000064E+03  0.17130000000E+03 0.  1.
      622    1    1    2    0    0 -0.46721970127E-02 -0.66796584992E-02  0.31857177740E+01  0.31857338531E+01  0.60000000000E-02 0.  1.
</event>
<event>
 5   0  0.1211800E+10  0.9118800E+02  0.7818608E-02  0.1180000E+00
       11   -1    0    0    0    0  0.00000000000E+00  0.00000000000E+00  0.39999999673E+01  0.40000000000E+01  0.51109989000E-03 0. -1.
     -623   -1    0    0    0    0  0.00000000000E+00  0.00000000000E+00  0.12525980253E-10  0.17130000000E+03  0.17130000000E+03 0. -1.
       11    1    1    2    0    0  0.35846618424E-02  0.47362960098E-02  0.96912407484E+00  0.96914241263E+00  0.51109989000E-03 0. -1.
     -623    1    1    2    0    0 -0.83395235207E-04  0.34341467665E-03  0.30523589870E-04  0.17130000000E+03  0.17130000000E+03 0. -1.
      622    1    1    2    0    0 -0.35012666072E-02 -0.50797106864E-02  0.30308453686E+01  0.30308575867E+01  0.60000000000E-02 0. -1.
</event>
<event>
 5   0  0.1211800E+10  0.9118800E+02  0.7818608E-02  0.1180000E+00
       11   -1    0    0    0    0  0.00000000000E+00  0.00000000000E+00  0.39999999673E+01  0.40000000000E+01  0.51109989000E-03 0.  1.
     -623   -1    0    0    0    0  0.00000000000E+00  0.00000000000E+00  0.12525980253E-10  0.17130000000E+03  0.17130000000E+03 0.  1.
       11    1    1    2    0    0 -0.14206547465E-02 -0.15786456853E-03  0.17733727873E+00  0.17734377585E+00  0.51109989000E-03 0. -1.
     -623    1    1    2    0    0  0.14345176409E-03  0.17845061678E-03  0.11386821848E-04  0.17130000000E+03  0.17130000000E+03 0.  1.
      622    1    1    2    0    0  0.12772029810E-02 -0.20586050062E-04  0.38226513425E+01  0.38226562647E+01  0.60000000000E-02 0.  1.
</event>
<event>
 5   0  0.1211800E+10  0.9118800E+02  0.7818608E-02  0.1180000E+00
       11   -1    0    0    0    0  0.00000000000E+00  0.00000000000E+00  0.39999999673E+01  0.40000000000E+01  0.51109989000E-03 0.  1.
     -623   -1    0    0    0    0  0.00000000000E+00  0.00000000000E+00  0.12525980253E-10  0.17130000000E+03  0.17130000000E+03 0. -1.
       11    1    1    2    0    0 -0.55411764336E-02 -0.18467135786E-02  0.89223035414E-01  0.89415469898E-01  0.51109989000E-03 0.  1.
     -623    1    1    2    0    0  0.84757440612E-03 -0.49622600529E-03  0.20052623922E-03  0.17130000000E+03  0.17130000000E+03 0. -1.
      622    1    1    2    0    0  0.46936020275E-02  0.23429395839E-02  0.39105764057E+01  0.39105845272E+01  0.60000000000E-02 0.  1.
</event>
<event>
 5   0  0.1211800E+10  0.9118800E+02  0.7818608E-02  0.1180000E+00
       11   -1    0    0    0    0  0.00000000000E+00  0.00000000000E+00  0.39999999673E+01  0.40000000000E+01  0.51109989000E-03 0. -1.
     -623   -1    0    0    0    0  0.00000000000E+00  0.00000000000E+00  0.12525980253E-10  0.17130000000E+03  0.17130000000E+03 0.  1.
       11    1    1    2    0    0  0.85427938902E-03 -0.28234226988E-03  0.12102423494E+00  0.12102865848E+00  0.51109989000E-03 0. -1.
     -623    1    1    2    0    0  0.37998810509E-04  0.14083030388E-03  0.91365805659E-05  0.17130000000E+03  0.17130000000E+03 0.  1.
      622    1    1    2    0    0 -0.89227819953E-03  0.14151196600E-03  0.38789665958E+01  0.38789713415E+01  0.60000000000E-02 0. -1.
</event>
<event>
 5   0  0.1211800E+10  0.9118800E+02  0.7818608E-02  0.1180000E+00
       11   -1    0    0    0    0  0.00000000000E+00  0.00000000000E+00  0.39999999673E+01  0.40000000000E+01  0.51109989000E-03 0. -1.
     -623   -1    0    0    0    0  0.00000000000E+00  0.00000000000E+00  0.12525980253E-10  0.17130000000E+03  0.17130000000E+03 0.  1.
       11    1    1    2    0    0 -0.42285275952E-02 -0.15550738800E-02  0.85342196560E+00  0.85343401110E+00  0.51109989000E-03 0. -1.
     -623    1    1    2    0    0  0.36994686044E-03  0.27549902544E-03  0.20360039463E-04  0.17130000000E+03  0.17130000000E+03 0.  1.
      622    1    1    2    0    0  0.38585807348E-02  0.12795748546E-02  0.31465576417E+01  0.31465659883E+01  0.60000000000E-02 0. -1.
</event>
<event>
 5   0  0.1211800E+10  0.9118800E+02  0.7818608E-02  0.1180000E+00
       11   -1    0    0    0    0  0.00000000000E+00  0.00000000000E+00  0.39999999673E+01  0.40000000000E+01  0.51109989000E-03 0. -1.
     -623   -1    0    0    0    0  0.00000000000E+00  0.00000000000E+00  0.12525980253E-10  0.17130000000E+03  0.17130000000E+03 0. -1.
       11    1    1    2    0    0  0.69601289386E-03  0.16302477056E-03  0.15794624576E+00  0.15794869035E+00  0.51109989000E-03 0.  1.
     -623    1    1    2    0    0 -0.13827271883E-03 -0.17547983823E-02  0.74762172799E-05  0.17130000001E+03  0.17130000000E+03 0. -1.
      622    1    1    2    0    0 -0.55774017394E-03  0.15917736256E-02  0.38420462770E+01  0.38420513322E+01  0.60000000000E-02 0. -1.
</event>
<event>
 5   0  0.1211800E+10  0.9118800E+02  0.7818608E-02  0.1180000E+00
       11   -1    0    0    0    0  0.00000000000E+00  0.00000000000E+00  0.39999999673E+01  0.40000000000E+01  0.51109989000E-03 0. -1.
     -623   -1    0    0    0    0  0.00000000000E+00  0.00000000000E+00  0.12525980253E-10  0.17130000000E+03  0.17130000000E+03 0.  1.
       11    1    1    2    0    0 -0.88178534383E-03 -0.11359383758E-02  0.10025320798E-01  0.10140817551E-01  0.51109989000E-03 0. -1.
     -623    1    1    2    0    0 -0.19727614206E-03  0.23403692530E-03  0.12022372169E-03  0.17130000000E+03  0.17130000000E+03 0.  1.
      622    1    1    2    0    0  0.10790614859E-02  0.90190145049E-03  0.39898544228E+01  0.39898591821E+01  0.60000000000E-02 0. -1.
</event>
<event>
 5   0  0.1211800E+10  0.9118800E+02  0.7818608E-02  0.1180000E+00
       11   -1    0    0    0    0  0.00000000000E+00  0.00000000000E+00  0.39999999673E+01  0.40000000000E+01  0.51109989000E-03 0. -1.
     -623   -1    0    0    0    0  0.00000000000E+00  0.00000000000E+00  0.12525980253E-10  0.17130000000E+03  0.17130000000E+03 0.  1.
       11    1    1    2    0    0  0.23436070074E-02 -0.42961259665E-03  0.50415429665E+00  0.50416018597E+00  0.51109989000E-03 0. -1.
     -623    1    1    2    0    0 -0.30572130682E-04 -0.76662961563E-04  0.11807553714E-04  0.17130000000E+03  0.17130000000E+03 0.  1.
      622    1    1    2    0    0 -0.23130348767E-02  0.50627555826E-03  0.34958338658E+01  0.34958398166E+01  0.60000000000E-02 0. -1.
</event>
<event>
 5   0  0.1211800E+10  0.9118800E+02  0.7818608E-02  0.1180000E+00
       11   -1    0    0    0    0  0.00000000000E+00  0.00000000000E+00  0.39999999673E+01  0.40000000000E+01  0.51109989000E-03 0.  1.
     -623   -1    0    0    0    0  0.00000000000E+00  0.00000000000E+00  0.12525980253E-10  0.17130000000E+03  0.17130000000E+03 0. -1.
       11    1    1    2    0    0 -0.45694909469E-03  0.53480302249E-03  0.28035247989E-02  0.29352665753E-02  0.51109989000E-03 0.  1.
     -623    1    1    2    0    0  0.11167452796E-02 -0.40948599206E-03  0.13627304799E-03  0.17130000000E+03  0.17130000000E+03 0. -1.
      622    1    1    2    0    0 -0.65979618490E-03 -0.12531703043E-03  0.39970601695E+01  0.39970647292E+01  0.60000000000E-02 0.  1.
</event>
<event>
 5   0  0.1211800E+10  0.9118800E+02  0.7818608E-02  0.1180000E+00
       11   -1    0    0    0    0  0.00000000000E+00  0.00000000000E+00  0.39999999673E+01  0.40000000000E+01  0.51109989000E-03 0. -1.
     -623   -1    0    0    0    0  0.00000000000E+00  0.00000000000E+00  0.12525980253E-10  0.17130000000E+03  0.17130000000E+03 0. -1.
       11    1    1    2    0    0 -0.18964511785E-02  0.21493764830E-03  0.42576142966E-01  0.42621964948E-01  0.51109989000E-03 0. -1.
     -623    1    1    2    0    0  0.37312222374E-03  0.24209658699E-03  0.50657978762E-04  0.17130000000E+03  0.17130000000E+03 0. -1.
      622    1    1    2    0    0  0.15233289548E-02 -0.45703423528E-03  0.39573731664E+01  0.39573780345E+01  0.60000000000E-02 0. -1.
</event>
<event>
 5   0  0.1211800E+10  0.9118800E+02  0.7818608E-02  0.1180000E+00
       11   -1    0    0    0    0  0.00000000000E+00  0.00000000000E+00  0.39999999673E+01  0.40000000000E+01  0.51109989000E-03 0. -1.
     -623   -1    0    0    0    0  0.00000000000E+00  0.00000000000E+00  0.12525980253E-10  0.17130000000E+03  0.17130000000E+03 0.  1.
       11    1    1    2    0    0  0.66043689315E-03  0.53089329123E-03  0.11219217320E+01  0.11219221684E+01  0.51109989000E-03 0. -1.
     -623    1    1    2    0    0  0.54812060578E-04 -0.49837798035E-03  0.67477490480E-05  0.17130000000E+03  0.17130000000E+03 0.  1.
      622    1    1    2    0    0 -0.71524895464E-03 -0.32515302541E-04  0.28780715546E+01  0.28780778978E+01  0.60000000000E-02 0. -1.
</event>
<event>
 5   0  0.1211800E+10  0.9118800E+02  0.7818608E-02  0.1180000E+00
       11   -1    0    0    0    0  0.00000000000E+00  0.00000000000E+00  0.39999999673E+01  0.40000000000E+01  0.51109989000E-03 0.  1.
     -623   -1    0    0    0    0  0.00000000000E+00  0.00000000000E+00  0.12525980253E-10  0.17130000000E+03  0.17130000000E+03 0.  1.
       11    1    1    2    0    0  0.23964145807E-03 -0.18337810546E-02  0.66266330447E+00  0.66266608220E+00  0.51109989000E-03 0.  1.
     -623    1    1    2    0    0  0.62256559556E-04  0.31093311353E-05  0.86543850264E-05  0.17130000000E+03  0.17130000000E+03 0.  1.
      622    1    1    2    0    0 -0.30189801762E-03  0.18306717234E-02  0.33373280085E+01  0.33373339178E+01  0.60000000000E-02 0.  1.
</event>
<event>
 5   0  0.1211800E+10  0.9118800E+02  0.7818608E-02  0.1180000E+00
       11   -1    0    0    0    0  0.00000000000E+00  0.00000000000E+00  0.39999999673E+01  0.40000000000E+01  0.51109989000E-03 0.  1.
     -623   -1    0    0    0    0  0.00000000000E+00  0.00000000000E+00  0.12525980253E-10  0.17130000000E+03  0.17130000000E+03 0.  1.
       11    1    1    2    0    0  0.33923131133E-02  0.17523373990E-02  0.31589261752E+00  0.31591610516E+00  0.51109989000E-03 0.  1.
     -623    1    1    2    0    0 -0.11837295222E-03 -0.16993323815E-02  0.29804472711E-04  0.17130000001E+03  0.17130000000E+03 0.  1.
      622    1    1    2    0    0 -0.32739401608E-02 -0.53005013143E-04  0.36840775558E+01  0.36840838968E+01  0.60000000000E-02 0.  1.
</event>
<event>
 5   0  0.1211800E+10  0.9118800E+02  0.7818608E-02  0.1180000E+00
       11   -1    0    0    0    0  0.00000000000E+00  0.00000000000E+00  0.39999999673E+01  0.40000000000E+01  0.51109989000E-03 0.  1.
     -623   -1    0    0    0    0  0.00000000000E+00  0.00000000000E+00  0.12525980253E-10  0.17130000000E+03  0.17130000000E+03 0.  1.
       11    1    1    2    0    0 -0.35282755979E-02  0.26528086316E-02  0.32634290028E-01  0.32935455527E-01  0.51109989000E-03 0.  1.
     -623    1    1    2    0    0  0.21429434836E-02 -0.41997192525E-02  0.30627886654E-03  0.17130000007E+03  0.17130000000E+03 0.  1.
      622    1    1    2    0    0  0.13853321144E-02  0.15469106208E-02  0.39670593985E+01  0.39670644793E+01  0.60000000000E-02 0.  1.
</event>
<event>
 5   0  0.1211800E+10  0.9118800E+02  0.7818608E-02  0.1180000E+00
       11   -1    0    0    0    0  0.00000000000E+00  0.00000000000E+00  0.39999999673E+01  0.40000000000E+01  0.51109989000E-03 0. -1.
     -623   -1    0    0    0    0  0.00000000000E+00  0.00000000000E+00  0.12525980253E-10  0.17130000000E+03  0.17130000000E+03 0. -1.
       11    1    1    2    0    0  0.17722107007E-02  0.27127523954E-03  0.19369912733E+00  0.19370809862E+00  0.51109989000E-03 0. -1.
     -623    1    1    2    0    0 -0.17907149558E-04  0.13532819960E-04  0.14082602370E-04  0.17130000000E+03  0.17130000000E+03 0. -1.
      622    1    1    2    0    0 -0.17543035512E-02 -0.28480805947E-03  0.38062867493E+01  0.38062918932E+01  0.60000000000E-02 0. -1.
</event>
<event>
 5   0  0.1211800E+10  0.9118800E+02  0.7818608E-02  0.1180000E+00
       11   -1    0    0    0    0  0.00000000000E+00  0.00000000000E+00  0.39999999673E+01  0.40000000000E+01  0.51109989000E-03 0. -1.
     -623   -1    0    0    0    0  0.00000000000E+00  0.00000000000E+00  0.12525980253E-10  0.17130000000E+03  0.17130000000E+03 0. -1.
       11    1    1    2    0    0 -0.40415823984E-02  0.21046913382E-02  0.45428122605E+00  0.45430436679E+00  0.51109989000E-03 0. -1.
     -623    1    1    2    0    0  0.14634839059E-02 -0.17604683957E-02  0.29153961596E-04  0.17130000002E+03  0.17130000000E+03 0. -1.
      622    1    1    2    0    0  0.25780984879E-02 -0.34422293686E-03  0.35456896000E+01  0.35456956305E+01  0.60000000000E-02 0. -1.
</event>
<event>
 5   0  0.1211800E+10  0.9118800E+02  0.7818608E-02  0.1180000E+00
       11   -1    0    0    0    0  0.00000000000E+00  0.00000000000E+00  0.39999999673E+01  0.40000000000E+01  0.51109989000E-03 0.  1.
     -623   -1    0    0    0    0  0.00000000000E+00  0.00000000000E+00  0.12525980253E-10  0.17130000000E+03  0.17130000000E+03 0.  1.
       11    1    1    2    0    0 -0.12606695045E-02 -0.21216364096E-03  0.60237982834E+00  0.60238140170E+00  0.51109989000E-03 0.  1.
     -623    1    1    2    0    0 -0.24335389916E-04 -0.53152501035E-04  0.70919211912E-05  0.17130000000E+03  0.17130000000E+03 0.  1.
      622    1    1    2    0    0  0.12850048944E-02  0.26531614200E-03  0.33976130471E+01  0.33976185983E+01  0.60000000000E-02 0.  1.
</event>
<event>
 5   0  0.1211800E+10  0.9118800E+02  0.7818608E-02  0.1180000E+00
       11   -1    0    0    0    0  0.00000000000E+00  0.00000000000E+00  0.39999999673E+01  0.40000000000E+01  0.51109989000E-03 0. -1.
     -623   -1    0    0    0    0  0.00000000000E+00  0.00000000000E+00  0.12525980253E-10  0.17130000000E+03  0.17130000000E+03 0. -1.
       11    1    1    2    0    0  0.26992656785E-02  0.52047161159E-02  0.37591075974E+00  0.37595682679E+00  0.51109989000E-03 0. -1.
     -623    1    1    2    0    0 -0.19097414292E-03  0.15622027705E-03  0.55834605402E-04  0.17130000000E+03  0.17130000000E+03 0. -1.
      622    1    1    2    0    0 -0.25082915355E-02 -0.53609363930E-02  0.36240333730E+01  0.36240431730E+01  0.60000000000E-02 0. -1.
</event>
<event>
 5   0  0.1211800E+10  0.9118800E+02  0.7818608E-02  0.1180000E+00
       11   -1    0    0    0    0  0.00000000000E+00  0.00000000000E+00  0.39999999673E+01  0.40000000000E+01  0.51109989000E-03 0.  1.
     -623   -1    0    0    0    0  0.00000000000E+00  0.00000000000E+00  0.12525980253E-10  0.17130000000E+03  0.17130000000E+03 0. -1.
       11    1    1    2    0    0  0.42086528696E-04 -0.27626876377E-03  0.15776565726E+00  0.15776673264E+00  0.51109989000E-03 0.  1.
     -623    1    1    2    0    0 -0.99170010055E-05  0.53389471270E-04  0.57341307351E-05  0.17130000000E+03  0.17130000000E+03 0. -1.
      622    1    1    2    0    0 -0.32169527507E-04  0.22287929151E-03  0.38422286501E+01  0.38422333414E+01  0.60000000000E-02 0.  1.
</event>
<event>
 5   0  0.1211800E+10  0.9118800E+02  0.7818608E-02  0.1180000E+00
       11   -1    0    0    0    0  0.00000000000E+00  0.00000000000E+00  0.39999999673E+01  0.40000000000E+01  0.51109989000E-03 0. -1.
     -623   -1    0    0    0    0  0.00000000000E+00  0.00000000000E+00  0.12525980253E-10  0.17130000000E+03  0.17130000000E+03 0.  1.
       11    1    1    2    0    0  0.43487597223E-03 -0.27139992501E-02  0.80420284922E+00  0.80420770875E+00  0.51109989000E-03 0. -1.
     -623    1    1    2    0    0 -0.81617100682E-03  0.12447590988E-02  0.10826257546E-04  0.17130000001E+03  0.17130000000E+03 0.  1.
      622    1    1    2    0    0  0.38129503460E-03  0.14692401513E-02  0.31957862919E+01  0.31957922848E+01  0.60000000000E-02 0. -1.
</event>
<event>
 5   0  0.1211800E+10  0.9118800E+02  0.7818608E-02  0.1180000E+00
       11   -1    0    0    0    0  0.00000000000E+00  0.00000000000E+00  0.39999999673E+01  0.40000000000E+01  0.51109989000E-03 0.  1.
     -623   -1    0    0    0    0  0.00000000000E+00  0.00000000000E+00  0.12525980253E-10  0.17130000000E+03  0.17130000000E+03 0. -1.
       11    1    1    2    0    0  0.10588797032E-01 -0.96469747018E-02  0.70579834301E+00  0.70594387097E+00  0.51109989000E-03 0.  1.
     -623    1    1    2    0    0  0.10053778969E-01  0.15818038916E-02  0.22581608151E-03  0.17130000030E+03  0.17130000000E+03 0. -1.
      622    1    1    2    0    0 -0.20642576002E-01  0.80651708099E-02  0.32939758088E+01  0.32940558271E+01  0.60000000000E-02 0.  1.
</event>
<event>
 5   0  0.1211800E+10  0.9118800E+02  0.7818608E-02  0.1180000E+00
       11   -1    0    0    0    0  0.00000000000E+00  0.00000000000E+00  0.39999999673E+01  0.40000000000E+01  0.51109989000E-03 0.  1.
     -623   -1    0    0    0    0  0.00000000000E+00  0.00000000000E+00  0.12525980253E-10  0.17130000000E+03  0.17130000000E+03 0. -1.
       11    1    1    2    0    0  0.79806471191E-03 -0.90262430418E-03  0.79795772335E-01  0.79806504384E-01  0.51109989000E-03 0.  1.
     -623    1    1    2    0    0 -0.29440917260E-03  0.20153746672E-03  0.15386438921E-04  0.17130000000E+03  0.17130000000E+03 0. -1.
      622    1    1    2    0    0 -0.50365553931E-03  0.70108683746E-03  0.39201888086E+01  0.39201934952E+01  0.60000000000E-02 0.  1.
</event>
<event>
 5   0  0.1211800E+10  0.9118800E+02  0.7818608E-02  0.1180000E+00
       11   -1    0    0    0    0  0.00000000000E+00  0.00000000000E+00  0.39999999673E+01  0.40000000000E+01  0.51109989000E-03 0. -1.
     -623   -1    0    0    0    0  0.00000000000E+00  0.00000000000E+00  0.12525980253E-10  0.17130000000E+03  0.17130000000E+03 0. -1.
       11    1    1    2    0    0 -0.10728201534E-02 -0.11339189772E-02  0.87680017257E+00  0.87680171108E+00  0.51109989000E-03 0. -1.
     -623    1    1    2    0    0  0.31329536152E-03 -0.16656502052E-04  0.75737765122E-05  0.17130000000E+03  0.17130000000E+03 0. -1.
      622    1    1    2    0    0  0.75952479192E-03  0.11505754793E-02  0.31231922210E+01  0.31231982886E+01  0.60000000000E-02 0.  0.
</event>
<event>
 5   0  0.1211800E+10  0.9118800E+02  0.7818608E-02  0.1180000E+00
       11   -1    0    0    0    0  0.00000000000E+00  0.00000000000E+00  0.39999999673E+01  0.40000000000E+01  0.51109989000E-03 0. -1.
     -623   -1    0    0    0    0  0.00000000000E+00  0.00000000000E+00  0.12525980253E-10  0.17130000000E+03  0.17130000000E+03 0.  1.
       11    1    1    2    0    0  0.70960137386E-04 -0.58685123631E-02  0.19184188199E+00  0.19193231457E+00  0.51109989000E-03 0. -1.
     -623    1    1    2    0    0 -0.15325140946E-05 -0.31920934953E-04  0.99698661823E-04  0.17130000000E+03  0.17130000000E+03 0.  1.
      622    1    1    2    0    0 -0.69427623292E-04  0.59004332980E-02  0.38080583867E+01  0.38080676854E+01  0.60000000000E-02 0. -1.
</event>
<event>
 5   0  0.1211800E+10  0.9118800E+02  0.7818608E-02  0.1180000E+00
       11   -1    0    0    0    0  0.00000000000E+00  0.00000000000E+00  0.39999999673E+01  0.40000000000E+01  0.51109989000E-03 0. -1.
     -623   -1    0    0    0    0  0.00000000000E+00  0.00000000000E+00  0.12525980253E-10  0.17130000000E+03  0.17130000000E+03 0. -1.
       11    1    1    2    0    0  0.34566669753E-02 -0.72348376395E-04  0.18881402220E-01  0.19202144488E-01  0.51109989000E-03 0. -1.
     -623    1    1    2    0    0 -0.44642317689E-02  0.80713479117E-03  0.32548704378E-03  0.17130000006E+03  0.17130000000E+03 0. -1.
      622    1    1    2    0    0  0.10075647936E-02 -0.73478641478E-03  0.39807930781E+01  0.39807977951E+01  0.60000000000E-02 0. -1.
</event>
<event>
 5   0  0.1211800E+10  0.9118800E+02  0.7818608E-02  0.1180000E+00
       11   -1    0    0    0    0  0.00000000000E+00  0.00000000000E+00  0.39999999673E+01  0.40000000000E+01  0.51109989000E-03 0.  1.
     -623   -1    0    0    0    0  0.00000000000E+00  0.00000000000E+00  0.12525980253E-10  0.17130000000E+03  0.17130000000E+03 0. -1.
       11    1    1    2    0    0 -0.67091369373E-03 -0.96392697419E-04  0.43648032018E+00  0.43648114569E+00  0.51109989000E-03 0.  1.
     -623    1    1    2    0    0  0.18252034570E-04  0.51017827402E-04  0.59041273262E-05  0.17130000000E+03  0.17130000000E+03 0. -1.
      622    1    1    2    0    0  0.65266165893E-03  0.45374869354E-04  0.35635137951E+01  0.35635189063E+01  0.60000000000E-02 0.  1.
</event>
<event>
 5   0  0.1211800E+10  0.9118800E+02  0.7818608E-02  0.1180000E+00
       11   -1    0    0    0    0  0.00000000000E+00  0.00000000000E+00  0.39999999673E+01  0.40000000000E+01  0.51109989000E-03 0. -1.
     -623   -1    0    0    0    0  0.00000000000E+00  0.00000000000E+00  0.12525980253E-10  0.17130000000E+03  0.17130000000E+03 0.  1.
       11    1    1    2    0    0 -0.16544511161E-03 -0.18576546118E-02  0.12302466609E+00  0.12303986322E+00  0.51109989000E-03 0. -1.
     -623    1    1    2    0    0 -0.25479750074E-03  0.16779348801E-02  0.19842660626E-04  0.17130000001E+03  0.17130000000E+03 0.  1.
      622    1    1    2    0    0  0.42024261129E-03  0.17971973869E-03  0.38769554420E+01  0.38769601118E+01  0.60000000000E-02 0. -1.
</event>
<event>
 5   0  0.1211800E+10  0.9118800E+02  0.7818608E-02  0.1180000E+00
       11   -1    0    0    0    0  0.00000000000E+00  0.00000000000E+00  0.39999999673E+01  0.40000000000E+01  0.51109989000E-03 0. -1.
     -623   -1    0    0    0    0  0.00000000000E+00  0.00000000000E+00  0.12525980253E-10  0.17130000000E+03  0.17130000000E+03 0. -1.
       11    1    1    2    0    0  0.49462292600E-03  0.10848192212E-02  0.86023727890E+00  0.86023825695E+00  0.51109989000E-03 0. -1.
     -623    1    1    2    0    0  0.25057180496E-02  0.27225397022E-02  0.10460310908E-04  0.17130000004E+03  0.17130000000E+03 0. -1.
      622    1    1    2    0    0 -0.30003409756E-02 -0.38073589234E-02  0.31397522281E+01  0.31397617031E+01  0.60000000000E-02 0. -1.
</event>
<event>
 5   0  0.1211800E+10  0.9118800E+02  0.7818608E-02  0.1180000E+00
       11   -1    0    0    0    0  0.00000000000E+00  0.00000000000E+00  0.39999999673E+01  0.40000000000E+01  0.51109989000E-03 0.  1.
     -623   -1    0    0    0    0  0.00000000000E+00  0.00000000000E+00  0.12525980253E-10  0.17130000000E+03  0.17130000000E+03 0.  1.
       11    1    1    2    0    0  0.44564253824E-03 -0.37386822821E-02  0.52579903843E-01  0.52717016738E-01  0.51109989000E-03 0.  1.
     -623    1    1    2    0    0  0.11735324990E-03  0.52529264831E-04  0.14340176508E-03  0.17130000000E+03  0.17130000000E+03 0.  1.
      622    1    1    2    0    0 -0.56299578824E-03  0.36861530173E-02  0.39472766651E+01  0.39472829865E+01  0.60000000000E-02 0.  1.
</event>
<event>
 5   0  0.1211800E+10  0.9118800E+02  0.7818608E-02  0.1180000E+00
       11   -1    0    0    0    0  0.00000000000E+00  0.00000000000E+00  0.39999999673E+01  0.40000000000E+01  0.51109989000E-03 0. -1.
     -623   -1    0    0    0    0  0.00000000000E+00  0.00000000000E+00  0.12525980253E-10  0.17130000000E+03  0.17130000000E+03 0. -1.
       11    1    1    2    0    0  0.23617876147E-03  0.14795448356E-02  0.94325588963E-02  0.95644771817E-02  0.51109989000E-03 0. -1.
     -623    1    1    2    0    0 -0.12383732587E-03 -0.61428738022E-03  0.13649302375E-03  0.17130000000E+03  0.17130000000E+03 0. -1.
      622    1    1    2    0    0 -0.11234143562E-03 -0.86525745548E-03  0.39904309146E+01  0.39904355208E+01  0.60000000000E-02 0. -1.
</event>
<event>
 5   0  0.1211800E+10  0.9118800E+02  0.7818608E-02  0.1180000E+00
       11   -1    0    0    0    0  0.00000000000E+00  0.00000000000E+00  0.39999999673E+01  0.40000000000E+01  0.51109989000E-03 0. -1.
     -623   -1    0    0    0    0  0.00000000000E+00  0.00000000000E+00  0.12525980253E-10  0.17130000000E+03  0.17130000000E+03 0. -1.
       11    1    1    2    0    0 -0.22486795752E-04 -0.22653254947E-03  0.94477529889E-01  0.94479186593E-01  0.51109989000E-03 0. -1.
     -623    1    1    2    0    0  0.77332383548E-03  0.95027248581E-03  0.63765421814E-05  0.17130000000E+03  0.17130000000E+03 0. -1.
      622    1    1    2    0    0 -0.75083703973E-03 -0.72373993634E-03  0.39055160609E+01  0.39055208090E+01  0.60000000000E-02 0. -1.
</event>
<event>
 5   0  0.1211800E+10  0.9118800E+02  0.7818608E-02  0.1180000E+00
       11   -1    0    0    0    0  0.00000000000E+00  0.00000000000E+00  0.39999999673E+01  0.40000000000E+01  0.51109989000E-03 0.  1.
     -623   -1    0    0    0    0  0.00000000000E+00  0.00000000000E+00  0.12525980253E-10  0.17130000000E+03  0.17130000000E+03 0. -1.
       11    1    1    2    0    0 -0.32973186412E-03  0.10157024067E-02  0.78756077355E-01  0.78764975182E-01  0.51109989000E-03 0.  1.
     -623    1    1    2    0    0  0.24369752336E-03  0.63087727079E-04  0.13605105822E-04  0.17130000000E+03  0.17130000000E+03 0. -1.
      622    1    1    2    0    0  0.86034340761E-04 -0.10787901338E-02  0.39212302849E+01  0.39212350246E+01  0.60000000000E-02 0.  1.
</event>
<event>
 5   0  0.1211800E+10  0.9118800E+02  0.7818608E-02  0.1180000E+00
       11   -1    0    0    0    0  0.00000000000E+00  0.00000000000E+00  0.39999999673E+01  0.40000000000E+01  0.51109989000E-03 0.  1.
     -623   -1    0    0    0    0  0.00000000000E+00  0.00000000000E+00  0.12525980253E-10  0.17130000000E+03  0.17130000000E+03 0. -1.
       11    1    1    2    0    0 -0.41966324059E-03 -0.88719659496E-03  0.34960962681E-01  0.34978470069E-01  0.51109989000E-03 0.  1.
     -623    1    1    2    0    0 -0.28766054900E-04  0.19689073028E-02  0.22198677049E-04  0.17130000001E+03  0.17130000000E+03 0. -1.
      622    1    1    2    0    0  0.44842929549E-03 -0.10817107078E-02  0.39650168060E+01  0.39650215186E+01  0.60000000000E-02 0.  1.
</event>
<event>
 5   0  0.1211800E+10  0.9118800E+02  0.7818608E-02  0.1180000E+00
       11   -1    0    0    0    0  0.00000000000E+00  0.00000000000E+00  0.39999999673E+01  0.40000000000E+01  0.51109989000E-03 0.  1.
     -623   -1    0    0    0    0  0.00000000000E+00  0.00000000000E+00  0.12525980253E-10  0.17130000000E+03  0.17130000000E+03 0.  1.
       11    1    1    2    0    0 -0.22743709589E-03  0.20729863502E-03  0.55850009300E-01  0.55853195631E-01  0.51109989000E-03 0.  1.
     -623    1    1    2    0    0  0.83797537021E-04 -0.32010361046E-04  0.77239531775E-05  0.17130000000E+03  0.17130000000E+03 0.  1.
      622    1    1    2    0    0  0.14363955891E-03 -0.17528827399E-03  0.39441422325E+01  0.39441468027E+01  0.60000000000E-02 0.  1.
</event>
<event>
 5   0  0.1211800E+10  0.9118800E+02  0.7818608E-02  0.1180000E+00
       11   -1    0    0    0    0  0.00000000000E+00  0.00000000000E+00  0.39999999673E+01  0.40000000000E+01  0.51109989000E-03 0.  1.
     -623   -1    0    0    0    0  0.00000000000E+00  0.00000000000E+00  0.12525980253E-10  0.17130000000E+03  0.17130000000E+03 0.  1.
       11    1    1    2    0    0  0.11257011312E-02  0.31163824248E-03  0.75705952066E+00  0.75706059425E+00  0.51109989000E-03 0.  1.
     -623    1    1    2    0    0 -0.11290662311E-02  0.11525683586E-02  0.69296246110E-05  0.17130000001E+03  0.17130000000E+03 0.  1.
      622    1    1    2    0    0  0.33651095723E-05 -0.14642066109E-02  0.32429335510E+01  0.32429394321E+01  0.60000000000E-02 0.  1.
</event>
<event>
 5   0  0.1211800E+10  0.9118800E+02  0.7818608E-02  0.1180000E+00
       11   -1    0    0    0    0  0.00000000000E+00  0.00000000000E+00  0.39999999673E+01  0.40000000000E+01  0.51109989000E-03 0.  1.
     -623   -1    0    0    0    0  0.00000000000E+00  0.00000000000E+00  0.12525980253E-10  0.17130000000E+03  0.17130000000E+03 0. -1.
       11    1    1    2    0    0  0.44416732620E-02  0.38132307913E-03  0.58691325672E+00  0.58693040985E+00  0.51109989000E-03 0.  1.
     -623    1    1    2    0    0 -0.17991804845E-03  0.67526872914E-03  0.25220052250E-04  0.17130000000E+03  0.17130000000E+03 0. -1.
      622    1    1    2    0    0 -0.42617552136E-02 -0.10565918083E-02  0.34130614906E+01  0.34130695887E+01  0.60000000000E-02 0.  1.
</event>
<event>
 5   0  0.1211800E+10  0.9118800E+02  0.7818608E-02  0.1180000E+00
       11   -1    0    0    0    0  0.00000000000E+00  0.00000000000E+00  0.39999999673E+01  0.40000000000E+01  0.51109989000E-03 0.  1.
     -623   -1    0    0    0    0  0.00000000000E+00  0.00000000000E+00  0.12525980253E-10  0.17130000000E+03  0.17130000000E+03 0.  1.
       11    1    1    2    0    0 -0.19480070940E-03  0.14418341900E-02  0.11411875337E+00  0.11412917211E+00  0.51109989000E-03 0. -1.
     -623    1    1    2    0    0 -0.11861912815E-05 -0.50495157599E-04  0.15272299343E-04  0.17130000000E+03  0.17130000000E+03 0.  1.
      622    1    1    2    0    0  0.19598690068E-03 -0.13913390324E-02  0.38858659417E+01  0.38858708279E+01  0.60000000000E-02 0.  1.
</event>
<event>
 5   0  0.1211800E+10  0.9118800E+02  0.7818608E-02  0.1180000E+00
       11   -1    0    0    0    0  0.00000000000E+00  0.00000000000E+00  0.39999999673E+01  0.40000000000E+01  0.51109989000E-03 0. -1.
     -623   -1    0    0    0    0  0.00000000000E+00  0.00000000000E+00  0.12525980253E-10  0.17130000000E+03  0.17130000000E+03 0. -1.
       11    1    1    2    0    0  0.30494117244E-02  0.27156036179E-02  0.29113637473E+00  0.29116545696E+00  0.51109989000E-03 0. -1.
     -623    1    1    2    0    0  0.47118793410E-04 -0.10494200832E-03  0.36114403276E-04  0.17130000000E+03  0.17130000000E+03 0. -1.
      622    1    1    2    0    0 -0.30965305178E-02 -0.26106616097E-02  0.37088274751E+01  0.37088345399E+01  0.60000000000E-02 0. -1.
</event>
<event>
 5   0  0.1211800E+10  0.9118800E+02  0.7818608E-02  0.1180000E+00
       11   -1    0    0    0    0  0.00000000000E+00  0.00000000000E+00  0.39999999673E+01  0.40000000000E+01  0.51109989000E-03 0. -1.
     -623   -1    0    0    0    0  0.00000000000E+00  0.00000000000E+00  0.12525980253E-10  0.17130000000E+03  0.17130000000E+03 0.  1.
       11    1    1    2    0    0  0.30660918297E-02 -0.30313610669E-02  0.11425242303E+01  0.11425324801E+01  0.51109989000E-03 0. -1.
     -623    1    1    2    0    0 -0.11864946641E-02 -0.12773297922E-02  0.18392006744E-04  0.17130000001E+03  0.17130000000E+03 0.  1.
      622    1    1    2    0    0 -0.18795971657E-02  0.43086908591E-02  0.28574573451E+01  0.28574675110E+01  0.60000000000E-02 0. -1.
</event>
<event>
 5   0  0.1211800E+10  0.9118800E+02  0.7818608E-02  0.1180000E+00
       11   -1    0    0    0    0  0.00000000000E+00  0.00000000000E+00  0.39999999673E+01  0.40000000000E+01  0.51109989000E-03 0. -1.
     -623   -1    0    0    0    0  0.00000000000E+00  0.00000000000E+00  0.12525980253E-10  0.17130000000E+03  0.17130000000E+03 0. -1.
       11    1    1    2    0    0 -0.16610086667E-02  0.44516463214E-03  0.68326213233E-01  0.68349760491E-01  0.51109989000E-03 0. -1.
     -623    1    1    2    0    0  0.19234368279E-03  0.15586640570E-03  0.28413281827E-04  0.17130000000E+03  0.17130000000E+03 0. -1.
      622    1    1    2    0    0  0.14686649846E-02 -0.60103103732E-03  0.39316453278E+01  0.39316502263E+01  0.60000000000E-02 0. -1.
</event>
<event>
 5   0  0.1211800E+10  0.9118800E+02  0.7818608E-02  0.1180000E+00
       11   -1    0    0    0    0  0.00000000000E+00  0.00000000000E+00  0.39999999673E+01  0.40000000000E+01  0.51109989000E-03 0.  1.
     -623   -1    0    0    0    0  0.00000000000E+00  0.00000000000E+00  0.12525980253E-10  0.17130000000E+03  0.17130000000E+03 0. -1.
       11    1    1    2    0    0 -0.65247153395E-03  0.47510193121E-03  0.16254671046E-01  0.16282720745E-01  0.51109989000E-03 0.  1.
     -623    1    1    2    0    0 -0.14376645381E-05 -0.59623453784E-04  0.32610802103E-04  0.17130000000E+03  0.17130000000E+03 0. -1.
      622    1    1    2    0    0  0.65390919849E-03 -0.41547847754E-03  0.39837126782E+01  0.39837172719E+01  0.60000000000E-02 0.  1.
</event>
<event>
 5   0  0.1211800E+10  0.9118800E+02  0.7818608E-02  0.1180000E+00
       11   -1    0    0    0    0  0.00000000000E+00  0.00000000000E+00  0.39999999673E+01  0.40000000000E+01  0.51109989000E-03 0. -1.
     -623   -1    0    0    0    0  0.00000000000E+00  0.00000000000E+00  0.12525980253E-10  0.17130000000E+03  0.17130000000E+03 0. -1.
       11    1    1    2    0    0  0.26899919065E-04 -0.86024747639E-03  0.11259096115E+00  0.11259541067E+00  0.51109989000E-03 0. -1.
     -623    1    1    2    0    0 -0.29070458988E-03 -0.19209168526E-04  0.91559063855E-05  0.17130000000E+03  0.17130000000E+03 0. -1.
      622    1    1    2    0    0  0.26380467265E-03  0.87945664503E-03  0.38873998757E+01  0.38874046144E+01  0.60000000000E-02 0. -1.
</event>
<event>
 5   0  0.1211800E+10  0.9118800E+02  0.7818608E-02  0.1180000E+00
       11   -1    0    0    0    0  0.00000000000E+00  0.00000000000E+00  0.39999999673E+01  0.40000000000E+01  0.51109989000E-03 0.  1.
     -623   -1    0    0    0    0  0.00000000000E+00  0.00000000000E+00  0.12525980253E-10  0.17130000000E+03  0.17130000000E+03 0.  1.
       11    1    1    2    0    0 -0.78972114972E-03  0.13491039630E-02  0.69536672294E-01  0.69556119485E-01  0.51109989000E-03 0.  1.
     -623    1    1    2    0    0  0.45907297557E-04 -0.11017016298E-03  0.24259878951E-04  0.17130000000E+03  0.17130000000E+03 0.  1.
      622    1    1    2    0    0  0.74381385215E-03 -0.12389338000E-02  0.39304390363E+01  0.39304438816E+01  0.60000000000E-02 0.  1.
</event>
<event>
 5   0  0.1211800E+10  0.9118800E+02  0.7818608E-02  0.1180000E+00
       11   -1    0    0    0    0  0.00000000000E+00  0.00000000000E+00  0.39999999673E+01  0.40000000000E+01  0.51109989000E-03 0. -1.
     -623   -1    0    0    0    0  0.00000000000E+00  0.00000000000E+00  0.12525980253E-10  0.17130000000E+03  0.17130000000E+03 0.  1.
       11    1    1    2    0    0  0.12492931761E-03  0.55038670509E-03  0.80735231648E+00  0.80735267552E+00  0.51109989000E-03 0. -1.
     -623    1    1    2    0    0 -0.42966069021E-04  0.14356727430E-04  0.60153726702E-05  0.17130000000E+03  0.17130000000E+03 0.  1.
      622    1    1    2    0    0 -0.81963248585E-04 -0.56474343252E-03  0.31926416355E+01  0.31926473245E+01  0.60000000000E-02 0. -1.
</event>
<event>
 5   0  0.1211800E+10  0.9118800E+02  0.7818608E-02  0.1180000E+00
       11   -1    0    0    0    0  0.00000000000E+00  0.00000000000E+00  0.39999999673E+01  0.40000000000E+01  0.51109989000E-03 0. -1.
     -623   -1    0    0    0    0  0.00000000000E+00  0.00000000000E+00  0.12525980253E-10  0.17130000000E+03  0.17130000000E+03 0. -1.
       11    1    1    2    0    0 -0.39611691464E-04  0.31452573497E-02  0.11683968190E+01  0.11684011649E+01  0.51109989000E-03 0. -1.
     -623    1    1    2    0    0 -0.43411135477E-04  0.33384205493E-06  0.12418504425E-04  0.17130000000E+03  0.17130000000E+03 0. -1.
      622    1    1    2    0    0  0.83022826942E-04 -0.31455911918E-02  0.28315907298E+01  0.28315988351E+01  0.60000000000E-02 0. -1.
</event>
<event>
 5   0  0.1211800E+10  0.9118800E+02  0.7818608E-02  0.1180000E+00
       11   -1    0    0    0    0  0.00000000000E+00  0.00000000000E+00  0.39999999673E+01  0.40000000000E+01  0.51109989000E-03 0. -1.
     -623   -1    0    0    0    0  0.00000000000E+00  0.00000000000E+00  0.12525980253E-10  0.17130000000E+03  0.17130000000E+03 0.  1.
       11    1    1    2    0    0  0.49382036299E-02  0.67911423178E-02  0.78691296263E+00  0.78695792609E+00  0.51109989000E-03 0. -1.
     -623    1    1    2    0    0  0.48805549467E-03 -0.99270399137E-03  0.60350704057E-04  0.17130000000E+03  0.17130000000E+03 0.  1.
      622    1    1    2    0    0 -0.54262591245E-02 -0.57984383265E-02  0.32130266540E+01  0.32130420703E+01  0.60000000000E-02 0. -1.
</event>
<event>
 5   0  0.1211800E+10  0.9118800E+02  0.7818608E-02  0.1180000E+00
       11   -1    0    0    0    0  0.00000000000E+00  0.00000000000E+00  0.39999999673E+01  0.40000000000E+01  0.51109989000E-03 0. -1.
     -623   -1    0    0    0    0  0.00000000000E+00  0.00000000000E+00  0.12525980253E-10  0.17130000000E+03  0.17130000000E+03 0. -1.
       11    1    1    2    0    0 -0.31690941643E-03 -0.27127702263E-04  0.20602585943E+00  0.20602673890E+00  0.51109989000E-03 0. -1.
     -623    1    1    2    0    0  0.22875426326E-04 -0.85920318383E-05  0.56027699293E-05  0.17130000000E+03  0.17130000000E+03 0. -1.
      622    1    1    2    0    0  0.29403399032E-03  0.35719734019E-04  0.37939684670E+01  0.37939732229E+01  0.60000000000E-02 0. -1.
</event>
<event>
 5   0  0.1211800E+10  0.9118800E+02  0.7818608E-02  0.1180000E+00
       11   -1    0    0    0    0  0.00000000000E+00  0.00000000000E+00  0.39999999673E+01  0.40000000000E+01  0.51109989000E-03 0. -1.
     -623   -1    0    0    0    0  0.00000000000E+00  0.00000000000E+00  0.12525980253E-10  0.17130000000E+03  0.17130000000E+03 0.  1.
       11    1    1    2    0    0 -0.41782241905E-03 -0.46593730221E-03  0.69084829332E+00  0.69084876585E+00  0.51109989000E-03 0. -1.
     -623    1    1    2    0    0  0.77880208982E-04  0.32745047424E-03  0.59000453856E-05  0.17130000000E+03  0.17130000000E+03 0.  1.
      622    1    1    2    0    0  0.33994221007E-03  0.13848682797E-03  0.33091457740E+01  0.33091512338E+01  0.60000000000E-02 0. -1.
</event>
<event>
 5   0  0.1211800E+10  0.9118800E+02  0.7818608E-02  0.1180000E+00
       11   -1    0    0    0    0  0.00000000000E+00  0.00000000000E+00  0.39999999673E+01  0.40000000000E+01  0.51109989000E-03 0. -1.
     -623   -1    0    0    0    0  0.00000000000E+00  0.00000000000E+00  0.12525980253E-10  0.17130000000E+03  0.17130000000E+03 0.  1.
       11    1    1    2    0    0 -0.56425153022E-02 -0.84079291463E-03  0.94475819984E-01  0.94649282592E-01  0.51109989000E-03 0. -1.
     -623    1    1    2    0    0  0.10802159984E-03  0.67112210932E-03  0.18196579199E-03  0.17130000000E+03  0.17130000000E+03 0.  1.
      622    1    1    2    0    0  0.55344937024E-02  0.16967080531E-03  0.39053421816E+01  0.39053507160E+01  0.60000000000E-02 0. -1.
</event>
<event>
 5   0  0.1211800E+10  0.9118800E+02  0.7818608E-02  0.1180000E+00
       11   -1    0    0    0    0  0.00000000000E+00  0.00000000000E+00  0.39999999673E+01  0.40000000000E+01  0.51109989000E-03 0.  1.
     -623   -1    0    0    0    0  0.00000000000E+00  0.00000000000E+00  0.12525980253E-10  0.17130000000E+03  0.17130000000E+03 0.  1.
       11    1    1    2    0    0  0.33972127768E-03  0.17857068691E-02  0.10600621560E+01  0.10600638377E+01  0.51109989000E-03 0.  1.
     -623    1    1    2    0    0  0.12298019933E-03 -0.60633215212E-03  0.80457182507E-05  0.17130000000E+03  0.17130000000E+03 0.  1.
      622    1    1    2    0    0 -0.46270147941E-03 -0.11793747051E-02  0.29399298439E+01  0.29399362394E+01  0.60000000000E-02 0.  1.
</event>
<event>
 5   0  0.1211800E+10  0.9118800E+02  0.7818608E-02  0.1180000E+00
       11   -1    0    0    0    0  0.00000000000E+00  0.00000000000E+00  0.39999999673E+01  0.40000000000E+01  0.51109989000E-03 0.  1.
     -623   -1    0    0    0    0  0.00000000000E+00  0.00000000000E+00  0.12525980253E-10  0.17130000000E+03  0.17130000000E+03 0. -1.
       11    1    1    2    0    0 -0.29573788089E-02 -0.57519438493E-02  0.42518502250E+00  0.42523451827E+00  0.51109989000E-03 0.  1.
     -623    1    1    2    0    0  0.71377891336E-02  0.12594010148E-01  0.64102291141E-04  0.17130000061E+03  0.17130000000E+03 0. -1.
      622    1    1    2    0    0 -0.41804103247E-02 -0.68420662987E-02  0.35747508426E+01  0.35747648701E+01  0.60000000000E-02 0.  1.
</event>
<event>
 5   0  0.1211800E+10  0.9118800E+02  0.7818608E-02  0.1180000E+00
       11   -1    0    0    0    0  0.00000000000E+00  0.00000000000E+00  0.39999999673E+01  0.40000000000E+01  0.51109989000E-03 0. -1.
     -623   -1    0    0    0    0  0.00000000000E+00  0.00000000000E+00  0.12525980253E-10  0.17130000000E+03  0.17130000000E+03 0.  1.
       11    1    1    2    0    0 -0.15354773603E-03  0.14619742926E-02  0.11765889040E+01  0.11765899333E+01  0.51109989000E-03 0. -1.
     -623    1    1    2    0    0  0.32928467577E-04  0.45712549622E-05  0.77554131388E-05  0.17130000000E+03  0.17130000000E+03 0.  1.
      622    1    1    2    0    0  0.12061926845E-03 -0.14665455476E-02  0.28234033080E+01  0.28234100667E+01  0.60000000000E-02 0. -1.
</event>
<event>
 5   0  0.1211800E+10  0.9118800E+02  0.7818608E-02  0.1180000E+00
       11   -1    0    0    0    0  0.00000000000E+00  0.00000000000E+00  0.39999999673E+01  0.40000000000E+01  0.51109989000E-03 0. -1.
     -623   -1    0    0    0    0  0.00000000000E+00  0.00000000000E+00  0.12525980253E-10  0.17130000000E+03  0.17130000000E+03 0. -1.
       11    1    1    2    0    0  0.62569219615E-03 -0.56101547891E-04  0.25443405196E-01  0.25456290562E-01  0.51109989000E-03 0. -1.
     -623    1    1    2    0    0 -0.10491007093E-02  0.11955997406E-02  0.17574835419E-04  0.17130000001E+03  0.17130000000E+03 0. -1.
      622    1    1    2    0    0  0.42340852297E-03 -0.11394982039E-02  0.39745390248E+01  0.39745437395E+01  0.60000000000E-02 0. -1.
</event>
<event>
 5   0  0.1211800E+10  0.9118800E+02  0.7818608E-02  0.1180000E+00
       11   -1    0    0    0    0  0.00000000000E+00  0.00000000000E+00  0.39999999673E+01  0.40000000000E+01  0.51109989000E-03 0.  1.
     -623   -1    0    0    0    0  0.00000000000E+00  0.00000000000E+00  0.12525980253E-10  0.17130000000E+03  0.17130000000E+03 0.  1.
       11    1    1    2    0    0  0.10076240830E-02 -0.96593053196E-03  0.13415294949E+00  0.13416118443E+00  0.51109989000E-03 0.  1.
     -623    1    1    2    0    0 -0.60786003417E-04 -0.90525668642E-04  0.13118814913E-04  0.17130000000E+03  0.17130000000E+03 0.  1.
      622    1    1    2    0    0 -0.94683807943E-03  0.10564562008E-02  0.38658339092E+01  0.38658388257E+01  0.60000000000E-02 0.  1.
</event>
<event>
 5   0  0.1211800E+10  0.9118800E+02  0.7818608E-02  0.1180000E+00
       11   -1    0    0    0    0  0.00000000000E+00  0.00000000000E+00  0.39999999673E+01  0.40000000000E+01  0.51109989000E-03 0.  1.
     -623   -1    0    0    0    0  0.00000000000E+00  0.00000000000E+00  0.12525980253E-10  0.17130000000E+03  0.17130000000E+03 0. -1.
       11    1    1    2    0    0  0.30517295837E-03 -0.26722743326E-03  0.12540637538E+00  0.12540807291E+00  0.51109989000E-03 0.  1.
     -623    1    1    2    0    0 -0.42730221322E-03  0.46449043412E-05  0.63218951052E-05  0.17130000000E+03  0.17130000000E+03 0. -1.
      622    1    1    2    0    0  0.12212925523E-03  0.26258252892E-03  0.38745872736E+01  0.38745919301E+01  0.60000000000E-02 0.  1.
</event>
<event>
 5   0  0.1211800E+10  0.9118800E+02  0.7818608E-02  0.1180000E+00
       11   -1    0    0    0    0  0.00000000000E+00  0.00000000000E+00  0.39999999673E+01  0.40000000000E+01  0.51109989000E-03 0. -1.
     -623   -1    0    0    0    0  0.00000000000E+00  0.00000000000E+00  0.12525980253E-10  0.17130000000E+03  0.17130000000E+03 0.  1.
       11    1    1    2    0    0  0.51225519724E-03 -0.51825456119E-03  0.78035740056E+00  0.78035790816E+00  0.51109989000E-03 0. -1.
     -623    1    1    2    0    0 -0.88643459319E-04 -0.66547536886E-04  0.61466588250E-05  0.17130000000E+03  0.17130000000E+03 0.  1.
      622    1    1    2    0    0 -0.42361173792E-03  0.58480209808E-03  0.32196364201E+01  0.32196420918E+01  0.60000000000E-02 0. -1.
</event>
<event>
 5   0  0.1211800E+10  0.9118800E+02  0.7818608E-02  0.1180000E+00
       11   -1    0    0    0    0  0.00000000000E+00  0.00000000000E+00  0.39999999673E+01  0.40000000000E+01  0.51109989000E-03 0.  1.
     -623   -1    0    0    0    0  0.00000000000E+00  0.00000000000E+00  0.12525980253E-10  0.17130000000E+03  0.17130000000E+03 0.  1.
       11    1    1    2    0    0 -0.26421253979E-02 -0.48150057084E-02  0.11427333776E+01  0.11427466905E+01  0.51109989000E-03 0.  1.
     -623    1    1    2    0    0  0.30326538098E-03  0.13806259782E-03  0.24365372710E-04  0.17130000000E+03  0.17130000000E+03 0.  1.
      622    1    1    2    0    0  0.23388600170E-02  0.46769431106E-02  0.28572422244E+01  0.28572533092E+01  0.60000000000E-02 0.  0.
</event>
<event>
 5   0  0.1211800E+10  0.9118800E+02  0.7818608E-02  0.1180000E+00
       11   -1    0    0    0    0  0.00000000000E+00  0.00000000000E+00  0.39999999673E+01  0.40000000000E+01  0.51109989000E-03 0.  1.
     -623   -1    0    0    0    0  0.00000000000E+00  0.00000000000E+00  0.12525980253E-10  0.17130000000E+03  0.17130000000E+03 0.  1.
       11    1    1    2    0    0 -0.21530975412E-02 -0.54074337798E-03  0.31630746433E+00  0.31631566741E+00  0.51109989000E-03 0.  1.
     -623    1    1    2    0    0  0.13385787358E-03  0.31777326014E-03  0.13617378249E-04  0.17130000000E+03  0.17130000000E+03 0.  1.
      622    1    1    2    0    0  0.20192396665E-02  0.22297011518E-03  0.36836789191E+01  0.36836843657E+01  0.60000000000E-02 0.  1.
</event>
<event>
 5   0  0.1211800E+10  0.9118800E+02  0.7818608E-02  0.1180000E+00
       11   -1    0    0    0    0  0.00000000000E+00  0.00000000000E+00  0.39999999673E+01  0.40000000000E+01  0.51109989000E-03 0.  1.
     -623   -1    0    0    0    0  0.00000000000E+00  0.00000000000E+00  0.12525980253E-10  0.17130000000E+03  0.17130000000E+03 0.  1.
       11    1    1    2    0    0 -0.21138865673E-01  0.46778454597E-02  0.10907006733E+01  0.10909156493E+01  0.51109989000E-03 0.  1.
     -623    1    1    2    0    0  0.83360896833E-02 -0.72597124054E-02  0.25080592978E-03  0.17130000036E+03  0.17130000000E+03 0.  1.
      622    1    1    2    0    0  0.12802775990E-01  0.25818669451E-02  0.29090484878E+01  0.29090839935E+01  0.60000000000E-02 0.  1.
</event>
<event>
 5   0  0.1211800E+10  0.9118800E+02  0.7818608E-02  0.1180000E+00
       11   -1    0    0    0    0  0.00000000000E+00  0.00000000000E+00  0.39999999673E+01  0.40000000000E+01  0.51109989000E-03 0. -1.
     -623   -1    0    0    0    0  0.00000000000E+00  0.00000000000E+00  0.12525980253E-10  0.17130000000E+03  0.17130000000E+03 0.  1.
       11    1    1    2    0    0  0.56729778897E-03  0.32943587079E-03  0.46118050441E-02  0.46861843366E-02  0.51109989000E-03 0.  1.
     -623    1    1    2    0    0 -0.22103008215E-03 -0.50512196267E-04  0.78876842752E-04  0.17130000000E+03  0.17130000000E+03 0.  1.
      622    1    1    2    0    0 -0.34626770679E-03 -0.27892367452E-03  0.39953092860E+01  0.39953138160E+01  0.60000000000E-02 0. -1.
</event>
<event>
 5   0  0.1211800E+10  0.9118800E+02  0.7818608E-02  0.1180000E+00
       11   -1    0    0    0    0  0.00000000000E+00  0.00000000000E+00  0.39999999673E+01  0.40000000000E+01  0.51109989000E-03 0. -1.
     -623   -1    0    0    0    0  0.00000000000E+00  0.00000000000E+00  0.12525980253E-10  0.17130000000E+03  0.17130000000E+03 0.  1.
       11    1    1    2    0    0 -0.31057192019E-02  0.79580031527E-03  0.12078055495E+00  0.12082417997E+00  0.51109989000E-03 0. -1.
     -623    1    1    2    0    0  0.36857341225E-03 -0.18551728028E-03  0.49246715625E-04  0.17130000000E+03  0.17130000000E+03 0.  1.
      622    1    1    2    0    0  0.27371457896E-02 -0.61028303499E-03  0.38791701657E+01  0.38791758195E+01  0.60000000000E-02 0. -1.
</event>
<event>
 5   0  0.1211800E+10  0.9118800E+02  0.7818608E-02  0.1180000E+00
       11   -1    0    0    0    0  0.00000000000E+00  0.00000000000E+00  0.39999999673E+01  0.40000000000E+01  0.51109989000E-03 0.  1.
     -623   -1    0    0    0    0  0.00000000000E+00  0.00000000000E+00  0.12525980253E-10  0.17130000000E+03  0.17130000000E+03 0.  1.
       11    1    1    2    0    0 -0.22723702263E-03 -0.86056865336E-03  0.19912023044E-01  0.19938457789E-01  0.51109989000E-03 0.  1.
     -623    1    1    2    0    0 -0.61742807781E-02  0.13528101577E-02  0.36219807288E-04  0.17130000012E+03  0.17130000000E+03 0.  1.
      622    1    1    2    0    0  0.64015178008E-02 -0.49224150434E-03  0.39800517245E+01  0.39800614256E+01  0.60000000000E-02 0.  1.
</event>
<event>
 5   0  0.1211800E+10  0.9118800E+02  0.7818608E-02  0.1180000E+00
       11   -1    0    0    0    0  0.00000000000E+00  0.00000000000E+00  0.39999999673E+01  0.40000000000E+01  0.51109989000E-03 0.  1.
     -623   -1    0    0    0    0  0.00000000000E+00  0.00000000000E+00  0.12525980253E-10  0.17130000000E+03  0.17130000000E+03 0.  1.
       11    1    1    2    0    0 -0.58894242167E-02  0.15541932967E-02  0.58890968301E+00  0.58894140353E+00  0.51109989000E-03 0.  1.
     -623    1    1    2    0    0  0.39448156000E-02 -0.58019900791E-02  0.40307729191E-04  0.17130000014E+03  0.17130000000E+03 0.  1.
      622    1    1    2    0    0  0.19446086168E-02  0.42477967824E-02  0.34110499766E+01  0.34110584528E+01  0.60000000000E-02 0. -1.
</event>
<event>
 5   0  0.1211800E+10  0.9118800E+02  0.7818608E-02  0.1180000E+00
       11   -1    0    0    0    0  0.00000000000E+00  0.00000000000E+00  0.39999999673E+01  0.40000000000E+01  0.51109989000E-03 0. -1.
     -623   -1    0    0    0    0  0.00000000000E+00  0.00000000000E+00  0.12525980253E-10  0.17130000000E+03  0.17130000000E+03 0. -1.
       11    1    1    2    0    0 -0.18017992530E-03 -0.53906332969E-03  0.85358859429E+00  0.85358893653E+00  0.51109989000E-03 0. -1.
     -623    1    1    2    0    0  0.89979154798E-04  0.58297483194E-05  0.60769172592E-05  0.17130000000E+03  0.17130000000E+03 0. -1.
      622    1    1    2    0    0  0.90200768258E-04  0.53323358122E-03  0.31464053958E+01  0.31464111631E+01  0.60000000000E-02 0. -1.
</event>
<event>
 5   0  0.1211800E+10  0.9118800E+02  0.7818608E-02  0.1180000E+00
       11   -1    0    0    0    0  0.00000000000E+00  0.00000000000E+00  0.39999999673E+01  0.40000000000E+01  0.51109989000E-03 0. -1.
     -623   -1    0    0    0    0  0.00000000000E+00  0.00000000000E+00  0.12525980253E-10  0.17130000000E+03  0.17130000000E+03 0.  1.
       11    1    1    2    0    0 -0.35727667452E-03  0.64876759270E-03  0.16677424722E+00  0.16677667495E+00  0.51109989000E-03 0. -1.
     -623    1    1    2    0    0  0.41286970027E-03  0.14362170231E-04  0.71491327742E-05  0.17130000000E+03  0.17130000000E+03 0.  1.
      622    1    1    2    0    0 -0.55593032454E-04 -0.66312976316E-03  0.38332186360E+01  0.38332233895E+01  0.60000000000E-02 0. -1.
</event>
<event>
 5   0  0.1211800E+10  0.9118800E+02  0.7818608E-02  0.1180000E+00
       11   -1    0    0    0    0  0.00000000000E+00  0.00000000000E+00  0.39999999673E+01  0.40000000000E+01  0.51109989000E-03 0.  1.
     -623   -1    0    0    0    0  0.00000000000E+00  0.00000000000E+00  0.12525980253E-10  0.17130000000E+03  0.17130000000E+03 0. -1.
       11    1    1    2    0    0 -0.17811079899E-03 -0.17688099504E-03  0.25704217909E-01  0.25710524144E-01  0.51109989000E-03 0. -1.
     -623    1    1    2    0    0 -0.84094877737E-04  0.61301021939E-04  0.10813070938E-04  0.17130000000E+03  0.17130000000E+03 0. -1.
      622    1    1    2    0    0  0.26220567711E-03  0.11557997282E-03  0.39742849548E+01  0.39742894942E+01  0.60000000000E-02 0.  1.
</event>
<event>
 5   0  0.1211800E+10  0.9118800E+02  0.7818608E-02  0.1180000E+00
       11   -1    0    0    0    0  0.00000000000E+00  0.00000000000E+00  0.39999999673E+01  0.40000000000E+01  0.51109989000E-03 0.  1.
     -623   -1    0    0    0    0  0.00000000000E+00  0.00000000000E+00  0.12525980253E-10  0.17130000000E+03  0.17130000000E+03 0. -1.
       11    1    1    2    0    0 -0.14296119412E-03  0.35794934369E-02  0.90214478802E+00  0.90215204538E+00  0.51109989000E-03 0.  1.
     -623    1    1    2    0    0  0.14548889805E-02 -0.43590134187E-02  0.13472727578E-04  0.17130000006E+03  0.17130000000E+03 0. -1.
      622    1    1    2    0    0 -0.13119278009E-02  0.77952002522E-03  0.30978417465E+01  0.30978479328E+01  0.60000000000E-02 0.  1.
</event>
<event>
 5   0  0.1211800E+10  0.9118800E+02  0.7818608E-02  0.1180000E+00
       11   -1    0    0    0    0  0.00000000000E+00  0.00000000000E+00  0.39999999673E+01  0.40000000000E+01  0.51109989000E-03 0. -1.
     -623   -1    0    0    0    0  0.00000000000E+00  0.00000000000E+00  0.12525980253E-10  0.17130000000E+03  0.17130000000E+03 0.  1.
       11    1    1    2    0    0  0.39620804440E-03 -0.90091153866E-03  0.26262991281E+00  0.26263225420E+00  0.51109989000E-03 0. -1.
     -623    1    1    2    0    0 -0.44979489739E-03  0.87443399949E-03  0.71282812457E-05  0.17130000000E+03  0.17130000000E+03 0.  1.
      622    1    1    2    0    0  0.53586847254E-04  0.26477550305E-04  0.37373628753E+01  0.37373676920E+01  0.60000000000E-02 0. -1.
</event>
<event>
 5   0  0.1211800E+10  0.9118800E+02  0.7818608E-02  0.1180000E+00
       11   -1    0    0    0    0  0.00000000000E+00  0.00000000000E+00  0.39999999673E+01  0.40000000000E+01  0.51109989000E-03 0. -1.
     -623   -1    0    0    0    0  0.00000000000E+00  0.00000000000E+00  0.12525980253E-10  0.17130000000E+03  0.17130000000E+03 0. -1.
       11    1    1    2    0    0 -0.14394279243E-02 -0.20559257622E-02  0.27018285172E+00  0.27019499139E+00  0.51109989000E-03 0. -1.
     -623    1    1    2    0    0  0.14924932208E-02  0.27479359721E-02  0.17026135936E-04  0.17130000003E+03  0.17130000000E+03 0. -1.
      622    1    1    2    0    0 -0.53065289329E-04 -0.69201019675E-03  0.37298000704E+01  0.37298049609E+01  0.60000000000E-02 0. -1.
</event>
<event>
 5   0  0.1211800E+10  0.9118800E+02  0.7818608E-02  0.1180000E+00
       11   -1    0    0    0    0  0.00000000000E+00  0.00000000000E+00  0.39999999673E+01  0.40000000000E+01  0.51109989000E-03 0.  1.
     -623   -1    0    0    0    0  0.00000000000E+00  0.00000000000E+00  0.12525980253E-10  0.17130000000E+03  0.17130000000E+03 0.  1.
       11    1    1    2    0    0  0.21997774021E-03  0.11336432614E-02  0.46315461495E+00  0.46315633658E+00  0.51109989000E-03 0.  1.
     -623    1    1    2    0    0 -0.84549890555E-04 -0.17886840425E-04  0.69568793553E-05  0.17130000000E+03  0.17130000000E+03 0.  1.
      622    1    1    2    0    0 -0.13542785000E-03 -0.11157564210E-02  0.35368383794E+01  0.35368436472E+01  0.60000000000E-02 0.  1.
</event>
<event>
 5   0  0.1211800E+10  0.9118800E+02  0.7818608E-02  0.1180000E+00
       11   -1    0    0    0    0  0.00000000000E+00  0.00000000000E+00  0.39999999673E+01  0.40000000000E+01  0.51109989000E-03 0.  1.
     -623   -1    0    0    0    0  0.00000000000E+00  0.00000000000E+00  0.12525980253E-10  0.17130000000E+03  0.17130000000E+03 0. -1.
       11    1    1    2    0    0 -0.62128386955E-03  0.73112740637E-03  0.10592263769E+00  0.10592821597E+00  0.51109989000E-03 0.  1.
     -623    1    1    2    0    0  0.89272188938E-03  0.21273232784E-03  0.10294360991E-04  0.17130000000E+03  0.17130000000E+03 0. -1.
      622    1    1    2    0    0 -0.27143801982E-03 -0.94385973422E-03  0.38940670353E+01  0.38940717816E+01  0.60000000000E-02 0.  1.
</event>
<event>
 5   0  0.1211800E+10  0.9118800E+02  0.7818608E-02  0.1180000E+00
       11   -1    0    0    0    0  0.00000000000E+00  0.00000000000E+00  0.39999999673E+01  0.40000000000E+01  0.51109989000E-03 0.  1.
     -623   -1    0    0    0    0  0.00000000000E+00  0.00000000000E+00  0.12525980253E-10  0.17130000000E+03  0.17130000000E+03 0. -1.
       11    1    1    2    0    0 -0.10642951290E-02 -0.10518083703E-02  0.23194259574E+00  0.23194798547E+00  0.51109989000E-03 0.  1.
     -623    1    1    2    0    0 -0.27507923603E-03  0.54567000978E-03  0.10407231263E-04  0.17130000000E+03  0.17130000000E+03 0. -1.
      622    1    1    2    0    0  0.13393743677E-02  0.50613835523E-03  0.37680470029E+01  0.37680520519E+01  0.60000000000E-02 0.  1.
</event>
<event>
 5   0  0.1211800E+10  0.9118800E+02  0.7818608E-02  0.1180000E+00
       11   -1    0    0    0    0  0.00000000000E+00  0.00000000000E+00  0.39999999673E+01  0.40000000000E+01  0.51109989000E-03 0.  1.
     -623   -1    0    0    0    0  0.00000000000E+00  0.00000000000E+00  0.12525980253E-10  0.17130000000E+03  0.17130000000E+03 0. -1.
       11    1    1    2    0    0 -0.10761475059E-02  0.61637740824E-03  0.90823732794E-01  0.90833637361E-01  0.51109989000E-03 0.  1.
     -623    1    1    2    0    0  0.18089319533E-02 -0.27663536353E-03  0.14569712202E-04  0.17130000001E+03  0.17130000000E+03 0. -1.
      622    1    1    2    0    0 -0.73278444154E-03 -0.33974204561E-03  0.39091616518E+01  0.39091663398E+01  0.60000000000E-02 0.  1.
</event>
<event>
 5   0  0.1211800E+10  0.9118800E+02  0.7818608E-02  0.1180000E+00
       11   -1    0    0    0    0  0.00000000000E+00  0.00000000000E+00  0.39999999673E+01  0.40000000000E+01  0.51109989000E-03 0. -1.
     -623   -1    0    0    0    0  0.00000000000E+00  0.00000000000E+00  0.12525980253E-10  0.17130000000E+03  0.17130000000E+03 0. -1.
       11    1    1    2    0    0 -0.23115021261E-03  0.10818727998E-02  0.13531776179E+00  0.13532324914E+00  0.51109989000E-03 0. -1.
     -623    1    1    2    0    0 -0.13725227765E-04 -0.19682758111E-04  0.10266010408E-04  0.17130000000E+03  0.17130000000E+03 0. -1.
      622    1    1    2    0    0  0.24487544038E-03 -0.10621900417E-02  0.38646719396E+01  0.38646767509E+01  0.60000000000E-02 0. -1.
</event>
<event>
 5   0  0.1211800E+10  0.9118800E+02  0.7818608E-02  0.1180000E+00
       11   -1    0    0    0    0  0.00000000000E+00  0.00000000000E+00  0.39999999673E+01  0.40000000000E+01  0.51109989000E-03 0. -1.
     -623   -1    0    0    0    0  0.00000000000E+00  0.00000000000E+00  0.12525980253E-10  0.17130000000E+03  0.17130000000E+03 0.  1.
       11    1    1    2    0    0 -0.97505551881E-04  0.85444392742E-03  0.60950685542E-02  0.61766225023E-02  0.51109989000E-03 0.  1.
     -623    1    1    2    0    0 -0.43875586319E-04 -0.10501923655E-03  0.86101145221E-04  0.17130000000E+03  0.17130000000E+03 0.  1.
      622    1    1    2    0    0  0.14138113818E-03 -0.74942469092E-03  0.39938187958E+01  0.39938233756E+01  0.60000000000E-02 0. -1.
</event>
<event>
 5   0  0.1211800E+10  0.9118800E+02  0.7818608E-02  0.1180000E+00
       11   -1    0    0    0    0  0.00000000000E+00  0.00000000000E+00  0.39999999673E+01  0.40000000000E+01  0.51109989000E-03 0.  1.
     -623   -1    0    0    0    0  0.00000000000E+00  0.00000000000E+00  0.12525980253E-10  0.17130000000E+03  0.17130000000E+03 0. -1.
       11    1    1    2    0    0 -0.75706115270E-03  0.10949418526E-02  0.58482137352E-01  0.58499518381E-01  0.51109989000E-03 0. -1.
     -623    1    1    2    0    0  0.14291499123E-03  0.26473387932E-04  0.22122619914E-04  0.17130000000E+03  0.17130000000E+03 0. -1.
      622    1    1    2    0    0  0.61414616147E-03 -0.11214152405E-02  0.39414957074E+01  0.39415004816E+01  0.60000000000E-02 0.  1.
</event>
<event>
 5   0  0.1211800E+10  0.9118800E+02  0.7818608E-02  0.1180000E+00
       11   -1    0    0    0    0  0.00000000000E+00  0.00000000000E+00  0.39999999673E+01  0.40000000000E+01  0.51109989000E-03 0. -1.
     -623   -1    0    0    0    0  0.00000000000E+00  0.00000000000E+00  0.12525980253E-10  0.17130000000E+03  0.17130000000E+03 0.  1.
       11    1    1    2    0    0 -0.25655477982E-01  0.27638267892E-01  0.72261723219E+00  0.72360072062E+00  0.51109989000E-03 0. -1.
     -623    1    1    2    0    0  0.13180614195E-01 -0.31041942426E-02  0.11050966898E-02  0.17130000054E+03  0.17130000000E+03 0.  1.
      622    1    1    2    0    0  0.12474863786E-01 -0.24534073649E-01  0.32762776389E+01  0.32763987410E+01  0.60000000000E-02 0. -1.
</event>
<event>
 5   0  0.1211800E+10  0.9118800E+02  0.7818608E-02  0.1180000E+00
       11   -1    0    0    0    0  0.00000000000E+00  0.00000000000E+00  0.39999999673E+01  0.40000000000E+01  0.51109989000E-03 0.  1.
     -623   -1    0    0    0    0  0.00000000000E+00  0.00000000000E+00  0.12525980253E-10  0.17130000000E+03  0.17130000000E+03 0.  1.
       11    1    1    2    0    0 -0.10763094064E-02 -0.30252521064E-02  0.20918344465E-01  0.21169528821E-01  0.51109989000E-03 0.  1.
     -623    1    1    2    0    0 -0.55614346280E-04 -0.18154672605E-03  0.25712925353E-03  0.17130000000E+03  0.17130000000E+03 0.  1.
      622    1    1    2    0    0  0.11319237527E-02  0.32067988325E-02  0.39788244945E+01  0.39788304718E+01  0.60000000000E-02 0.  1.
</event>
<event>
 5   0  0.1211800E+10  0.9118800E+02  0.7818608E-02  0.1180000E+00
       11   -1    0    0    0    0  0.00000000000E+00  0.00000000000E+00  0.39999999673E+01  0.40000000000E+01  0.51109989000E-03 0. -1.
     -623   -1    0    0    0    0  0.00000000000E+00  0.00000000000E+00  0.12525980253E-10  0.17130000000E+03  0.17130000000E+03 0. -1.
       11    1    1    2    0    0  0.45329602366E-03  0.12959963825E-02  0.22964007049E+00  0.22964474363E+00  0.51109989000E-03 0. -1.
     -623    1    1    2    0    0 -0.66980042915E-03 -0.16130785624E-03  0.95929412480E-05  0.17130000000E+03  0.17130000000E+03 0. -1.
      622    1    1    2    0    0  0.21650440549E-03 -0.11346885262E-02  0.37703503039E+01  0.37703552550E+01  0.60000000000E-02 0. -1.
</event>
<event>
 5   0  0.1211800E+10  0.9118800E+02  0.7818608E-02  0.1180000E+00
       11   -1    0    0    0    0  0.00000000000E+00  0.00000000000E+00  0.39999999673E+01  0.40000000000E+01  0.51109989000E-03 0. -1.
     -623   -1    0    0    0    0  0.00000000000E+00  0.00000000000E+00  0.12525980253E-10  0.17130000000E+03  0.17130000000E+03 0. -1.
       11    1    1    2    0    0  0.62480448358E-03 -0.66812195501E-03  0.22645561228E+00  0.22645803657E+00  0.51109989000E-03 0.  1.
     -623    1    1    2    0    0  0.31856515553E-03 -0.64937752977E-03  0.75111434583E-05  0.17130000000E+03  0.17130000000E+03 0. -1.
      622    1    1    2    0    0 -0.94336963968E-03  0.13174994859E-02  0.37735368511E+01  0.37735419691E+01  0.60000000000E-02 0. -1.
</event>
<event>
 5   0  0.1211800E+10  0.9118800E+02  0.7818608E-02  0.1180000E+00
       11   -1    0    0    0    0  0.00000000000E+00  0.00000000000E+00  0.39999999673E+01  0.40000000000E+01  0.51109989000E-03 0. -1.
     -623   -1    0    0    0    0  0.00000000000E+00  0.00000000000E+00  0.12525980253E-10  0.17130000000E+03  0.17130000000E+03 0.  1.
       11    1    1    2    0    0  0.24649849616E-02  0.37659979687E-02  0.83518202788E-02  0.95012112253E-02  0.51109989000E-03 0. -1.
     -623    1    1    2    0    0 -0.12864546049E-02 -0.34218986479E-02  0.11541007859E-02  0.17130000004E+03  0.17130000000E+03 0.  1.
      622    1    1    2    0    0 -0.11785303566E-02 -0.34409932080E-03  0.39904940463E+01  0.39904987459E+01  0.60000000000E-02 0. -1.
</event>
<event>
 5   0  0.1211800E+10  0.9118800E+02  0.7818608E-02  0.1180000E+00
       11   -1    0    0    0    0  0.00000000000E+00  0.00000000000E+00  0.39999999673E+01  0.40000000000E+01  0.51109989000E-03 0.  1.
     -623   -1    0    0    0    0  0.00000000000E+00  0.00000000000E+00  0.12525980253E-10  0.17130000000E+03  0.17130000000E+03 0. -1.
       11    1    1    2    0    0 -0.10964031337E-02 -0.10281206459E-02  0.10973602837E+00  0.10974751149E+00  0.51109989000E-03 0.  1.
     -623    1    1    2    0    0  0.15336853569E-02  0.39480540040E-03  0.16160876161E-04  0.17130000001E+03  0.17130000000E+03 0. -1.
      622    1    1    2    0    0 -0.43728221683E-03  0.63331524708E-03  0.38902477616E+01  0.38902524647E+01  0.60000000000E-02 0.  1.
</event>
<event>
 5   0  0.1211800E+10  0.9118800E+02  0.7818608E-02  0.1180000E+00
       11   -1    0    0    0    0  0.00000000000E+00  0.00000000000E+00  0.39999999673E+01  0.40000000000E+01  0.51109989000E-03 0.  1.
     -623   -1    0    0    0    0  0.00000000000E+00  0.00000000000E+00  0.12525980253E-10  0.17130000000E+03  0.17130000000E+03 0.  1.
       11    1    1    2    0    0  0.58638031228E-03 -0.45023143991E-03  0.59484914545E-02  0.60160054863E-02  0.51109989000E-03 0. -1.
     -623    1    1    2    0    0 -0.43892082662E-03  0.16669661986E-03  0.72001617584E-04  0.17130000000E+03  0.17130000000E+03 0.  1.
      622    1    1    2    0    0 -0.14745948566E-03  0.28353482005E-03  0.39939794743E+01  0.39939839939E+01  0.60000000000E-02 0.  1.
</event>
<event>
 5   0  0.1211800E+10  0.9118800E+02  0.7818608E-02  0.1180000E+00
       11   -1    0    0    0    0  0.00000000000E+00  0.00000000000E+00  0.39999999673E+01  0.40000000000E+01  0.51109989000E-03 0.  1.
     -623   -1    0    0    0    0  0.00000000000E+00  0.00000000000E+00  0.12525980253E-10  0.17130000000E+03  0.17130000000E+03 0. -1.
       11    1    1    2    0    0  0.43303471460E-03  0.14439745163E-02  0.84889470234E+00  0.84889619476E+00  0.51109989000E-03 0.  1.
     -623    1    1    2    0    0  0.10111856919E-03 -0.16420804346E-04  0.75407304316E-05  0.17130000000E+03  0.17130000000E+03 0. -1.
      622    1    1    2    0    0 -0.53415328494E-03 -0.14275537117E-02  0.31510977702E+01  0.31511038511E+01  0.60000000000E-02 0.  1.
</event>
<event>
 5   0  0.1211800E+10  0.9118800E+02  0.7818608E-02  0.1180000E+00
       11   -1    0    0    0    0  0.00000000000E+00  0.00000000000E+00  0.39999999673E+01  0.40000000000E+01  0.51109989000E-03 0. -1.
     -623   -1    0    0    0    0  0.00000000000E+00  0.00000000000E+00  0.12525980253E-10  0.17130000000E+03  0.17130000000E+03 0. -1.
       11    1    1    2    0    0  0.44556766364E-03  0.45975482491E-03  0.92459270420E-01  0.92462899661E-01  0.51109989000E-03 0. -1.
     -623    1    1    2    0    0 -0.26017707382E-02  0.16882589244E-02  0.94164608830E-05  0.17130000003E+03  0.17130000000E+03 0. -1.
      622    1    1    2    0    0  0.21562030745E-02 -0.21480137493E-02  0.39075312805E+01  0.39075370723E+01  0.60000000000E-02 0.  0.
</event>
</LesHouchesEvents>
