<LesHouchesEvents version="1.0">
<header>
<!--
#*********************************************************************
#                                                                    *
#                       MadGraph/MadEvent                            *
#                                                                    *
#                      The new web generation                        *
#                                                                    *
#                   http://madgraph.hep.uiuc.edu                     *
#                   http://madgraph.phys.ucl.ac.be                   *
#                   http://madgraph.roma2.infn.it                    *
#                                                                    *
#            CP3 team                      Tim Stelzer               *
#      Universite de Louvain          University of Illinois         *
#                                                                    *
#....................................................................*
#                                                                    *
# This file contains all the information necessary to reproduce      *
# the events generated:                                              *
#                                                                    *
# 1. software version                                                *
# 2. proc_card.dat      : code generation info including model       *
# 3. param_card.dat     : model primary parameters in the LH format  *
# 4. run_card.dat       : running parameters (collider and cuts)     *
# 5. pythia_card.dat    : present only in the pythia event file      *
# 6. pgs_card.dat       : present only in the pgs event file         *
#                                                                    *
#                                                                    *
#*********************************************************************
-->
<MGVersion>
# MG/ME version    : 4.4.17
# madgraph version : 4.4.2
# template version : 2.4.8
# helas version    : 3.5
# model version    : usrmod_1.0.4
</MGVersion>
<MGProcCard>
#*********************************************************************
#                        MadGraph/MadEvent                           *
#                   http://madgraph.hep.uiuc.edu                     *
#                                                                    *
#                          proc_card.dat                             *
#                                                                    *
# This file is used to generate the code for a specific process.     *
# Some notation/conventions:                                         *
#                                                                    *
# 0. Do not modify the TAGS and their order.                         *
# 1. hash/pound is a comment.                                        *
# 2. The number after the @ is used as an identifier for the class   *
#    of processes. It can be any positive integer.                   *
# 3. The number of lines for the max couplings depends on how many   *
#    different classes of couplings are present in the model         *
#    In the SM these are just two: QED (which include EW) and QCD    *
# 4. Write "end_coup" after  the couplings list,                     *
#    to tell MG that the couplings input is over.                    *
# 5. Write "done" after the proc list to                             *
#    to tell MG that the proc input is over.                         *
# 6. Some model names available at present are:                      *
#    sm     =  Standard Model                                        *
#    smckm =  Standard Model with Cabibbo matrix                     *
#    mssm   =  Minimal Supersymmetric Standard Model                 *
#    2hdm   =  Generic Two Higgs Doublet model                       *
#    heft   =  Higgs EFT (+Standard Model)                           *
#    usrmod =  User Model                                            *
# 7. Don't leave spaces between the particles name in the            *
#    definition of the multiparticles.                               *
#*********************************************************************
#*********************************************************************
# Process(es) requested : mg2 input                                  *
#*********************************************************************
# Begin PROCESS # This is TAG. Do not modify this line
e- N+ > e- N+ x      # Radiative
QCD=0             # Max QCD couplings
QED=1             # Max QED couplings
QFD=0 
QND=1
QWD=9
QDS=2
end_coup           # End the couplings input
done               # this tells MG there are no more procs
# End PROCESS  # This is TAG. Do not modify this line
#*********************************************************************
# Model information                                                  *
#*********************************************************************
# Begin MODEL  # This is TAG. Do not modify this line
fixedAP2     
# End   MODEL  # This is TAG. Do not modify this line
#*********************************************************************
# Start multiparticle definitions                                    *
#*********************************************************************
# Begin MULTIPARTICLES # This is TAG. Do not modify this line
P uu~cc~dd~ss~gf+f-
J uu~cc~dd~ss~gf+f-
L+ e+mu+
L- e-mu-
vl vevm
vl~ ve~vm~
# End  MULTIPARTICLES # This is TAG. Do not modify this line
</MGProcCard>
<slha>
#*********************************************************************
#                        MadGraph/MadEvent                           *
#                   http://madgraph.hep.uiuc.edu                     *
#                                                                    *
#                         param_card.dat                             *
#                                                                    *
#   Les Houches friendly file for the SM parameters of MadGraph      *
#        Spectrum and decay widths produced by SMCalc                *
#                                                                    *
#  Please note the following IMPORTANT issues:                       *
#                                                                    *
# 0. REFRAIN from editing this file by hand! Some of the parame-     *
#    ters are not independent                                        *
#    (such as G_Fermi, alpha_em, sin(theta_W),MZ,MW) and serious     *
#    problems might be encountered (such as violation of unitarity   *
#    or gauge invariance).  Always use a calculator.                 *
#                                                                    *
# 1. alpha_S(MZ) has been used in the calculation of the parameters  *
#    but, for consistency, it will be reset by madgraph to the       *
#    value expected IF the pdfs for collisions with hadrons are      *
#    used. This value is KEPT by madgraph when no pdf are used       *
#    lpp(i)=0 .                                                      *
#                                                                    *
#  2. Values of the charm and bottom kinematic (pole) masses are     *
#     those used in the matrix elements and phase space UNLESS they  *
#     are set to ZERO from the start in the model (particles.dat)    *
#     This happens, for example,  when using 5-flavor QCD where      *
#     charm and bottom are treated as partons in the initial state   *
#     and a zero mass might be hardwired in the model definition.    *
#                                                                    *
##********************************************************************
Block MODSEL # Select Model
     0   1   #  0 1 = SM
Block SMINPUTS      # Standard Model inputs
     1         1.27900000E+02   # alpha_em(MZ)(-1) SM MSbar
     2         1.16600000E-05   # G_Fermi
     3         1.18000000E-01   # alpha_s(MZ) SM MSbar
     4         9.15445065E+01   # Z mass (as input parameter)
Block MGYUKAWA     # Yukawa masses m/v=y/sqrt(2)
#    PDG          YMASS
     5         4.20000000E+00   # mbottom for the Yukawa  y_b
     4         1.25000000E+00   # mcharm  for the Yukawa  y_c
     6         1.74300000E+02   # mtop    for the Yukawa  y_t
    15         1.77700000E+00   # mtau    for the Yukawa  y_ta
Block MGCKM     # CKM elements for MadGraph
     1   1     9.75000000E-01   # Vud for Cabibbo matrix
#===========================================================
# QUANTUM NUMBERS OF NEW STATE(S) (NON SM PDG CODE) IF ANY
# (see below for masses and decay tables)
# These blocks are automatically created by the MadGraph
# qnumbers.pl script from the particles.dat model file
#===========================================================
BLOCK QNUMBERS 611 # f-
         1  -3 # 3 times electric charge
         2  2 # number of spin states (2S+1)
         3  1 # colour rep (1: singlet, 3: triplet, 8: octet)
         4  1 # Particle/Antiparticle distinction (0=own anti)
BLOCK QNUMBERS 622 # x
         1  0 # 3 times electric charge
         2  3 # number of spin states (2S+1)
         3  1 # colour rep (1: singlet, 3: triplet, 8: octet)
         4  0 # Particle/Antiparticle distinction (0=own anti)
BLOCK QNUMBERS 623 # N-
         1  0 # 3 times electric charge
         2  2 # number of spin states (2S+1)
         3  1 # colour rep (1: singlet, 3: triplet, 8: octet)
         4  1 # Particle/Antiparticle distinction (0=own anti)
# END of QNUMBERS blocks
#===========================================================
Block MASS      #  Mass spectrum (kinematic masses)
#       PDG       Mass
         4     1.40000000E+00   # charm    pole mass
         5     4.20000000E+00   # bottom   pole mass
         6     1.74300000E+02   # top      pole mass
        11     0.51109989E-03   # electron mass
        13     0.10565837E+00   # muon     mass
        15     1.77700000E+00   # tau      mass
        23     9.15445065E+01   # Z        mass
        24     8.02673592E+01   # W        mass
        25     1.20000000E+02   # H        mass
       611 0.8 # FMASS
       622 2.4 # APMASS
       623     1.71300000e+02   # HPMASS (tungsten)
#            PDG       Width
DECAY       611     0.00000000e+00   # ELWIDTH
DECAY 622 0.0728792526 # APWIDTH
DECAY       623     0.00000000e+00   # HPWIDTH
DECAY         6     1.51013490E+00   # top width
DECAY        23     2.44639985E+00   # Z   width
DECAY        24     2.03535570E+00   # W   width
DECAY        25     6.79485838E-03   # H   width
#        BR           NDA        ID1       ID2
     7.00588389E-02    2           4        -4   # BR( H -> c  cbar  )
     7.61074375E-01    2           5        -5   # BR( H -> b  bbar  )
     0.00000000E+00    2           6        -6   # BR( H -> t  tbar  )
     3.65529942E-02    2          15       -15   # BR( H -> tau- tau+)
     5.84716539E-03    2          23        23   # BR( H -> Z   Z^(*))
     6.31545979E-02    2          24       -24   # BR( H -> W   W^(*))
     2.55499652E-02    2          21        21   # BR( H -> g   g    )
     1.20906932E-03    2          22        22   # BR( H -> A   A    )
BLOCK MGUSER
         1     1.00000000e-00   # epsilon ,mixing coefficient
         2     74.0000000e+00   # Znuc    ,nuclear charge
</slha>
<MGRunCard>
#*********************************************************************
#                       MadGraph/MadEvent                            *
#                  http://madgraph.hep.uiuc.edu                      *
#                                                                    *
#                        run_card.dat                                *
#                                                                    *
#  This file is used to set the parameters of the run.               *
#                                                                    *
#  Some notation/conventions:                                        *
#                                                                    *
#   Lines starting with a '# ' are info or comments                  *
#                                                                    *
#   mind the format:   value    = variable     ! comment             *
#*********************************************************************
#
#*******************                                                 
# Running parameters
#*******************                                                 
#                                                                    
#*********************************************************************
# Tag name for the run (one word)                                    *
#*********************************************************************
  'HPS'     = run_tag ! name of the run 
#*********************************************************************
# Run to generate the grid pack                                      *
#*********************************************************************
  .false.     = gridpack  !True = setting up the grid pack
#*********************************************************************
# Number of events and rnd seed                                      *
#*********************************************************************
   1000      = nevents ! Number of unweighted events requested 
188725 = iseed ! rnd seed (0=assigned automatically=default))
#*********************************************************************
# Collider type and energy                                           *
#*********************************************************************
        0     = lpp1  ! beam 1 type (0=NO PDF)
        0     = lpp2  ! beam 2 type (0=NO PDF)
4 = ebeam1  ! beam 1 energy in GeV
    171.3    = ebeam2  ! beam 2 energy in GeV
    0.000511  = mbeam1  ! beam 1 energy in GeV
    171.3    = mbeam2  ! beam 2 energy in GeV
#*********************************************************************
# Beam polarization from -100 (left-handed) to 100 (right-handed)    *
#*********************************************************************
        0     = polbeam1 ! beam polarization for beam 1
        0     = polbeam2 ! beam polarization for beam 2
#*********************************************************************
# PDF CHOICE: this automatically fixes also alpha_s and its evol.    *
#*********************************************************************
 'cteq6l1'    = pdlabel     ! PDF set                                     
#*********************************************************************
# Renormalization and factorization scales                           *
#*********************************************************************
 F        = fixed_ren_scale  ! if .true. use fixed ren scale
 F        = fixed_fac_scale  ! if .true. use fixed fac scale
 91.1880  = scale            ! fixed ren scale
 91.1880  = dsqrt_q2fact1    ! fixed fact scale for pdf1
 91.1880  = dsqrt_q2fact2    ! fixed fact scale for pdf2
 1        = scalefact        ! scale factor for event-by-event scales
 F        = fixed_couplings  ! if .false. calc. coupl. for every event
#*********************************************************************
# Matching - Warning! ickkw > 0 is still beta
#*********************************************************************
 0        = ickkw            ! 0 no matching, 1 MLM, 2 CKKW matching
#*********************************************************************
#                                                                    
#**********************************
32.9311829414 = bwcutoff*Gamma)
#**********************************
32.9311829414 = bwcutoff
#*******************                                                 
# Fixed-Target Cuts
#*******************                                                 
#
 0.0 = ef        ! minimum E for all f's
 100.0 = efmax     ! maximum E for all f's
 0.0 = thetafmin ! min angle for both f's
 100.0 = thetafmax ! max angle for both f's
 0.0 = thetaxfmin ! min angle (x direction) for both f's
 100.0 = thetaxfmax ! max angle (x direction) for both f's 
 0.0 = thetayfmin ! min angle (y direction) for both f's
 100.0 = thetayfmax ! max angle (y direction) for both f's 
 0.0 = xthetaxfmin ! min angle (x direction) for >=1 f's
 100.0 = xthetaxfmax ! max angle (x direction) for >=1 f's 
 0.0 = xthetayfmin ! min angle (y direction) for >=1 f's
 100.0 = xthetayfmax ! max angle (y direction) for >=1 f's 
 0.0 = mmff      ! min invariant mass of f+f- lepton pair
 100.0 = mmffmax  ! max invariant mass of f+f- lepton pair
 0.0 = xef       ! min. energy for at least one f
 0.0 = xthetaf   ! minimum angle for at least one f
 0.0 = eftot     ! minimum energy for the two f's
 0d0 = efrat     ! min. ratio Emin/Emax for the two f's
 0.0  = el     !!! 0.2 = el  !!! was 0.05 with normal cuts! minimum E for the charged leptons 
 0.0  = drll  !!! was 0.1  ! min distance between leptons 
 0.0  = mmll    ! min invariant mass of l+l- (same flavour) lepton pair
#
#*******************                                                 
# Standard Cuts
#*******************                                                 
#                                                                    
#*********************************************************************
# Minimum and maximum pt's                                           *
#*********************************************************************
  0  = ptj       ! minimum pt for the jets 
  0  = ptb       ! minimum pt for the b 
  0  = pta       ! minimum pt for the photons 
  0  = ptl       ! minimum pt for the charged leptons 
  0  = misset    ! minimum missing Et (sum of neutrino's momenta)
  0  = ptheavy   ! minimum pt for one heavy final state
 1.0 = ptonium   ! minimum pt for the quarkonium states
 1d5 = ptjmax    ! maximum pt for the jets
 1d5 = ptbmax    ! maximum pt for the b
 1d5 = ptamax    ! maximum pt for the photons
 1d9 = ptlmax    ! maximum pt for the charged leptons
 1d9 = missetmax ! maximum missing Et (sum of neutrino's momenta)
#*********************************************************************
# Minimum and maximum E's (in the lab frame)                         *
#*********************************************************************
  0  = ej     ! minimum E for the jets 
  0  = eb     ! minimum E for the b 
  0  = ea     ! minimum E for the photons 
 1d5  = ejmax ! maximum E for the jets
 1d5  = ebmax ! maximum E for the b
 1d5  = eamax ! maximum E for the photons
 1.2  = elmax ! maximum E for the charged leptons
#*********************************************************************
# Maximum and minimum rapidity                                       *
#*********************************************************************
 1d5  = etaj    ! max rap for the jets 
 1d5  = etab    ! max rap for the b 
 1d5  = etaa    ! max rap for the photons 
 1d5  = etal     !!! 1(2) wth cuts ! max rap for the charged leptons 
 1d5  = etafl     !!! 0(1) wth cuts ! max rap for the charged leptons 
 0.0  = etaonium ! max rap for the quarkonium states
 0d0  = etajmin ! min rap for the jets
 0d0  = etabmin ! min rap for the b
 0d0  = etaamin ! min rap for the photons
 0d0  = etalmin ! main rap for the charged lepton
#*********************************************************************
# Minimum and maximum DeltaR distance                                *
#*********************************************************************
 0   = drjj    ! min distance between jets 
 0   = drbb    ! min distance between b's 
 0   = draa    ! min distance between gammas 
 0   = drbj    ! min distance between b and jet 
 0   = draj    ! min distance between gamma and jet 
 0   = drjl    ! min distance between jet and lepton 
 0   = drab    ! min distance between gamma and b 
 0   = drbl    ! min distance between b and lepton 
 0   = dral    ! min distance between gamma and lepton 
 1d2 = drjjmax ! max distance between jets
 1d2 = drbbmax ! max distance between b's
 1d9 = drllmax ! max distance between leptons
 1d2 = draamax ! max distance between gammas
 1d2 = drbjmax ! max distance between b and jet
 1d2 = drajmax ! max distance between gamma and jet
 1d2 = drjlmax ! max distance between jet and lepton
 1d2 = drabmax ! max distance between gamma and b
 1d2 = drblmax ! max distance between b and lepton
 1d2 = dralmax ! maxdistance between gamma and lepton
#*********************************************************************
# Minimum and maximum invariant mass for pairs                       *
#*********************************************************************
 0   = mmjj    ! min invariant mass of a jet pair 
 0   = mmbb    ! min invariant mass of a b pair 
 0   = mmaa    ! min invariant mass of gamma gamma pair
 1d5 = mmjjmax ! max invariant mass of a jet pair
 1d5 = mmbbmax ! max invariant mass of a b pair
 1d5 = mmaamax ! max invariant mass of gamma gamma pair
 1d5 = mmllmax ! max invariant mass of l+l- (same flavour) lepton pair
#*********************************************************************
# Minimum and maximum invariant mass for all letpons                 *
#*********************************************************************
 0   = mmnl    ! min invariant mass for all letpons (l+- and vl) 
 1d9 = mmnlmax ! max invariant mass for all letpons (l+- and vl) 
#*********************************************************************
# Inclusive cuts                                                     *
#*********************************************************************
 0  = xptj ! minimum pt for at least one jet  
 0  = xptb ! minimum pt for at least one b 
 0  = xpta ! minimum pt for at least one photon 
 0  = xptl ! minimum pt for at least one charged lepton 
#*********************************************************************
# Control the pt's of the jets sorted by pt                          *
#*********************************************************************
 0   = ptj1min ! minimum pt for the leading jet in pt
 0   = ptj2min ! minimum pt for the second jet in pt
 0   = ptj3min ! minimum pt for the third jet in pt
 0   = ptj4min ! minimum pt for the fourth jet in pt
 1d5 = ptj1max ! maximum pt for the leading jet in pt 
 1d5 = ptj2max ! maximum pt for the second jet in pt
 1d5 = ptj3max ! maximum pt for the third jet in pt
 1d5 = ptj4max ! maximum pt for the fourth jet in pt
 0   = cutuse  ! reject event if fails any (0) / all (1) jet pt cuts
#*********************************************************************
# Control the Ht(k)=Sum of k leading jets                            *
#*********************************************************************
 0   = htjmin ! minimum jet HT=Sum(jet pt)
 1d5 = htjmax ! maximum jet HT=Sum(jet pt)
 0   = ht2min ! minimum Ht for the two leading jets
 0   = ht3min ! minimum Ht for the three leading jets
 0   = ht4min ! minimum Ht for the four leading jets
 1d5 = ht2max ! maximum Ht for the two leading jets
 1d5 = ht3max ! maximum Ht for the three leading jets
 1d5 = ht4max ! maximum Ht for the four leading jets
#*********************************************************************
# WBF cuts                                                           *
#*********************************************************************
 0   = xetamin ! minimum rapidity for two jets in the WBF case  
 0   = deltaeta ! minimum rapidity for two jets in the WBF case 
#*********************************************************************
# maximal pdg code for quark to be considered as a jet               *
# otherwise b cuts are applied                                       *
#*********************************************************************
 4 = maxjetflavor
#*********************************************************************
# Jet measure cuts                                                   *
#*********************************************************************
 0   = xqcut   ! minimum kt jet measure between partons
#*********************************************************************
</MGRunCard>
<MGGenerationInfo>
#  Number of Events        :        1000
#  Integrated weight (pb)  :  .68253E+00
#  Truncated wgt (pb)      :  .00000E+00
#  Unit wgt                :  .68253E-03
</MGGenerationInfo>
</header>
<init>
       11     -623  0.40000000000E+01  0.17130000000E+03 0 0     0     0 3  1
  0.68252942290E+00  0.82717930059E-02  0.68253000000E-03   0
</init>
<event>
 5   0  0.6825300E-03  0.9118800E+02  0.7818608E-02  0.1180000E+00
       11   -1    0    0    0    0  0.00000000000E+00  0.00000000000E+00  0.39999999673E+01  0.40000000000E+01  0.51109989000E-03 0.  1.
     -623   -1    0    0    0    0  0.00000000000E+00  0.00000000000E+00  0.12525980253E-10  0.17130000000E+03  0.17130000000E+03 0. -1.
       11    1    1    2    0    0 -0.10054302937E+00  0.21964473871E-01 -0.81797944720E-01  0.13146293717E+00  0.51109989000E-03 0.  1.
     -623    1    1    2    0    0  0.19098618963E+00 -0.20223993210E+00  0.10589114996E+01  0.17130349871E+03  0.17130000000E+03 0. -1.
      622    1    1    2    0    0 -0.90443160262E-01  0.18027545823E+00  0.30228864125E+01  0.38650383529E+01  0.24000000000E+01 0.  1.
</event>
<event>
 5   0  0.6825300E-03  0.9118800E+02  0.7818608E-02  0.1180000E+00
       11   -1    0    0    0    0  0.00000000000E+00  0.00000000000E+00  0.39999999673E+01  0.40000000000E+01  0.51109989000E-03 0. -1.
     -623   -1    0    0    0    0  0.00000000000E+00  0.00000000000E+00  0.12525980253E-10  0.17130000000E+03  0.17130000000E+03 0. -1.
       11    1    1    2    0    0 -0.19632226594E+00  0.99165751721E-01  0.39082330085E+00  0.44846336765E+00  0.51109989000E-03 0. -1.
     -623    1    1    2    0    0  0.42902425294E+00  0.21902203487E-01  0.10092394430E+01  0.17130351166E+03  0.17130000000E+03 0. -1.
      622    1    1    2    0    0 -0.23270198701E+00 -0.12106795521E+00  0.25999372235E+01  0.35480249761E+01  0.24000000000E+01 0. -1.
</event>
<event>
 5   0  0.6825300E-03  0.9118800E+02  0.7818608E-02  0.1180000E+00
       11   -1    0    0    0    0  0.00000000000E+00  0.00000000000E+00  0.39999999673E+01  0.40000000000E+01  0.51109989000E-03 0.  1.
     -623   -1    0    0    0    0  0.00000000000E+00  0.00000000000E+00  0.12525980253E-10  0.17130000000E+03  0.17130000000E+03 0.  1.
       11    1    1    2    0    0  0.20688490219E+00 -0.22953512495E+00  0.22073964471E+00  0.37975516890E+00  0.51109989000E-03 0.  1.
     -623    1    1    2    0    0 -0.12383835414E+01 -0.49647938065E+00  0.13967497615E+01  0.17131088989E+03  0.17130000000E+03 0.  1.
      622    1    1    2    0    0  0.10314986392E+01  0.72601450560E+00  0.23825105611E+01  0.36093549395E+01  0.24000000000E+01 0.  1.
</event>
<event>
 5   0  0.6825300E-03  0.9118800E+02  0.7818608E-02  0.1180000E+00
       11   -1    0    0    0    0  0.00000000000E+00  0.00000000000E+00  0.39999999673E+01  0.40000000000E+01  0.51109989000E-03 0. -1.
     -623   -1    0    0    0    0  0.00000000000E+00  0.00000000000E+00  0.12525980253E-10  0.17130000000E+03  0.17130000000E+03 0.  1.
       11    1    1    2    0    0 -0.63212570192E-01  0.22022842345E+00  0.67762721621E+00  0.71531482083E+00  0.51109989000E-03 0. -1.
     -623    1    1    2    0    0 -0.35321693437E+00 -0.99695352339E+00  0.12729868246E+01  0.17130799507E+03  0.17130000000E+03 0.  1.
      622    1    1    2    0    0  0.41642950456E+00  0.77672509994E+00  0.20493859266E+01  0.32766901118E+01  0.24000000000E+01 0. -1.
</event>
<event>
 5   0  0.6825300E-03  0.9118800E+02  0.7818608E-02  0.1180000E+00
       11   -1    0    0    0    0  0.00000000000E+00  0.00000000000E+00  0.39999999673E+01  0.40000000000E+01  0.51109989000E-03 0.  1.
     -623   -1    0    0    0    0  0.00000000000E+00  0.00000000000E+00  0.12525980253E-10  0.17130000000E+03  0.17130000000E+03 0. -1.
       11    1    1    2    0    0  0.22736997012E+00 -0.30654301920E+00  0.30754927051E+00  0.49015562931E+00  0.51109989000E-03 0.  1.
     -623    1    1    2    0    0  0.14766499973E+00  0.34071000691E+00  0.11652861550E+01  0.17130436591E+03  0.17130000000E+03 0. -1.
      622    1    1    2    0    0 -0.37503496985E+00 -0.34166987716E-01  0.25271645418E+01  0.35054784599E+01  0.24000000000E+01 0.  1.
</event>
<event>
 5   0  0.6825300E-03  0.9118800E+02  0.7818608E-02  0.1180000E+00
       11   -1    0    0    0    0  0.00000000000E+00  0.00000000000E+00  0.39999999673E+01  0.40000000000E+01  0.51109989000E-03 0.  1.
     -623   -1    0    0    0    0  0.00000000000E+00  0.00000000000E+00  0.12525980253E-10  0.17130000000E+03  0.17130000000E+03 0.  1.
       11    1    1    2    0    0 -0.14768190291E+00 -0.17369051457E+00 -0.20129286836E+00  0.30413388396E+00  0.51109989000E-03 0.  1.
     -623    1    1    2    0    0  0.19281228895E+00 -0.32470481534E+00  0.14443105987E+01  0.17130650496E+03  0.17130000000E+03 0.  1.
      622    1    1    2    0    0 -0.45130386046E-01  0.49839532991E+00  0.27569822370E+01  0.36893611523E+01  0.24000000000E+01 0.  1.
</event>
<event>
 5   0  0.6825300E-03  0.9118800E+02  0.7818608E-02  0.1180000E+00
       11   -1    0    0    0    0  0.00000000000E+00  0.00000000000E+00  0.39999999673E+01  0.40000000000E+01  0.51109989000E-03 0. -1.
     -623   -1    0    0    0    0  0.00000000000E+00  0.00000000000E+00  0.12525980253E-10  0.17130000000E+03  0.17130000000E+03 0.  1.
       11    1    1    2    0    0 -0.49531196632E-02  0.18027778002E+00  0.10035848200E+00  0.20638967390E+00  0.51109989000E-03 0. -1.
     -623    1    1    2    0    0 -0.38532953922E+00 -0.20285326975E+00  0.99229639238E+00  0.17130342752E+03  0.17130000000E+03 0.  1.
      622    1    1    2    0    0  0.39028265888E+00  0.22575489733E-01  0.29073450930E+01  0.37901828051E+01  0.24000000000E+01 0. -1.
</event>
<event>
 5   0  0.6825300E-03  0.9118800E+02  0.7818608E-02  0.1180000E+00
       11   -1    0    0    0    0  0.00000000000E+00  0.00000000000E+00  0.39999999673E+01  0.40000000000E+01  0.51109989000E-03 0. -1.
     -623   -1    0    0    0    0  0.00000000000E+00  0.00000000000E+00  0.12525980253E-10  0.17130000000E+03  0.17130000000E+03 0.  1.
       11    1    1    2    0    0  0.18164094047E+00 -0.97008134114E-01  0.14824608184E+00  0.25373445045E+00  0.51109989000E-03 0. -1.
     -623    1    1    2    0    0 -0.16942632493E+00  0.29606851208E+00  0.98628304975E+00  0.17130317894E+03  0.17130000000E+03 0.  1.
      622    1    1    2    0    0 -0.12214615544E-01 -0.19906037796E+00  0.28654708358E+01  0.37430866062E+01  0.24000000000E+01 0. -1.
</event>
<event>
 5   0  0.6825300E-03  0.9118800E+02  0.7818608E-02  0.1180000E+00
       11   -1    0    0    0    0  0.00000000000E+00  0.00000000000E+00  0.39999999673E+01  0.40000000000E+01  0.51109989000E-03 0.  1.
     -623   -1    0    0    0    0  0.00000000000E+00  0.00000000000E+00  0.12525980253E-10  0.17130000000E+03  0.17130000000E+03 0.  1.
       11    1    1    2    0    0 -0.43705571648E-01  0.20526500115E+00 -0.17592736596E+00  0.27385141410E+00  0.51109989000E-03 0.  1.
     -623    1    1    2    0    0 -0.57260706956E+00  0.17993612648E+00  0.14293410929E+01  0.17130701466E+03  0.17130000000E+03 0.  1.
      622    1    1    2    0    0  0.61631264121E+00 -0.38520112763E+00  0.27465862404E+01  0.37191339256E+01  0.24000000000E+01 0.  1.
</event>
<event>
 5   0  0.6825300E-03  0.9118800E+02  0.7818608E-02  0.1180000E+00
       11   -1    0    0    0    0  0.00000000000E+00  0.00000000000E+00  0.39999999673E+01  0.40000000000E+01  0.51109989000E-03 0.  1.
     -623   -1    0    0    0    0  0.00000000000E+00  0.00000000000E+00  0.12525980253E-10  0.17130000000E+03  0.17130000000E+03 0.  1.
       11    1    1    2    0    0 -0.32194473371E-01  0.39598000465E+00  0.38700528487E+00  0.55462600005E+00  0.51109989000E-03 0.  1.
     -623    1    1    2    0    0  0.17736296441E+00 -0.81306331483E-01  0.11712393698E+01  0.17130411516E+03  0.17130000000E+03 0.  1.
      622    1    1    2    0    0 -0.14516849104E+00 -0.31467367317E+00  0.24417553127E+01  0.34412588421E+01  0.24000000000E+01 0.  0.
</event>
<event>
 5   0  0.6825300E-03  0.9118800E+02  0.7818608E-02  0.1180000E+00
       11   -1    0    0    0    0  0.00000000000E+00  0.00000000000E+00  0.39999999673E+01  0.40000000000E+01  0.51109989000E-03 0. -1.
     -623   -1    0    0    0    0  0.00000000000E+00  0.00000000000E+00  0.12525980253E-10  0.17130000000E+03  0.17130000000E+03 0.  1.
       11    1    1    2    0    0  0.18544272291E+00  0.92467153811E-01  0.39943066784E+00  0.44998255260E+00  0.51109989000E-03 0. -1.
     -623    1    1    2    0    0  0.22070794093E+00 -0.26822277347E+00  0.10271626209E+01  0.17130343172E+03  0.17130000000E+03 0.  1.
      622    1    1    2    0    0 -0.40615066384E+00  0.17575561966E+00  0.25734066786E+01  0.35465857290E+01  0.24000000000E+01 0. -1.
</event>
<event>
 5   0  0.6825300E-03  0.9118800E+02  0.7818608E-02  0.1180000E+00
       11   -1    0    0    0    0  0.00000000000E+00  0.00000000000E+00  0.39999999673E+01  0.40000000000E+01  0.51109989000E-03 0. -1.
     -623   -1    0    0    0    0  0.00000000000E+00  0.00000000000E+00  0.12525980253E-10  0.17130000000E+03  0.17130000000E+03 0. -1.
       11    1    1    2    0    0  0.16081827997E+00  0.86927899367E-01 -0.46093115723E-01  0.18853067496E+00  0.51109989000E-03 0. -1.
     -623    1    1    2    0    0 -0.95270369550E-01 -0.34410012418E-01  0.10908347241E+01  0.17130350312E+03  0.17130000000E+03 0. -1.
      622    1    1    2    0    0 -0.65547910416E-01 -0.52517886949E-01  0.29552583590E+01  0.38079662059E+01  0.24000000000E+01 0. -1.
</event>
<event>
 5   0  0.6825300E-03  0.9118800E+02  0.7818608E-02  0.1180000E+00
       11   -1    0    0    0    0  0.00000000000E+00  0.00000000000E+00  0.39999999673E+01  0.40000000000E+01  0.51109989000E-03 0. -1.
     -623   -1    0    0    0    0  0.00000000000E+00  0.00000000000E+00  0.12525980253E-10  0.17130000000E+03  0.17130000000E+03 0.  1.
       11    1    1    2    0    0 -0.20572856148E+00  0.31785164587E+00  0.47600128945E+00  0.60821986039E+00  0.51109989000E-03 0. -1.
     -623    1    1    2    0    0  0.56204822184E+00 -0.71870170447E+00  0.11976952895E+01  0.17130661664E+03  0.17130000000E+03 0.  1.
      622    1    1    2    0    0 -0.35631966036E+00  0.40085005859E+00  0.23263033884E+01  0.33851635005E+01  0.24000000000E+01 0. -1.
</event>
<event>
 5   0  0.6825300E-03  0.9118800E+02  0.7818608E-02  0.1180000E+00
       11   -1    0    0    0    0  0.00000000000E+00  0.00000000000E+00  0.39999999673E+01  0.40000000000E+01  0.51109989000E-03 0.  1.
     -623   -1    0    0    0    0  0.00000000000E+00  0.00000000000E+00  0.12525980253E-10  0.17130000000E+03  0.17130000000E+03 0.  1.
       11    1    1    2    0    0 -0.45590992968E-01 -0.62522490871E-01  0.22669841502E-01  0.80633637141E-01  0.51109989000E-03 0.  1.
     -623    1    1    2    0    0  0.26365205661E+00  0.32629721380E+00  0.90134268670E+00  0.17130288498E+03  0.17130000000E+03 0.  1.
      622    1    1    2    0    0 -0.21806106364E+00 -0.26377472293E+00  0.30759874392E+01  0.39164813874E+01  0.24000000000E+01 0.  1.
</event>
<event>
 5   0  0.6825300E-03  0.9118800E+02  0.7818608E-02  0.1180000E+00
       11   -1    0    0    0    0  0.00000000000E+00  0.00000000000E+00  0.39999999673E+01  0.40000000000E+01  0.51109989000E-03 0. -1.
     -623   -1    0    0    0    0  0.00000000000E+00  0.00000000000E+00  0.12525980253E-10  0.17130000000E+03  0.17130000000E+03 0.  1.
       11    1    1    2    0    0 -0.14819149412E+00  0.48277305647E-02 -0.12267536125E-02  0.14827606705E+00  0.51109989000E-03 0. -1.
     -623    1    1    2    0    0  0.15860586363E+00  0.25037504562E+00  0.10035727394E+01  0.17130319612E+03  0.17130000000E+03 0.  1.
      622    1    1    2    0    0 -0.10414369505E-01 -0.25520277618E+00  0.29976539815E+01  0.38485278106E+01  0.24000000000E+01 0. -1.
</event>
<event>
 5   0  0.6825300E-03  0.9118800E+02  0.7818608E-02  0.1180000E+00
       11   -1    0    0    0    0  0.00000000000E+00  0.00000000000E+00  0.39999999673E+01  0.40000000000E+01  0.51109989000E-03 0.  1.
     -623   -1    0    0    0    0  0.00000000000E+00  0.00000000000E+00  0.12525980253E-10  0.17130000000E+03  0.17130000000E+03 0. -1.
       11    1    1    2    0    0  0.52754644578E-01 -0.23339875804E+00  0.12420746853E+00  0.26960302157E+00  0.51109989000E-03 0.  1.
     -623    1    1    2    0    0 -0.32135401388E+00  0.37958419621E+00  0.10414753309E+01  0.17130388794E+03  0.17130000000E+03 0. -1.
      622    1    1    2    0    0  0.26859936931E+00 -0.14618543817E+00  0.28343171679E+01  0.37265090382E+01  0.24000000000E+01 0.  1.
</event>
<event>
 5   0  0.6825300E-03  0.9118800E+02  0.7818608E-02  0.1180000E+00
       11   -1    0    0    0    0  0.00000000000E+00  0.00000000000E+00  0.39999999673E+01  0.40000000000E+01  0.51109989000E-03 0. -1.
     -623   -1    0    0    0    0  0.00000000000E+00  0.00000000000E+00  0.12525980253E-10  0.17130000000E+03  0.17130000000E+03 0.  1.
       11    1    1    2    0    0  0.35545353146E+00 -0.20967314551E-01  0.79306417822E+00  0.86933186604E+00  0.51109989000E-03 0. -1.
     -623    1    1    2    0    0 -0.44047312226E+00  0.93296752659E+00  0.14334682947E+01  0.17130910448E+03  0.17130000000E+03 0.  1.
      622    1    1    2    0    0  0.85019590799E-01 -0.91200021204E+00  0.17734674945E+01  0.31215636581E+01  0.24000000000E+01 0.  0.
</event>
<event>
 5   0  0.6825300E-03  0.9118800E+02  0.7818608E-02  0.1180000E+00
       11   -1    0    0    0    0  0.00000000000E+00  0.00000000000E+00  0.39999999673E+01  0.40000000000E+01  0.51109989000E-03 0.  1.
     -623   -1    0    0    0    0  0.00000000000E+00  0.00000000000E+00  0.12525980253E-10  0.17130000000E+03  0.17130000000E+03 0.  1.
       11    1    1    2    0    0  0.25433275038E-01  0.62899106651E-01 -0.86365497918E-01  0.10982900140E+00  0.51109989000E-03 0.  1.
     -623    1    1    2    0    0  0.13599579356E+00  0.79287816519E-01  0.10364133349E+01  0.17130320760E+03  0.17130000000E+03 0.  1.
      622    1    1    2    0    0 -0.16142906860E+00 -0.14218692317E+00  0.30499521304E+01  0.38869633987E+01  0.24000000000E+01 0.  1.
</event>
<event>
 5   0  0.6825300E-03  0.9118800E+02  0.7818608E-02  0.1180000E+00
       11   -1    0    0    0    0  0.00000000000E+00  0.00000000000E+00  0.39999999673E+01  0.40000000000E+01  0.51109989000E-03 0.  1.
     -623   -1    0    0    0    0  0.00000000000E+00  0.00000000000E+00  0.12525980253E-10  0.17130000000E+03  0.17130000000E+03 0.  1.
       11    1    1    2    0    0 -0.12963655570E-01 -0.91796994549E-01 -0.47856338451E-01  0.10433232924E+00  0.51109989000E-03 0.  1.
     -623    1    1    2    0    0  0.44688675534E+00  0.32712970363E+00  0.10243261169E+01  0.17130395782E+03  0.17130000000E+03 0.  1.
      622    1    1    2    0    0 -0.43392309977E+00 -0.23533270908E+00  0.30235301890E+01  0.38917098484E+01  0.24000000000E+01 0.  1.
</event>
<event>
 5   0  0.6825300E-03  0.9118800E+02  0.7818608E-02  0.1180000E+00
       11   -1    0    0    0    0  0.00000000000E+00  0.00000000000E+00  0.39999999673E+01  0.40000000000E+01  0.51109989000E-03 0. -1.
     -623   -1    0    0    0    0  0.00000000000E+00  0.00000000000E+00  0.12525980253E-10  0.17130000000E+03  0.17130000000E+03 0.  1.
       11    1    1    2    0    0  0.65683935352E-01  0.12545317869E+00 -0.19443838119E+00  0.24053986096E+00  0.51109989000E-03 0. -1.
     -623    1    1    2    0    0 -0.13899783584E+00  0.11255978875E+00  0.13182073796E+01  0.17130516531E+03  0.17130000000E+03 0.  1.
      622    1    1    2    0    0  0.73313900485E-01 -0.23801296744E+00  0.28762309689E+01  0.37542948322E+01  0.24000000000E+01 0. -1.
</event>
<event>
 5   0  0.6825300E-03  0.9118800E+02  0.7818608E-02  0.1180000E+00
       11   -1    0    0    0    0  0.00000000000E+00  0.00000000000E+00  0.39999999673E+01  0.40000000000E+01  0.51109989000E-03 0.  1.
     -623   -1    0    0    0    0  0.00000000000E+00  0.00000000000E+00  0.12525980253E-10  0.17130000000E+03  0.17130000000E+03 0.  1.
       11    1    1    2    0    0  0.84137266859E-02 -0.75183369967E-01  0.47898197814E-01  0.89542327942E-01  0.51109989000E-03 0.  1.
     -623    1    1    2    0    0 -0.37076943146E+00  0.22511031913E+00  0.89344346931E+00  0.17130287909E+03  0.17130000000E+03 0.  1.
      622    1    1    2    0    0  0.36235570477E+00 -0.14992694916E+00  0.30586583002E+01  0.39075785782E+01  0.24000000000E+01 0.  1.
</event>
<event>
 5   0  0.6825300E-03  0.9118800E+02  0.7818608E-02  0.1180000E+00
       11   -1    0    0    0    0  0.00000000000E+00  0.00000000000E+00  0.39999999673E+01  0.40000000000E+01  0.51109989000E-03 0. -1.
     -623   -1    0    0    0    0  0.00000000000E+00  0.00000000000E+00  0.12525980253E-10  0.17130000000E+03  0.17130000000E+03 0. -1.
       11    1    1    2    0    0  0.28584164727E-01 -0.20550240167E+00  0.27705195184E-02  0.20749994835E+00  0.51109989000E-03 0. -1.
     -623    1    1    2    0    0 -0.26139771239E+00 -0.22740670195E+00  0.11073061907E+01  0.17130392923E+03  0.17130000000E+03 0. -1.
      622    1    1    2    0    0  0.23281354767E+00  0.43290910362E+00  0.28899232571E+01  0.37885708218E+01  0.24000000000E+01 0. -1.
</event>
<event>
 5   0  0.6825300E-03  0.9118800E+02  0.7818608E-02  0.1180000E+00
       11   -1    0    0    0    0  0.00000000000E+00  0.00000000000E+00  0.39999999673E+01  0.40000000000E+01  0.51109989000E-03 0. -1.
     -623   -1    0    0    0    0  0.00000000000E+00  0.00000000000E+00  0.12525980253E-10  0.17130000000E+03  0.17130000000E+03 0.  1.
       11    1    1    2    0    0 -0.20330026586E+00 -0.33162299047E+00 -0.73838451258E-02  0.38904959620E+00  0.51109989000E-03 0. -1.
     -623    1    1    2    0    0  0.21836795561E+00  0.46197866655E+00  0.13204675919E+01  0.17130585146E+03  0.17130000000E+03 0.  1.
      622    1    1    2    0    0 -0.15067689745E-01 -0.13035567608E+00  0.26869162206E+01  0.36050989465E+01  0.24000000000E+01 0. -1.
</event>
<event>
 5   0  0.6825300E-03  0.9118800E+02  0.7818608E-02  0.1180000E+00
       11   -1    0    0    0    0  0.00000000000E+00  0.00000000000E+00  0.39999999673E+01  0.40000000000E+01  0.51109989000E-03 0. -1.
     -623   -1    0    0    0    0  0.00000000000E+00  0.00000000000E+00  0.12525980253E-10  0.17130000000E+03  0.17130000000E+03 0.  1.
       11    1    1    2    0    0 -0.10696464826E+00 -0.30863974790E+00  0.18037594974E+00  0.37314296782E+00  0.51109989000E-03 0. -1.
     -623    1    1    2    0    0 -0.32582367056E+00  0.47789487029E+00  0.11469423227E+01  0.17130481611E+03  0.17130000000E+03 0.  1.
      622    1    1    2    0    0  0.43278831882E+00 -0.16925512239E+00  0.26726816949E+01  0.36220409257E+01  0.24000000000E+01 0. -1.
</event>
<event>
 5   0  0.6825300E-03  0.9118800E+02  0.7818608E-02  0.1180000E+00
       11   -1    0    0    0    0  0.00000000000E+00  0.00000000000E+00  0.39999999673E+01  0.40000000000E+01  0.51109989000E-03 0.  1.
     -623   -1    0    0    0    0  0.00000000000E+00  0.00000000000E+00  0.12525980253E-10  0.17130000000E+03  0.17130000000E+03 0. -1.
       11    1    1    2    0    0 -0.33947360895E-01  0.11067794641E+00  0.70014903263E-01  0.13529367700E+00  0.51109989000E-03 0.  1.
     -623    1    1    2    0    0 -0.43561208214E-01 -0.75709045621E-01  0.90507560366E+00  0.17130241327E+03  0.17130000000E+03 0. -1.
      622    1    1    2    0    0  0.77508569109E-01 -0.34968900793E-01  0.30249094604E+01  0.38622930554E+01  0.24000000000E+01 0.  1.
</event>
<event>
 5   0  0.6825300E-03  0.9118800E+02  0.7818608E-02  0.1180000E+00
       11   -1    0    0    0    0  0.00000000000E+00  0.00000000000E+00  0.39999999673E+01  0.40000000000E+01  0.51109989000E-03 0. -1.
     -623   -1    0    0    0    0  0.00000000000E+00  0.00000000000E+00  0.12525980253E-10  0.17130000000E+03  0.17130000000E+03 0.  1.
       11    1    1    2    0    0  0.16019976660E-01 -0.30547491971E+00  0.83277772328E-01  0.31702841326E+00  0.51109989000E-03 0. -1.
     -623    1    1    2    0    0 -0.13855915484E+00  0.32942403377E+00  0.11313238943E+01  0.17130410857E+03  0.17130000000E+03 0.  1.
      622    1    1    2    0    0  0.12253917818E+00 -0.23949114059E-01  0.27853983007E+01  0.36788630178E+01  0.24000000000E+01 0. -1.
</event>
<event>
 5   0  0.6825300E-03  0.9118800E+02  0.7818608E-02  0.1180000E+00
       11   -1    0    0    0    0  0.00000000000E+00  0.00000000000E+00  0.39999999673E+01  0.40000000000E+01  0.51109989000E-03 0.  1.
     -623   -1    0    0    0    0  0.00000000000E+00  0.00000000000E+00  0.12525980253E-10  0.17130000000E+03  0.17130000000E+03 0. -1.
       11    1    1    2    0    0  0.18775180168E+00 -0.19109337630E+00  0.26454256673E+00  0.37649760734E+00  0.51109989000E-03 0.  1.
     -623    1    1    2    0    0 -0.20553992950E+00  0.55906872090E+00  0.10515853667E+01  0.17130426333E+03  0.17130000000E+03 0. -1.
      622    1    1    2    0    0  0.17788127816E-01 -0.36797534460E+00  0.26838720339E+01  0.36192390590E+01  0.24000000000E+01 0.  1.
</event>
<event>
 5   0  0.6825300E-03  0.9118800E+02  0.7818608E-02  0.1180000E+00
       11   -1    0    0    0    0  0.00000000000E+00  0.00000000000E+00  0.39999999673E+01  0.40000000000E+01  0.51109989000E-03 0. -1.
     -623   -1    0    0    0    0  0.00000000000E+00  0.00000000000E+00  0.12525980253E-10  0.17130000000E+03  0.17130000000E+03 0. -1.
       11    1    1    2    0    0 -0.14326175924E+00  0.99069361488E-01  0.25257641487E+00  0.30681228238E+00  0.51109989000E-03 0. -1.
     -623    1    1    2    0    0  0.32673349171E+00  0.26290442952E+00  0.97421138462E+00  0.17130328357E+03  0.17130000000E+03 0. -1.
      622    1    1    2    0    0 -0.18347173247E+00 -0.36197379101E+00  0.27732121679E+01  0.36899041492E+01  0.24000000000E+01 0. -1.
</event>
<event>
 5   0  0.6825300E-03  0.9118800E+02  0.7818608E-02  0.1180000E+00
       11   -1    0    0    0    0  0.00000000000E+00  0.00000000000E+00  0.39999999673E+01  0.40000000000E+01  0.51109989000E-03 0. -1.
     -623   -1    0    0    0    0  0.00000000000E+00  0.00000000000E+00  0.12525980253E-10  0.17130000000E+03  0.17130000000E+03 0. -1.
       11    1    1    2    0    0 -0.19266644658E+00 -0.19857242416E+00 -0.59578587295E-01  0.28302161853E+00  0.51109989000E-03 0. -1.
     -623    1    1    2    0    0  0.44907603151E-01  0.32073857791E+00  0.12340031765E+01  0.17130475082E+03  0.17130000000E+03 0. -1.
      622    1    1    2    0    0  0.14775884343E+00 -0.12216615375E+00  0.28255753781E+01  0.37122275607E+01  0.24000000000E+01 0. -1.
</event>
<event>
 5   0  0.6825300E-03  0.9118800E+02  0.7818608E-02  0.1180000E+00
       11   -1    0    0    0    0  0.00000000000E+00  0.00000000000E+00  0.39999999673E+01  0.40000000000E+01  0.51109989000E-03 0. -1.
     -623   -1    0    0    0    0  0.00000000000E+00  0.00000000000E+00  0.12525980253E-10  0.17130000000E+03  0.17130000000E+03 0. -1.
       11    1    1    2    0    0 -0.94669869290E-01  0.10339286120E+00 -0.23094155006E-01  0.14207768690E+00  0.51109989000E-03 0. -1.
     -623    1    1    2    0    0 -0.30700554425E+00 -0.40576150865E-01  0.10344442710E+01  0.17130340328E+03  0.17130000000E+03 0. -1.
      622    1    1    2    0    0  0.40167541354E+00 -0.62816710335E-01  0.29886498514E+01  0.38545190376E+01  0.24000000000E+01 0.  0.
</event>
<event>
 5   0  0.6825300E-03  0.9118800E+02  0.7818608E-02  0.1180000E+00
       11   -1    0    0    0    0  0.00000000000E+00  0.00000000000E+00  0.39999999673E+01  0.40000000000E+01  0.51109989000E-03 0. -1.
     -623   -1    0    0    0    0  0.00000000000E+00  0.00000000000E+00  0.12525980253E-10  0.17130000000E+03  0.17130000000E+03 0. -1.
       11    1    1    2    0    0 -0.11327590114E-01  0.17122679485E+00  0.18524235717E-02  0.17161183604E+00  0.51109989000E-03 0. -1.
     -623    1    1    2    0    0 -0.35267436006E+00  0.13435414196E+00  0.10583385700E+01  0.17130368505E+03  0.17130000000E+03 0. -1.
      622    1    1    2    0    0  0.36400195017E+00 -0.30558093681E+00  0.29398089738E+01  0.38247031167E+01  0.24000000000E+01 0. -1.
</event>
<event>
 5   0  0.6825300E-03  0.9118800E+02  0.7818608E-02  0.1180000E+00
       11   -1    0    0    0    0  0.00000000000E+00  0.00000000000E+00  0.39999999673E+01  0.40000000000E+01  0.51109989000E-03 0.  1.
     -623   -1    0    0    0    0  0.00000000000E+00  0.00000000000E+00  0.12525980253E-10  0.17130000000E+03  0.17130000000E+03 0.  1.
       11    1    1    2    0    0  0.22162996100E+00  0.25637951032E-01  0.25977197550E+00  0.34243084648E+00  0.51109989000E-03 0.  1.
     -623    1    1    2    0    0 -0.20754458269E+00  0.22753205742E+00  0.99608535252E+00  0.17130317286E+03  0.17130000000E+03 0.  1.
      622    1    1    2    0    0 -0.14085378307E-01 -0.25317000845E+00  0.27441426393E+01  0.36543962943E+01  0.24000000000E+01 0.  1.
</event>
<event>
 5   0  0.6825300E-03  0.9118800E+02  0.7818608E-02  0.1180000E+00
       11   -1    0    0    0    0  0.00000000000E+00  0.00000000000E+00  0.39999999673E+01  0.40000000000E+01  0.51109989000E-03 0. -1.
     -623   -1    0    0    0    0  0.00000000000E+00  0.00000000000E+00  0.12525980253E-10  0.17130000000E+03  0.17130000000E+03 0. -1.
       11    1    1    2    0    0 -0.27813091650E+00 -0.30408470201E+00 -0.18482675468E+00  0.45164754309E+00  0.51109989000E-03 0. -1.
     -623    1    1    2    0    0  0.56572989609E+00  0.69837731360E+00  0.16312255682E+01  0.17131012427E+03  0.17130000000E+03 0. -1.
      622    1    1    2    0    0 -0.28759897959E+00 -0.39429261158E+00  0.25536011538E+01  0.35382281850E+01  0.24000000000E+01 0. -1.
</event>
<event>
 5   0  0.6825300E-03  0.9118800E+02  0.7818608E-02  0.1180000E+00
       11   -1    0    0    0    0  0.00000000000E+00  0.00000000000E+00  0.39999999673E+01  0.40000000000E+01  0.51109989000E-03 0.  1.
     -623   -1    0    0    0    0  0.00000000000E+00  0.00000000000E+00  0.12525980253E-10  0.17130000000E+03  0.17130000000E+03 0.  1.
       11    1    1    2    0    0 -0.13182667392E+00 -0.30735193349E-01  0.10706348667E+00  0.17258555984E+00  0.51109989000E-03 0.  1.
     -623    1    1    2    0    0  0.96797407382E-01 -0.36303326933E-02  0.91505447757E+00  0.17130247140E+03  0.17130000000E+03 0.  1.
      622    1    1    2    0    0  0.35029266539E-01  0.34365526042E-01  0.29778820031E+01  0.38249430405E+01  0.24000000000E+01 0.  1.
</event>
<event>
 5   0  0.6825300E-03  0.9118800E+02  0.7818608E-02  0.1180000E+00
       11   -1    0    0    0    0  0.00000000000E+00  0.00000000000E+00  0.39999999673E+01  0.40000000000E+01  0.51109989000E-03 0.  1.
     -623   -1    0    0    0    0  0.00000000000E+00  0.00000000000E+00  0.12525980253E-10  0.17130000000E+03  0.17130000000E+03 0. -1.
       11    1    1    2    0    0  0.30761951776E-01 -0.88294656580E-01  0.30470452852E+00  0.31872771291E+00  0.51109989000E-03 0.  1.
     -623    1    1    2    0    0  0.56061575698E+00 -0.83426702287E+00  0.11376719061E+01  0.17130672663E+03  0.17130000000E+03 0. -1.
      622    1    1    2    0    0 -0.59137770876E+00  0.92256167945E+00  0.25576235328E+01  0.36745456566E+01  0.24000000000E+01 0.  0.
</event>
<event>
 5   0  0.6825300E-03  0.9118800E+02  0.7818608E-02  0.1180000E+00
       11   -1    0    0    0    0  0.00000000000E+00  0.00000000000E+00  0.39999999673E+01  0.40000000000E+01  0.51109989000E-03 0. -1.
     -623   -1    0    0    0    0  0.00000000000E+00  0.00000000000E+00  0.12525980253E-10  0.17130000000E+03  0.17130000000E+03 0. -1.
       11    1    1    2    0    0  0.73943978505E-01  0.20748138278E+00  0.40255233351E+00  0.45887348866E+00  0.51109989000E-03 0. -1.
     -623    1    1    2    0    0 -0.25314115328E+00  0.55257569632E-01  0.10175928851E+01  0.17130321839E+03  0.17130000000E+03 0. -1.
      622    1    1    2    0    0  0.17919717477E+00 -0.26273895241E+00  0.25798547487E+01  0.35379081262E+01  0.24000000000E+01 0. -1.
</event>
<event>
 5   0  0.6825300E-03  0.9118800E+02  0.7818608E-02  0.1180000E+00
       11   -1    0    0    0    0  0.00000000000E+00  0.00000000000E+00  0.39999999673E+01  0.40000000000E+01  0.51109989000E-03 0. -1.
     -623   -1    0    0    0    0  0.00000000000E+00  0.00000000000E+00  0.12525980253E-10  0.17130000000E+03  0.17130000000E+03 0. -1.
       11    1    1    2    0    0  0.13085480061E+00  0.47837946847E+00  0.28527095024E+00  0.57214479896E+00  0.51109989000E-03 0. -1.
     -623    1    1    2    0    0 -0.38389720853E+00 -0.56509740329E-01  0.13251546647E+01  0.17130556502E+03  0.17130000000E+03 0. -1.
      622    1    1    2    0    0  0.25304240791E+00 -0.42186972814E+00  0.23895743524E+01  0.34222901855E+01  0.24000000000E+01 0. -1.
</event>
<event>
 5   0  0.6825300E-03  0.9118800E+02  0.7818608E-02  0.1180000E+00
       11   -1    0    0    0    0  0.00000000000E+00  0.00000000000E+00  0.39999999673E+01  0.40000000000E+01  0.51109989000E-03 0. -1.
     -623   -1    0    0    0    0  0.00000000000E+00  0.00000000000E+00  0.12525980253E-10  0.17130000000E+03  0.17130000000E+03 0.  1.
       11    1    1    2    0    0  0.87756721942E-02  0.42698781518E+00  0.53655234936E+00  0.68577276963E+00  0.51109989000E-03 0. -1.
     -623    1    1    2    0    0 -0.86700295220E-01 -0.34236639366E+00  0.11872213334E+01  0.17130447813E+03  0.17130000000E+03 0.  1.
      622    1    1    2    0    0  0.77924623026E-01 -0.84621421522E-01  0.22762262846E+01  0.33097491039E+01  0.24000000000E+01 0. -1.
</event>
<event>
 5   0  0.6825300E-03  0.9118800E+02  0.7818608E-02  0.1180000E+00
       11   -1    0    0    0    0  0.00000000000E+00  0.00000000000E+00  0.39999999673E+01  0.40000000000E+01  0.51109989000E-03 0.  1.
     -623   -1    0    0    0    0  0.00000000000E+00  0.00000000000E+00  0.12525980253E-10  0.17130000000E+03  0.17130000000E+03 0. -1.
       11    1    1    2    0    0 -0.11553687416E+00  0.19756995968E+00  0.87606992301E-01  0.24506714301E+00  0.51109989000E-03 0.  1.
     -623    1    1    2    0    0  0.11995203006E+00  0.47164251714E+00  0.11089079306E+01  0.17130428048E+03  0.17130000000E+03 0. -1.
      622    1    1    2    0    0 -0.44151559048E-02 -0.66921247682E+00  0.28034850444E+01  0.37506523735E+01  0.24000000000E+01 0.  1.
</event>
<event>
 5   0  0.6825300E-03  0.9118800E+02  0.7818608E-02  0.1180000E+00
       11   -1    0    0    0    0  0.00000000000E+00  0.00000000000E+00  0.39999999673E+01  0.40000000000E+01  0.51109989000E-03 0.  1.
     -623   -1    0    0    0    0  0.00000000000E+00  0.00000000000E+00  0.12525980253E-10  0.17130000000E+03  0.17130000000E+03 0. -1.
       11    1    1    2    0    0  0.30481624411E+00  0.77684983561E-01  0.47336473578E+00  0.56835053765E+00  0.51109989000E-03 0.  1.
     -623    1    1    2    0    0 -0.61679787717E+00  0.23650265148E+00  0.11211679420E+01  0.17130494269E+03  0.17130000000E+03 0. -1.
      622    1    1    2    0    0  0.31198163305E+00 -0.31418763504E+00  0.24054672896E+01  0.34267067704E+01  0.24000000000E+01 0. -1.
</event>
<event>
 5   0  0.6825300E-03  0.9118800E+02  0.7818608E-02  0.1180000E+00
       11   -1    0    0    0    0  0.00000000000E+00  0.00000000000E+00  0.39999999673E+01  0.40000000000E+01  0.51109989000E-03 0.  1.
     -623   -1    0    0    0    0  0.00000000000E+00  0.00000000000E+00  0.12525980253E-10  0.17130000000E+03  0.17130000000E+03 0. -1.
       11    1    1    2    0    0 -0.23315486897E-01  0.77664432856E-01  0.37079431291E-01  0.89165696924E-01  0.51109989000E-03 0.  1.
     -623    1    1    2    0    0  0.30012462589E-01 -0.50902604197E+00  0.90944732487E+00  0.17130317307E+03  0.17130000000E+03 0. -1.
      622    1    1    2    0    0 -0.66969756927E-02  0.43136160911E+00  0.30534732112E+01  0.39076612364E+01  0.24000000000E+01 0.  1.
</event>
<event>
 5   0  0.6825300E-03  0.9118800E+02  0.7818608E-02  0.1180000E+00
       11   -1    0    0    0    0  0.00000000000E+00  0.00000000000E+00  0.39999999673E+01  0.40000000000E+01  0.51109989000E-03 0.  1.
     -623   -1    0    0    0    0  0.00000000000E+00  0.00000000000E+00  0.12525980253E-10  0.17130000000E+03  0.17130000000E+03 0. -1.
       11    1    1    2    0    0  0.22901075565E+00  0.15888872167E+00  0.65825584011E+00  0.71483743910E+00  0.51109989000E-03 0.  1.
     -623    1    1    2    0    0 -0.35588539113E+00  0.41900492610E-01  0.11169956919E+01  0.17130401656E+03  0.17130000000E+03 0. -1.
      622    1    1    2    0    0  0.12687463548E+00 -0.20078921429E+00  0.22247484353E+01  0.32811460013E+01  0.24000000000E+01 0.  1.
</event>
<event>
 5   0  0.6825300E-03  0.9118800E+02  0.7818608E-02  0.1180000E+00
       11   -1    0    0    0    0  0.00000000000E+00  0.00000000000E+00  0.39999999673E+01  0.40000000000E+01  0.51109989000E-03 0. -1.
     -623   -1    0    0    0    0  0.00000000000E+00  0.00000000000E+00  0.12525980253E-10  0.17130000000E+03  0.17130000000E+03 0.  1.
       11    1    1    2    0    0  0.13515136662E+00  0.50976385740E-01 -0.99676680006E-01  0.17549981642E+00  0.51109989000E-03 0. -1.
     -623    1    1    2    0    0 -0.42420630670E+00 -0.17262418673E+00  0.11442484392E+01  0.17130443384E+03  0.17130000000E+03 0.  1.
      622    1    1    2    0    0  0.28905494007E+00  0.12164780099E+00  0.29554282081E+01  0.38200663396E+01  0.24000000000E+01 0. -1.
</event>
<event>
 5   0  0.6825300E-03  0.9118800E+02  0.7818608E-02  0.1180000E+00
       11   -1    0    0    0    0  0.00000000000E+00  0.00000000000E+00  0.39999999673E+01  0.40000000000E+01  0.51109989000E-03 0.  1.
     -623   -1    0    0    0    0  0.00000000000E+00  0.00000000000E+00  0.12525980253E-10  0.17130000000E+03  0.17130000000E+03 0. -1.
       11    1    1    2    0    0  0.21054223896E+00  0.37101327759E+00  0.42359763392E+00  0.60117726439E+00  0.51109989000E-03 0.  1.
     -623    1    1    2    0    0 -0.38504272712E+00 -0.34654005792E+00  0.11831046585E+01  0.17130486883E+03  0.17130000000E+03 0. -1.
      622    1    1    2    0    0  0.17450048816E+00 -0.24473219675E-01  0.23932976749E+01  0.33939539065E+01  0.24000000000E+01 0.  1.
</event>
<event>
 5   0  0.6825300E-03  0.9118800E+02  0.7818608E-02  0.1180000E+00
       11   -1    0    0    0    0  0.00000000000E+00  0.00000000000E+00  0.39999999673E+01  0.40000000000E+01  0.51109989000E-03 0.  1.
     -623   -1    0    0    0    0  0.00000000000E+00  0.00000000000E+00  0.12525980253E-10  0.17130000000E+03  0.17130000000E+03 0.  1.
       11    1    1    2    0    0  0.49629627329E+00  0.46428219160E+00  0.45726181608E+00  0.81911938933E+00  0.51109989000E-03 0.  1.
     -623    1    1    2    0    0 -0.95190879527E+00 -0.10858290151E+01  0.16253128158E+01  0.17131379628E+03  0.17130000000E+03 0.  1.
      622    1    1    2    0    0  0.45561252197E+00  0.62154682349E+00  0.19174253355E+01  0.31670843281E+01  0.24000000000E+01 0.  0.
</event>
<event>
 5   0  0.6825300E-03  0.9118800E+02  0.7818608E-02  0.1180000E+00
       11   -1    0    0    0    0  0.00000000000E+00  0.00000000000E+00  0.39999999673E+01  0.40000000000E+01  0.51109989000E-03 0.  1.
     -623   -1    0    0    0    0  0.00000000000E+00  0.00000000000E+00  0.12525980253E-10  0.17130000000E+03  0.17130000000E+03 0. -1.
       11    1    1    2    0    0  0.39979015477E-01 -0.28518070437E+00  0.51161401266E-01  0.29247924033E+00  0.51109989000E-03 0.  1.
     -623    1    1    2    0    0  0.17352312837E+00  0.11389989546E+01  0.12754024029E+01  0.17130862232E+03  0.17130000000E+03 0. -1.
      622    1    1    2    0    0 -0.21350214385E+00 -0.85381825027E+00  0.26734361632E+01  0.36988984426E+01  0.24000000000E+01 0.  1.
</event>
<event>
 5   0  0.6825300E-03  0.9118800E+02  0.7818608E-02  0.1180000E+00
       11   -1    0    0    0    0  0.00000000000E+00  0.00000000000E+00  0.39999999673E+01  0.40000000000E+01  0.51109989000E-03 0. -1.
     -623   -1    0    0    0    0  0.00000000000E+00  0.00000000000E+00  0.12525980253E-10  0.17130000000E+03  0.17130000000E+03 0.  1.
       11    1    1    2    0    0 -0.11815479957E+00  0.73403357174E-01  0.28243537557E+00  0.31483108503E+00  0.51109989000E-03 0. -1.
     -623    1    1    2    0    0  0.11849673782E+00  0.22367100840E+00  0.94054909488E+00  0.17130276910E+03  0.17130000000E+03 0.  1.
      622    1    1    2    0    0 -0.34193824663E-03 -0.29707436557E+00  0.27770154969E+01  0.36823998107E+01  0.24000000000E+01 0. -1.
</event>
<event>
 5   0  0.6825300E-03  0.9118800E+02  0.7818608E-02  0.1180000E+00
       11   -1    0    0    0    0  0.00000000000E+00  0.00000000000E+00  0.39999999673E+01  0.40000000000E+01  0.51109989000E-03 0. -1.
     -623   -1    0    0    0    0  0.00000000000E+00  0.00000000000E+00  0.12525980253E-10  0.17130000000E+03  0.17130000000E+03 0.  1.
       11    1    1    2    0    0  0.18045865368E+00 -0.19486254369E+00  0.59530230279E+00  0.65186028376E+00  0.51109989000E-03 0. -1.
     -623    1    1    2    0    0 -0.31288209304E+00 -0.27038054410E+00  0.11270008237E+01  0.17130420640E+03  0.17130000000E+03 0.  1.
      622    1    1    2    0    0  0.13242343936E+00  0.46524308779E+00  0.22776968408E+01  0.33439333123E+01  0.24000000000E+01 0. -1.
</event>
<event>
 5   0  0.6825300E-03  0.9118800E+02  0.7818608E-02  0.1180000E+00
       11   -1    0    0    0    0  0.00000000000E+00  0.00000000000E+00  0.39999999673E+01  0.40000000000E+01  0.51109989000E-03 0.  1.
     -623   -1    0    0    0    0  0.00000000000E+00  0.00000000000E+00  0.12525980253E-10  0.17130000000E+03  0.17130000000E+03 0. -1.
       11    1    1    2    0    0 -0.18778336804E+00  0.28230729558E+00  0.29545307451E+00  0.44972523046E+00  0.51109989000E-03 0.  1.
     -623    1    1    2    0    0 -0.53548812901E+00 -0.55590445320E-01  0.12078062038E+01  0.17130510393E+03  0.17130000000E+03 0. -1.
      622    1    1    2    0    0  0.72327149704E+00 -0.22671685026E+00  0.24967406890E+01  0.35451708361E+01  0.24000000000E+01 0.  1.
</event>
<event>
 5   0  0.6825300E-03  0.9118800E+02  0.7818608E-02  0.1180000E+00
       11   -1    0    0    0    0  0.00000000000E+00  0.00000000000E+00  0.39999999673E+01  0.40000000000E+01  0.51109989000E-03 0.  1.
     -623   -1    0    0    0    0  0.00000000000E+00  0.00000000000E+00  0.12525980253E-10  0.17130000000E+03  0.17130000000E+03 0.  1.
       11    1    1    2    0    0 -0.45939741143E-01  0.22233278673E+00  0.12152950604E+00  0.25751118410E+00  0.51109989000E-03 0.  1.
     -623    1    1    2    0    0  0.33848726097E-01 -0.26602575649E+00  0.10113710085E+01  0.17130319549E+03  0.17130000000E+03 0.  1.
      622    1    1    2    0    0  0.12091015046E-01  0.43692969752E-01  0.28670994528E+01  0.37392933210E+01  0.24000000000E+01 0.  1.
</event>
<event>
 5   0  0.6825300E-03  0.9118800E+02  0.7818608E-02  0.1180000E+00
       11   -1    0    0    0    0  0.00000000000E+00  0.00000000000E+00  0.39999999673E+01  0.40000000000E+01  0.51109989000E-03 0.  1.
     -623   -1    0    0    0    0  0.00000000000E+00  0.00000000000E+00  0.12525980253E-10  0.17130000000E+03  0.17130000000E+03 0. -1.
       11    1    1    2    0    0  0.37910758489E-01 -0.29690470949E+00  0.55729907930E+00  0.63259161956E+00  0.51109989000E-03 0.  1.
     -623    1    1    2    0    0 -0.38076113872E+00 -0.24936651699E+00  0.11772682448E+01  0.17130465003E+03  0.17130000000E+03 0. -1.
      622    1    1    2    0    0  0.34285038024E+00  0.54627122648E+00  0.22654326433E+01  0.33627583466E+01  0.24000000000E+01 0. -1.
</event>
<event>
 5   0  0.6825300E-03  0.9118800E+02  0.7818608E-02  0.1180000E+00
       11   -1    0    0    0    0  0.00000000000E+00  0.00000000000E+00  0.39999999673E+01  0.40000000000E+01  0.51109989000E-03 0. -1.
     -623   -1    0    0    0    0  0.00000000000E+00  0.00000000000E+00  0.12525980253E-10  0.17130000000E+03  0.17130000000E+03 0. -1.
       11    1    1    2    0    0 -0.58601839774E+00 -0.30108821230E+00  0.39094581757E+00  0.76610088603E+00  0.51109989000E-03 0. -1.
     -623    1    1    2    0    0 -0.27978221412E+00  0.75397728015E+00  0.16914330707E+01  0.17131023818E+03  0.17130000000E+03 0.  1.
      622    1    1    2    0    0  0.86580061186E+00 -0.45288906785E+00  0.19176210791E+01  0.32236609329E+01  0.24000000000E+01 0. -1.
</event>
<event>
 5   0  0.6825300E-03  0.9118800E+02  0.7818608E-02  0.1180000E+00
       11   -1    0    0    0    0  0.00000000000E+00  0.00000000000E+00  0.39999999673E+01  0.40000000000E+01  0.51109989000E-03 0. -1.
     -623   -1    0    0    0    0  0.00000000000E+00  0.00000000000E+00  0.12525980253E-10  0.17130000000E+03  0.17130000000E+03 0.  1.
       11    1    1    2    0    0 -0.60365788098E-01  0.24083026833E+00  0.19332990572E+00  0.31467437167E+00  0.51109989000E-03 0. -1.
     -623    1    1    2    0    0  0.24983666563E+00  0.13380877129E+00  0.10462159455E+01  0.17130342930E+03  0.17130000000E+03 0.  1.
      622    1    1    2    0    0 -0.18947087753E+00 -0.37463903962E+00  0.27604541162E+01  0.36818963254E+01  0.24000000000E+01 0. -1.
</event>
<event>
 5   0  0.6825300E-03  0.9118800E+02  0.7818608E-02  0.1180000E+00
       11   -1    0    0    0    0  0.00000000000E+00  0.00000000000E+00  0.39999999673E+01  0.40000000000E+01  0.51109989000E-03 0.  1.
     -623   -1    0    0    0    0  0.00000000000E+00  0.00000000000E+00  0.12525980253E-10  0.17130000000E+03  0.17130000000E+03 0. -1.
       11    1    1    2    0    0 -0.11661040718E+00  0.14025791203E+00  0.87838550302E-01  0.20245034229E+00  0.51109989000E-03 0.  1.
     -623    1    1    2    0    0  0.28955635789E+00 -0.17589683315E+00  0.97848745274E+00  0.17130312963E+03  0.17130000000E+03 0. -1.
      622    1    1    2    0    0 -0.17294595071E+00  0.35638921119E-01  0.29336739643E+01  0.37944200299E+01  0.24000000000E+01 0.  1.
</event>
<event>
 5   0  0.6825300E-03  0.9118800E+02  0.7818608E-02  0.1180000E+00
       11   -1    0    0    0    0  0.00000000000E+00  0.00000000000E+00  0.39999999673E+01  0.40000000000E+01  0.51109989000E-03 0. -1.
     -623   -1    0    0    0    0  0.00000000000E+00  0.00000000000E+00  0.12525980253E-10  0.17130000000E+03  0.17130000000E+03 0.  1.
       11    1    1    2    0    0 -0.29892846311E+00  0.15195481164E+00  0.67271224877E+00  0.75165851402E+00  0.51109989000E-03 0. -1.
     -623    1    1    2    0    0  0.17149537731E+00 -0.43202333095E+00  0.11669295982E+01  0.17130460525E+03  0.17130000000E+03 0.  1.
      622    1    1    2    0    0  0.12743308580E+00  0.28006851931E+00  0.21603581204E+01  0.32437362370E+01  0.24000000000E+01 0. -1.
</event>
<event>
 5   0  0.6825300E-03  0.9118800E+02  0.7818608E-02  0.1180000E+00
       11   -1    0    0    0    0  0.00000000000E+00  0.00000000000E+00  0.39999999673E+01  0.40000000000E+01  0.51109989000E-03 0. -1.
     -623   -1    0    0    0    0  0.00000000000E+00  0.00000000000E+00  0.12525980253E-10  0.17130000000E+03  0.17130000000E+03 0.  1.
       11    1    1    2    0    0 -0.10835229760E+00 -0.13649805725E+00 -0.12196783728E-01  0.17470249793E+00  0.51109989000E-03 0. -1.
     -623    1    1    2    0    0 -0.17993472877E+00 -0.92764050541E-01  0.10607222312E+01  0.17130340368E+03  0.17130000000E+03 0.  1.
      622    1    1    2    0    0  0.28828702637E+00  0.22926210779E+00  0.29514745199E+01  0.38218938192E+01  0.24000000000E+01 0.  0.
</event>
<event>
 5   0  0.6825300E-03  0.9118800E+02  0.7818608E-02  0.1180000E+00
       11   -1    0    0    0    0  0.00000000000E+00  0.00000000000E+00  0.39999999673E+01  0.40000000000E+01  0.51109989000E-03 0. -1.
     -623   -1    0    0    0    0  0.00000000000E+00  0.00000000000E+00  0.12525980253E-10  0.17130000000E+03  0.17130000000E+03 0. -1.
       11    1    1    2    0    0 -0.84496273006E-01  0.27286771493E-01 -0.52272486763E-01  0.10303815869E+00  0.51109989000E-03 0. -1.
     -623    1    1    2    0    0  0.69502834332E+00 -0.93774489670E-01  0.10501253656E+01  0.17130465441E+03  0.17130000000E+03 0. -1.
      622    1    1    2    0    0 -0.61053207031E+00  0.66487718176E-01  0.30021470886E+01  0.38923074348E+01  0.24000000000E+01 0. -1.
</event>
<event>
 5   0  0.6825300E-03  0.9118800E+02  0.7818608E-02  0.1180000E+00
       11   -1    0    0    0    0  0.00000000000E+00  0.00000000000E+00  0.39999999673E+01  0.40000000000E+01  0.51109989000E-03 0.  1.
     -623   -1    0    0    0    0  0.00000000000E+00  0.00000000000E+00  0.12525980253E-10  0.17130000000E+03  0.17130000000E+03 0.  1.
       11    1    1    2    0    0 -0.23779495925E+00  0.12576752276E+00 -0.59110097026E-01  0.27542363229E+00  0.51109989000E-03 0.  1.
     -623    1    1    2    0    0  0.37760013791E+00  0.63573591107E-01  0.12269416927E+01  0.17130482191E+03  0.17130000000E+03 0.  1.
      622    1    1    2    0    0 -0.13980517866E+00 -0.18934111387E+00  0.28321683716E+01  0.37197544584E+01  0.24000000000E+01 0.  1.
</event>
<event>
 5   0  0.6825300E-03  0.9118800E+02  0.7818608E-02  0.1180000E+00
       11   -1    0    0    0    0  0.00000000000E+00  0.00000000000E+00  0.39999999673E+01  0.40000000000E+01  0.51109989000E-03 0. -1.
     -623   -1    0    0    0    0  0.00000000000E+00  0.00000000000E+00  0.12525980253E-10  0.17130000000E+03  0.17130000000E+03 0. -1.
       11    1    1    2    0    0 -0.83562316833E-01 -0.13551616681E+00  0.13372429298E+00  0.20791762795E+00  0.51109989000E-03 0. -1.
     -623    1    1    2    0    0  0.27156938509E+00  0.27219965316E+00  0.94345307260E+00  0.17130302959E+03  0.17130000000E+03 0. -1.
      622    1    1    2    0    0 -0.18800706826E+00 -0.13668348635E+00  0.29228226018E+01  0.37890527833E+01  0.24000000000E+01 0. -1.
</event>
<event>
 5   0  0.6825300E-03  0.9118800E+02  0.7818608E-02  0.1180000E+00
       11   -1    0    0    0    0  0.00000000000E+00  0.00000000000E+00  0.39999999673E+01  0.40000000000E+01  0.51109989000E-03 0.  1.
     -623   -1    0    0    0    0  0.00000000000E+00  0.00000000000E+00  0.12525980253E-10  0.17130000000E+03  0.17130000000E+03 0. -1.
       11    1    1    2    0    0 -0.30807393278E+00  0.24196556416E-01  0.27108990307E+00  0.41107787361E+00  0.51109989000E-03 0.  1.
     -623    1    1    2    0    0 -0.94047107530E-01  0.34206408532E-01  0.10964463017E+01  0.17130353823E+03  0.17130000000E+03 0. -1.
      622    1    1    2    0    0  0.40212104031E+00 -0.58402964948E-01  0.26324637626E+01  0.35853838984E+01  0.24000000000E+01 0.  1.
</event>
<event>
 5   0  0.6825300E-03  0.9118800E+02  0.7818608E-02  0.1180000E+00
       11   -1    0    0    0    0  0.00000000000E+00  0.00000000000E+00  0.39999999673E+01  0.40000000000E+01  0.51109989000E-03 0. -1.
     -623   -1    0    0    0    0  0.00000000000E+00  0.00000000000E+00  0.12525980253E-10  0.17130000000E+03  0.17130000000E+03 0.  1.
       11    1    1    2    0    0  0.10931003770E+00  0.36725897261E+00  0.13920451145E+00  0.40768369422E+00  0.51109989000E-03 0. -1.
     -623    1    1    2    0    0 -0.38237618351E+00 -0.23596891946E+00  0.12116565404E+01  0.17130487443E+03  0.17130000000E+03 0.  1.
      622    1    1    2    0    0  0.27306614582E+00 -0.13129005315E+00  0.26491389155E+01  0.35874418729E+01  0.24000000000E+01 0. -1.
</event>
<event>
 5   0  0.6825300E-03  0.9118800E+02  0.7818608E-02  0.1180000E+00
       11   -1    0    0    0    0  0.00000000000E+00  0.00000000000E+00  0.39999999673E+01  0.40000000000E+01  0.51109989000E-03 0. -1.
     -623   -1    0    0    0    0  0.00000000000E+00  0.00000000000E+00  0.12525980253E-10  0.17130000000E+03  0.17130000000E+03 0.  1.
       11    1    1    2    0    0 -0.16663359835E+00 -0.58596382065E-01  0.16614288305E+00  0.24249538325E+00  0.51109989000E-03 0. -1.
     -623    1    1    2    0    0 -0.14171001189E-01 -0.81986168417E-01  0.95527659480E+00  0.17130268380E+03  0.17130000000E+03 0.  1.
      622    1    1    2    0    0  0.18080459954E+00  0.14058255048E+00  0.28785804895E+01  0.37548208201E+01  0.24000000000E+01 0. -1.
</event>
<event>
 5   0  0.6825300E-03  0.9118800E+02  0.7818608E-02  0.1180000E+00
       11   -1    0    0    0    0  0.00000000000E+00  0.00000000000E+00  0.39999999673E+01  0.40000000000E+01  0.51109989000E-03 0. -1.
     -623   -1    0    0    0    0  0.00000000000E+00  0.00000000000E+00  0.12525980253E-10  0.17130000000E+03  0.17130000000E+03 0. -1.
       11    1    1    2    0    0 -0.29329357529E-01 -0.19722477023E+00  0.44997612919E+00  0.49217537451E+00  0.51109989000E-03 0. -1.
     -623    1    1    2    0    0 -0.25315015962E+00  0.57602678592E+00  0.10417903720E+01  0.17130432341E+03  0.17130000000E+03 0. -1.
      622    1    1    2    0    0  0.28247951715E+00 -0.37880201569E+00  0.25082334661E+01  0.35035012152E+01  0.24000000000E+01 0.  0.
</event>
<event>
 5   0  0.6825300E-03  0.9118800E+02  0.7818608E-02  0.1180000E+00
       11   -1    0    0    0    0  0.00000000000E+00  0.00000000000E+00  0.39999999673E+01  0.40000000000E+01  0.51109989000E-03 0. -1.
     -623   -1    0    0    0    0  0.00000000000E+00  0.00000000000E+00  0.12525980253E-10  0.17130000000E+03  0.17130000000E+03 0.  1.
       11    1    1    2    0    0  0.14514441347E+00 -0.59409193152E-01  0.11074371858E+00  0.19199162851E+00  0.51109989000E-03 0. -1.
     -623    1    1    2    0    0 -0.43930970263E+00  0.45685356975E-01  0.95161275382E+00  0.17130321260E+03  0.17130000000E+03 0.  1.
      622    1    1    2    0    0  0.29416528916E+00  0.13723836177E-01  0.29376434950E+01  0.38047957717E+01  0.24000000000E+01 0. -1.
</event>
<event>
 5   0  0.6825300E-03  0.9118800E+02  0.7818608E-02  0.1180000E+00
       11   -1    0    0    0    0  0.00000000000E+00  0.00000000000E+00  0.39999999673E+01  0.40000000000E+01  0.51109989000E-03 0. -1.
     -623   -1    0    0    0    0  0.00000000000E+00  0.00000000000E+00  0.12525980253E-10  0.17130000000E+03  0.17130000000E+03 0. -1.
       11    1    1    2    0    0  0.71365871132E-01 -0.20421878205E+00  0.87421148841E-01  0.23332620297E+00  0.51109989000E-03 0. -1.
     -623    1    1    2    0    0  0.25019154579E+00 -0.32653501249E+00  0.10818025956E+01  0.17130390981E+03  0.17130000000E+03 0. -1.
      622    1    1    2    0    0 -0.32155741692E+00  0.53075379454E+00  0.28307762230E+01  0.37627639824E+01  0.24000000000E+01 0. -1.
</event>
<event>
 5   0  0.6825300E-03  0.9118800E+02  0.7818608E-02  0.1180000E+00
       11   -1    0    0    0    0  0.00000000000E+00  0.00000000000E+00  0.39999999673E+01  0.40000000000E+01  0.51109989000E-03 0.  1.
     -623   -1    0    0    0    0  0.00000000000E+00  0.00000000000E+00  0.12525980253E-10  0.17130000000E+03  0.17130000000E+03 0. -1.
       11    1    1    2    0    0  0.74633770383E-01 -0.87236633591E-01 -0.95009314590E-03  0.11481112238E+00  0.51109989000E-03 0.  1.
     -623    1    1    2    0    0  0.35899303830E-01 -0.40648958779E+00  0.99219345663E+00  0.17130335948E+03  0.17130000000E+03 0. -1.
      622    1    1    2    0    0 -0.11053307421E+00  0.49372622138E+00  0.30087566039E+01  0.38818293939E+01  0.24000000000E+01 0.  1.
</event>
<event>
 5   0  0.6825300E-03  0.9118800E+02  0.7818608E-02  0.1180000E+00
       11   -1    0    0    0    0  0.00000000000E+00  0.00000000000E+00  0.39999999673E+01  0.40000000000E+01  0.51109989000E-03 0. -1.
     -623   -1    0    0    0    0  0.00000000000E+00  0.00000000000E+00  0.12525980253E-10  0.17130000000E+03  0.17130000000E+03 0. -1.
       11    1    1    2    0    0  0.10930210835E+00  0.36931420945E-01  0.43765399995E-01  0.12339591647E+00  0.51109989000E-03 0. -1.
     -623    1    1    2    0    0 -0.12280867112E-01 -0.13746265890E+00  0.91830251161E+00  0.17130251699E+03  0.17130000000E+03 0. -1.
      622    1    1    2    0    0 -0.97021241236E-01  0.10053123795E+00  0.30379320558E+01  0.38740870959E+01  0.24000000000E+01 0. -1.
</event>
<event>
 5   0  0.6825300E-03  0.9118800E+02  0.7818608E-02  0.1180000E+00
       11   -1    0    0    0    0  0.00000000000E+00  0.00000000000E+00  0.39999999673E+01  0.40000000000E+01  0.51109989000E-03 0.  1.
     -623   -1    0    0    0    0  0.00000000000E+00  0.00000000000E+00  0.12525980253E-10  0.17130000000E+03  0.17130000000E+03 0.  1.
       11    1    1    2    0    0 -0.20328228079E+00 -0.81414727042E-01  0.68342318717E-01  0.22939698605E+00  0.51109989000E-03 0.  1.
     -623    1    1    2    0    0  0.10247094965E+00  0.52419011175E+00  0.10645990812E+01  0.17130414078E+03  0.17130000000E+03 0.  1.
      622    1    1    2    0    0  0.10081133114E+00 -0.44277538471E+00  0.28670585674E+01  0.37664622386E+01  0.24000000000E+01 0.  1.
</event>
<event>
 5   0  0.6825300E-03  0.9118800E+02  0.7818608E-02  0.1180000E+00
       11   -1    0    0    0    0  0.00000000000E+00  0.00000000000E+00  0.39999999673E+01  0.40000000000E+01  0.51109989000E-03 0.  1.
     -623   -1    0    0    0    0  0.00000000000E+00  0.00000000000E+00  0.12525980253E-10  0.17130000000E+03  0.17130000000E+03 0. -1.
       11    1    1    2    0    0  0.47087324682E+00 -0.13101175628E+00  0.13325009622E+00  0.50659801048E+00  0.51109989000E-03 0.  1.
     -623    1    1    2    0    0 -0.29625396852E+00  0.62981705741E+00  0.13938753326E+01  0.17130708486E+03  0.17130000000E+03 0. -1.
      622    1    1    2    0    0 -0.17461927831E+00 -0.49880530113E+00  0.24728745385E+01  0.34863171262E+01  0.24000000000E+01 0.  1.
</event>
<event>
 5   0  0.6825300E-03  0.9118800E+02  0.7818608E-02  0.1180000E+00
       11   -1    0    0    0    0  0.00000000000E+00  0.00000000000E+00  0.39999999673E+01  0.40000000000E+01  0.51109989000E-03 0.  1.
     -623   -1    0    0    0    0  0.00000000000E+00  0.00000000000E+00  0.12525980253E-10  0.17130000000E+03  0.17130000000E+03 0.  1.
       11    1    1    2    0    0 -0.12108074280E+00 -0.31551470892E+00  0.21440062111E+00  0.40022239490E+00  0.51109989000E-03 0.  1.
     -623    1    1    2    0    0 -0.29650409522E+00 -0.38423696432E-01  0.11648407837E+01  0.17130422133E+03  0.17130000000E+03 0.  1.
      622    1    1    2    0    0  0.41758483802E+00  0.35393840536E+00  0.26207585626E+01  0.35955562762E+01  0.24000000000E+01 0.  1.
</event>
<event>
 5   0  0.6825300E-03  0.9118800E+02  0.7818608E-02  0.1180000E+00
       11   -1    0    0    0    0  0.00000000000E+00  0.00000000000E+00  0.39999999673E+01  0.40000000000E+01  0.51109989000E-03 0.  1.
     -623   -1    0    0    0    0  0.00000000000E+00  0.00000000000E+00  0.12525980253E-10  0.17130000000E+03  0.17130000000E+03 0. -1.
       11    1    1    2    0    0 -0.29887533187E+00 -0.27640939956E+00 -0.82334450251E-01  0.41534063501E+00  0.51109989000E-03 0.  1.
     -623    1    1    2    0    0  0.50841342619E+00  0.88513236842E+00  0.15121642646E+01  0.17130971538E+03  0.17130000000E+03 0. -1.
      622    1    1    2    0    0 -0.20953809431E+00 -0.60872296886E+00  0.25701701530E+01  0.35749439829E+01  0.24000000000E+01 0.  1.
</event>
<event>
 5   0  0.6825300E-03  0.9118800E+02  0.7818608E-02  0.1180000E+00
       11   -1    0    0    0    0  0.00000000000E+00  0.00000000000E+00  0.39999999673E+01  0.40000000000E+01  0.51109989000E-03 0.  1.
     -623   -1    0    0    0    0  0.00000000000E+00  0.00000000000E+00  0.12525980253E-10  0.17130000000E+03  0.17130000000E+03 0.  1.
       11    1    1    2    0    0  0.73150396936E-01 -0.13529094840E-01  0.40350197294E-01  0.84631061815E-01  0.51109989000E-03 0.  1.
     -623    1    1    2    0    0  0.24280626011E+00 -0.17391424169E+00  0.89126880671E+00  0.17130257897E+03  0.17130000000E+03 0.  1.
      622    1    1    2    0    0 -0.31595665704E+00  0.18744333653E+00  0.30683809634E+01  0.39127899701E+01  0.24000000000E+01 0.  1.
</event>
<event>
 5   0  0.6825300E-03  0.9118800E+02  0.7818608E-02  0.1180000E+00
       11   -1    0    0    0    0  0.00000000000E+00  0.00000000000E+00  0.39999999673E+01  0.40000000000E+01  0.51109989000E-03 0.  1.
     -623   -1    0    0    0    0  0.00000000000E+00  0.00000000000E+00  0.12525980253E-10  0.17130000000E+03  0.17130000000E+03 0.  1.
       11    1    1    2    0    0 -0.29370021148E+00  0.12880846608E+00  0.45552460489E-01  0.32392394637E+00  0.51109989000E-03 0.  1.
     -623    1    1    2    0    0  0.41937517996E+00  0.13800305783E+00  0.11918566792E+01  0.17130471518E+03  0.17130000000E+03 0.  1.
      622    1    1    2    0    0 -0.12567496849E+00 -0.26681152391E+00  0.27625908277E+01  0.36713608741E+01  0.24000000000E+01 0.  1.
</event>
<event>
 5   0  0.6825300E-03  0.9118800E+02  0.7818608E-02  0.1180000E+00
       11   -1    0    0    0    0  0.00000000000E+00  0.00000000000E+00  0.39999999673E+01  0.40000000000E+01  0.51109989000E-03 0. -1.
     -623   -1    0    0    0    0  0.00000000000E+00  0.00000000000E+00  0.12525980253E-10  0.17130000000E+03  0.17130000000E+03 0. -1.
       11    1    1    2    0    0  0.38984068001E+00 -0.19477494505E+00 -0.43841366793E-01  0.43799013879E+00  0.51109989000E-03 0. -1.
     -623    1    1    2    0    0  0.28887882731E+00 -0.40562707202E+00  0.15842702368E+01  0.17130804971E+03  0.17130000000E+03 0. -1.
      622    1    1    2    0    0 -0.67871950732E+00  0.60040201707E+00  0.24595710974E+01  0.35539601482E+01  0.24000000000E+01 0. -1.
</event>
<event>
 5   0  0.6825300E-03  0.9118800E+02  0.7818608E-02  0.1180000E+00
       11   -1    0    0    0    0  0.00000000000E+00  0.00000000000E+00  0.39999999673E+01  0.40000000000E+01  0.51109989000E-03 0.  1.
     -623   -1    0    0    0    0  0.00000000000E+00  0.00000000000E+00  0.12525980253E-10  0.17130000000E+03  0.17130000000E+03 0. -1.
       11    1    1    2    0    0  0.25972963047E+00 -0.33449539528E+00  0.30544738835E-01  0.42459379729E+00  0.51109989000E-03 0.  1.
     -623    1    1    2    0    0 -0.43967298758E+00  0.12648379416E+00  0.13415314103E+01  0.17130586393E+03  0.17130000000E+03 0. -1.
      622    1    1    2    0    0  0.17994335711E+00  0.20801160112E+00  0.26279238182E+01  0.35695422721E+01  0.24000000000E+01 0.  1.
</event>
<event>
 5   0  0.6825300E-03  0.9118800E+02  0.7818608E-02  0.1180000E+00
       11   -1    0    0    0    0  0.00000000000E+00  0.00000000000E+00  0.39999999673E+01  0.40000000000E+01  0.51109989000E-03 0. -1.
     -623   -1    0    0    0    0  0.00000000000E+00  0.00000000000E+00  0.12525980253E-10  0.17130000000E+03  0.17130000000E+03 0.  1.
       11    1    1    2    0    0  0.21024122798E+00 -0.78705209998E-01  0.31293636153E+00  0.38513025278E+00  0.51109989000E-03 0. -1.
     -623    1    1    2    0    0 -0.42400626244E+00 -0.97787265084E-01  0.10028069509E+01  0.17130348790E+03  0.17130000000E+03 0.  1.
      622    1    1    2    0    0  0.21376503446E+00  0.17649247508E+00  0.26842566549E+01  0.36113818509E+01  0.24000000000E+01 0. -1.
</event>
<event>
 5   0  0.6825300E-03  0.9118800E+02  0.7818608E-02  0.1180000E+00
       11   -1    0    0    0    0  0.00000000000E+00  0.00000000000E+00  0.39999999673E+01  0.40000000000E+01  0.51109989000E-03 0.  1.
     -623   -1    0    0    0    0  0.00000000000E+00  0.00000000000E+00  0.12525980253E-10  0.17130000000E+03  0.17130000000E+03 0. -1.
       11    1    1    2    0    0  0.78159005205E-01  0.11453199842E+00  0.47626556595E-01  0.14661159187E+00  0.51109989000E-03 0.  1.
     -623    1    1    2    0    0 -0.32726320149E+00 -0.43305307918E+00  0.96953350109E+00  0.17130360367E+03  0.17130000000E+03 0. -1.
      622    1    1    2    0    0  0.24910419629E+00  0.31852108077E+00  0.29828399097E+01  0.38497847351E+01  0.24000000000E+01 0.  1.
</event>
<event>
 5   0  0.6825300E-03  0.9118800E+02  0.7818608E-02  0.1180000E+00
       11   -1    0    0    0    0  0.00000000000E+00  0.00000000000E+00  0.39999999673E+01  0.40000000000E+01  0.51109989000E-03 0.  1.
     -623   -1    0    0    0    0  0.00000000000E+00  0.00000000000E+00  0.12525980253E-10  0.17130000000E+03  0.17130000000E+03 0.  1.
       11    1    1    2    0    0 -0.29384871987E-02 -0.25008395181E+00  0.15079396530E+00  0.29204400157E+00  0.51109989000E-03 0.  1.
     -623    1    1    2    0    0  0.18890954880E+00  0.36685222386E+00  0.10360564492E+01  0.17130363009E+03  0.17130000000E+03 0.  1.
      622    1    1    2    0    0 -0.18597106160E+00 -0.11676827206E+00  0.28131495529E+01  0.37043259133E+01  0.24000000000E+01 0.  1.
</event>
<event>
 5   0  0.6825300E-03  0.9118800E+02  0.7818608E-02  0.1180000E+00
       11   -1    0    0    0    0  0.00000000000E+00  0.00000000000E+00  0.39999999673E+01  0.40000000000E+01  0.51109989000E-03 0. -1.
     -623   -1    0    0    0    0  0.00000000000E+00  0.00000000000E+00  0.12525980253E-10  0.17130000000E+03  0.17130000000E+03 0. -1.
       11    1    1    2    0    0 -0.39845235715E+00  0.25491442384E+00  0.80354229950E-01  0.47979444337E+00  0.51109989000E-03 0. -1.
     -623    1    1    2    0    0  0.75158815830E+00 -0.23590087542E+00  0.13789751749E+01  0.17130736151E+03  0.17130000000E+03 0. -1.
      622    1    1    2    0    0 -0.35313580116E+00 -0.19013548427E-01  0.25406705625E+01  0.35128440496E+01  0.24000000000E+01 0. -1.
</event>
<event>
 5   0  0.6825300E-03  0.9118800E+02  0.7818608E-02  0.1180000E+00
       11   -1    0    0    0    0  0.00000000000E+00  0.00000000000E+00  0.39999999673E+01  0.40000000000E+01  0.51109989000E-03 0. -1.
     -623   -1    0    0    0    0  0.00000000000E+00  0.00000000000E+00  0.12525980253E-10  0.17130000000E+03  0.17130000000E+03 0. -1.
       11    1    1    2    0    0  0.47837685690E+00 -0.56041902663E+00  0.76204074665E+00  0.10600095582E+01  0.51109989000E-03 0. -1.
     -623    1    1    2    0    0 -0.81664331369E+00  0.91270422978E+00  0.16337103282E+01  0.17131216812E+03  0.17130000000E+03 0.  1.
      622    1    1    2    0    0  0.33826645679E+00 -0.35228520315E+00  0.16042488925E+01  0.29278223254E+01  0.24000000000E+01 0. -1.
</event>
<event>
 5   0  0.6825300E-03  0.9118800E+02  0.7818608E-02  0.1180000E+00
       11   -1    0    0    0    0  0.00000000000E+00  0.00000000000E+00  0.39999999673E+01  0.40000000000E+01  0.51109989000E-03 0.  1.
     -623   -1    0    0    0    0  0.00000000000E+00  0.00000000000E+00  0.12525980253E-10  0.17130000000E+03  0.17130000000E+03 0.  1.
       11    1    1    2    0    0  0.19701710377E+00  0.21494398619E+00  0.14454826358E+00  0.32543988401E+00  0.51109989000E-03 0.  1.
     -623    1    1    2    0    0 -0.22070075753E+00 -0.57608701608E+00  0.11027843085E+01  0.17130466053E+03  0.17130000000E+03 0.  1.
      622    1    1    2    0    0  0.23683653763E-01  0.36114302990E+00  0.27526673953E+01  0.36698995889E+01  0.24000000000E+01 0.  1.
</event>
<event>
 5   0  0.6825300E-03  0.9118800E+02  0.7818608E-02  0.1180000E+00
       11   -1    0    0    0    0  0.00000000000E+00  0.00000000000E+00  0.39999999673E+01  0.40000000000E+01  0.51109989000E-03 0. -1.
     -623   -1    0    0    0    0  0.00000000000E+00  0.00000000000E+00  0.12525980253E-10  0.17130000000E+03  0.17130000000E+03 0.  1.
       11    1    1    2    0    0 -0.37760881839E-01 -0.70521120751E+00 -0.92583158111E-01  0.71226444090E+00  0.51109989000E-03 0. -1.
     -623    1    1    2    0    0  0.11205521983E+00  0.88663968415E+00  0.18726060175E+01  0.17131256620E+03  0.17130000000E+03 0.  1.
      622    1    1    2    0    0 -0.74294337994E-01 -0.18142847665E+00  0.22199771080E+01  0.32751693545E+01  0.24000000000E+01 0. -1.
</event>
<event>
 5   0  0.6825300E-03  0.9118800E+02  0.7818608E-02  0.1180000E+00
       11   -1    0    0    0    0  0.00000000000E+00  0.00000000000E+00  0.39999999673E+01  0.40000000000E+01  0.51109989000E-03 0. -1.
     -623   -1    0    0    0    0  0.00000000000E+00  0.00000000000E+00  0.12525980253E-10  0.17130000000E+03  0.17130000000E+03 0.  1.
       11    1    1    2    0    0 -0.20637269836E+00  0.59555431341E-01 -0.16681667400E+00  0.27196434320E+00  0.51109989000E-03 0. -1.
     -623    1    1    2    0    0  0.26923021733E+00 -0.23876808183E+00  0.13276204058E+01  0.17130552259E+03  0.17130000000E+03 0.  1.
      622    1    1    2    0    0 -0.62857518977E-01  0.17921265049E+00  0.28391962356E+01  0.37225130632E+01  0.24000000000E+01 0. -1.
</event>
<event>
 5   0  0.6825300E-03  0.9118800E+02  0.7818608E-02  0.1180000E+00
       11   -1    0    0    0    0  0.00000000000E+00  0.00000000000E+00  0.39999999673E+01  0.40000000000E+01  0.51109989000E-03 0. -1.
     -623   -1    0    0    0    0  0.00000000000E+00  0.00000000000E+00  0.12525980253E-10  0.17130000000E+03  0.17130000000E+03 0.  1.
       11    1    1    2    0    0  0.49658915451E-01  0.63992966045E-01  0.14555890558E+00  0.16657960200E+00  0.51109989000E-03 0. -1.
     -623    1    1    2    0    0 -0.32692502340E+00 -0.90575236217E-01  0.88163665800E+00  0.17130260467E+03  0.17130000000E+03 0.  1.
      622    1    1    2    0    0  0.27726610795E+00  0.26582270172E-01  0.29728044038E+01  0.38308157271E+01  0.24000000000E+01 0. -1.
</event>
<event>
 5   0  0.6825300E-03  0.9118800E+02  0.7818608E-02  0.1180000E+00
       11   -1    0    0    0    0  0.00000000000E+00  0.00000000000E+00  0.39999999673E+01  0.40000000000E+01  0.51109989000E-03 0. -1.
     -623   -1    0    0    0    0  0.00000000000E+00  0.00000000000E+00  0.12525980253E-10  0.17130000000E+03  0.17130000000E+03 0. -1.
       11    1    1    2    0    0  0.17140795413E+00 -0.25302690698E-01  0.45955086412E-01  0.17925692200E+00  0.51109989000E-03 0. -1.
     -623    1    1    2    0    0  0.40429391806E-02  0.14338786854E+00  0.99246917113E+00  0.17130293509E+03  0.17130000000E+03 0. -1.
      622    1    1    2    0    0 -0.17545089331E+00 -0.11808517784E+00  0.29615757098E+01  0.38178079850E+01  0.24000000000E+01 0. -1.
</event>
<event>
 5   0  0.6825300E-03  0.9118800E+02  0.7818608E-02  0.1180000E+00
       11   -1    0    0    0    0  0.00000000000E+00  0.00000000000E+00  0.39999999673E+01  0.40000000000E+01  0.51109989000E-03 0. -1.
     -623   -1    0    0    0    0  0.00000000000E+00  0.00000000000E+00  0.12525980253E-10  0.17130000000E+03  0.17130000000E+03 0. -1.
       11    1    1    2    0    0  0.14843413702E+00  0.41554575390E-01 -0.23314391319E-01  0.15589515013E+00  0.51109989000E-03 0. -1.
     -623    1    1    2    0    0 -0.10551270658E+00 -0.28592891853E+00  0.10350933334E+01  0.17130339841E+03  0.17130000000E+03 0. -1.
      622    1    1    2    0    0 -0.42921430442E-01  0.24437434314E+00  0.29882210253E+01  0.38407064408E+01  0.24000000000E+01 0.  0.
</event>
<event>
 5   0  0.6825300E-03  0.9118800E+02  0.7818608E-02  0.1180000E+00
       11   -1    0    0    0    0  0.00000000000E+00  0.00000000000E+00  0.39999999673E+01  0.40000000000E+01  0.51109989000E-03 0. -1.
     -623   -1    0    0    0    0  0.00000000000E+00  0.00000000000E+00  0.12525980253E-10  0.17130000000E+03  0.17130000000E+03 0.  1.
       11    1    1    2    0    0 -0.55748146660E-01  0.54823486541E-01 -0.61362574927E-01  0.99393648464E-01  0.51109989000E-03 0. -1.
     -623    1    1    2    0    0  0.22753739733E-01 -0.31132452499E-01  0.99041507175E+00  0.17130286749E+03  0.17130000000E+03 0.  1.
      622    1    1    2    0    0  0.32994406927E-01 -0.23691034042E-01  0.30709474705E+01  0.38977388654E+01  0.24000000000E+01 0. -1.
</event>
<event>
 5   0  0.6825300E-03  0.9118800E+02  0.7818608E-02  0.1180000E+00
       11   -1    0    0    0    0  0.00000000000E+00  0.00000000000E+00  0.39999999673E+01  0.40000000000E+01  0.51109989000E-03 0. -1.
     -623   -1    0    0    0    0  0.00000000000E+00  0.00000000000E+00  0.12525980253E-10  0.17130000000E+03  0.17130000000E+03 0. -1.
       11    1    1    2    0    0  0.12551097021E+00 -0.92563650925E-01  0.96082842638E-01  0.18317534492E+00  0.51109989000E-03 0. -1.
     -623    1    1    2    0    0 -0.24755382674E+00 -0.16991833193E+00  0.95398816774E+00  0.17130291956E+03  0.17130000000E+03 0. -1.
      622    1    1    2    0    0  0.12204285652E+00  0.26248198285E+00  0.29499289570E+01  0.38139050986E+01  0.24000000000E+01 0. -1.
</event>
<event>
 5   0  0.6825300E-03  0.9118800E+02  0.7818608E-02  0.1180000E+00
       11   -1    0    0    0    0  0.00000000000E+00  0.00000000000E+00  0.39999999673E+01  0.40000000000E+01  0.51109989000E-03 0.  1.
     -623   -1    0    0    0    0  0.00000000000E+00  0.00000000000E+00  0.12525980253E-10  0.17130000000E+03  0.17130000000E+03 0. -1.
       11    1    1    2    0    0 -0.21498787181E+00 -0.34846658186E-01  0.13750894431E+00  0.25757143786E+00  0.51109989000E-03 0.  1.
     -623    1    1    2    0    0 -0.25173525178E+00  0.36118955726E+00  0.10530435427E+01  0.17130380244E+03  0.17130000000E+03 0. -1.
      622    1    1    2    0    0  0.46672312359E+00 -0.32634289908E+00  0.28094474803E+01  0.37386261255E+01  0.24000000000E+01 0. -1.
</event>
<event>
 5   0  0.6825300E-03  0.9118800E+02  0.7818608E-02  0.1180000E+00
       11   -1    0    0    0    0  0.00000000000E+00  0.00000000000E+00  0.39999999673E+01  0.40000000000E+01  0.51109989000E-03 0.  1.
     -623   -1    0    0    0    0  0.00000000000E+00  0.00000000000E+00  0.12525980253E-10  0.17130000000E+03  0.17130000000E+03 0. -1.
       11    1    1    2    0    0 -0.17857701703E+00 -0.85678625636E-02 -0.20203785345E+00  0.26978271763E+00  0.51109989000E-03 0.  1.
     -623    1    1    2    0    0  0.27797522964E+00  0.14718926347E+00  0.13589605425E+01  0.17130567915E+03  0.17130000000E+03 0. -1.
      622    1    1    2    0    0 -0.99398212603E-01 -0.13862140091E+00  0.28430772783E+01  0.37245381335E+01  0.24000000000E+01 0.  1.
</event>
<event>
 5   0  0.6825300E-03  0.9118800E+02  0.7818608E-02  0.1180000E+00
       11   -1    0    0    0    0  0.00000000000E+00  0.00000000000E+00  0.39999999673E+01  0.40000000000E+01  0.51109989000E-03 0. -1.
     -623   -1    0    0    0    0  0.00000000000E+00  0.00000000000E+00  0.12525980253E-10  0.17130000000E+03  0.17130000000E+03 0. -1.
       11    1    1    2    0    0  0.86328804605E-01  0.19507567426E+00 -0.10835313832E+00  0.23926521895E+00  0.51109989000E-03 0. -1.
     -623    1    1    2    0    0 -0.17962662279E+00  0.56880901185E-01  0.12313944024E+01  0.17130452952E+03  0.17130000000E+03 0. -1.
      622    1    1    2    0    0  0.93297818187E-01 -0.25195657545E+00  0.28769587033E+01  0.37562052632E+01  0.24000000000E+01 0. -1.
</event>
<event>
 5   0  0.6825300E-03  0.9118800E+02  0.7818608E-02  0.1180000E+00
       11   -1    0    0    0    0  0.00000000000E+00  0.00000000000E+00  0.39999999673E+01  0.40000000000E+01  0.51109989000E-03 0.  1.
     -623   -1    0    0    0    0  0.00000000000E+00  0.00000000000E+00  0.12525980253E-10  0.17130000000E+03  0.17130000000E+03 0. -1.
       11    1    1    2    0    0 -0.87236303717E-01 -0.10420289428E-01 -0.96142379173E-01  0.13023967680E+00  0.51109989000E-03 0.  1.
     -623    1    1    2    0    0  0.33681303284E+00  0.40469875559E+00  0.11022129878E+01  0.17130435516E+03  0.17130000000E+03 0. -1.
      622    1    1    2    0    0 -0.24957672912E+00 -0.39427846616E+00  0.29939293588E+01  0.38654051609E+01  0.24000000000E+01 0.  1.
</event>
<event>
 5   0  0.6825300E-03  0.9118800E+02  0.7818608E-02  0.1180000E+00
       11   -1    0    0    0    0  0.00000000000E+00  0.00000000000E+00  0.39999999673E+01  0.40000000000E+01  0.51109989000E-03 0. -1.
     -623   -1    0    0    0    0  0.00000000000E+00  0.00000000000E+00  0.12525980253E-10  0.17130000000E+03  0.17130000000E+03 0.  1.
       11    1    1    2    0    0  0.45212982655E-02 -0.47399226752E-01  0.37473212927E-02  0.47764343131E-01  0.51109989000E-03 0. -1.
     -623    1    1    2    0    0  0.78574300047E-01  0.27936418110E+00  0.86893805947E+00  0.17130244970E+03  0.17130000000E+03 0.  1.
      622    1    1    2    0    0 -0.83095598312E-01 -0.23196495435E+00  0.31273145866E+01  0.39497859615E+01  0.24000000000E+01 0. -1.
</event>
<event>
 5   0  0.6825300E-03  0.9118800E+02  0.7818608E-02  0.1180000E+00
       11   -1    0    0    0    0  0.00000000000E+00  0.00000000000E+00  0.39999999673E+01  0.40000000000E+01  0.51109989000E-03 0. -1.
     -623   -1    0    0    0    0  0.00000000000E+00  0.00000000000E+00  0.12525980253E-10  0.17130000000E+03  0.17130000000E+03 0. -1.
       11    1    1    2    0    0  0.66230964413E-01 -0.54047201423E+00  0.13077253564E+00  0.55999844296E+00  0.51109989000E-03 0. -1.
     -623    1    1    2    0    0  0.28320076049E-03  0.61766453505E+00  0.14166132762E+01  0.17130697097E+03  0.17130000000E+03 0. -1.
      622    1    1    2    0    0 -0.66514165173E-01 -0.77192520819E-01  0.24526141555E+01  0.34330305876E+01  0.24000000000E+01 0. -1.
</event>
<event>
 5   0  0.6825300E-03  0.9118800E+02  0.7818608E-02  0.1180000E+00
       11   -1    0    0    0    0  0.00000000000E+00  0.00000000000E+00  0.39999999673E+01  0.40000000000E+01  0.51109989000E-03 0. -1.
     -623   -1    0    0    0    0  0.00000000000E+00  0.00000000000E+00  0.12525980253E-10  0.17130000000E+03  0.17130000000E+03 0. -1.
       11    1    1    2    0    0  0.31720516653E-01 -0.72371875384E-01  0.19166400438E+00  0.20731432975E+00  0.51109989000E-03 0. -1.
     -623    1    1    2    0    0 -0.30001301264E+00  0.45204065222E+00  0.91292986298E+00  0.17130329182E+03  0.17130000000E+03 0. -1.
      622    1    1    2    0    0  0.26829249599E+00 -0.37966877684E+00  0.28954061000E+01  0.37893938470E+01  0.24000000000E+01 0. -1.
</event>
<event>
 5   0  0.6825300E-03  0.9118800E+02  0.7818608E-02  0.1180000E+00
       11   -1    0    0    0    0  0.00000000000E+00  0.00000000000E+00  0.39999999673E+01  0.40000000000E+01  0.51109989000E-03 0. -1.
     -623   -1    0    0    0    0  0.00000000000E+00  0.00000000000E+00  0.12525980253E-10  0.17130000000E+03  0.17130000000E+03 0. -1.
       11    1    1    2    0    0 -0.74587769598E-01 -0.93200587888E-01  0.57225502746E+00  0.58457314566E+00  0.51109989000E-03 0. -1.
     -623    1    1    2    0    0 -0.59050364101E+00  0.55441340422E+00  0.11450076434E+01  0.17130574162E+03  0.17130000000E+03 0. -1.
      622    1    1    2    0    0  0.66509141060E+00 -0.46121281633E+00  0.22827372965E+01  0.34096852364E+01  0.24000000000E+01 0. -1.
</event>
<event>
 5   0  0.6825300E-03  0.9118800E+02  0.7818608E-02  0.1180000E+00
       11   -1    0    0    0    0  0.00000000000E+00  0.00000000000E+00  0.39999999673E+01  0.40000000000E+01  0.51109989000E-03 0. -1.
     -623   -1    0    0    0    0  0.00000000000E+00  0.00000000000E+00  0.12525980253E-10  0.17130000000E+03  0.17130000000E+03 0.  1.
       11    1    1    2    0    0  0.64871614497E-01  0.55117238236E-02 -0.91936873058E-01  0.11265591559E+00  0.51109989000E-03 0. -1.
     -623    1    1    2    0    0  0.13885296862E+00  0.56350487539E-01  0.10454947119E+01  0.17130325600E+03  0.17130000000E+03 0.  1.
      622    1    1    2    0    0 -0.20372458312E+00 -0.61862211363E-01  0.30464421285E+01  0.38840880887E+01  0.24000000000E+01 0. -1.
</event>
<event>
 5   0  0.6825300E-03  0.9118800E+02  0.7818608E-02  0.1180000E+00
       11   -1    0    0    0    0  0.00000000000E+00  0.00000000000E+00  0.39999999673E+01  0.40000000000E+01  0.51109989000E-03 0.  1.
     -623   -1    0    0    0    0  0.00000000000E+00  0.00000000000E+00  0.12525980253E-10  0.17130000000E+03  0.17130000000E+03 0. -1.
       11    1    1    2    0    0  0.51093645847E-01 -0.24638198054E-01 -0.40158706809E-03  0.56727629447E-01  0.51109989000E-03 0.  1.
     -623    1    1    2    0    0 -0.12536951516E+00 -0.82288249135E-01  0.87722683465E+00  0.17130231176E+03  0.17130000000E+03 0. -1.
      622    1    1    2    0    0  0.74275869311E-01  0.10692644719E+00  0.31231747198E+01  0.39409606063E+01  0.24000000000E+01 0.  1.
</event>
<event>
 5   0  0.6825300E-03  0.9118800E+02  0.7818608E-02  0.1180000E+00
       11   -1    0    0    0    0  0.00000000000E+00  0.00000000000E+00  0.39999999673E+01  0.40000000000E+01  0.51109989000E-03 0.  1.
     -623   -1    0    0    0    0  0.00000000000E+00  0.00000000000E+00  0.12525980253E-10  0.17130000000E+03  0.17130000000E+03 0. -1.
       11    1    1    2    0    0 -0.16795500743E+00 -0.15810802041E-01  0.20042329287E+00  0.26197065394E+00  0.51109989000E-03 0.  1.
     -623    1    1    2    0    0  0.44840548723E+00 -0.25368301936E+00  0.96488291621E+00  0.17130349215E+03  0.17130000000E+03 0. -1.
      622    1    1    2    0    0 -0.28045047980E+00  0.26949382140E+00  0.28346937583E+01  0.37345371995E+01  0.24000000000E+01 0.  1.
</event>
<event>
 5   0  0.6825300E-03  0.9118800E+02  0.7818608E-02  0.1180000E+00
       11   -1    0    0    0    0  0.00000000000E+00  0.00000000000E+00  0.39999999673E+01  0.40000000000E+01  0.51109989000E-03 0. -1.
     -623   -1    0    0    0    0  0.00000000000E+00  0.00000000000E+00  0.12525980253E-10  0.17130000000E+03  0.17130000000E+03 0.  1.
       11    1    1    2    0    0  0.21399859022E+00  0.23510803868E+00 -0.20607473646E+00  0.37886441466E+00  0.51109989000E-03 0. -1.
     -623    1    1    2    0    0  0.32501338444E-01 -0.58894722629E+00  0.15397569352E+01  0.17130793550E+03  0.17130000000E+03 0.  1.
      622    1    1    2    0    0 -0.24649992867E+00  0.35383918761E+00  0.26663177686E+01  0.36132000815E+01  0.24000000000E+01 0. -1.
</event>
<event>
 5   0  0.6825300E-03  0.9118800E+02  0.7818608E-02  0.1180000E+00
       11   -1    0    0    0    0  0.00000000000E+00  0.00000000000E+00  0.39999999673E+01  0.40000000000E+01  0.51109989000E-03 0.  1.
     -623   -1    0    0    0    0  0.00000000000E+00  0.00000000000E+00  0.12525980253E-10  0.17130000000E+03  0.17130000000E+03 0.  1.
       11    1    1    2    0    0 -0.10683122845E+00  0.25461209366E+00  0.42642086883E+00  0.50801107095E+00  0.51109989000E-03 0.  1.
     -623    1    1    2    0    0  0.36843893887E+00 -0.36897630605E+00  0.10588047519E+01  0.17130406580E+03  0.17130000000E+03 0.  1.
      622    1    1    2    0    0 -0.26160771042E+00  0.11436421238E+00  0.25147743466E+01  0.34879231330E+01  0.24000000000E+01 0.  1.
</event>
<event>
 5   0  0.6825300E-03  0.9118800E+02  0.7818608E-02  0.1180000E+00
       11   -1    0    0    0    0  0.00000000000E+00  0.00000000000E+00  0.39999999673E+01  0.40000000000E+01  0.51109989000E-03 0. -1.
     -623   -1    0    0    0    0  0.00000000000E+00  0.00000000000E+00  0.12525980253E-10  0.17130000000E+03  0.17130000000E+03 0.  1.
       11    1    1    2    0    0  0.52196437533E+00 -0.33573465406E+00  0.14435127498E+00  0.63718295556E+00  0.51109989000E-03 0. -1.
     -623    1    1    2    0    0 -0.12918656689E+00  0.19619017253E+00  0.15476760334E+01  0.17130715245E+03  0.17130000000E+03 0.  1.
      622    1    1    2    0    0 -0.39277780844E+00  0.13954448153E+00  0.23079726590E+01  0.33556645935E+01  0.24000000000E+01 0. -1.
</event>
<event>
 5   0  0.6825300E-03  0.9118800E+02  0.7818608E-02  0.1180000E+00
       11   -1    0    0    0    0  0.00000000000E+00  0.00000000000E+00  0.39999999673E+01  0.40000000000E+01  0.51109989000E-03 0. -1.
     -623   -1    0    0    0    0  0.00000000000E+00  0.00000000000E+00  0.12525980253E-10  0.17130000000E+03  0.17130000000E+03 0. -1.
       11    1    1    2    0    0  0.63402576563E-01  0.27250538189E+00  0.83606800434E-01  0.29200929467E+00  0.51109989000E-03 0. -1.
     -623    1    1    2    0    0 -0.21961723326E-01 -0.10466286203E+00  0.10998550331E+01  0.17130356423E+03  0.17130000000E+03 0. -1.
      622    1    1    2    0    0 -0.41440853237E-01 -0.16784251987E+00  0.28165381338E+01  0.37044264758E+01  0.24000000000E+01 0. -1.
</event>
<event>
 5   0  0.6825300E-03  0.9118800E+02  0.7818608E-02  0.1180000E+00
       11   -1    0    0    0    0  0.00000000000E+00  0.00000000000E+00  0.39999999673E+01  0.40000000000E+01  0.51109989000E-03 0.  1.
     -623   -1    0    0    0    0  0.00000000000E+00  0.00000000000E+00  0.12525980253E-10  0.17130000000E+03  0.17130000000E+03 0.  1.
       11    1    1    2    0    0  0.10732104812E+00  0.22811019476E+00  0.34769053970E+00  0.42946599510E+00  0.51109989000E-03 0.  1.
     -623    1    1    2    0    0  0.52147514577E+00 -0.53736623151E+00  0.11105932714E+01  0.17130523669E+03  0.17130000000E+03 0.  1.
      622    1    1    2    0    0 -0.62879619389E+00  0.30925603675E+00  0.25417161563E+01  0.35652973184E+01  0.24000000000E+01 0.  1.
</event>
<event>
 5   0  0.6825300E-03  0.9118800E+02  0.7818608E-02  0.1180000E+00
       11   -1    0    0    0    0  0.00000000000E+00  0.00000000000E+00  0.39999999673E+01  0.40000000000E+01  0.51109989000E-03 0. -1.
     -623   -1    0    0    0    0  0.00000000000E+00  0.00000000000E+00  0.12525980253E-10  0.17130000000E+03  0.17130000000E+03 0.  1.
       11    1    1    2    0    0  0.43224546355E+00  0.30396208202E+00  0.73079480756E+00  0.90182614735E+00  0.51109989000E-03 0. -1.
     -623    1    1    2    0    0 -0.78444324928E+00  0.20086074421E-01  0.13813389099E+01  0.17130736660E+03  0.17130000000E+03 0.  1.
      622    1    1    2    0    0  0.35219778573E+00 -0.32404815644E+00  0.18878662499E+01  0.30908072514E+01  0.24000000000E+01 0. -1.
</event>
<event>
 5   0  0.6825300E-03  0.9118800E+02  0.7818608E-02  0.1180000E+00
       11   -1    0    0    0    0  0.00000000000E+00  0.00000000000E+00  0.39999999673E+01  0.40000000000E+01  0.51109989000E-03 0.  1.
     -623   -1    0    0    0    0  0.00000000000E+00  0.00000000000E+00  0.12525980253E-10  0.17130000000E+03  0.17130000000E+03 0.  1.
       11    1    1    2    0    0  0.12966140131E-01  0.24419764500E-01 -0.33576867533E-01  0.43498424610E-01  0.51109989000E-03 0.  1.
     -623    1    1    2    0    0 -0.33507742750E+00  0.15594969640E+00  0.91344906186E+00  0.17130283415E+03  0.17130000000E+03 0.  1.
      622    1    1    2    0    0  0.32211128737E+00 -0.18036946090E+00  0.31201277730E+01  0.39536674296E+01  0.24000000000E+01 0.  1.
</event>
<event>
 5   0  0.6825300E-03  0.9118800E+02  0.7818608E-02  0.1180000E+00
       11   -1    0    0    0    0  0.00000000000E+00  0.00000000000E+00  0.39999999673E+01  0.40000000000E+01  0.51109989000E-03 0. -1.
     -623   -1    0    0    0    0  0.00000000000E+00  0.00000000000E+00  0.12525980253E-10  0.17130000000E+03  0.17130000000E+03 0.  1.
       11    1    1    2    0    0 -0.36872246731E-02 -0.11157447623E-01 -0.61167142276E-01  0.62287757843E-01  0.51109989000E-03 0. -1.
     -623    1    1    2    0    0  0.14255497750E+00  0.24748217392E+00  0.95510722737E+00  0.17130290073E+03  0.17130000000E+03 0.  1.
      622    1    1    2    0    0 -0.13886775282E+00 -0.23632472630E+00  0.31060598823E+01  0.39348115103E+01  0.24000000000E+01 0. -1.
</event>
<event>
 5   0  0.6825300E-03  0.9118800E+02  0.7818608E-02  0.1180000E+00
       11   -1    0    0    0    0  0.00000000000E+00  0.00000000000E+00  0.39999999673E+01  0.40000000000E+01  0.51109989000E-03 0. -1.
     -623   -1    0    0    0    0  0.00000000000E+00  0.00000000000E+00  0.12525980253E-10  0.17130000000E+03  0.17130000000E+03 0.  1.
       11    1    1    2    0    0  0.17029477636E+00 -0.19136283234E+00  0.16058080195E-01  0.25666742610E+00  0.51109989000E-03 0. -1.
     -623    1    1    2    0    0  0.24422075337E+00 -0.24134141299E+00  0.11802863840E+01  0.17130441023E+03  0.17130000000E+03 0.  1.
      622    1    1    2    0    0 -0.41451552974E+00  0.43270424533E+00  0.28036555031E+01  0.37389223405E+01  0.24000000000E+01 0. -1.
</event>
<event>
 5   0  0.6825300E-03  0.9118800E+02  0.7818608E-02  0.1180000E+00
       11   -1    0    0    0    0  0.00000000000E+00  0.00000000000E+00  0.39999999673E+01  0.40000000000E+01  0.51109989000E-03 0.  1.
     -623   -1    0    0    0    0  0.00000000000E+00  0.00000000000E+00  0.12525980253E-10  0.17130000000E+03  0.17130000000E+03 0.  1.
       11    1    1    2    0    0  0.44370232584E-01  0.13866131450E-01 -0.32604677606E-01  0.56783037659E-01  0.51109989000E-03 0.  1.
     -623    1    1    2    0    0  0.67728425486E+00 -0.29860628025E+00  0.10075194462E+01  0.17130456204E+03  0.17130000000E+03 0.  1.
      622    1    1    2    0    0 -0.72165448744E+00  0.28474014880E+00  0.30250851988E+01  0.39386549241E+01  0.24000000000E+01 0.  1.
</event>
<event>
 5   0  0.6825300E-03  0.9118800E+02  0.7818608E-02  0.1180000E+00
       11   -1    0    0    0    0  0.00000000000E+00  0.00000000000E+00  0.39999999673E+01  0.40000000000E+01  0.51109989000E-03 0.  1.
     -623   -1    0    0    0    0  0.00000000000E+00  0.00000000000E+00  0.12525980253E-10  0.17130000000E+03  0.17130000000E+03 0. -1.
       11    1    1    2    0    0 -0.72066291143E-01 -0.54111125771E-01  0.47339599130E+00  0.48189790418E+00  0.51109989000E-03 0.  1.
     -623    1    1    2    0    0  0.22889561570E+00  0.22651102482E+00  0.96900340538E+00  0.17130304337E+03  0.17130000000E+03 0. -1.
      622    1    1    2    0    0 -0.15682932456E+00 -0.17239989905E+00  0.25576005707E+01  0.35150587252E+01  0.24000000000E+01 0.  1.
</event>
<event>
 5   0  0.6825300E-03  0.9118800E+02  0.7818608E-02  0.1180000E+00
       11   -1    0    0    0    0  0.00000000000E+00  0.00000000000E+00  0.39999999673E+01  0.40000000000E+01  0.51109989000E-03 0.  1.
     -623   -1    0    0    0    0  0.00000000000E+00  0.00000000000E+00  0.12525980253E-10  0.17130000000E+03  0.17130000000E+03 0. -1.
       11    1    1    2    0    0 -0.17979281905E+00  0.29969278588E+00  0.56646688978E+00  0.66560215004E+00  0.51109989000E-03 0.  1.
     -623    1    1    2    0    0  0.65614041156E+00 -0.74267640541E+00  0.12229009988E+01  0.17130723153E+03  0.17130000000E+03 0. -1.
      622    1    1    2    0    0 -0.47634759251E+00  0.44298361953E+00  0.22106320788E+01  0.33271663174E+01  0.24000000000E+01 0.  1.
</event>
<event>
 5   0  0.6825300E-03  0.9118800E+02  0.7818608E-02  0.1180000E+00
       11   -1    0    0    0    0  0.00000000000E+00  0.00000000000E+00  0.39999999673E+01  0.40000000000E+01  0.51109989000E-03 0.  1.
     -623   -1    0    0    0    0  0.00000000000E+00  0.00000000000E+00  0.12525980253E-10  0.17130000000E+03  0.17130000000E+03 0.  1.
       11    1    1    2    0    0  0.48784270956E-01 -0.44031266825E-01  0.74692924524E-01  0.99488450319E-01  0.51109989000E-03 0.  1.
     -623    1    1    2    0    0 -0.28872193260E-01  0.99027327527E-01  0.85386921967E+00  0.17130215916E+03  0.17130000000E+03 0.  1.
      622    1    1    2    0    0 -0.19912077696E-01 -0.54996060701E-01  0.30714378232E+01  0.38983523903E+01  0.24000000000E+01 0.  1.
</event>
<event>
 5   0  0.6825300E-03  0.9118800E+02  0.7818608E-02  0.1180000E+00
       11   -1    0    0    0    0  0.00000000000E+00  0.00000000000E+00  0.39999999673E+01  0.40000000000E+01  0.51109989000E-03 0. -1.
     -623   -1    0    0    0    0  0.00000000000E+00  0.00000000000E+00  0.12525980253E-10  0.17130000000E+03  0.17130000000E+03 0. -1.
       11    1    1    2    0    0  0.42996698725E-01 -0.33413998556E-01 -0.54795043290E-01  0.77252633552E-01  0.51109989000E-03 0. -1.
     -623    1    1    2    0    0 -0.77875168793E-01  0.17899774467E+00  0.95905468015E+00  0.17130279592E+03  0.17130000000E+03 0. -1.
      622    1    1    2    0    0  0.34878470068E-01 -0.14558374612E+00  0.30957403305E+01  0.39199514447E+01  0.24000000000E+01 0. -1.
</event>
<event>
 5   0  0.6825300E-03  0.9118800E+02  0.7818608E-02  0.1180000E+00
       11   -1    0    0    0    0  0.00000000000E+00  0.00000000000E+00  0.39999999673E+01  0.40000000000E+01  0.51109989000E-03 0.  1.
     -623   -1    0    0    0    0  0.00000000000E+00  0.00000000000E+00  0.12525980253E-10  0.17130000000E+03  0.17130000000E+03 0. -1.
       11    1    1    2    0    0 -0.11327521465E+00 -0.24141910457E-01  0.77631279367E+00  0.78490503944E+00  0.51109989000E-03 0.  1.
     -623    1    1    2    0    0  0.17940241215E+00  0.30795589832E+00  0.11102996335E+01  0.17130396898E+03  0.17130000000E+03 0. -1.
      622    1    1    2    0    0 -0.66127197503E-01 -0.28381398787E+00  0.21133875402E+01  0.32111259834E+01  0.24000000000E+01 0.  1.
</event>
<event>
 5   0  0.6825300E-03  0.9118800E+02  0.7818608E-02  0.1180000E+00
       11   -1    0    0    0    0  0.00000000000E+00  0.00000000000E+00  0.39999999673E+01  0.40000000000E+01  0.51109989000E-03 0.  1.
     -623   -1    0    0    0    0  0.00000000000E+00  0.00000000000E+00  0.12525980253E-10  0.17130000000E+03  0.17130000000E+03 0. -1.
       11    1    1    2    0    0 -0.66612894929E-01 -0.23576123441E-01 -0.52797686974E-01  0.88209797302E-01  0.51109989000E-03 0.  1.
     -623    1    1    2    0    0 -0.43161089847E-01  0.15236236629E+00  0.97199792064E+00  0.17130283085E+03  0.17130000000E+03 0. -1.
      622    1    1    2    0    0  0.10977398478E+00 -0.12878624285E+00  0.30807997337E+01  0.39089593530E+01  0.24000000000E+01 0.  1.
</event>
<event>
 5   0  0.6825300E-03  0.9118800E+02  0.7818608E-02  0.1180000E+00
       11   -1    0    0    0    0  0.00000000000E+00  0.00000000000E+00  0.39999999673E+01  0.40000000000E+01  0.51109989000E-03 0. -1.
     -623   -1    0    0    0    0  0.00000000000E+00  0.00000000000E+00  0.12525980253E-10  0.17130000000E+03  0.17130000000E+03 0. -1.
       11    1    1    2    0    0 -0.47964333387E-01 -0.41546992744E+00  0.48463154790E+00  0.64014360602E+00  0.51109989000E-03 0. -1.
     -623    1    1    2    0    0  0.22221582740E+00  0.34708431920E-01  0.12080549792E+01  0.17130440736E+03  0.17130000000E+03 0. -1.
      622    1    1    2    0    0 -0.17425149401E+00  0.38076149552E+00  0.23073134403E+01  0.33554490327E+01  0.24000000000E+01 0. -1.
</event>
<event>
 5   0  0.6825300E-03  0.9118800E+02  0.7818608E-02  0.1180000E+00
       11   -1    0    0    0    0  0.00000000000E+00  0.00000000000E+00  0.39999999673E+01  0.40000000000E+01  0.51109989000E-03 0.  1.
     -623   -1    0    0    0    0  0.00000000000E+00  0.00000000000E+00  0.12525980253E-10  0.17130000000E+03  0.17130000000E+03 0. -1.
       11    1    1    2    0    0  0.48042312084E+00 -0.40960214245E+00  0.43868649665E+00  0.76878240985E+00  0.51109989000E-03 0.  1.
     -623    1    1    2    0    0 -0.10787394768E+01  0.39347306164E+00  0.14984489182E+01  0.17131040205E+03  0.17130000000E+03 0. -1.
      622    1    1    2    0    0  0.59831635595E+00  0.16129080805E-01  0.20628645525E+01  0.32208155444E+01  0.24000000000E+01 0.  1.
</event>
<event>
 5   0  0.6825300E-03  0.9118800E+02  0.7818608E-02  0.1180000E+00
       11   -1    0    0    0    0  0.00000000000E+00  0.00000000000E+00  0.39999999673E+01  0.40000000000E+01  0.51109989000E-03 0.  1.
     -623   -1    0    0    0    0  0.00000000000E+00  0.00000000000E+00  0.12525980253E-10  0.17130000000E+03  0.17130000000E+03 0.  1.
       11    1    1    2    0    0  0.20760909555E+00  0.15877284573E-01  0.23086596663E+00  0.31089062464E+00  0.51109989000E-03 0.  1.
     -623    1    1    2    0    0 -0.26007726434E+00 -0.11290808136E+00  0.97356146425E+00  0.17130300117E+03  0.17130000000E+03 0.  1.
      622    1    1    2    0    0  0.52468168789E-01  0.97030796791E-01  0.27955725365E+01  0.36861082039E+01  0.24000000000E+01 0.  1.
</event>
<event>
 5   0  0.6825300E-03  0.9118800E+02  0.7818608E-02  0.1180000E+00
       11   -1    0    0    0    0  0.00000000000E+00  0.00000000000E+00  0.39999999673E+01  0.40000000000E+01  0.51109989000E-03 0.  1.
     -623   -1    0    0    0    0  0.00000000000E+00  0.00000000000E+00  0.12525980253E-10  0.17130000000E+03  0.17130000000E+03 0. -1.
       11    1    1    2    0    0  0.12484454728E+00  0.24196978176E-01  0.14665264059E+00  0.19411056888E+00  0.51109989000E-03 0.  1.
     -623    1    1    2    0    0 -0.16121948819E+00 -0.29810626125E+00  0.91612860159E+00  0.17130278501E+03  0.17130000000E+03 0. -1.
      622    1    1    2    0    0  0.36374940913E-01  0.27390928308E+00  0.29372187252E+01  0.38031044255E+01  0.24000000000E+01 0.  1.
</event>
<event>
 5   0  0.6825300E-03  0.9118800E+02  0.7818608E-02  0.1180000E+00
       11   -1    0    0    0    0  0.00000000000E+00  0.00000000000E+00  0.39999999673E+01  0.40000000000E+01  0.51109989000E-03 0. -1.
     -623   -1    0    0    0    0  0.00000000000E+00  0.00000000000E+00  0.12525980253E-10  0.17130000000E+03  0.17130000000E+03 0.  1.
       11    1    1    2    0    0  0.49567108314E-01 -0.26034277193E-01  0.22098652197E-01  0.60193799233E-01  0.51109989000E-03 0. -1.
     -623    1    1    2    0    0 -0.20204693307E+00  0.81891942345E-01  0.86059784296E+00  0.17130230050E+03  0.17130000000E+03 0.  1.
      622    1    1    2    0    0  0.15247982475E+00 -0.55857665152E-01  0.31173034722E+01  0.39375056969E+01  0.24000000000E+01 0. -1.
</event>
<event>
 5   0  0.6825300E-03  0.9118800E+02  0.7818608E-02  0.1180000E+00
       11   -1    0    0    0    0  0.00000000000E+00  0.00000000000E+00  0.39999999673E+01  0.40000000000E+01  0.51109989000E-03 0.  1.
     -623   -1    0    0    0    0  0.00000000000E+00  0.00000000000E+00  0.12525980253E-10  0.17130000000E+03  0.17130000000E+03 0.  1.
       11    1    1    2    0    0 -0.13705498634E-01 -0.77548640502E-01  0.25575054291E+00  0.26760088519E+00  0.51109989000E-03 0.  1.
     -623    1    1    2    0    0  0.30373191944E+00  0.31910955691E+00  0.91478247388E+00  0.17130300905E+03  0.17130000000E+03 0.  1.
      622    1    1    2    0    0 -0.29002642081E+00 -0.24156091641E+00  0.28294669506E+01  0.37293900608E+01  0.24000000000E+01 0.  1.
</event>
<event>
 5   0  0.6825300E-03  0.9118800E+02  0.7818608E-02  0.1180000E+00
       11   -1    0    0    0    0  0.00000000000E+00  0.00000000000E+00  0.39999999673E+01  0.40000000000E+01  0.51109989000E-03 0.  1.
     -623   -1    0    0    0    0  0.00000000000E+00  0.00000000000E+00  0.12525980253E-10  0.17130000000E+03  0.17130000000E+03 0. -1.
       11    1    1    2    0    0  0.70745297012E-01  0.24037546667E+00  0.65512430166E-01  0.25899305348E+00  0.51109989000E-03 0.  1.
     -623    1    1    2    0    0 -0.13891333353E+00 -0.83340147717E+00  0.11353626881E+01  0.17130584609E+03  0.17130000000E+03 0. -1.
      622    1    1    2    0    0  0.68168036517E-01  0.59302601050E+00  0.27991248491E+01  0.37351608601E+01  0.24000000000E+01 0.  1.
</event>
<event>
 5   0  0.6825300E-03  0.9118800E+02  0.7818608E-02  0.1180000E+00
       11   -1    0    0    0    0  0.00000000000E+00  0.00000000000E+00  0.39999999673E+01  0.40000000000E+01  0.51109989000E-03 0.  1.
     -623   -1    0    0    0    0  0.00000000000E+00  0.00000000000E+00  0.12525980253E-10  0.17130000000E+03  0.17130000000E+03 0.  1.
       11    1    1    2    0    0  0.37092179697E-01  0.27621395472E-01  0.21201066408E+00  0.21699666861E+00  0.51109989000E-03 0.  1.
     -623    1    1    2    0    0 -0.17693941750E+00 -0.28269712282E+00  0.88163793773E+00  0.17130259341E+03  0.17130000000E+03 0.  1.
      622    1    1    2    0    0  0.13984723780E+00  0.25507572734E+00  0.29063513655E+01  0.37804099165E+01  0.24000000000E+01 0.  1.
</event>
<event>
 5   0  0.6825300E-03  0.9118800E+02  0.7818608E-02  0.1180000E+00
       11   -1    0    0    0    0  0.00000000000E+00  0.00000000000E+00  0.39999999673E+01  0.40000000000E+01  0.51109989000E-03 0.  1.
     -623   -1    0    0    0    0  0.00000000000E+00  0.00000000000E+00  0.12525980253E-10  0.17130000000E+03  0.17130000000E+03 0. -1.
       11    1    1    2    0    0  0.59171384687E-01 -0.64521686765E-01 -0.72619044942E-02  0.87848149148E-01  0.51109989000E-03 0.  1.
     -623    1    1    2    0    0  0.63658747467E+00 -0.34436220762E+00  0.10311162070E+01  0.17130463225E+03  0.17130000000E+03 0. -1.
      622    1    1    2    0    0 -0.69575885936E+00  0.40888389439E+00  0.29761456648E+01  0.39075196030E+01  0.24000000000E+01 0.  1.
</event>
<event>
 5   0  0.6825300E-03  0.9118800E+02  0.7818608E-02  0.1180000E+00
       11   -1    0    0    0    0  0.00000000000E+00  0.00000000000E+00  0.39999999673E+01  0.40000000000E+01  0.51109989000E-03 0. -1.
     -623   -1    0    0    0    0  0.00000000000E+00  0.00000000000E+00  0.12525980253E-10  0.17130000000E+03  0.17130000000E+03 0.  1.
       11    1    1    2    0    0 -0.24676606086E+00 -0.18875273956E+00  0.46986808004E-01  0.31421188207E+00  0.51109989000E-03 0. -1.
     -623    1    1    2    0    0  0.14487505952E+00 -0.33644865913E+00  0.12136227745E+01  0.17130469073E+03  0.17130000000E+03 0.  1.
      622    1    1    2    0    0  0.10189100134E+00  0.52520139869E+00  0.27393903849E+01  0.36810973861E+01  0.24000000000E+01 0. -1.
</event>
<event>
 5   0  0.6825300E-03  0.9118800E+02  0.7818608E-02  0.1180000E+00
       11   -1    0    0    0    0  0.00000000000E+00  0.00000000000E+00  0.39999999673E+01  0.40000000000E+01  0.51109989000E-03 0. -1.
     -623   -1    0    0    0    0  0.00000000000E+00  0.00000000000E+00  0.12525980253E-10  0.17130000000E+03  0.17130000000E+03 0. -1.
       11    1    1    2    0    0  0.78481616089E-01 -0.55751335722E-01  0.37574516103E+00  0.38788176389E+00  0.51109989000E-03 0. -1.
     -623    1    1    2    0    0 -0.12395126917E+00 -0.28493269480E-02  0.92919020055E+00  0.17130256497E+03  0.17130000000E+03 0. -1.
      622    1    1    2    0    0  0.45469653077E-01  0.58600662670E-01  0.26950646058E+01  0.36095532627E+01  0.24000000000E+01 0. -1.
</event>
<event>
 5   0  0.6825300E-03  0.9118800E+02  0.7818608E-02  0.1180000E+00
       11   -1    0    0    0    0  0.00000000000E+00  0.00000000000E+00  0.39999999673E+01  0.40000000000E+01  0.51109989000E-03 0. -1.
     -623   -1    0    0    0    0  0.00000000000E+00  0.00000000000E+00  0.12525980253E-10  0.17130000000E+03  0.17130000000E+03 0.  1.
       11    1    1    2    0    0  0.35712417940E-01 -0.93365059424E-01  0.78900774375E-01  0.12734992946E+00  0.51109989000E-03 0. -1.
     -623    1    1    2    0    0  0.51358601825E-01  0.10404831833E+00  0.88602480758E+00  0.17130233070E+03  0.17130000000E+03 0.  1.
      622    1    1    2    0    0 -0.87071019765E-01 -0.10683258904E-01  0.30350743854E+01  0.38703193692E+01  0.24000000000E+01 0. -1.
</event>
<event>
 5   0  0.6825300E-03  0.9118800E+02  0.7818608E-02  0.1180000E+00
       11   -1    0    0    0    0  0.00000000000E+00  0.00000000000E+00  0.39999999673E+01  0.40000000000E+01  0.51109989000E-03 0.  1.
     -623   -1    0    0    0    0  0.00000000000E+00  0.00000000000E+00  0.12525980253E-10  0.17130000000E+03  0.17130000000E+03 0.  1.
       11    1    1    2    0    0  0.55700323581E-02  0.21441598794E+00  0.28581117925E+00  0.35734231844E+00  0.51109989000E-03 0.  1.
     -623    1    1    2    0    0  0.36366361956E+00  0.11967990082E+00  0.10242841659E+01  0.17130349014E+03  0.17130000000E+03 0.  1.
      622    1    1    2    0    0 -0.36923365192E+00 -0.33409588876E+00  0.26899046222E+01  0.36391675462E+01  0.24000000000E+01 0.  1.
</event>
<event>
 5   0  0.6825300E-03  0.9118800E+02  0.7818608E-02  0.1180000E+00
       11   -1    0    0    0    0  0.00000000000E+00  0.00000000000E+00  0.39999999673E+01  0.40000000000E+01  0.51109989000E-03 0.  1.
     -623   -1    0    0    0    0  0.00000000000E+00  0.00000000000E+00  0.12525980253E-10  0.17130000000E+03  0.17130000000E+03 0. -1.
       11    1    1    2    0    0 -0.17959149526E+00  0.30799653455E+00 -0.20938029404E+00  0.41346745848E+00  0.51109989000E-03 0.  1.
     -623    1    1    2    0    0  0.54255496430E+00 -0.52826365153E-01  0.15926839522E+01  0.17130827125E+03  0.17130000000E+03 0. -1.
      622    1    1    2    0    0 -0.36296346904E+00 -0.25517016940E+00  0.26166963092E+01  0.35782612915E+01  0.24000000000E+01 0.  1.
</event>
<event>
 5   0  0.6825300E-03  0.9118800E+02  0.7818608E-02  0.1180000E+00
       11   -1    0    0    0    0  0.00000000000E+00  0.00000000000E+00  0.39999999673E+01  0.40000000000E+01  0.51109989000E-03 0. -1.
     -623   -1    0    0    0    0  0.00000000000E+00  0.00000000000E+00  0.12525980253E-10  0.17130000000E+03  0.17130000000E+03 0.  1.
       11    1    1    2    0    0  0.26566561328E+00  0.18702199916E+00  0.26560597851E+00  0.41964537801E+00  0.51109989000E-03 0. -1.
     -623    1    1    2    0    0  0.44710052963E-01  0.10586891951E+00  0.11170521348E+01  0.17130368067E+03  0.17130000000E+03 0.  1.
      622    1    1    2    0    0 -0.31037566624E+00 -0.29289091867E+00  0.26173418541E+01  0.35766739473E+01  0.24000000000E+01 0. -1.
</event>
<event>
 5   0  0.6825300E-03  0.9118800E+02  0.7818608E-02  0.1180000E+00
       11   -1    0    0    0    0  0.00000000000E+00  0.00000000000E+00  0.39999999673E+01  0.40000000000E+01  0.51109989000E-03 0. -1.
     -623   -1    0    0    0    0  0.00000000000E+00  0.00000000000E+00  0.12525980253E-10  0.17130000000E+03  0.17130000000E+03 0.  1.
       11    1    1    2    0    0 -0.44793221519E-01  0.11899342025E+00 -0.65648520950E-01  0.14309387227E+00  0.51109989000E-03 0. -1.
     -623    1    1    2    0    0  0.43457477428E+00 -0.11599777528E+00  0.10768125990E+01  0.17130397496E+03  0.17130000000E+03 0.  1.
      622    1    1    2    0    0 -0.38978155276E+00 -0.29956449697E-02  0.29888358893E+01  0.38529311707E+01  0.24000000000E+01 0. -1.
</event>
<event>
 5   0  0.6825300E-03  0.9118800E+02  0.7818608E-02  0.1180000E+00
       11   -1    0    0    0    0  0.00000000000E+00  0.00000000000E+00  0.39999999673E+01  0.40000000000E+01  0.51109989000E-03 0. -1.
     -623   -1    0    0    0    0  0.00000000000E+00  0.00000000000E+00  0.12525980253E-10  0.17130000000E+03  0.17130000000E+03 0.  1.
       11    1    1    2    0    0  0.49510218044E+00  0.65469290684E-02  0.63776545013E-01  0.49923615681E+00  0.51109989000E-03 0. -1.
     -623    1    1    2    0    0 -0.79187001524E-01  0.24006633276E+00  0.14426831831E+01  0.17130626152E+03  0.17130000000E+03 0.  1.
      622    1    1    2    0    0 -0.41591517891E+00 -0.24661326183E+00  0.24935402392E+01  0.34945023196E+01  0.24000000000E+01 0. -1.
</event>
<event>
 5   0  0.6825300E-03  0.9118800E+02  0.7818608E-02  0.1180000E+00
       11   -1    0    0    0    0  0.00000000000E+00  0.00000000000E+00  0.39999999673E+01  0.40000000000E+01  0.51109989000E-03 0. -1.
     -623   -1    0    0    0    0  0.00000000000E+00  0.00000000000E+00  0.12525980253E-10  0.17130000000E+03  0.17130000000E+03 0. -1.
       11    1    1    2    0    0  0.30698092249E-01 -0.51084438280E-01 -0.69986337816E-01  0.91925738540E-01  0.51109989000E-03 0. -1.
     -623    1    1    2    0    0 -0.10100951208E-01  0.16094241228E+00  0.99142456140E+00  0.17130294489E+03  0.17130000000E+03 0. -1.
      622    1    1    2    0    0 -0.20597141042E-01 -0.10985797400E+00  0.30785617438E+01  0.39051293739E+01  0.24000000000E+01 0. -1.
</event>
<event>
 5   0  0.6825300E-03  0.9118800E+02  0.7818608E-02  0.1180000E+00
       11   -1    0    0    0    0  0.00000000000E+00  0.00000000000E+00  0.39999999673E+01  0.40000000000E+01  0.51109989000E-03 0. -1.
     -623   -1    0    0    0    0  0.00000000000E+00  0.00000000000E+00  0.12525980253E-10  0.17130000000E+03  0.17130000000E+03 0. -1.
       11    1    1    2    0    0 -0.42525576499E+00 -0.20676684202E+00  0.45611099136E-01  0.47505328775E+00  0.51109989000E-03 0. -1.
     -623    1    1    2    0    0  0.69947572318E-02  0.34425484294E+00  0.14191251052E+01  0.17130622428E+03  0.17130000000E+03 0. -1.
      622    1    1    2    0    0  0.41826100775E+00 -0.13748800092E+00  0.25352637631E+01  0.35187224342E+01  0.24000000000E+01 0. -1.
</event>
<event>
 5   0  0.6825300E-03  0.9118800E+02  0.7818608E-02  0.1180000E+00
       11   -1    0    0    0    0  0.00000000000E+00  0.00000000000E+00  0.39999999673E+01  0.40000000000E+01  0.51109989000E-03 0.  1.
     -623   -1    0    0    0    0  0.00000000000E+00  0.00000000000E+00  0.12525980253E-10  0.17130000000E+03  0.17130000000E+03 0. -1.
       11    1    1    2    0    0 -0.11006467579E+00  0.12731079406E+00  0.17561273253E+00  0.24323314780E+00  0.51109989000E-03 0.  1.
     -623    1    1    2    0    0 -0.66926872093E-01  0.77650607374E-01  0.95037777113E+00  0.17130266702E+03  0.17130000000E+03 0. -1.
      622    1    1    2    0    0  0.17699154788E+00 -0.20496140143E+00  0.28740094637E+01  0.37540998364E+01  0.24000000000E+01 0.  1.
</event>
<event>
 5   0  0.6825300E-03  0.9118800E+02  0.7818608E-02  0.1180000E+00
       11   -1    0    0    0    0  0.00000000000E+00  0.00000000000E+00  0.39999999673E+01  0.40000000000E+01  0.51109989000E-03 0.  1.
     -623   -1    0    0    0    0  0.00000000000E+00  0.00000000000E+00  0.12525980253E-10  0.17130000000E+03  0.17130000000E+03 0.  1.
       11    1    1    2    0    0  0.18400241793E+00 -0.22056847423E+00  0.77479297525E+00  0.82632424468E+00  0.51109989000E-03 0.  1.
     -623    1    1    2    0    0 -0.34660334723E+00 -0.63235650220E+00  0.13503933927E+01  0.17130684041E+03  0.17130000000E+03 0.  1.
      622    1    1    2    0    0  0.16260092930E+00  0.85292497643E+00  0.18748135994E+01  0.31668353462E+01  0.24000000000E+01 0.  1.
</event>
<event>
 5   0  0.6825300E-03  0.9118800E+02  0.7818608E-02  0.1180000E+00
       11   -1    0    0    0    0  0.00000000000E+00  0.00000000000E+00  0.39999999673E+01  0.40000000000E+01  0.51109989000E-03 0.  1.
     -623   -1    0    0    0    0  0.00000000000E+00  0.00000000000E+00  0.12525980253E-10  0.17130000000E+03  0.17130000000E+03 0. -1.
       11    1    1    2    0    0  0.15269162045E+00  0.62496960906E-01  0.14818385364E+00  0.22176410165E+00  0.51109989000E-03 0.  1.
     -623    1    1    2    0    0  0.22589079226E+00  0.28409090351E+00  0.98347331315E+00  0.17130320766E+03  0.17130000000E+03 0. -1.
      622    1    1    2    0    0 -0.37858241271E+00 -0.34658786441E+00  0.28683428006E+01  0.37750282400E+01  0.24000000000E+01 0.  1.
</event>
<event>
 5   0  0.6825300E-03  0.9118800E+02  0.7818608E-02  0.1180000E+00
       11   -1    0    0    0    0  0.00000000000E+00  0.00000000000E+00  0.39999999673E+01  0.40000000000E+01  0.51109989000E-03 0. -1.
     -623   -1    0    0    0    0  0.00000000000E+00  0.00000000000E+00  0.12525980253E-10  0.17130000000E+03  0.17130000000E+03 0.  1.
       11    1    1    2    0    0  0.51175529370E+00  0.33174237772E+00 -0.20729342509E+00  0.64414075412E+00  0.51109989000E-03 0. -1.
     -623    1    1    2    0    0  0.38903808381E+00 -0.10397603461E+00  0.20739349314E+01  0.17131302743E+03  0.17130000000E+03 0.  1.
      622    1    1    2    0    0 -0.90079337751E+00 -0.22776634311E+00  0.21333584610E+01  0.33428318144E+01  0.24000000000E+01 0. -1.
</event>
<event>
 5   0  0.6825300E-03  0.9118800E+02  0.7818608E-02  0.1180000E+00
       11   -1    0    0    0    0  0.00000000000E+00  0.00000000000E+00  0.39999999673E+01  0.40000000000E+01  0.51109989000E-03 0.  1.
     -623   -1    0    0    0    0  0.00000000000E+00  0.00000000000E+00  0.12525980253E-10  0.17130000000E+03  0.17130000000E+03 0.  1.
       11    1    1    2    0    0 -0.12180584097E+00  0.34458308668E-02 -0.25051546305E-01  0.12440409093E+00  0.51109989000E-03 0.  1.
     -623    1    1    2    0    0 -0.17473256528E+00 -0.13115700132E+00  0.10031046425E+01  0.17130307631E+03  0.17130000000E+03 0.  1.
      622    1    1    2    0    0  0.29653840625E+00  0.12771117045E+00  0.30219468711E+01  0.38725196012E+01  0.24000000000E+01 0.  1.
</event>
<event>
 5   0  0.6825300E-03  0.9118800E+02  0.7818608E-02  0.1180000E+00
       11   -1    0    0    0    0  0.00000000000E+00  0.00000000000E+00  0.39999999673E+01  0.40000000000E+01  0.51109989000E-03 0. -1.
     -623   -1    0    0    0    0  0.00000000000E+00  0.00000000000E+00  0.12525980253E-10  0.17130000000E+03  0.17130000000E+03 0. -1.
       11    1    1    2    0    0  0.37717900555E+00  0.43837125294E+00  0.62074586865E+00  0.84838614575E+00  0.51109989000E-03 0. -1.
     -623    1    1    2    0    0 -0.75637584734E-01 -0.30265138007E+00  0.13725387150E+01  0.17130578269E+03  0.17130000000E+03 0. -1.
      622    1    1    2    0    0 -0.30154142082E+00 -0.13571987287E+00  0.20067153837E+01  0.31458311689E+01  0.24000000000E+01 0. -1.
</event>
<event>
 5   0  0.6825300E-03  0.9118800E+02  0.7818608E-02  0.1180000E+00
       11   -1    0    0    0    0  0.00000000000E+00  0.00000000000E+00  0.39999999673E+01  0.40000000000E+01  0.51109989000E-03 0.  1.
     -623   -1    0    0    0    0  0.00000000000E+00  0.00000000000E+00  0.12525980253E-10  0.17130000000E+03  0.17130000000E+03 0.  1.
       11    1    1    2    0    0  0.30886799190E+00  0.38587976567E+00  0.46598021361E+00  0.67929408261E+00  0.51109989000E-03 0.  1.
     -623    1    1    2    0    0 -0.64362694447E-01 -0.79264036674E+00  0.12986349236E+01  0.17130676833E+03  0.17130000000E+03 0.  1.
      622    1    1    2    0    0 -0.24450529746E+00  0.40676060107E+00  0.22353848301E+01  0.33139375923E+01  0.24000000000E+01 0.  0.
</event>
<event>
 5   0  0.6825300E-03  0.9118800E+02  0.7818608E-02  0.1180000E+00
       11   -1    0    0    0    0  0.00000000000E+00  0.00000000000E+00  0.39999999673E+01  0.40000000000E+01  0.51109989000E-03 0. -1.
     -623   -1    0    0    0    0  0.00000000000E+00  0.00000000000E+00  0.12525980253E-10  0.17130000000E+03  0.17130000000E+03 0.  1.
       11    1    1    2    0    0  0.14790125461E+00 -0.20576036981E+00  0.11485027518E+00  0.27821387067E+00  0.51109989000E-03 0. -1.
     -623    1    1    2    0    0 -0.50308408271E+00 -0.79555436446E-01  0.10828222977E+01  0.17130417954E+03  0.17130000000E+03 0.  1.
      622    1    1    2    0    0  0.35518282810E+00  0.28531580626E+00  0.28023273945E+01  0.37176065925E+01  0.24000000000E+01 0. -1.
</event>
<event>
 5   0  0.6825300E-03  0.9118800E+02  0.7818608E-02  0.1180000E+00
       11   -1    0    0    0    0  0.00000000000E+00  0.00000000000E+00  0.39999999673E+01  0.40000000000E+01  0.51109989000E-03 0. -1.
     -623   -1    0    0    0    0  0.00000000000E+00  0.00000000000E+00  0.12525980253E-10  0.17130000000E+03  0.17130000000E+03 0.  1.
       11    1    1    2    0    0  0.17772494261E+00 -0.19737258917E-01  0.84157212763E+00  0.86036016984E+00  0.51109989000E-03 0. -1.
     -623    1    1    2    0    0 -0.75916869371E+00 -0.10931882391E-01  0.12296772479E+01  0.17130609611E+03  0.17130000000E+03 0.  1.
      622    1    1    2    0    0  0.58144375109E+00  0.30669141309E-01  0.19287505918E+01  0.31335437251E+01  0.24000000000E+01 0. -1.
</event>
<event>
 5   0  0.6825300E-03  0.9118800E+02  0.7818608E-02  0.1180000E+00
       11   -1    0    0    0    0  0.00000000000E+00  0.00000000000E+00  0.39999999673E+01  0.40000000000E+01  0.51109989000E-03 0.  1.
     -623   -1    0    0    0    0  0.00000000000E+00  0.00000000000E+00  0.12525980253E-10  0.17130000000E+03  0.17130000000E+03 0. -1.
       11    1    1    2    0    0 -0.45882332510E-01  0.55853066328E-01 -0.10724616472E-01  0.73075523089E-01  0.51109989000E-03 0.  1.
     -623    1    1    2    0    0  0.68988195310E-01 -0.30712710235E+00  0.91628557251E+00  0.17130273981E+03  0.17130000000E+03 0. -1.
      622    1    1    2    0    0 -0.23105862800E-01  0.25127403602E+00  0.30944390113E+01  0.39241846691E+01  0.24000000000E+01 0.  1.
</event>
<event>
 5   0  0.6825300E-03  0.9118800E+02  0.7818608E-02  0.1180000E+00
       11   -1    0    0    0    0  0.00000000000E+00  0.00000000000E+00  0.39999999673E+01  0.40000000000E+01  0.51109989000E-03 0. -1.
     -623   -1    0    0    0    0  0.00000000000E+00  0.00000000000E+00  0.12525980253E-10  0.17130000000E+03  0.17130000000E+03 0.  1.
       11    1    1    2    0    0 -0.27782627099E-01  0.45367955187E-01 -0.12806355522E-01  0.54721016895E-01  0.51109989000E-03 0. -1.
     -623    1    1    2    0    0  0.49416349988E+00 -0.32326840862E+00  0.93345570520E+00  0.17130356108E+03  0.17130000000E+03 0.  1.
      622    1    1    2    0    0 -0.46638087278E+00  0.27790045343E+00  0.30793506177E+01  0.39417179005E+01  0.24000000000E+01 0. -1.
</event>
<event>
 5   0  0.6825300E-03  0.9118800E+02  0.7818608E-02  0.1180000E+00
       11   -1    0    0    0    0  0.00000000000E+00  0.00000000000E+00  0.39999999673E+01  0.40000000000E+01  0.51109989000E-03 0. -1.
     -623   -1    0    0    0    0  0.00000000000E+00  0.00000000000E+00  0.12525980253E-10  0.17130000000E+03  0.17130000000E+03 0. -1.
       11    1    1    2    0    0  0.14292060449E+00  0.16607001530E-01 -0.17087447217E+00  0.22338405975E+00  0.51109989000E-03 0. -1.
     -623    1    1    2    0    0 -0.27382932368E-01 -0.13677246717E+00  0.12658258508E+01  0.17130473365E+03  0.17130000000E+03 0. -1.
      622    1    1    2    0    0 -0.11553767212E+00  0.12016546564E+00  0.29050485887E+01  0.37718822881E+01  0.24000000000E+01 0. -1.
</event>
<event>
 5   0  0.6825300E-03  0.9118800E+02  0.7818608E-02  0.1180000E+00
       11   -1    0    0    0    0  0.00000000000E+00  0.00000000000E+00  0.39999999673E+01  0.40000000000E+01  0.51109989000E-03 0.  1.
     -623   -1    0    0    0    0  0.00000000000E+00  0.00000000000E+00  0.12525980253E-10  0.17130000000E+03  0.17130000000E+03 0.  1.
       11    1    1    2    0    0  0.75032727971E-01 -0.31415832555E-01  0.42039251227E+00  0.42819036700E+00  0.51109989000E-03 0.  1.
     -623    1    1    2    0    0  0.14818030012E+00  0.68785394535E+00  0.10331332300E+01  0.17130456055E+03  0.17130000000E+03 0.  1.
      622    1    1    2    0    0 -0.22321302809E+00 -0.65643811279E+00  0.25464742250E+01  0.35672490845E+01  0.24000000000E+01 0.  0.
</event>
<event>
 5   0  0.6825300E-03  0.9118800E+02  0.7818608E-02  0.1180000E+00
       11   -1    0    0    0    0  0.00000000000E+00  0.00000000000E+00  0.39999999673E+01  0.40000000000E+01  0.51109989000E-03 0.  1.
     -623   -1    0    0    0    0  0.00000000000E+00  0.00000000000E+00  0.12525980253E-10  0.17130000000E+03  0.17130000000E+03 0.  1.
       11    1    1    2    0    0  0.36954125681E-01  0.53525190809E-01 -0.43659488418E-01  0.78338787379E-01  0.51109989000E-03 0.  1.
     -623    1    1    2    0    0  0.17138876665E+00  0.21558737253E+00  0.96460619048E+00  0.17130293727E+03  0.17130000000E+03 0.  1.
      622    1    1    2    0    0 -0.20834289233E+00 -0.26911256334E+00  0.30790532653E+01  0.39187239432E+01  0.24000000000E+01 0.  1.
</event>
<event>
 5   0  0.6825300E-03  0.9118800E+02  0.7818608E-02  0.1180000E+00
       11   -1    0    0    0    0  0.00000000000E+00  0.00000000000E+00  0.39999999673E+01  0.40000000000E+01  0.51109989000E-03 0.  1.
     -623   -1    0    0    0    0  0.00000000000E+00  0.00000000000E+00  0.12525980253E-10  0.17130000000E+03  0.17130000000E+03 0.  1.
       11    1    1    2    0    0  0.26718288919E-02  0.21762971297E+00  0.18981634543E+00  0.28879116478E+00  0.51109989000E-03 0.  1.
     -623    1    1    2    0    0  0.17934962053E+00  0.45889969887E+00  0.10730207975E+01  0.17130406921E+03  0.17130000000E+03 0.  1.
      622    1    1    2    0    0 -0.18202144942E+00 -0.67652941184E+00  0.27371628244E+01  0.37071396225E+01  0.24000000000E+01 0.  1.
</event>
<event>
 5   0  0.6825300E-03  0.9118800E+02  0.7818608E-02  0.1180000E+00
       11   -1    0    0    0    0  0.00000000000E+00  0.00000000000E+00  0.39999999673E+01  0.40000000000E+01  0.51109989000E-03 0.  1.
     -623   -1    0    0    0    0  0.00000000000E+00  0.00000000000E+00  0.12525980253E-10  0.17130000000E+03  0.17130000000E+03 0.  1.
       11    1    1    2    0    0  0.94936303248E-01 -0.74339535696E-01  0.62220810125E-01  0.13568698786E+00  0.51109989000E-03 0.  1.
     -623    1    1    2    0    0  0.53951782505E-01  0.11295127413E+00  0.91619458352E+00  0.17130249584E+03  0.17130000000E+03 0.  1.
      622    1    1    2    0    0 -0.14888808575E+00 -0.38611738436E-01  0.30215845737E+01  0.38618171713E+01  0.24000000000E+01 0.  1.
</event>
<event>
 5   0  0.6825300E-03  0.9118800E+02  0.7818608E-02  0.1180000E+00
       11   -1    0    0    0    0  0.00000000000E+00  0.00000000000E+00  0.39999999673E+01  0.40000000000E+01  0.51109989000E-03 0. -1.
     -623   -1    0    0    0    0  0.00000000000E+00  0.00000000000E+00  0.12525980253E-10  0.17130000000E+03  0.17130000000E+03 0. -1.
       11    1    1    2    0    0 -0.35096685823E+00 -0.24483796213E+00  0.13022262918E+00  0.44730477043E+00  0.51109989000E-03 0. -1.
     -623    1    1    2    0    0  0.13600254697E+01 -0.25793398192E+00  0.15239483954E+01  0.17131237147E+03  0.17130000000E+03 0. -1.
      622    1    1    2    0    0 -0.10090586115E+01  0.50277194405E+00  0.23458289428E+01  0.35403237618E+01  0.24000000000E+01 0. -1.
</event>
<event>
 5   0  0.6825300E-03  0.9118800E+02  0.7818608E-02  0.1180000E+00
       11   -1    0    0    0    0  0.00000000000E+00  0.00000000000E+00  0.39999999673E+01  0.40000000000E+01  0.51109989000E-03 0. -1.
     -623   -1    0    0    0    0  0.00000000000E+00  0.00000000000E+00  0.12525980253E-10  0.17130000000E+03  0.17130000000E+03 0. -1.
       11    1    1    2    0    0 -0.25181989326E+00 -0.47681153877E-01 -0.24539981434E-02  0.25630652431E+00  0.51109989000E-03 0. -1.
     -623    1    1    2    0    0 -0.42244142231E+00  0.39641470226E+00  0.12387321114E+01  0.17130545834E+03  0.17130000000E+03 0. -1.
      622    1    1    2    0    0  0.67426131557E+00 -0.34873354838E+00  0.27637218541E+01  0.37382351312E+01  0.24000000000E+01 0. -1.
</event>
<event>
 5   0  0.6825300E-03  0.9118800E+02  0.7818608E-02  0.1180000E+00
       11   -1    0    0    0    0  0.00000000000E+00  0.00000000000E+00  0.39999999673E+01  0.40000000000E+01  0.51109989000E-03 0. -1.
     -623   -1    0    0    0    0  0.00000000000E+00  0.00000000000E+00  0.12525980253E-10  0.17130000000E+03  0.17130000000E+03 0.  1.
       11    1    1    2    0    0  0.39089339376E+00 -0.16247492155E+00  0.52381800992E+00  0.67348445725E+00  0.51109989000E-03 0. -1.
     -623    1    1    2    0    0 -0.63235622813E+00  0.37618832523E+00  0.12039360443E+01  0.17130581092E+03  0.17130000000E+03 0.  1.
      622    1    1    2    0    0  0.24146283437E+00 -0.21371340367E+00  0.22722459131E+01  0.33207046254E+01  0.24000000000E+01 0. -1.
</event>
<event>
 5   0  0.6825300E-03  0.9118800E+02  0.7818608E-02  0.1180000E+00
       11   -1    0    0    0    0  0.00000000000E+00  0.00000000000E+00  0.39999999673E+01  0.40000000000E+01  0.51109989000E-03 0.  1.
     -623   -1    0    0    0    0  0.00000000000E+00  0.00000000000E+00  0.12525980253E-10  0.17130000000E+03  0.17130000000E+03 0. -1.
       11    1    1    2    0    0  0.94303572600E-01 -0.77042321813E-01  0.11435779298E+00  0.16705283354E+00  0.51109989000E-03 0.  1.
     -623    1    1    2    0    0  0.45372989027E-01 -0.67375113401E-01  0.90695607483E+00  0.17130242020E+03  0.17130000000E+03 0. -1.
      622    1    1    2    0    0 -0.13967656163E+00  0.14441743521E+00  0.29786860995E+01  0.38305269634E+01  0.24000000000E+01 0.  1.
</event>
<event>
 5   0  0.6825300E-03  0.9118800E+02  0.7818608E-02  0.1180000E+00
       11   -1    0    0    0    0  0.00000000000E+00  0.00000000000E+00  0.39999999673E+01  0.40000000000E+01  0.51109989000E-03 0. -1.
     -623   -1    0    0    0    0  0.00000000000E+00  0.00000000000E+00  0.12525980253E-10  0.17130000000E+03  0.17130000000E+03 0. -1.
       11    1    1    2    0    0 -0.10525310396E+00 -0.10974708127E+00  0.81210973150E-01  0.17238944609E+00  0.51109989000E-03 0. -1.
     -623    1    1    2    0    0 -0.29168081713E+00 -0.60579787146E-01  0.97244703574E+00  0.17130301924E+03  0.17130000000E+03 0. -1.
      622    1    1    2    0    0  0.39693392109E+00  0.17032686842E+00  0.29463419585E+01  0.38245913136E+01  0.24000000000E+01 0. -1.
</event>
<event>
 5   0  0.6825300E-03  0.9118800E+02  0.7818608E-02  0.1180000E+00
       11   -1    0    0    0    0  0.00000000000E+00  0.00000000000E+00  0.39999999673E+01  0.40000000000E+01  0.51109989000E-03 0.  1.
     -623   -1    0    0    0    0  0.00000000000E+00  0.00000000000E+00  0.12525980253E-10  0.17130000000E+03  0.17130000000E+03 0.  1.
       11    1    1    2    0    0  0.10235208579E+00 -0.32453438637E-01 -0.71324518594E-01  0.12890548211E+00  0.51109989000E-03 0.  1.
     -623    1    1    2    0    0 -0.36595383973E+00  0.63030651559E-02  0.10501880335E+01  0.17130361017E+03  0.17130000000E+03 0.  1.
      622    1    1    2    0    0  0.26360175394E+00  0.26150373481E-01  0.30211364524E+01  0.38674843491E+01  0.24000000000E+01 0.  1.
</event>
<event>
 5   0  0.6825300E-03  0.9118800E+02  0.7818608E-02  0.1180000E+00
       11   -1    0    0    0    0  0.00000000000E+00  0.00000000000E+00  0.39999999673E+01  0.40000000000E+01  0.51109989000E-03 0.  1.
     -623   -1    0    0    0    0  0.00000000000E+00  0.00000000000E+00  0.12525980253E-10  0.17130000000E+03  0.17130000000E+03 0. -1.
       11    1    1    2    0    0  0.81069296067E-01  0.24270059948E+00  0.30753741284E+00  0.40006916061E+00  0.51109989000E-03 0.  1.
     -623    1    1    2    0    0 -0.19259034664E+00  0.44638678670E+00  0.11076039675E+01  0.17130427064E+03  0.17130000000E+03 0. -1.
      622    1    1    2    0    0  0.11152105057E+00 -0.68908738618E+00  0.25848585870E+01  0.35956602016E+01  0.24000000000E+01 0.  1.
</event>
<event>
 5   0  0.6825300E-03  0.9118800E+02  0.7818608E-02  0.1180000E+00
       11   -1    0    0    0    0  0.00000000000E+00  0.00000000000E+00  0.39999999673E+01  0.40000000000E+01  0.51109989000E-03 0.  1.
     -623   -1    0    0    0    0  0.00000000000E+00  0.00000000000E+00  0.12525980253E-10  0.17130000000E+03  0.17130000000E+03 0. -1.
       11    1    1    2    0    0  0.16977430310E-01  0.23575233472E-01  0.19541302370E-01  0.35016403183E-01  0.51109989000E-03 0.  1.
     -623    1    1    2    0    0 -0.60891499262E-01 -0.62637412902E+00  0.88717124764E+00  0.17130345334E+03  0.17130000000E+03 0. -1.
      622    1    1    2    0    0  0.43914068951E-01  0.60279889554E+00  0.30932874173E+01  0.39615302599E+01  0.24000000000E+01 0.  1.
</event>
<event>
 5   0  0.6825300E-03  0.9118800E+02  0.7818608E-02  0.1180000E+00
       11   -1    0    0    0    0  0.00000000000E+00  0.00000000000E+00  0.39999999673E+01  0.40000000000E+01  0.51109989000E-03 0. -1.
     -623   -1    0    0    0    0  0.00000000000E+00  0.00000000000E+00  0.12525980253E-10  0.17130000000E+03  0.17130000000E+03 0. -1.
       11    1    1    2    0    0  0.37269495735E+00 -0.31002826373E-01  0.38787054643E+00  0.53880101011E+00  0.51109989000E-03 0. -1.
     -623    1    1    2    0    0 -0.18200167239E+00 -0.16351950456E+00  0.11386082389E+01  0.17130395877E+03  0.17130000000E+03 0. -1.
      622    1    1    2    0    0 -0.19069328496E+00  0.19452233094E+00  0.24735211820E+01  0.34572402150E+01  0.24000000000E+01 0. -1.
</event>
<event>
 5   0  0.6825300E-03  0.9118800E+02  0.7818608E-02  0.1180000E+00
       11   -1    0    0    0    0  0.00000000000E+00  0.00000000000E+00  0.39999999673E+01  0.40000000000E+01  0.51109989000E-03 0.  1.
     -623   -1    0    0    0    0  0.00000000000E+00  0.00000000000E+00  0.12525980253E-10  0.17130000000E+03  0.17130000000E+03 0. -1.
       11    1    1    2    0    0 -0.14199561148E+00 -0.17653975239E+00 -0.62970896809E-01  0.23514810848E+00  0.51109989000E-03 0.  1.
     -623    1    1    2    0    0  0.54774692239E+00  0.10069268146E+01  0.13257259351E+01  0.17130896497E+03  0.17130000000E+03 0. -1.
      622    1    1    2    0    0 -0.40575131091E+00 -0.83038706223E+00  0.27372449290E+01  0.37558869260E+01  0.24000000000E+01 0.  1.
</event>
<event>
 5   0  0.6825300E-03  0.9118800E+02  0.7818608E-02  0.1180000E+00
       11   -1    0    0    0    0  0.00000000000E+00  0.00000000000E+00  0.39999999673E+01  0.40000000000E+01  0.51109989000E-03 0. -1.
     -623   -1    0    0    0    0  0.00000000000E+00  0.00000000000E+00  0.12525980253E-10  0.17130000000E+03  0.17130000000E+03 0.  1.
       11    1    1    2    0    0 -0.77567669994E-02 -0.87831771369E-01  0.34041540671E+00  0.35164968057E+00  0.51109989000E-03 0. -1.
     -623    1    1    2    0    0 -0.75039537094E-01  0.68251854443E+00  0.98389554165E+00  0.17130420168E+03  0.17130000000E+03 0.  1.
      622    1    1    2    0    0  0.82796304093E-01 -0.59468677306E+00  0.26756890190E+01  0.36441486403E+01  0.24000000000E+01 0. -1.
</event>
<event>
 5   0  0.6825300E-03  0.9118800E+02  0.7818608E-02  0.1180000E+00
       11   -1    0    0    0    0  0.00000000000E+00  0.00000000000E+00  0.39999999673E+01  0.40000000000E+01  0.51109989000E-03 0. -1.
     -623   -1    0    0    0    0  0.00000000000E+00  0.00000000000E+00  0.12525980253E-10  0.17130000000E+03  0.17130000000E+03 0. -1.
       11    1    1    2    0    0  0.72148777853E-01  0.64405134982E-01  0.97919314888E-01  0.13762965163E+00  0.51109989000E-03 0. -1.
     -623    1    1    2    0    0  0.40250501836E+00 -0.18032066935E+00  0.91950933414E+00  0.17130303565E+03  0.17130000000E+03 0. -1.
      622    1    1    2    0    0 -0.47465379621E+00  0.11591553437E+00  0.29825713183E+01  0.38593346974E+01  0.24000000000E+01 0. -1.
</event>
<event>
 5   0  0.6825300E-03  0.9118800E+02  0.7818608E-02  0.1180000E+00
       11   -1    0    0    0    0  0.00000000000E+00  0.00000000000E+00  0.39999999673E+01  0.40000000000E+01  0.51109989000E-03 0. -1.
     -623   -1    0    0    0    0  0.00000000000E+00  0.00000000000E+00  0.12525980253E-10  0.17130000000E+03  0.17130000000E+03 0.  1.
       11    1    1    2    0    0 -0.57544805087E+00 -0.96477119193E-01  0.10046884997E+01  0.11618293921E+01  0.51109989000E-03 0. -1.
     -623    1    1    2    0    0  0.13076595965E+00  0.60561374830E+00  0.16587532788E+01  0.17130915133E+03  0.17130000000E+03 0.  1.
      622    1    1    2    0    0  0.44468209121E+00 -0.50913662910E+00  0.13365581889E+01  0.28290192756E+01  0.24000000000E+01 0. -1.
</event>
<event>
 5   0  0.6825300E-03  0.9118800E+02  0.7818608E-02  0.1180000E+00
       11   -1    0    0    0    0  0.00000000000E+00  0.00000000000E+00  0.39999999673E+01  0.40000000000E+01  0.51109989000E-03 0.  1.
     -623   -1    0    0    0    0  0.00000000000E+00  0.00000000000E+00  0.12525980253E-10  0.17130000000E+03  0.17130000000E+03 0.  1.
       11    1    1    2    0    0  0.36268693330E+00 -0.63945710482E-01 -0.25481716759E-01  0.36916181355E+00  0.51109989000E-03 0.  1.
     -623    1    1    2    0    0  0.80741997096E-01  0.10567425208E+00  0.13448220588E+01  0.17130533043E+03  0.17130000000E+03 0.  1.
      622    1    1    2    0    0 -0.44342893039E+00 -0.41728541595E-01  0.26806596253E+01  0.36255077595E+01  0.24000000000E+01 0.  1.
</event>
<event>
 5   0  0.6825300E-03  0.9118800E+02  0.7818608E-02  0.1180000E+00
       11   -1    0    0    0    0  0.00000000000E+00  0.00000000000E+00  0.39999999673E+01  0.40000000000E+01  0.51109989000E-03 0.  1.
     -623   -1    0    0    0    0  0.00000000000E+00  0.00000000000E+00  0.12525980253E-10  0.17130000000E+03  0.17130000000E+03 0. -1.
       11    1    1    2    0    0 -0.53807225154E-01 -0.57913580282E-01  0.29006903472E+00  0.30064847644E+00  0.51109989000E-03 0.  1.
     -623    1    1    2    0    0  0.30596311116E+00  0.74782125631E+00  0.99883782328E+00  0.17130481758E+03  0.17130000000E+03 0. -1.
      622    1    1    2    0    0 -0.25215588601E+00 -0.68990767603E+00  0.27110931094E+01  0.36945339408E+01  0.24000000000E+01 0.  1.
</event>
<event>
 5   0  0.6825300E-03  0.9118800E+02  0.7818608E-02  0.1180000E+00
       11   -1    0    0    0    0  0.00000000000E+00  0.00000000000E+00  0.39999999673E+01  0.40000000000E+01  0.51109989000E-03 0.  1.
     -623   -1    0    0    0    0  0.00000000000E+00  0.00000000000E+00  0.12525980253E-10  0.17130000000E+03  0.17130000000E+03 0.  1.
       11    1    1    2    0    0 -0.10421259733E+00 -0.71665964664E-01 -0.20720251284E-02  0.12649438899E+00  0.51109989000E-03 0.  1.
     -623    1    1    2    0    0 -0.37631809401E+00  0.44513150804E+00  0.10285095467E+01  0.17130407931E+03  0.17130000000E+03 0.  1.
      622    1    1    2    0    0  0.48053069134E+00 -0.37346554337E+00  0.29735624458E+01  0.38694262981E+01  0.24000000000E+01 0.  1.
</event>
<event>
 5   0  0.6825300E-03  0.9118800E+02  0.7818608E-02  0.1180000E+00
       11   -1    0    0    0    0  0.00000000000E+00  0.00000000000E+00  0.39999999673E+01  0.40000000000E+01  0.51109989000E-03 0.  1.
     -623   -1    0    0    0    0  0.00000000000E+00  0.00000000000E+00  0.12525980253E-10  0.17130000000E+03  0.17130000000E+03 0.  1.
       11    1    1    2    0    0  0.60318323117E-01  0.14738949420E+00  0.21837312934E-01  0.16074542782E+00  0.51109989000E-03 0.  1.
     -623    1    1    2    0    0  0.33228199184E+00 -0.77769309738E-01  0.10124721969E+01  0.17130333201E+03  0.17130000000E+03 0.  1.
      622    1    1    2    0    0 -0.39260031496E+00 -0.69620184462E-01  0.29656904575E+01  0.38359225575E+01  0.24000000000E+01 0.  1.
</event>
<event>
 5   0  0.6825300E-03  0.9118800E+02  0.7818608E-02  0.1180000E+00
       11   -1    0    0    0    0  0.00000000000E+00  0.00000000000E+00  0.39999999673E+01  0.40000000000E+01  0.51109989000E-03 0. -1.
     -623   -1    0    0    0    0  0.00000000000E+00  0.00000000000E+00  0.12525980253E-10  0.17130000000E+03  0.17130000000E+03 0.  1.
       11    1    1    2    0    0  0.70248334686E-01 -0.38022252774E-01 -0.16919302487E+00  0.18710174002E+00  0.51109989000E-03 0. -1.
     -623    1    1    2    0    0 -0.16195200566E+00  0.35298361051E+00  0.12309068921E+01  0.17130486262E+03  0.17130000000E+03 0.  1.
      622    1    1    2    0    0  0.91703670975E-01 -0.31496135774E+00  0.29382861001E+01  0.38080356388E+01  0.24000000000E+01 0. -1.
</event>
<event>
 5   0  0.6825300E-03  0.9118800E+02  0.7818608E-02  0.1180000E+00
       11   -1    0    0    0    0  0.00000000000E+00  0.00000000000E+00  0.39999999673E+01  0.40000000000E+01  0.51109989000E-03 0.  1.
     -623   -1    0    0    0    0  0.00000000000E+00  0.00000000000E+00  0.12525980253E-10  0.17130000000E+03  0.17130000000E+03 0.  1.
       11    1    1    2    0    0  0.52305415553E+00  0.26105444820E+00  0.34374781330E+00  0.67815772127E+00  0.51109989000E-03 0.  1.
     -623    1    1    2    0    0 -0.27548473657E+00  0.10875213593E+00  0.14120913777E+01  0.17130607614E+03  0.17130000000E+03 0.  1.
      622    1    1    2    0    0 -0.24756941896E+00 -0.36980658414E+00  0.22441607763E+01  0.33157661433E+01  0.24000000000E+01 0.  1.
</event>
<event>
 5   0  0.6825300E-03  0.9118800E+02  0.7818608E-02  0.1180000E+00
       11   -1    0    0    0    0  0.00000000000E+00  0.00000000000E+00  0.39999999673E+01  0.40000000000E+01  0.51109989000E-03 0.  1.
     -623   -1    0    0    0    0  0.00000000000E+00  0.00000000000E+00  0.12525980253E-10  0.17130000000E+03  0.17130000000E+03 0.  1.
       11    1    1    2    0    0  0.14293155900E+00  0.41505512379E-01 -0.37051226996E-01  0.15337924489E+00  0.51109989000E-03 0.  1.
     -623    1    1    2    0    0 -0.68364553723E+00 -0.25069342091E+00  0.10939907676E+01  0.17130504089E+03  0.17130000000E+03 0.  1.
      622    1    1    2    0    0  0.54071397823E+00  0.20918790853E+00  0.29430604267E+01  0.38415798654E+01  0.24000000000E+01 0.  1.
</event>
<event>
 5   0  0.6825300E-03  0.9118800E+02  0.7818608E-02  0.1180000E+00
       11   -1    0    0    0    0  0.00000000000E+00  0.00000000000E+00  0.39999999673E+01  0.40000000000E+01  0.51109989000E-03 0.  1.
     -623   -1    0    0    0    0  0.00000000000E+00  0.00000000000E+00  0.12525980253E-10  0.17130000000E+03  0.17130000000E+03 0.  1.
       11    1    1    2    0    0 -0.12515997250E+00 -0.13086088939E+00 -0.13587505676E+00  0.22638878806E+00  0.51109989000E-03 0.  1.
     -623    1    1    2    0    0  0.81589889563E-01 -0.99454871449E-01  0.12391477901E+01  0.17130453011E+03  0.17130000000E+03 0.  1.
      622    1    1    2    0    0  0.43570082938E-01  0.23031576084E+00  0.28967272340E+01  0.37690811042E+01  0.24000000000E+01 0.  1.
</event>
<event>
 5   0  0.6825300E-03  0.9118800E+02  0.7818608E-02  0.1180000E+00
       11   -1    0    0    0    0  0.00000000000E+00  0.00000000000E+00  0.39999999673E+01  0.40000000000E+01  0.51109989000E-03 0. -1.
     -623   -1    0    0    0    0  0.00000000000E+00  0.00000000000E+00  0.12525980253E-10  0.17130000000E+03  0.17130000000E+03 0.  1.
       11    1    1    2    0    0  0.44222562966E-01  0.20227734963E-01  0.55168325490E-01  0.73543196133E-01  0.51109989000E-03 0. -1.
     -623    1    1    2    0    0  0.17765001304E+00 -0.54046243358E-01  0.84815316417E+00  0.17130220035E+03  0.17130000000E+03 0.  1.
      622    1    1    2    0    0 -0.22187257601E+00  0.33818508395E-01  0.30966784777E+01  0.39242564551E+01  0.24000000000E+01 0. -1.
</event>
<event>
 5   0  0.6825300E-03  0.9118800E+02  0.7818608E-02  0.1180000E+00
       11   -1    0    0    0    0  0.00000000000E+00  0.00000000000E+00  0.39999999673E+01  0.40000000000E+01  0.51109989000E-03 0. -1.
     -623   -1    0    0    0    0  0.00000000000E+00  0.00000000000E+00  0.12525980253E-10  0.17130000000E+03  0.17130000000E+03 0.  1.
       11    1    1    2    0    0 -0.21421244014E+00  0.83745027162E-01  0.24875476942E+00  0.33879107960E+00  0.51109989000E-03 0. -1.
     -623    1    1    2    0    0  0.45321308402E+00 -0.42717834021E+00  0.10238460466E+01  0.17130419185E+03  0.17130000000E+03 0.  1.
      622    1    1    2    0    0 -0.23900064388E+00  0.34343331305E+00  0.27273991514E+01  0.36570170740E+01  0.24000000000E+01 0. -1.
</event>
<event>
 5   0  0.6825300E-03  0.9118800E+02  0.7818608E-02  0.1180000E+00
       11   -1    0    0    0    0  0.00000000000E+00  0.00000000000E+00  0.39999999673E+01  0.40000000000E+01  0.51109989000E-03 0. -1.
     -623   -1    0    0    0    0  0.00000000000E+00  0.00000000000E+00  0.12525980253E-10  0.17130000000E+03  0.17130000000E+03 0. -1.
       11    1    1    2    0    0 -0.28591009316E+00 -0.13895952482E+00  0.61850443047E-01  0.32385192517E+00  0.51109989000E-03 0. -1.
     -623    1    1    2    0    0  0.93783239249E-01  0.34295355806E+00  0.11734990528E+01  0.17130438848E+03  0.17130000000E+03 0. -1.
      622    1    1    2    0    0  0.19212685391E+00 -0.20399403324E+00  0.27646504715E+01  0.36717595949E+01  0.24000000000E+01 0. -1.
</event>
<event>
 5   0  0.6825300E-03  0.9118800E+02  0.7818608E-02  0.1180000E+00
       11   -1    0    0    0    0  0.00000000000E+00  0.00000000000E+00  0.39999999673E+01  0.40000000000E+01  0.51109989000E-03 0. -1.
     -623   -1    0    0    0    0  0.00000000000E+00  0.00000000000E+00  0.12525980253E-10  0.17130000000E+03  0.17130000000E+03 0.  1.
       11    1    1    2    0    0 -0.94198455835E-01  0.17644079739E-01 -0.99565562356E-01  0.13819632795E+00  0.51109989000E-03 0. -1.
     -623    1    1    2    0    0 -0.32228974892E+00  0.26356631966E+00  0.11215225936E+01  0.17130417727E+03  0.17130000000E+03 0.  1.
      622    1    1    2    0    0  0.41648820475E+00 -0.28121039940E+00  0.29780429361E+01  0.38576264001E+01  0.24000000000E+01 0. -1.
</event>
<event>
 5   0  0.6825300E-03  0.9118800E+02  0.7818608E-02  0.1180000E+00
       11   -1    0    0    0    0  0.00000000000E+00  0.00000000000E+00  0.39999999673E+01  0.40000000000E+01  0.51109989000E-03 0.  1.
     -623   -1    0    0    0    0  0.00000000000E+00  0.00000000000E+00  0.12525980253E-10  0.17130000000E+03  0.17130000000E+03 0.  1.
       11    1    1    2    0    0 -0.60867319404E+00 -0.18260893326E+00  0.70835989068E+00  0.95163179623E+00  0.51109989000E-03 0.  1.
     -623    1    1    2    0    0  0.66470600872E+00 -0.29035601555E-01  0.14369028175E+01  0.17130731849E+03  0.17130000000E+03 0.  1.
      622    1    1    2    0    0 -0.56032814677E-01  0.21164453481E+00  0.18547372592E+01  0.30410497178E+01  0.24000000000E+01 0.  1.
</event>
<event>
 5   0  0.6825300E-03  0.9118800E+02  0.7818608E-02  0.1180000E+00
       11   -1    0    0    0    0  0.00000000000E+00  0.00000000000E+00  0.39999999673E+01  0.40000000000E+01  0.51109989000E-03 0. -1.
     -623   -1    0    0    0    0  0.00000000000E+00  0.00000000000E+00  0.12525980253E-10  0.17130000000E+03  0.17130000000E+03 0.  1.
       11    1    1    2    0    0 -0.32028761083E+00  0.66484384070E+00  0.44010580573E+00  0.85924086706E+00  0.51109989000E-03 0. -1.
     -623    1    1    2    0    0  0.36084924911E+00 -0.29859361421E+00  0.15802887662E+01  0.17130792942E+03  0.17130000000E+03 0.  1.
      622    1    1    2    0    0 -0.40561638282E-01 -0.36625022649E+00  0.19796053955E+01  0.31328297108E+01  0.24000000000E+01 0. -1.
</event>
<event>
 5   0  0.6825300E-03  0.9118800E+02  0.7818608E-02  0.1180000E+00
       11   -1    0    0    0    0  0.00000000000E+00  0.00000000000E+00  0.39999999673E+01  0.40000000000E+01  0.51109989000E-03 0.  1.
     -623   -1    0    0    0    0  0.00000000000E+00  0.00000000000E+00  0.12525980253E-10  0.17130000000E+03  0.17130000000E+03 0.  1.
       11    1    1    2    0    0 -0.76883980614E-01 -0.12830624082E+00  0.42910358004E+00  0.45442687149E+00  0.51109989000E-03 0.  1.
     -623    1    1    2    0    0  0.66663875286E+00  0.26919090558E+00  0.10390178656E+01  0.17130465968E+03  0.17130000000E+03 0.  1.
      622    1    1    2    0    0 -0.58975477225E+00 -0.14088466475E+00  0.25318785217E+01  0.35409134455E+01  0.24000000000E+01 0.  1.
</event>
<event>
 5   0  0.6825300E-03  0.9118800E+02  0.7818608E-02  0.1180000E+00
       11   -1    0    0    0    0  0.00000000000E+00  0.00000000000E+00  0.39999999673E+01  0.40000000000E+01  0.51109989000E-03 0. -1.
     -623   -1    0    0    0    0  0.00000000000E+00  0.00000000000E+00  0.12525980253E-10  0.17130000000E+03  0.17130000000E+03 0. -1.
       11    1    1    2    0    0 -0.53360830473E-02 -0.46018435670E-01  0.24098110521E+00  0.24539422262E+00  0.51109989000E-03 0. -1.
     -623    1    1    2    0    0  0.66989324460E-02  0.24439696084E+00  0.88162974664E+00  0.17130244320E+03  0.17130000000E+03 0. -1.
      622    1    1    2    0    0 -0.13628493986E-02 -0.19837852517E+00  0.28773891155E+01  0.37521625789E+01  0.24000000000E+01 0. -1.
</event>
<event>
 5   0  0.6825300E-03  0.9118800E+02  0.7818608E-02  0.1180000E+00
       11   -1    0    0    0    0  0.00000000000E+00  0.00000000000E+00  0.39999999673E+01  0.40000000000E+01  0.51109989000E-03 0. -1.
     -623   -1    0    0    0    0  0.00000000000E+00  0.00000000000E+00  0.12525980253E-10  0.17130000000E+03  0.17130000000E+03 0. -1.
       11    1    1    2    0    0  0.97745914973E-01  0.94224397840E-01  0.29576448715E+00  0.32543723530E+00  0.51109989000E-03 0. -1.
     -623    1    1    2    0    0 -0.35255346030E+00 -0.19112847524E+00  0.93914339499E+00  0.17130304380E+03  0.17130000000E+03 0. -1.
      622    1    1    2    0    0  0.25480754533E+00  0.96904077398E-01  0.27650920852E+01  0.36715189670E+01  0.24000000000E+01 0. -1.
</event>
<event>
 5   0  0.6825300E-03  0.9118800E+02  0.7818608E-02  0.1180000E+00
       11   -1    0    0    0    0  0.00000000000E+00  0.00000000000E+00  0.39999999673E+01  0.40000000000E+01  0.51109989000E-03 0. -1.
     -623   -1    0    0    0    0  0.00000000000E+00  0.00000000000E+00  0.12525980253E-10  0.17130000000E+03  0.17130000000E+03 0.  1.
       11    1    1    2    0    0  0.84484629053E-01 -0.31910396100E-01 -0.32626000810E-01  0.96024179650E-01  0.51109989000E-03 0. -1.
     -623    1    1    2    0    0 -0.96432128792E-01  0.19549109241E+00  0.96147257947E+00  0.17130283695E+03  0.17130000000E+03 0.  1.
      622    1    1    2    0    0  0.11947499739E-01 -0.16358069631E+00  0.30711533887E+01  0.39011388752E+01  0.24000000000E+01 0. -1.
</event>
<event>
 5   0  0.6825300E-03  0.9118800E+02  0.7818608E-02  0.1180000E+00
       11   -1    0    0    0    0  0.00000000000E+00  0.00000000000E+00  0.39999999673E+01  0.40000000000E+01  0.51109989000E-03 0.  1.
     -623   -1    0    0    0    0  0.00000000000E+00  0.00000000000E+00  0.12525980253E-10  0.17130000000E+03  0.17130000000E+03 0.  1.
       11    1    1    2    0    0 -0.25097262595E-01 -0.30417043761E-01 -0.12220196144E-01  0.41287571470E-01  0.51109989000E-03 0.  1.
     -623    1    1    2    0    0 -0.33771556893E+00  0.10587583905E+00  0.88925445436E+00  0.17130267375E+03  0.17130000000E+03 0.  1.
      622    1    1    2    0    0  0.36281283153E+00 -0.75458795286E-01  0.31229657091E+01  0.39560386754E+01  0.24000000000E+01 0.  1.
</event>
<event>
 5   0  0.6825300E-03  0.9118800E+02  0.7818608E-02  0.1180000E+00
       11   -1    0    0    0    0  0.00000000000E+00  0.00000000000E+00  0.39999999673E+01  0.40000000000E+01  0.51109989000E-03 0. -1.
     -623   -1    0    0    0    0  0.00000000000E+00  0.00000000000E+00  0.12525980253E-10  0.17130000000E+03  0.17130000000E+03 0. -1.
       11    1    1    2    0    0  0.23828704780E+00 -0.22190572492E+00  0.32673226444E+00  0.46127768400E+00  0.51109989000E-03 0. -1.
     -623    1    1    2    0    0 -0.61564563197E+00  0.22633110844E+00  0.11069553641E+01  0.17130483238E+03  0.17130000000E+03 0. -1.
      622    1    1    2    0    0  0.37735858417E+00 -0.44253835213E-02  0.25663123388E+01  0.35338899396E+01  0.24000000000E+01 0. -1.
</event>
<event>
 5   0  0.6825300E-03  0.9118800E+02  0.7818608E-02  0.1180000E+00
       11   -1    0    0    0    0  0.00000000000E+00  0.00000000000E+00  0.39999999673E+01  0.40000000000E+01  0.51109989000E-03 0. -1.
     -623   -1    0    0    0    0  0.00000000000E+00  0.00000000000E+00  0.12525980253E-10  0.17130000000E+03  0.17130000000E+03 0.  1.
       11    1    1    2    0    0  0.81998833879E-01  0.45295108500E-01  0.12593697570E+00  0.15695807938E+00  0.51109989000E-03 0. -1.
     -623    1    1    2    0    0 -0.29310069478E+00 -0.15375930557E-01  0.88339781052E+00  0.17130252928E+03  0.17130000000E+03 0.  1.
      622    1    1    2    0    0  0.21110186090E+00 -0.29919177943E-01  0.29906651811E+01  0.38405126453E+01  0.24000000000E+01 0. -1.
</event>
<event>
 5   0  0.6825300E-03  0.9118800E+02  0.7818608E-02  0.1180000E+00
       11   -1    0    0    0    0  0.00000000000E+00  0.00000000000E+00  0.39999999673E+01  0.40000000000E+01  0.51109989000E-03 0. -1.
     -623   -1    0    0    0    0  0.00000000000E+00  0.00000000000E+00  0.12525980253E-10  0.17130000000E+03  0.17130000000E+03 0. -1.
       11    1    1    2    0    0  0.19666722996E-01  0.30341064930E+00 -0.17068954433E+00  0.34868321420E+00  0.51109989000E-03 0. -1.
     -623    1    1    2    0    0 -0.45419001473E+00 -0.87589788526E+00  0.15277447377E+01  0.17130965381E+03  0.17130000000E+03 0. -1.
      622    1    1    2    0    0  0.43452329174E+00  0.57248723595E+00  0.26429447740E+01  0.36416629724E+01  0.24000000000E+01 0. -1.
</event>
<event>
 5   0  0.6825300E-03  0.9118800E+02  0.7818608E-02  0.1180000E+00
       11   -1    0    0    0    0  0.00000000000E+00  0.00000000000E+00  0.39999999673E+01  0.40000000000E+01  0.51109989000E-03 0.  1.
     -623   -1    0    0    0    0  0.00000000000E+00  0.00000000000E+00  0.12525980253E-10  0.17130000000E+03  0.17130000000E+03 0. -1.
       11    1    1    2    0    0 -0.28540060590E+00  0.98547999502E-01 -0.66554275267E-01  0.30918432501E+00  0.51109989000E-03 0.  1.
     -623    1    1    2    0    0 -0.36811746210E-01  0.33824450770E+00  0.13229547752E+01  0.17130544642E+03  0.17130000000E+03 0. -1.
      622    1    1    2    0    0  0.32221235211E+00 -0.43679250720E+00  0.27435994675E+01  0.36853692531E+01  0.24000000000E+01 0.  1.
</event>
<event>
 5   0  0.6825300E-03  0.9118800E+02  0.7818608E-02  0.1180000E+00
       11   -1    0    0    0    0  0.00000000000E+00  0.00000000000E+00  0.39999999673E+01  0.40000000000E+01  0.51109989000E-03 0. -1.
     -623   -1    0    0    0    0  0.00000000000E+00  0.00000000000E+00  0.12525980253E-10  0.17130000000E+03  0.17130000000E+03 0. -1.
       11    1    1    2    0    0  0.87207760017E-02  0.40917371385E+00  0.25998874429E+00  0.48486450522E+00  0.51109989000E-03 0. -1.
     -623    1    1    2    0    0  0.35258125480E+00  0.36444397775E-01  0.12434574597E+01  0.17130487976E+03  0.17130000000E+03 0. -1.
      622    1    1    2    0    0 -0.36130203081E+00 -0.44561811162E+00  0.24965537634E+01  0.35102557389E+01  0.24000000000E+01 0. -1.
</event>
<event>
 5   0  0.6825300E-03  0.9118800E+02  0.7818608E-02  0.1180000E+00
       11   -1    0    0    0    0  0.00000000000E+00  0.00000000000E+00  0.39999999673E+01  0.40000000000E+01  0.51109989000E-03 0.  1.
     -623   -1    0    0    0    0  0.00000000000E+00  0.00000000000E+00  0.12525980253E-10  0.17130000000E+03  0.17130000000E+03 0. -1.
       11    1    1    2    0    0  0.16417655012E+00 -0.12130269075E+00  0.17222592289E+00  0.26707735234E+00  0.51109989000E-03 0.  1.
     -623    1    1    2    0    0  0.48007597692E-02  0.68480578158E-01  0.97778473516E+00  0.17130280434E+03  0.17130000000E+03 0. -1.
      622    1    1    2    0    0 -0.16897730989E+00  0.52822112595E-01  0.28499893093E+01  0.37301183051E+01  0.24000000000E+01 0.  1.
</event>
<event>
 5   0  0.6825300E-03  0.9118800E+02  0.7818608E-02  0.1180000E+00
       11   -1    0    0    0    0  0.00000000000E+00  0.00000000000E+00  0.39999999673E+01  0.40000000000E+01  0.51109989000E-03 0.  1.
     -623   -1    0    0    0    0  0.00000000000E+00  0.00000000000E+00  0.12525980253E-10  0.17130000000E+03  0.17130000000E+03 0. -1.
       11    1    1    2    0    0  0.96167724395E-01  0.20836298897E+00  0.16706956703E+00  0.28385888719E+00  0.51109989000E-03 0.  1.
     -623    1    1    2    0    0 -0.65223299021E+00 -0.57308680909E-01  0.10609307729E+01  0.17130453662E+03  0.17130000000E+03 0. -1.
      622    1    1    2    0    0  0.55606526581E+00 -0.15105430806E+00  0.27719996274E+01  0.37116044938E+01  0.24000000000E+01 0.  1.
</event>
<event>
 5   0  0.6825300E-03  0.9118800E+02  0.7818608E-02  0.1180000E+00
       11   -1    0    0    0    0  0.00000000000E+00  0.00000000000E+00  0.39999999673E+01  0.40000000000E+01  0.51109989000E-03 0. -1.
     -623   -1    0    0    0    0  0.00000000000E+00  0.00000000000E+00  0.12525980253E-10  0.17130000000E+03  0.17130000000E+03 0.  1.
       11    1    1    2    0    0 -0.31689240091E+00  0.90597680714E-01 -0.23466371419E-01  0.33042346363E+00  0.51109989000E-03 0. -1.
     -623    1    1    2    0    0  0.71887316299E+00  0.12205479719E+00  0.12936707899E+01  0.17130643672E+03  0.17130000000E+03 0.  1.
      622    1    1    2    0    0 -0.40198076208E+00 -0.21265247790E+00  0.27297955489E+01  0.36631398210E+01  0.24000000000E+01 0. -1.
</event>
<event>
 5   0  0.6825300E-03  0.9118800E+02  0.7818608E-02  0.1180000E+00
       11   -1    0    0    0    0  0.00000000000E+00  0.00000000000E+00  0.39999999673E+01  0.40000000000E+01  0.51109989000E-03 0. -1.
     -623   -1    0    0    0    0  0.00000000000E+00  0.00000000000E+00  0.12525980253E-10  0.17130000000E+03  0.17130000000E+03 0.  1.
       11    1    1    2    0    0 -0.15824715749E+00  0.21062006682E+00  0.34466529788E+00  0.43381724745E+00  0.51109989000E-03 0. -1.
     -623    1    1    2    0    0  0.40150705093E+00  0.37244256532E+00  0.11005188171E+01  0.17130441052E+03  0.17130000000E+03 0.  1.
      622    1    1    2    0    0 -0.24325989344E+00 -0.58306263213E+00  0.25548158524E+01  0.35617722342E+01  0.24000000000E+01 0. -1.
</event>
<event>
 5   0  0.6825300E-03  0.9118800E+02  0.7818608E-02  0.1180000E+00
       11   -1    0    0    0    0  0.00000000000E+00  0.00000000000E+00  0.39999999673E+01  0.40000000000E+01  0.51109989000E-03 0.  1.
     -623   -1    0    0    0    0  0.00000000000E+00  0.00000000000E+00  0.12525980253E-10  0.17130000000E+03  0.17130000000E+03 0. -1.
       11    1    1    2    0    0  0.31005881119E+00 -0.12084443388E+00  0.25006735353E+00  0.41626167986E+00  0.51109989000E-03 0.  1.
     -623    1    1    2    0    0 -0.26406648997E+00  0.21415085411E+00  0.10957212234E+01  0.17130384175E+03  0.17130000000E+03 0.  1.
      622    1    1    2    0    0 -0.45992321226E-01 -0.93306420232E-01  0.26542113904E+01  0.35798965748E+01  0.24000000000E+01 0.  1.
</event>
<event>
 5   0  0.6825300E-03  0.9118800E+02  0.7818608E-02  0.1180000E+00
       11   -1    0    0    0    0  0.00000000000E+00  0.00000000000E+00  0.39999999673E+01  0.40000000000E+01  0.51109989000E-03 0.  1.
     -623   -1    0    0    0    0  0.00000000000E+00  0.00000000000E+00  0.12525980253E-10  0.17130000000E+03  0.17130000000E+03 0.  1.
       11    1    1    2    0    0 -0.27871087678E-01  0.32465324221E+00  0.88053908011E+00  0.93889608479E+00  0.51109989000E-03 0.  1.
     -623    1    1    2    0    0 -0.11883709807E+00 -0.30348325835E+00  0.12328368380E+01  0.17130474632E+03  0.17130000000E+03 0.  1.
      622    1    1    2    0    0  0.14670818575E+00 -0.21169983867E-01  0.18866240492E+01  0.30563575974E+01  0.24000000000E+01 0.  1.
</event>
<event>
 5   0  0.6825300E-03  0.9118800E+02  0.7818608E-02  0.1180000E+00
       11   -1    0    0    0    0  0.00000000000E+00  0.00000000000E+00  0.39999999673E+01  0.40000000000E+01  0.51109989000E-03 0. -1.
     -623   -1    0    0    0    0  0.00000000000E+00  0.00000000000E+00  0.12525980253E-10  0.17130000000E+03  0.17130000000E+03 0. -1.
       11    1    1    2    0    0 -0.19919279932E+00 -0.13055333108E+00  0.51810669126E+00  0.57022517333E+00  0.51109989000E-03 0. -1.
     -623    1    1    2    0    0  0.51835307776E+00 -0.80292664145E+00  0.12501720315E+01  0.17130722784E+03  0.17130000000E+03 0. -1.
      622    1    1    2    0    0 -0.31916027845E+00  0.93347997253E+00  0.22317212446E+01  0.34225469838E+01  0.24000000000E+01 0.  0.
</event>
<event>
 5   0  0.6825300E-03  0.9118800E+02  0.7818608E-02  0.1180000E+00
       11   -1    0    0    0    0  0.00000000000E+00  0.00000000000E+00  0.39999999673E+01  0.40000000000E+01  0.51109989000E-03 0.  1.
     -623   -1    0    0    0    0  0.00000000000E+00  0.00000000000E+00  0.12525980253E-10  0.17130000000E+03  0.17130000000E+03 0.  1.
       11    1    1    2    0    0 -0.20279183307E+00  0.25332231431E-01  0.12688268899E+00  0.24055296194E+00  0.51109989000E-03 0.  1.
     -623    1    1    2    0    0  0.10278492032E+00 -0.11039760911E+00  0.98618648901E+00  0.17130290516E+03  0.17130000000E+03 0.  1.
      622    1    1    2    0    0  0.10000691275E+00  0.85065377684E-01  0.28869307894E+01  0.37565418783E+01  0.24000000000E+01 0.  1.
</event>
<event>
 5   0  0.6825300E-03  0.9118800E+02  0.7818608E-02  0.1180000E+00
       11   -1    0    0    0    0  0.00000000000E+00  0.00000000000E+00  0.39999999673E+01  0.40000000000E+01  0.51109989000E-03 0.  1.
     -623   -1    0    0    0    0  0.00000000000E+00  0.00000000000E+00  0.12525980253E-10  0.17130000000E+03  0.17130000000E+03 0.  1.
       11    1    1    2    0    0  0.15802550293E+00 -0.91277695690E-01  0.37237319892E+00  0.41468751826E+00  0.51109989000E-03 0.  1.
     -623    1    1    2    0    0 -0.32313409582E+00 -0.57487341186E-01  0.97756497140E+00  0.17130310375E+03  0.17130000000E+03 0.  1.
      622    1    1    2    0    0  0.16510859290E+00  0.14876503688E+00  0.26500617970E+01  0.35822087337E+01  0.24000000000E+01 0.  1.
</event>
<event>
 5   0  0.6825300E-03  0.9118800E+02  0.7818608E-02  0.1180000E+00
       11   -1    0    0    0    0  0.00000000000E+00  0.00000000000E+00  0.39999999673E+01  0.40000000000E+01  0.51109989000E-03 0. -1.
     -623   -1    0    0    0    0  0.00000000000E+00  0.00000000000E+00  0.12525980253E-10  0.17130000000E+03  0.17130000000E+03 0.  1.
       11    1    1    2    0    0  0.24132208333E+00 -0.27383457841E+00  0.12493513803E+00  0.38578591754E+00  0.51109989000E-03 0. -1.
     -623    1    1    2    0    0 -0.32331036883E+00 -0.30829738866E+00  0.12444595168E+01  0.17130510283E+03  0.17130000000E+03 0.  1.
      622    1    1    2    0    0  0.81988285508E-01  0.58213196707E+00  0.26306053126E+01  0.36091112502E+01  0.24000000000E+01 0. -1.
</event>
<event>
 5   0  0.6825300E-03  0.9118800E+02  0.7818608E-02  0.1180000E+00
       11   -1    0    0    0    0  0.00000000000E+00  0.00000000000E+00  0.39999999673E+01  0.40000000000E+01  0.51109989000E-03 0. -1.
     -623   -1    0    0    0    0  0.00000000000E+00  0.00000000000E+00  0.12525980253E-10  0.17130000000E+03  0.17130000000E+03 0.  1.
       11    1    1    2    0    0 -0.19322865802E+00 -0.11855086226E+00  0.25017146981E-01  0.22807397942E+00  0.51109989000E-03 0. -1.
     -623    1    1    2    0    0 -0.80601662196E-01 -0.90419306428E-01  0.10901438854E+01  0.17130351160E+03  0.17130000000E+03 0.  1.
      622    1    1    2    0    0  0.27383032022E+00  0.20897016869E+00  0.28848389350E+01  0.37684144221E+01  0.24000000000E+01 0. -1.
</event>
<event>
 5   0  0.6825300E-03  0.9118800E+02  0.7818608E-02  0.1180000E+00
       11   -1    0    0    0    0  0.00000000000E+00  0.00000000000E+00  0.39999999673E+01  0.40000000000E+01  0.51109989000E-03 0.  1.
     -623   -1    0    0    0    0  0.00000000000E+00  0.00000000000E+00  0.12525980253E-10  0.17130000000E+03  0.17130000000E+03 0. -1.
       11    1    1    2    0    0 -0.28105560602E-01  0.78224021442E-01 -0.17997614571E-01  0.85047606790E-01  0.51109989000E-03 0.  1.
     -623    1    1    2    0    0 -0.26010144087E+00  0.24430116953E+00  0.95926656401E+00  0.17130305756E+03  0.17130000000E+03 0. -1.
      622    1    1    2    0    0  0.28820700147E+00 -0.32252519097E+00  0.30587310179E+01  0.39118948368E+01  0.24000000000E+01 0.  1.
</event>
<event>
 5   0  0.6825300E-03  0.9118800E+02  0.7818608E-02  0.1180000E+00
       11   -1    0    0    0    0  0.00000000000E+00  0.00000000000E+00  0.39999999673E+01  0.40000000000E+01  0.51109989000E-03 0. -1.
     -623   -1    0    0    0    0  0.00000000000E+00  0.00000000000E+00  0.12525980253E-10  0.17130000000E+03  0.17130000000E+03 0. -1.
       11    1    1    2    0    0  0.54494715701E-01  0.73548531978E-01  0.45369256273E+00  0.46283502816E+00  0.51109989000E-03 0. -1.
     -623    1    1    2    0    0  0.21332107880E+00 -0.79039728679E+00  0.10707359223E+01  0.17130530263E+03  0.17130000000E+03 0. -1.
      622    1    1    2    0    0 -0.26781579450E+00  0.71684875481E+00  0.24755714824E+01  0.35318623418E+01  0.24000000000E+01 0. -1.
</event>
<event>
 5   0  0.6825300E-03  0.9118800E+02  0.7818608E-02  0.1180000E+00
       11   -1    0    0    0    0  0.00000000000E+00  0.00000000000E+00  0.39999999673E+01  0.40000000000E+01  0.51109989000E-03 0. -1.
     -623   -1    0    0    0    0  0.00000000000E+00  0.00000000000E+00  0.12525980253E-10  0.17130000000E+03  0.17130000000E+03 0.  1.
       11    1    1    2    0    0 -0.72983881644E-01  0.36702188874E-01 -0.14682959256E-01  0.83003302125E-01  0.51109989000E-03 0. -1.
     -623    1    1    2    0    0 -0.13979422179E-01 -0.19806698756E+00  0.92782647894E+00  0.17130262779E+03  0.17130000000E+03 0.  1.
      622    1    1    2    0    0  0.86963303823E-01  0.16136479868E+00  0.30868564477E+01  0.39143689074E+01  0.24000000000E+01 0. -1.
</event>
<event>
 5   0  0.6825300E-03  0.9118800E+02  0.7818608E-02  0.1180000E+00
       11   -1    0    0    0    0  0.00000000000E+00  0.00000000000E+00  0.39999999673E+01  0.40000000000E+01  0.51109989000E-03 0. -1.
     -623   -1    0    0    0    0  0.00000000000E+00  0.00000000000E+00  0.12525980253E-10  0.17130000000E+03  0.17130000000E+03 0. -1.
       11    1    1    2    0    0  0.93118112444E-01  0.15689133543E+00 -0.12488422902E+00  0.22109320631E+00  0.51109989000E-03 0. -1.
     -623    1    1    2    0    0 -0.29465583612E+00  0.72024083562E-01  0.12280165603E+01  0.17130467021E+03  0.17130000000E+03 0. -1.
      622    1    1    2    0    0  0.20153772368E+00 -0.22891541899E+00  0.28968676360E+01  0.37742365882E+01  0.24000000000E+01 0. -1.
</event>
<event>
 5   0  0.6825300E-03  0.9118800E+02  0.7818608E-02  0.1180000E+00
       11   -1    0    0    0    0  0.00000000000E+00  0.00000000000E+00  0.39999999673E+01  0.40000000000E+01  0.51109989000E-03 0.  1.
     -623   -1    0    0    0    0  0.00000000000E+00  0.00000000000E+00  0.12525980253E-10  0.17130000000E+03  0.17130000000E+03 0. -1.
       11    1    1    2    0    0 -0.12296017935E+00  0.59759237973E-01  0.63321493482E-01  0.15066600475E+00  0.51109989000E-03 0.  1.
     -623    1    1    2    0    0  0.93743116063E-01  0.42071712904E+00  0.97014046396E+00  0.17130328941E+03  0.17130000000E+03 0. -1.
      622    1    1    2    0    0  0.29217063283E-01 -0.48047636701E+00  0.29665380099E+01  0.38460445838E+01  0.24000000000E+01 0.  1.
</event>
<event>
 5   0  0.6825300E-03  0.9118800E+02  0.7818608E-02  0.1180000E+00
       11   -1    0    0    0    0  0.00000000000E+00  0.00000000000E+00  0.39999999673E+01  0.40000000000E+01  0.51109989000E-03 0. -1.
     -623   -1    0    0    0    0  0.00000000000E+00  0.00000000000E+00  0.12525980253E-10  0.17130000000E+03  0.17130000000E+03 0.  1.
       11    1    1    2    0    0 -0.87500497111E-02 -0.21403655856E+00  0.13229958516E+00  0.25177699105E+00  0.51109989000E-03 0. -1.
     -623    1    1    2    0    0  0.35039837068E+00  0.58397647455E+00  0.10389462137E+01  0.17130450437E+03  0.17130000000E+03 0.  1.
      622    1    1    2    0    0 -0.34164832097E+00 -0.36993991599E+00  0.28287541685E+01  0.37437186409E+01  0.24000000000E+01 0. -1.
</event>
<event>
 5   0  0.6825300E-03  0.9118800E+02  0.7818608E-02  0.1180000E+00
       11   -1    0    0    0    0  0.00000000000E+00  0.00000000000E+00  0.39999999673E+01  0.40000000000E+01  0.51109989000E-03 0.  1.
     -623   -1    0    0    0    0  0.00000000000E+00  0.00000000000E+00  0.12525980253E-10  0.17130000000E+03  0.17130000000E+03 0. -1.
       11    1    1    2    0    0  0.18259919221E+00 -0.17926651465E+00  0.39834881532E+00  0.47345642689E+00  0.51109989000E-03 0.  1.
     -623    1    1    2    0    0  0.34802725538E+00  0.81262550997E+00  0.11624020696E+01  0.17130622482E+03  0.17130000000E+03 0. -1.
      622    1    1    2    0    0 -0.53062644759E+00 -0.63335899531E+00  0.24392490825E+01  0.35203187540E+01  0.24000000000E+01 0.  1.
</event>
<event>
 5   0  0.6825300E-03  0.9118800E+02  0.7818608E-02  0.1180000E+00
       11   -1    0    0    0    0  0.00000000000E+00  0.00000000000E+00  0.39999999673E+01  0.40000000000E+01  0.51109989000E-03 0. -1.
     -623   -1    0    0    0    0  0.00000000000E+00  0.00000000000E+00  0.12525980253E-10  0.17130000000E+03  0.17130000000E+03 0. -1.
       11    1    1    2    0    0 -0.69815865978E-01  0.13992461391E+00  0.18422163461E+00  0.24164234853E+00  0.51109989000E-03 0. -1.
     -623    1    1    2    0    0  0.42014806178E-01  0.31934309657E+00  0.96430789751E+00  0.17130301700E+03  0.17130000000E+03 0. -1.
      622    1    1    2    0    0  0.27801059800E-01 -0.45926771048E+00  0.28514704352E+01  0.37553406466E+01  0.24000000000E+01 0. -1.
</event>
<event>
 5   0  0.6825300E-03  0.9118800E+02  0.7818608E-02  0.1180000E+00
       11   -1    0    0    0    0  0.00000000000E+00  0.00000000000E+00  0.39999999673E+01  0.40000000000E+01  0.51109989000E-03 0.  1.
     -623   -1    0    0    0    0  0.00000000000E+00  0.00000000000E+00  0.12525980253E-10  0.17130000000E+03  0.17130000000E+03 0. -1.
       11    1    1    2    0    0  0.23700135821E+00 -0.85404834041E-01  0.60642526905E-01  0.25911658913E+00  0.51109989000E-03 0.  1.
     -623    1    1    2    0    0 -0.38939242006E+00 -0.26133303788E+00  0.11004264925E+01  0.17130417642E+03  0.17130000000E+03 0. -1.
      622    1    1    2    0    0  0.15239106184E+00  0.34673787192E+00  0.28389309480E+01  0.37367069881E+01  0.24000000000E+01 0.  1.
</event>
<event>
 5   0  0.6825300E-03  0.9118800E+02  0.7818608E-02  0.1180000E+00
       11   -1    0    0    0    0  0.00000000000E+00  0.00000000000E+00  0.39999999673E+01  0.40000000000E+01  0.51109989000E-03 0. -1.
     -623   -1    0    0    0    0  0.00000000000E+00  0.00000000000E+00  0.12525980253E-10  0.17130000000E+03  0.17130000000E+03 0.  1.
       11    1    1    2    0    0  0.16255402942E+00  0.43498221835E-01  0.58341390429E-02  0.16837519469E+00  0.51109989000E-03 0. -1.
     -623    1    1    2    0    0 -0.74958411088E+00 -0.20460003221E-01  0.10721891341E+01  0.17130499667E+03  0.17130000000E+03 0.  1.
      622    1    1    2    0    0  0.58703008145E+00 -0.23038218615E-01  0.29219766942E+01  0.38266281342E+01  0.24000000000E+01 0. -1.
</event>
<event>
 5   0  0.6825300E-03  0.9118800E+02  0.7818608E-02  0.1180000E+00
       11   -1    0    0    0    0  0.00000000000E+00  0.00000000000E+00  0.39999999673E+01  0.40000000000E+01  0.51109989000E-03 0.  1.
     -623   -1    0    0    0    0  0.00000000000E+00  0.00000000000E+00  0.12525980253E-10  0.17130000000E+03  0.17130000000E+03 0. -1.
       11    1    1    2    0    0  0.11015557445E+00  0.47957044490E-01 -0.15328050251E-01  0.12111704688E+00  0.51109989000E-03 0.  1.
     -623    1    1    2    0    0 -0.33260657268E+00  0.26609252124E+00  0.99688101070E+00  0.17130343022E+03  0.17130000000E+03 0. -1.
      622    1    1    2    0    0  0.22245099823E+00 -0.31404956573E+00  0.30184470069E+01  0.38754527361E+01  0.24000000000E+01 0.  1.
</event>
<event>
 5   0  0.6825300E-03  0.9118800E+02  0.7818608E-02  0.1180000E+00
       11   -1    0    0    0    0  0.00000000000E+00  0.00000000000E+00  0.39999999673E+01  0.40000000000E+01  0.51109989000E-03 0.  1.
     -623   -1    0    0    0    0  0.00000000000E+00  0.00000000000E+00  0.12525980253E-10  0.17130000000E+03  0.17130000000E+03 0. -1.
       11    1    1    2    0    0 -0.19535539663E+00  0.25410724282E+00  0.84807522767E-01  0.33155210599E+00  0.51109989000E-03 0.  1.
     -623    1    1    2    0    0  0.17440472189E+00  0.85932887027E-01  0.11671975269E+01  0.17130408679E+03  0.17130000000E+03 0. -1.
      622    1    1    2    0    0  0.20950674732E-01 -0.34004012985E+00  0.27479949177E+01  0.36643611023E+01  0.24000000000E+01 0.  1.
</event>
<event>
 5   0  0.6825300E-03  0.9118800E+02  0.7818608E-02  0.1180000E+00
       11   -1    0    0    0    0  0.00000000000E+00  0.00000000000E+00  0.39999999673E+01  0.40000000000E+01  0.51109989000E-03 0.  1.
     -623   -1    0    0    0    0  0.00000000000E+00  0.00000000000E+00  0.12525980253E-10  0.17130000000E+03  0.17130000000E+03 0. -1.
       11    1    1    2    0    0 -0.11645284713E-01  0.13228603801E+00 -0.14062185716E-01  0.13354106034E+00  0.51109989000E-03 0.  1.
     -623    1    1    2    0    0 -0.16953755883E-01 -0.47762078388E+00  0.10071713088E+01  0.17130362752E+03  0.17130000000E+03 0. -1.
      622    1    1    2    0    0  0.28599040596E-01  0.34533474587E+00  0.30068908443E+01  0.38628314151E+01  0.24000000000E+01 0.  1.
</event>
<event>
 5   0  0.6825300E-03  0.9118800E+02  0.7818608E-02  0.1180000E+00
       11   -1    0    0    0    0  0.00000000000E+00  0.00000000000E+00  0.39999999673E+01  0.40000000000E+01  0.51109989000E-03 0.  1.
     -623   -1    0    0    0    0  0.00000000000E+00  0.00000000000E+00  0.12525980253E-10  0.17130000000E+03  0.17130000000E+03 0. -1.
       11    1    1    2    0    0  0.44203371074E-02 -0.90289529481E-01  0.41179289875E-01  0.99336466878E-01  0.51109989000E-03 0.  1.
     -623    1    1    2    0    0  0.26299963815E-01 -0.25331474758E+00  0.90661133953E+00  0.17130258843E+03  0.17130000000E+03 0. -1.
      622    1    1    2    0    0 -0.30720300922E-01  0.34360427706E+00  0.30522093380E+01  0.38980750992E+01  0.24000000000E+01 0.  1.
</event>
<event>
 5   0  0.6825300E-03  0.9118800E+02  0.7818608E-02  0.1180000E+00
       11   -1    0    0    0    0  0.00000000000E+00  0.00000000000E+00  0.39999999673E+01  0.40000000000E+01  0.51109989000E-03 0.  1.
     -623   -1    0    0    0    0  0.00000000000E+00  0.00000000000E+00  0.12525980253E-10  0.17130000000E+03  0.17130000000E+03 0. -1.
       11    1    1    2    0    0 -0.17168477660E+00  0.67828563922E-01  0.11995679074E+00  0.22015056091E+00  0.51109989000E-03 0.  1.
     -623    1    1    2    0    0  0.31812072883E+00  0.97897274725E-01  0.97228477808E+00  0.17130308264E+03  0.17130000000E+03 0. -1.
      622    1    1    2    0    0 -0.14643595223E+00 -0.16572583865E+00  0.29077583985E+01  0.37767667979E+01  0.24000000000E+01 0.  1.
</event>
<event>
 5   0  0.6825300E-03  0.9118800E+02  0.7818608E-02  0.1180000E+00
       11   -1    0    0    0    0  0.00000000000E+00  0.00000000000E+00  0.39999999673E+01  0.40000000000E+01  0.51109989000E-03 0. -1.
     -623   -1    0    0    0    0  0.00000000000E+00  0.00000000000E+00  0.12525980253E-10  0.17130000000E+03  0.17130000000E+03 0. -1.
       11    1    1    2    0    0  0.12523768803E-01  0.74052652168E-01  0.30791531657E-01  0.81172776972E-01  0.51109989000E-03 0. -1.
     -623    1    1    2    0    0 -0.39849476704E+00 -0.50880721196E+00  0.93114230983E+00  0.17130374984E+03  0.17130000000E+03 0. -1.
      622    1    1    2    0    0  0.38597099824E+00  0.43475455979E+00  0.30380661259E+01  0.39150773842E+01  0.24000000000E+01 0. -1.
</event>
<event>
 5   0  0.6825300E-03  0.9118800E+02  0.7818608E-02  0.1180000E+00
       11   -1    0    0    0    0  0.00000000000E+00  0.00000000000E+00  0.39999999673E+01  0.40000000000E+01  0.51109989000E-03 0.  1.
     -623   -1    0    0    0    0  0.00000000000E+00  0.00000000000E+00  0.12525980253E-10  0.17130000000E+03  0.17130000000E+03 0. -1.
       11    1    1    2    0    0  0.75575034727E-01 -0.43232219571E-01  0.86835982281E-01  0.12296893805E+00  0.51109989000E-03 0.  1.
     -623    1    1    2    0    0 -0.27448257379E+00 -0.68904620777E-01  0.88003087261E+00  0.17130249427E+03  0.17130000000E+03 0. -1.
      622    1    1    2    0    0  0.19890753907E+00  0.11213684035E+00  0.30331331125E+01  0.38745367927E+01  0.24000000000E+01 0.  1.
</event>
<event>
 5   0  0.6825300E-03  0.9118800E+02  0.7818608E-02  0.1180000E+00
       11   -1    0    0    0    0  0.00000000000E+00  0.00000000000E+00  0.39999999673E+01  0.40000000000E+01  0.51109989000E-03 0. -1.
     -623   -1    0    0    0    0  0.00000000000E+00  0.00000000000E+00  0.12525980253E-10  0.17130000000E+03  0.17130000000E+03 0.  1.
       11    1    1    2    0    0 -0.70740708537E-01 -0.19740078977E-01  0.24108930474E+00  0.25202823779E+00  0.51109989000E-03 0. -1.
     -623    1    1    2    0    0  0.70206780257E+00 -0.20165284093E+00  0.96468688049E+00  0.17130427369E+03  0.17130000000E+03 0.  1.
      622    1    1    2    0    0 -0.63132709403E+00  0.22139291991E+00  0.27942237821E+01  0.37436980740E+01  0.24000000000E+01 0. -1.
</event>
<event>
 5   0  0.6825300E-03  0.9118800E+02  0.7818608E-02  0.1180000E+00
       11   -1    0    0    0    0  0.00000000000E+00  0.00000000000E+00  0.39999999673E+01  0.40000000000E+01  0.51109989000E-03 0. -1.
     -623   -1    0    0    0    0  0.00000000000E+00  0.00000000000E+00  0.12525980253E-10  0.17130000000E+03  0.17130000000E+03 0. -1.
       11    1    1    2    0    0  0.11567195257E+00 -0.86712994776E-01  0.19469442657E+00  0.24249809285E+00  0.51109989000E-03 0. -1.
     -623    1    1    2    0    0 -0.16890968358E-01  0.12761344697E+00  0.91939293438E+00  0.17130251561E+03  0.17130000000E+03 0. -1.
      622    1    1    2    0    0 -0.98780984213E-01 -0.40900452190E-01  0.28859126064E+01  0.37549862985E+01  0.24000000000E+01 0. -1.
</event>
<event>
 5   0  0.6825300E-03  0.9118800E+02  0.7818608E-02  0.1180000E+00
       11   -1    0    0    0    0  0.00000000000E+00  0.00000000000E+00  0.39999999673E+01  0.40000000000E+01  0.51109989000E-03 0.  1.
     -623   -1    0    0    0    0  0.00000000000E+00  0.00000000000E+00  0.12525980253E-10  0.17130000000E+03  0.17130000000E+03 0. -1.
       11    1    1    2    0    0  0.10668373696E+00 -0.14407786615E-01 -0.84641902470E-01  0.13694348076E+00  0.51109989000E-03 0.  1.
     -623    1    1    2    0    0  0.73284207066E-01 -0.83368424136E-01  0.10688121382E+01  0.17130337031E+03  0.17130000000E+03 0. -1.
      622    1    1    2    0    0 -0.17996794402E+00  0.97776210751E-01  0.30158297316E+01  0.38596862072E+01  0.24000000000E+01 0.  0.
</event>
<event>
 5   0  0.6825300E-03  0.9118800E+02  0.7818608E-02  0.1180000E+00
       11   -1    0    0    0    0  0.00000000000E+00  0.00000000000E+00  0.39999999673E+01  0.40000000000E+01  0.51109989000E-03 0.  1.
     -623   -1    0    0    0    0  0.00000000000E+00  0.00000000000E+00  0.12525980253E-10  0.17130000000E+03  0.17130000000E+03 0. -1.
       11    1    1    2    0    0  0.11468781057E+00 -0.19729563838E+00  0.19842898155E+00  0.30241227614E+00  0.51109989000E-03 0.  1.
     -623    1    1    2    0    0 -0.54905570540E+00  0.31824872958E+00  0.10307876886E+01  0.17130427685E+03  0.17130000000E+03 0. -1.
      622    1    1    2    0    0  0.43436789483E+00 -0.12095309120E+00  0.27707832972E+01  0.36933108722E+01  0.24000000000E+01 0.  1.
</event>
<event>
 5   0  0.6825300E-03  0.9118800E+02  0.7818608E-02  0.1180000E+00
       11   -1    0    0    0    0  0.00000000000E+00  0.00000000000E+00  0.39999999673E+01  0.40000000000E+01  0.51109989000E-03 0. -1.
     -623   -1    0    0    0    0  0.00000000000E+00  0.00000000000E+00  0.12525980253E-10  0.17130000000E+03  0.17130000000E+03 0. -1.
       11    1    1    2    0    0  0.76640145821E-01  0.11851952740E+00 -0.14920993772E+00  0.20538855145E+00  0.51109989000E-03 0. -1.
     -623    1    1    2    0    0  0.28429336190E+00 -0.26166889786E+00  0.12421755365E+01  0.17130493949E+03  0.17130000000E+03 0. -1.
      622    1    1    2    0    0 -0.36093350773E+00  0.14314937045E+00  0.29070343686E+01  0.37896719594E+01  0.24000000000E+01 0.  0.
</event>
<event>
 5   0  0.6825300E-03  0.9118800E+02  0.7818608E-02  0.1180000E+00
       11   -1    0    0    0    0  0.00000000000E+00  0.00000000000E+00  0.39999999673E+01  0.40000000000E+01  0.51109989000E-03 0. -1.
     -623   -1    0    0    0    0  0.00000000000E+00  0.00000000000E+00  0.12525980253E-10  0.17130000000E+03  0.17130000000E+03 0.  1.
       11    1    1    2    0    0  0.10000261051E+00 -0.99422893028E-01  0.25899861589E+00  0.29489994578E+00  0.51109989000E-03 0. -1.
     -623    1    1    2    0    0 -0.15933169829E+00 -0.84331889163E-01  0.92832561344E+00  0.17130261027E+03  0.17130000000E+03 0.  1.
      622    1    1    2    0    0  0.59329087779E-01  0.18375478219E+00  0.28126757380E+01  0.37024897796E+01  0.24000000000E+01 0. -1.
</event>
<event>
 5   0  0.6825300E-03  0.9118800E+02  0.7818608E-02  0.1180000E+00
       11   -1    0    0    0    0  0.00000000000E+00  0.00000000000E+00  0.39999999673E+01  0.40000000000E+01  0.51109989000E-03 0.  1.
     -623   -1    0    0    0    0  0.00000000000E+00  0.00000000000E+00  0.12525980253E-10  0.17130000000E+03  0.17130000000E+03 0.  1.
       11    1    1    2    0    0  0.19917726041E-01 -0.83444815428E-01  0.31600776765E+00  0.32744606193E+00  0.51109989000E-03 0.  1.
     -623    1    1    2    0    0  0.12715029152E+00  0.11259480054E+00  0.91149341522E+00  0.17130250922E+03  0.17130000000E+03 0.  1.
      622    1    1    2    0    0 -0.14706801756E+00 -0.29149985109E-01  0.27724987845E+01  0.36700447182E+01  0.24000000000E+01 0.  1.
</event>
<event>
 5   0  0.6825300E-03  0.9118800E+02  0.7818608E-02  0.1180000E+00
       11   -1    0    0    0    0  0.00000000000E+00  0.00000000000E+00  0.39999999673E+01  0.40000000000E+01  0.51109989000E-03 0.  1.
     -623   -1    0    0    0    0  0.00000000000E+00  0.00000000000E+00  0.12525980253E-10  0.17130000000E+03  0.17130000000E+03 0. -1.
       11    1    1    2    0    0  0.15511565719E+00 -0.15257785330E+00  0.14311797328E+00  0.26043019011E+00  0.51109989000E-03 0.  1.
     -623    1    1    2    0    0 -0.44477048655E+00  0.24687041124E+00  0.10101858232E+01  0.17130373388E+03  0.17130000000E+03 0. -1.
      622    1    1    2    0    0  0.28965482936E+00 -0.94292557942E-01  0.28466961709E+01  0.37358359300E+01  0.24000000000E+01 0.  1.
</event>
<event>
 5   0  0.6825300E-03  0.9118800E+02  0.7818608E-02  0.1180000E+00
       11   -1    0    0    0    0  0.00000000000E+00  0.00000000000E+00  0.39999999673E+01  0.40000000000E+01  0.51109989000E-03 0. -1.
     -623   -1    0    0    0    0  0.00000000000E+00  0.00000000000E+00  0.12525980253E-10  0.17130000000E+03  0.17130000000E+03 0.  1.
       11    1    1    2    0    0  0.14406509547E-01 -0.38201974244E-01 -0.55386656093E-01  0.68810473393E-01  0.51109989000E-03 0. -1.
     -623    1    1    2    0    0  0.22568206018E+00 -0.16107464143E+00  0.96120843806E+00  0.17130292116E+03  0.17130000000E+03 0.  1.
      622    1    1    2    0    0 -0.24008856973E+00  0.19927661567E+00  0.30941781854E+01  0.39282683633E+01  0.24000000000E+01 0. -1.
</event>
<event>
 5   0  0.6825300E-03  0.9118800E+02  0.7818608E-02  0.1180000E+00
       11   -1    0    0    0    0  0.00000000000E+00  0.00000000000E+00  0.39999999673E+01  0.40000000000E+01  0.51109989000E-03 0. -1.
     -623   -1    0    0    0    0  0.00000000000E+00  0.00000000000E+00  0.12525980253E-10  0.17130000000E+03  0.17130000000E+03 0. -1.
       11    1    1    2    0    0  0.11020828911E+00 -0.10433412961E+00  0.30960102732E+00  0.34479636733E+00  0.51109989000E-03 0. -1.
     -623    1    1    2    0    0 -0.53291426681E+00  0.66536959625E+00  0.10316618140E+01  0.17130522771E+03  0.17130000000E+03 0. -1.
      622    1    1    2    0    0  0.42270597769E+00 -0.56103546665E+00  0.26587371260E+01  0.36499759237E+01  0.24000000000E+01 0. -1.
</event>
<event>
 5   0  0.6825300E-03  0.9118800E+02  0.7818608E-02  0.1180000E+00
       11   -1    0    0    0    0  0.00000000000E+00  0.00000000000E+00  0.39999999673E+01  0.40000000000E+01  0.51109989000E-03 0.  1.
     -623   -1    0    0    0    0  0.00000000000E+00  0.00000000000E+00  0.12525980253E-10  0.17130000000E+03  0.17130000000E+03 0.  1.
       11    1    1    2    0    0  0.72803718064E+00  0.32692199557E+00 -0.62853374413E+00  0.10158597621E+01  0.51109989000E-03 0.  1.
     -623    1    1    2    0    0  0.46661611159E+00  0.13077781769E+00  0.34912946809E+01  0.17133625995E+03  0.17130000000E+03 0.  1.
      622    1    1    2    0    0 -0.11946532922E+01 -0.45769981326E+00  0.11372390306E+01  0.29478802928E+01  0.24000000000E+01 0.  0.
</event>
<event>
 5   0  0.6825300E-03  0.9118800E+02  0.7818608E-02  0.1180000E+00
       11   -1    0    0    0    0  0.00000000000E+00  0.00000000000E+00  0.39999999673E+01  0.40000000000E+01  0.51109989000E-03 0. -1.
     -623   -1    0    0    0    0  0.00000000000E+00  0.00000000000E+00  0.12525980253E-10  0.17130000000E+03  0.17130000000E+03 0. -1.
       11    1    1    2    0    0  0.57167313828E-01 -0.47354124131E+00  0.36030189269E+00  0.59776845357E+00  0.51109989000E-03 0. -1.
     -623    1    1    2    0    0  0.10457458005E+00  0.87690573744E-02  0.12859849347E+01  0.17130485915E+03  0.17130000000E+03 0. -1.
      622    1    1    2    0    0 -0.16174189388E+00  0.46477218393E+00  0.23537131400E+01  0.33973723918E+01  0.24000000000E+01 0. -1.
</event>
<event>
 5   0  0.6825300E-03  0.9118800E+02  0.7818608E-02  0.1180000E+00
       11   -1    0    0    0    0  0.00000000000E+00  0.00000000000E+00  0.39999999673E+01  0.40000000000E+01  0.51109989000E-03 0.  1.
     -623   -1    0    0    0    0  0.00000000000E+00  0.00000000000E+00  0.12525980253E-10  0.17130000000E+03  0.17130000000E+03 0. -1.
       11    1    1    2    0    0  0.30407216849E-01  0.32278313413E-02  0.28981257390E+00  0.29142169951E+00  0.51109989000E-03 0.  1.
     -623    1    1    2    0    0 -0.33116087902E+00  0.94048692137E-01  0.90423339292E+00  0.17130273247E+03  0.17130000000E+03 0. -1.
      622    1    1    2    0    0  0.30075366217E+00 -0.97276523478E-01  0.28059540005E+01  0.37058458333E+01  0.24000000000E+01 0.  1.
</event>
<event>
 5   0  0.6825300E-03  0.9118800E+02  0.7818608E-02  0.1180000E+00
       11   -1    0    0    0    0  0.00000000000E+00  0.00000000000E+00  0.39999999673E+01  0.40000000000E+01  0.51109989000E-03 0. -1.
     -623   -1    0    0    0    0  0.00000000000E+00  0.00000000000E+00  0.12525980253E-10  0.17130000000E+03  0.17130000000E+03 0.  1.
       11    1    1    2    0    0  0.11787458056E+00  0.36330554099E-01 -0.14633090895E+00  0.19138265868E+00  0.51109989000E-03 0. -1.
     -623    1    1    2    0    0  0.54711737083E-01 -0.38299799262E+00  0.12207257615E+01  0.17130478643E+03  0.17130000000E+03 0.  1.
      622    1    1    2    0    0 -0.17258631764E+00  0.34666743853E+00  0.29256051148E+01  0.38038309160E+01  0.24000000000E+01 0. -1.
</event>
<event>
 5   0  0.6825300E-03  0.9118800E+02  0.7818608E-02  0.1180000E+00
       11   -1    0    0    0    0  0.00000000000E+00  0.00000000000E+00  0.39999999673E+01  0.40000000000E+01  0.51109989000E-03 0. -1.
     -623   -1    0    0    0    0  0.00000000000E+00  0.00000000000E+00  0.12525980253E-10  0.17130000000E+03  0.17130000000E+03 0.  1.
       11    1    1    2    0    0  0.36184206313E-01 -0.11256876457E+00  0.16431501111E+00  0.20243692262E+00  0.51109989000E-03 0. -1.
     -623    1    1    2    0    0  0.30717644325E+00  0.31147777069E+00  0.92348915839E+00  0.17130304787E+03  0.17130000000E+03 0.  1.
      622    1    1    2    0    0 -0.34336064957E+00 -0.19890900612E+00  0.29121957979E+01  0.37945152119E+01  0.24000000000E+01 0. -1.
</event>
<event>
 5   0  0.6825300E-03  0.9118800E+02  0.7818608E-02  0.1180000E+00
       11   -1    0    0    0    0  0.00000000000E+00  0.00000000000E+00  0.39999999673E+01  0.40000000000E+01  0.51109989000E-03 0. -1.
     -623   -1    0    0    0    0  0.00000000000E+00  0.00000000000E+00  0.12525980253E-10  0.17130000000E+03  0.17130000000E+03 0.  1.
       11    1    1    2    0    0  0.40981778204E+00  0.44958370956E+00  0.48234945005E+00  0.77636162937E+00  0.51109989000E-03 0. -1.
     -623    1    1    2    0    0  0.82638494875E-01  0.43760040386E+00  0.16339486130E+01  0.17130837140E+03  0.17130000000E+03 0.  1.
      622    1    1    2    0    0 -0.49245627691E+00 -0.88718411342E+00  0.18837019044E+01  0.32152669718E+01  0.24000000000E+01 0.  0.
</event>
<event>
 5   0  0.6825300E-03  0.9118800E+02  0.7818608E-02  0.1180000E+00
       11   -1    0    0    0    0  0.00000000000E+00  0.00000000000E+00  0.39999999673E+01  0.40000000000E+01  0.51109989000E-03 0.  1.
     -623   -1    0    0    0    0  0.00000000000E+00  0.00000000000E+00  0.12525980253E-10  0.17130000000E+03  0.17130000000E+03 0. -1.
       11    1    1    2    0    0 -0.69907336662E-01  0.50715489915E-02  0.74248244155E-03  0.70096853204E-01  0.51109989000E-03 0.  1.
     -623    1    1    2    0    0  0.58724857022E-01  0.22490486421E+00  0.89904001488E+00  0.17130251692E+03  0.17130000000E+03 0. -1.
      622    1    1    2    0    0  0.11182479639E-01 -0.22997641320E+00  0.31002174700E+01  0.39273862250E+01  0.24000000000E+01 0.  1.
</event>
<event>
 5   0  0.6825300E-03  0.9118800E+02  0.7818608E-02  0.1180000E+00
       11   -1    0    0    0    0  0.00000000000E+00  0.00000000000E+00  0.39999999673E+01  0.40000000000E+01  0.51109989000E-03 0. -1.
     -623   -1    0    0    0    0  0.00000000000E+00  0.00000000000E+00  0.12525980253E-10  0.17130000000E+03  0.17130000000E+03 0.  1.
       11    1    1    2    0    0  0.57518261647E-01  0.67357465654E-01 -0.12781666802E-01  0.89493077003E-01  0.51109989000E-03 0. -1.
     -623    1    1    2    0    0 -0.18219332738E+00  0.26720771952E+00  0.94983989931E+00  0.17130293865E+03  0.17130000000E+03 0.  1.
      622    1    1    2    0    0  0.12467506574E+00 -0.33456518518E+00  0.30629417349E+01  0.39075682728E+01  0.24000000000E+01 0. -1.
</event>
<event>
 5   0  0.6825300E-03  0.9118800E+02  0.7818608E-02  0.1180000E+00
       11   -1    0    0    0    0  0.00000000000E+00  0.00000000000E+00  0.39999999673E+01  0.40000000000E+01  0.51109989000E-03 0. -1.
     -623   -1    0    0    0    0  0.00000000000E+00  0.00000000000E+00  0.12525980253E-10  0.17130000000E+03  0.17130000000E+03 0.  1.
       11    1    1    2    0    0  0.10004923681E+00  0.24656441747E+00 -0.25587831904E+00  0.36915828194E+00  0.51109989000E-03 0. -1.
     -623    1    1    2    0    0  0.39432897631E-01  0.23759890151E+01  0.39846256910E+01  0.17136281429E+03  0.17130000000E+03 0.  1.
      622    1    1    2    0    0 -0.13948213444E+00 -0.26225534325E+01  0.27125259539E+00  0.35680274302E+01  0.24000000000E+01 0. -1.
</event>
<event>
 5   0  0.6825300E-03  0.9118800E+02  0.7818608E-02  0.1180000E+00
       11   -1    0    0    0    0  0.00000000000E+00  0.00000000000E+00  0.39999999673E+01  0.40000000000E+01  0.51109989000E-03 0. -1.
     -623   -1    0    0    0    0  0.00000000000E+00  0.00000000000E+00  0.12525980253E-10  0.17130000000E+03  0.17130000000E+03 0.  1.
       11    1    1    2    0    0 -0.40956952764E-01 -0.26163579680E-01  0.12948490282E+00  0.13830620435E+00  0.51109989000E-03 0. -1.
     -623    1    1    2    0    0 -0.12279334375E+00  0.34388386243E+00  0.86970380938E+00  0.17130259694E+03  0.17130000000E+03 0.  1.
      622    1    1    2    0    0  0.16375029652E+00 -0.31772028275E+00  0.30008112552E+01  0.38590968538E+01  0.24000000000E+01 0. -1.
</event>
<event>
 5   0  0.6825300E-03  0.9118800E+02  0.7818608E-02  0.1180000E+00
       11   -1    0    0    0    0  0.00000000000E+00  0.00000000000E+00  0.39999999673E+01  0.40000000000E+01  0.51109989000E-03 0.  1.
     -623   -1    0    0    0    0  0.00000000000E+00  0.00000000000E+00  0.12525980253E-10  0.17130000000E+03  0.17130000000E+03 0.  1.
       11    1    1    2    0    0  0.29037880186E+00  0.23103686311E+00  0.91214899853E+00  0.98474054321E+00  0.51109989000E-03 0.  1.
     -623    1    1    2    0    0 -0.88160694892E+00 -0.48660987371E+00  0.13952549056E+01  0.17130864180E+03  0.17130000000E+03 0.  1.
      622    1    1    2    0    0  0.59122814706E+00  0.25557301060E+00  0.16925960632E+01  0.30066176542E+01  0.24000000000E+01 0.  1.
</event>
<event>
 5   0  0.6825300E-03  0.9118800E+02  0.7818608E-02  0.1180000E+00
       11   -1    0    0    0    0  0.00000000000E+00  0.00000000000E+00  0.39999999673E+01  0.40000000000E+01  0.51109989000E-03 0.  1.
     -623   -1    0    0    0    0  0.00000000000E+00  0.00000000000E+00  0.12525980253E-10  0.17130000000E+03  0.17130000000E+03 0. -1.
       11    1    1    2    0    0 -0.23141710598E+00 -0.23746675771E+00  0.15788228245E+00  0.36724843675E+00  0.51109989000E-03 0.  1.
     -623    1    1    2    0    0  0.49425219826E+00  0.22155590439E+00  0.11339672071E+01  0.17130460955E+03  0.17130000000E+03 0. -1.
      622    1    1    2    0    0 -0.26283509228E+00  0.15910853318E-01  0.27081504778E+01  0.36281420109E+01  0.24000000000E+01 0.  1.
</event>
<event>
 5   0  0.6825300E-03  0.9118800E+02  0.7818608E-02  0.1180000E+00
       11   -1    0    0    0    0  0.00000000000E+00  0.00000000000E+00  0.39999999673E+01  0.40000000000E+01  0.51109989000E-03 0.  1.
     -623   -1    0    0    0    0  0.00000000000E+00  0.00000000000E+00  0.12525980253E-10  0.17130000000E+03  0.17130000000E+03 0. -1.
       11    1    1    2    0    0 -0.61914251979E-01  0.11792144225E+00  0.12399825226E-01  0.13376418814E+00  0.51109989000E-03 0.  1.
     -623    1    1    2    0    0  0.11241795960E+00 -0.12003777814E+01  0.11680278782E+01  0.17130822465E+03  0.17130000000E+03 0. -1.
      622    1    1    2    0    0 -0.50503707619E-01  0.10824563392E+01  0.28195722640E+01  0.38580111589E+01  0.24000000000E+01 0.  1.
</event>
<event>
 5   0  0.6825300E-03  0.9118800E+02  0.7818608E-02  0.1180000E+00
       11   -1    0    0    0    0  0.00000000000E+00  0.00000000000E+00  0.39999999673E+01  0.40000000000E+01  0.51109989000E-03 0. -1.
     -623   -1    0    0    0    0  0.00000000000E+00  0.00000000000E+00  0.12525980253E-10  0.17130000000E+03  0.17130000000E+03 0. -1.
       11    1    1    2    0    0 -0.40656617461E+00  0.10004523996E+00  0.82432516899E-02  0.41877597447E+00  0.51109989000E-03 0. -1.
     -623    1    1    2    0    0  0.93371579693E+00 -0.23132471480E+00  0.14014457009E+01  0.17130843349E+03  0.17130000000E+03 0. -1.
      622    1    1    2    0    0 -0.52714962232E+00  0.13127947485E+00  0.25903110148E+01  0.35727905310E+01  0.24000000000E+01 0. -1.
</event>
<event>
 5   0  0.6825300E-03  0.9118800E+02  0.7818608E-02  0.1180000E+00
       11   -1    0    0    0    0  0.00000000000E+00  0.00000000000E+00  0.39999999673E+01  0.40000000000E+01  0.51109989000E-03 0.  1.
     -623   -1    0    0    0    0  0.00000000000E+00  0.00000000000E+00  0.12525980253E-10  0.17130000000E+03  0.17130000000E+03 0. -1.
       11    1    1    2    0    0 -0.30899862520E+00  0.32587676431E+00  0.50727113254E+00  0.67749544576E+00  0.51109989000E-03 0.  1.
     -623    1    1    2    0    0  0.53909238823E+00 -0.28729557695E+00  0.12148412818E+01  0.17130539688E+03  0.17130000000E+03 0. -1.
      622    1    1    2    0    0 -0.23009376303E+00 -0.38581187362E-01  0.22778875530E+01  0.33171076787E+01  0.24000000000E+01 0.  1.
</event>
<event>
 5   0  0.6825300E-03  0.9118800E+02  0.7818608E-02  0.1180000E+00
       11   -1    0    0    0    0  0.00000000000E+00  0.00000000000E+00  0.39999999673E+01  0.40000000000E+01  0.51109989000E-03 0.  1.
     -623   -1    0    0    0    0  0.00000000000E+00  0.00000000000E+00  0.12525980253E-10  0.17130000000E+03  0.17130000000E+03 0.  1.
       11    1    1    2    0    0  0.16184557415E+00 -0.28100384260E+00 -0.10379762730E+00  0.34048694260E+00  0.51109989000E-03 0.  1.
     -623    1    1    2    0    0  0.33891421760E+00  0.45899295812E+00  0.14018157395E+01  0.17130668587E+03  0.17130000000E+03 0.  1.
      622    1    1    2    0    0 -0.50075979175E+00 -0.17798911552E+00  0.27019818552E+01  0.36528271845E+01  0.24000000000E+01 0.  1.
</event>
<event>
 5   0  0.6825300E-03  0.9118800E+02  0.7818608E-02  0.1180000E+00
       11   -1    0    0    0    0  0.00000000000E+00  0.00000000000E+00  0.39999999673E+01  0.40000000000E+01  0.51109989000E-03 0.  1.
     -623   -1    0    0    0    0  0.00000000000E+00  0.00000000000E+00  0.12525980253E-10  0.17130000000E+03  0.17130000000E+03 0.  1.
       11    1    1    2    0    0  0.10034522292E+00 -0.67629414330E-01 -0.18054638665E+00  0.21734801679E+00  0.51109989000E-03 0.  1.
     -623    1    1    2    0    0  0.93113685216E-01  0.24636795637E+00  0.12750905791E+01  0.17130494804E+03  0.17130000000E+03 0.  1.
      622    1    1    2    0    0 -0.19345890814E+00 -0.17873854204E+00  0.29054557749E+01  0.37777039423E+01  0.24000000000E+01 0.  1.
</event>
<event>
 5   0  0.6825300E-03  0.9118800E+02  0.7818608E-02  0.1180000E+00
       11   -1    0    0    0    0  0.00000000000E+00  0.00000000000E+00  0.39999999673E+01  0.40000000000E+01  0.51109989000E-03 0.  1.
     -623   -1    0    0    0    0  0.00000000000E+00  0.00000000000E+00  0.12525980253E-10  0.17130000000E+03  0.17130000000E+03 0.  1.
       11    1    1    2    0    0 -0.25971627965E-01 -0.16027429834E+00  0.30277235237E-01  0.16516460990E+00  0.51109989000E-03 0.  1.
     -623    1    1    2    0    0  0.29108259442E+00  0.26810850228E+00  0.99679275396E+00  0.17130335726E+03  0.17130000000E+03 0.  1.
      622    1    1    2    0    0 -0.26511096645E+00 -0.10783420394E+00  0.29729299782E+01  0.38314781345E+01  0.24000000000E+01 0.  1.
</event>
<event>
 5   0  0.6825300E-03  0.9118800E+02  0.7818608E-02  0.1180000E+00
       11   -1    0    0    0    0  0.00000000000E+00  0.00000000000E+00  0.39999999673E+01  0.40000000000E+01  0.51109989000E-03 0.  1.
     -623   -1    0    0    0    0  0.00000000000E+00  0.00000000000E+00  0.12525980253E-10  0.17130000000E+03  0.17130000000E+03 0. -1.
       11    1    1    2    0    0 -0.26165268834E-01 -0.27974994004E+00  0.21914502967E+00  0.35632773607E+00  0.51109989000E-03 0.  1.
     -623    1    1    2    0    0 -0.12710973551E+00  0.23726991149E+00  0.10484311683E+01  0.17130341988E+03  0.17130000000E+03 0. -1.
      622    1    1    2    0    0  0.15327500435E+00  0.42480028546E-01  0.27324237694E+01  0.36402523862E+01  0.24000000000E+01 0.  1.
</event>
<event>
 5   0  0.6825300E-03  0.9118800E+02  0.7818608E-02  0.1180000E+00
       11   -1    0    0    0    0  0.00000000000E+00  0.00000000000E+00  0.39999999673E+01  0.40000000000E+01  0.51109989000E-03 0. -1.
     -623   -1    0    0    0    0  0.00000000000E+00  0.00000000000E+00  0.12525980253E-10  0.17130000000E+03  0.17130000000E+03 0.  1.
       11    1    1    2    0    0  0.34694313564E-01 -0.24695492541E-01 -0.73544621801E-02  0.43219348474E-01  0.51109989000E-03 0. -1.
     -623    1    1    2    0    0  0.34654296881E+00 -0.26369189756E+00  0.90180330388E+00  0.17130292722E+03  0.17130000000E+03 0.  1.
      622    1    1    2    0    0 -0.38123728238E+00  0.28838739010E+00  0.31055511257E+01  0.39538534301E+01  0.24000000000E+01 0. -1.
</event>
<event>
 5   0  0.6825300E-03  0.9118800E+02  0.7818608E-02  0.1180000E+00
       11   -1    0    0    0    0  0.00000000000E+00  0.00000000000E+00  0.39999999673E+01  0.40000000000E+01  0.51109989000E-03 0. -1.
     -623   -1    0    0    0    0  0.00000000000E+00  0.00000000000E+00  0.12525980253E-10  0.17130000000E+03  0.17130000000E+03 0. -1.
       11    1    1    2    0    0  0.27274852372E+00 -0.77835462430E-01  0.34933914626E+00  0.44998690729E+00  0.51109989000E-03 0. -1.
     -623    1    1    2    0    0  0.24542882746E-01  0.15774588349E+00  0.10575681509E+01  0.17130333895E+03  0.17130000000E+03 0. -1.
      622    1    1    2    0    0 -0.29729140646E+00 -0.79910421060E-01  0.25930926702E+01  0.35466741395E+01  0.24000000000E+01 0. -1.
</event>
<event>
 5   0  0.6825300E-03  0.9118800E+02  0.7818608E-02  0.1180000E+00
       11   -1    0    0    0    0  0.00000000000E+00  0.00000000000E+00  0.39999999673E+01  0.40000000000E+01  0.51109989000E-03 0.  1.
     -623   -1    0    0    0    0  0.00000000000E+00  0.00000000000E+00  0.12525980253E-10  0.17130000000E+03  0.17130000000E+03 0. -1.
       11    1    1    2    0    0 -0.26074488733E+00  0.70639758602E-01 -0.13048048862E+00  0.30000548477E+00  0.51109989000E-03 0.  1.
     -623    1    1    2    0    0  0.59794570840E+00 -0.30873869997E+00  0.13537478635E+01  0.17130667089E+03  0.17130000000E+03 0. -1.
      622    1    1    2    0    0 -0.33720082107E+00  0.23809894137E+00  0.27767325924E+01  0.36933236237E+01  0.24000000000E+01 0.  1.
</event>
<event>
 5   0  0.6825300E-03  0.9118800E+02  0.7818608E-02  0.1180000E+00
       11   -1    0    0    0    0  0.00000000000E+00  0.00000000000E+00  0.39999999673E+01  0.40000000000E+01  0.51109989000E-03 0.  1.
     -623   -1    0    0    0    0  0.00000000000E+00  0.00000000000E+00  0.12525980253E-10  0.17130000000E+03  0.17130000000E+03 0. -1.
       11    1    1    2    0    0  0.19400799460E+00 -0.25366439479E+00  0.39633536648E+00  0.50898596356E+00  0.51109989000E-03 0.  1.
     -623    1    1    2    0    0 -0.77649203745E+00 -0.36372430983E+00  0.12243299075E+01  0.17130652124E+03  0.17130000000E+03 0. -1.
      622    1    1    2    0    0  0.58248404285E+00  0.61738870463E+00  0.23793346934E+01  0.34844927975E+01  0.24000000000E+01 0.  1.
</event>
<event>
 5   0  0.6825300E-03  0.9118800E+02  0.7818608E-02  0.1180000E+00
       11   -1    0    0    0    0  0.00000000000E+00  0.00000000000E+00  0.39999999673E+01  0.40000000000E+01  0.51109989000E-03 0. -1.
     -623   -1    0    0    0    0  0.00000000000E+00  0.00000000000E+00  0.12525980253E-10  0.17130000000E+03  0.17130000000E+03 0.  1.
       11    1    1    2    0    0  0.97118366351E-01  0.17395209216E+00  0.12407247009E+00  0.23470310289E+00  0.51109989000E-03 0. -1.
     -623    1    1    2    0    0 -0.23733432054E-01 -0.13764033248E+00  0.97950776033E+00  0.17130285737E+03  0.17130000000E+03 0.  1.
      622    1    1    2    0    0 -0.73384934297E-01 -0.36311759678E-01  0.28964197369E+01  0.37624395258E+01  0.24000000000E+01 0. -1.
</event>
<event>
 5   0  0.6825300E-03  0.9118800E+02  0.7818608E-02  0.1180000E+00
       11   -1    0    0    0    0  0.00000000000E+00  0.00000000000E+00  0.39999999673E+01  0.40000000000E+01  0.51109989000E-03 0.  1.
     -623   -1    0    0    0    0  0.00000000000E+00  0.00000000000E+00  0.12525980253E-10  0.17130000000E+03  0.17130000000E+03 0. -1.
       11    1    1    2    0    0 -0.39123648273E-01 -0.13225725579E+00 -0.72862778960E-01  0.15598681785E+00  0.51109989000E-03 0.  1.
     -623    1    1    2    0    0  0.43907706678E+00 -0.11739264911E+00  0.11128387555E+01  0.17130421764E+03  0.17130000000E+03 0. -1.
      622    1    1    2    0    0 -0.39995341850E+00  0.24964990490E+00  0.29600239908E+01  0.38397955464E+01  0.24000000000E+01 0.  1.
</event>
<event>
 5   0  0.6825300E-03  0.9118800E+02  0.7818608E-02  0.1180000E+00
       11   -1    0    0    0    0  0.00000000000E+00  0.00000000000E+00  0.39999999673E+01  0.40000000000E+01  0.51109989000E-03 0. -1.
     -623   -1    0    0    0    0  0.00000000000E+00  0.00000000000E+00  0.12525980253E-10  0.17130000000E+03  0.17130000000E+03 0. -1.
       11    1    1    2    0    0 -0.36342443633E-01  0.11885643903E+00  0.14536681430E+00  0.19125741353E+00  0.51109989000E-03 0. -1.
     -623    1    1    2    0    0 -0.40287021341E-01 -0.35380659774E+00  0.91113577679E+00  0.17130279324E+03  0.17130000000E+03 0. -1.
      622    1    1    2    0    0  0.76629464973E-01  0.23495015871E+00  0.29434973763E+01  0.38059493502E+01  0.24000000000E+01 0. -1.
</event>
<event>
 5   0  0.6825300E-03  0.9118800E+02  0.7818608E-02  0.1180000E+00
       11   -1    0    0    0    0  0.00000000000E+00  0.00000000000E+00  0.39999999673E+01  0.40000000000E+01  0.51109989000E-03 0. -1.
     -623   -1    0    0    0    0  0.00000000000E+00  0.00000000000E+00  0.12525980253E-10  0.17130000000E+03  0.17130000000E+03 0.  1.
       11    1    1    2    0    0  0.10004686808E+00 -0.38690434752E-01 -0.54344984480E-01  0.12024959091E+00  0.51109989000E-03 0. -1.
     -623    1    1    2    0    0 -0.25882640315E+00 -0.26018464950E-01  0.10149019056E+01  0.17130320398E+03  0.17130000000E+03 0.  1.
      622    1    1    2    0    0  0.15877953507E+00  0.64708899702E-01  0.30394430463E+01  0.38765464287E+01  0.24000000000E+01 0. -1.
</event>
<event>
 5   0  0.6825300E-03  0.9118800E+02  0.7818608E-02  0.1180000E+00
       11   -1    0    0    0    0  0.00000000000E+00  0.00000000000E+00  0.39999999673E+01  0.40000000000E+01  0.51109989000E-03 0.  1.
     -623   -1    0    0    0    0  0.00000000000E+00  0.00000000000E+00  0.12525980253E-10  0.17130000000E+03  0.17130000000E+03 0.  1.
       11    1    1    2    0    0 -0.17906369207E+00  0.12372178018E+00 -0.46054279557E-01  0.22246829571E+00  0.51109989000E-03 0.  1.
     -623    1    1    2    0    0  0.26448332931E+00 -0.23946035283E+00  0.11378393398E+01  0.17130415048E+03  0.17130000000E+03 0.  1.
      622    1    1    2    0    0 -0.85419637240E-01  0.11573857265E+00  0.29082149071E+01  0.37733812261E+01  0.24000000000E+01 0.  1.
</event>
<event>
 5   0  0.6825300E-03  0.9118800E+02  0.7818608E-02  0.1180000E+00
       11   -1    0    0    0    0  0.00000000000E+00  0.00000000000E+00  0.39999999673E+01  0.40000000000E+01  0.51109989000E-03 0. -1.
     -623   -1    0    0    0    0  0.00000000000E+00  0.00000000000E+00  0.12525980253E-10  0.17130000000E+03  0.17130000000E+03 0.  1.
       11    1    1    2    0    0  0.13870688108E+00  0.12772021972E-01  0.13701275526E+00  0.19538546448E+00  0.51109989000E-03 0. -1.
     -623    1    1    2    0    0 -0.67650509967E-01 -0.13431225345E+00  0.91746867108E+00  0.17130252294E+03  0.17130000000E+03 0.  1.
      622    1    1    2    0    0 -0.71056371113E-01  0.12154023148E+00  0.29455185410E+01  0.38020915969E+01  0.24000000000E+01 0. -1.
</event>
<event>
 5   0  0.6825300E-03  0.9118800E+02  0.7818608E-02  0.1180000E+00
       11   -1    0    0    0    0  0.00000000000E+00  0.00000000000E+00  0.39999999673E+01  0.40000000000E+01  0.51109989000E-03 0. -1.
     -623   -1    0    0    0    0  0.00000000000E+00  0.00000000000E+00  0.12525980253E-10  0.17130000000E+03  0.17130000000E+03 0. -1.
       11    1    1    2    0    0  0.82903703252E-01 -0.13570806969E-01 -0.92862344453E-01  0.12522326882E+00  0.51109989000E-03 0. -1.
     -623    1    1    2    0    0  0.40820809209E+00  0.11469963276E+00  0.10976707376E+01  0.17130404161E+03  0.17130000000E+03 0. -1.
      622    1    1    2    0    0 -0.49111179534E+00 -0.10112882580E+00  0.29951915742E+01  0.38707351242E+01  0.24000000000E+01 0. -1.
</event>
<event>
 5   0  0.6825300E-03  0.9118800E+02  0.7818608E-02  0.1180000E+00
       11   -1    0    0    0    0  0.00000000000E+00  0.00000000000E+00  0.39999999673E+01  0.40000000000E+01  0.51109989000E-03 0.  1.
     -623   -1    0    0    0    0  0.00000000000E+00  0.00000000000E+00  0.12525980253E-10  0.17130000000E+03  0.17130000000E+03 0.  1.
       11    1    1    2    0    0  0.24989844814E+00  0.90936357718E-01  0.32249198255E+00  0.41799520998E+00  0.51109989000E-03 0.  1.
     -623    1    1    2    0    0 -0.53002916142E+00  0.14039385180E+00  0.10489160820E+01  0.17130408888E+03  0.17130000000E+03 0.  1.
      622    1    1    2    0    0  0.28013071328E+00 -0.23133020952E+00  0.26285919029E+01  0.35779159121E+01  0.24000000000E+01 0.  1.
</event>
<event>
 5   0  0.6825300E-03  0.9118800E+02  0.7818608E-02  0.1180000E+00
       11   -1    0    0    0    0  0.00000000000E+00  0.00000000000E+00  0.39999999673E+01  0.40000000000E+01  0.51109989000E-03 0.  1.
     -623   -1    0    0    0    0  0.00000000000E+00  0.00000000000E+00  0.12525980253E-10  0.17130000000E+03  0.17130000000E+03 0. -1.
       11    1    1    2    0    0  0.46152472743E+00  0.18140846363E+00  0.55413023610E+00  0.74362267615E+00  0.51109989000E-03 0.  1.
     -623    1    1    2    0    0 -0.13448061665E+01  0.27251384919E+00  0.15018424188E+01  0.17131207867E+03  0.17130000000E+03 0. -1.
      622    1    1    2    0    0  0.88328143911E+00 -0.45392231283E+00  0.19440273125E+01  0.32442986543E+01  0.24000000000E+01 0.  1.
</event>
<event>
 5   0  0.6825300E-03  0.9118800E+02  0.7818608E-02  0.1180000E+00
       11   -1    0    0    0    0  0.00000000000E+00  0.00000000000E+00  0.39999999673E+01  0.40000000000E+01  0.51109989000E-03 0. -1.
     -623   -1    0    0    0    0  0.00000000000E+00  0.00000000000E+00  0.12525980253E-10  0.17130000000E+03  0.17130000000E+03 0. -1.
       11    1    1    2    0    0  0.12474533501E+00 -0.33875006402E-01  0.14110979054E+00  0.19136653019E+00  0.51109989000E-03 0. -1.
     -623    1    1    2    0    0  0.10518420926E+00  0.47853914721E+00  0.94860463828E+00  0.17130332721E+03  0.17130000000E+03 0. -1.
      622    1    1    2    0    0 -0.22992954428E+00 -0.44466414081E+00  0.29102855385E+01  0.38053062570E+01  0.24000000000E+01 0. -1.
</event>
<event>
 5   0  0.6825300E-03  0.9118800E+02  0.7818608E-02  0.1180000E+00
       11   -1    0    0    0    0  0.00000000000E+00  0.00000000000E+00  0.39999999673E+01  0.40000000000E+01  0.51109989000E-03 0.  1.
     -623   -1    0    0    0    0  0.00000000000E+00  0.00000000000E+00  0.12525980253E-10  0.17130000000E+03  0.17130000000E+03 0. -1.
       11    1    1    2    0    0 -0.68349799996E-02  0.16964425976E+00  0.70707386132E-01  0.18391761062E+00  0.51109989000E-03 0.  1.
     -623    1    1    2    0    0 -0.13178658500E+00 -0.11196953457E+00  0.96984489749E+00  0.17130283274E+03  0.17130000000E+03 0. -1.
      622    1    1    2    0    0  0.13862156500E+00 -0.57674725189E-01  0.29594476837E+01  0.38132496515E+01  0.24000000000E+01 0.  1.
</event>
<event>
 5   0  0.6825300E-03  0.9118800E+02  0.7818608E-02  0.1180000E+00
       11   -1    0    0    0    0  0.00000000000E+00  0.00000000000E+00  0.39999999673E+01  0.40000000000E+01  0.51109989000E-03 0.  1.
     -623   -1    0    0    0    0  0.00000000000E+00  0.00000000000E+00  0.12525980253E-10  0.17130000000E+03  0.17130000000E+03 0.  1.
       11    1    1    2    0    0 -0.16889527716E+00 -0.17714579190E+00 -0.30212508714E-02  0.24477670521E+00  0.51109989000E-03 0.  1.
     -623    1    1    2    0    0  0.57374366259E-01  0.18657626051E+00  0.11219168369E+01  0.17130378513E+03  0.17130000000E+03 0.  1.
      622    1    1    2    0    0  0.11152091090E+00 -0.94304686034E-02  0.28811043813E+01  0.37514381647E+01  0.24000000000E+01 0.  1.
</event>
<event>
 5   0  0.6825300E-03  0.9118800E+02  0.7818608E-02  0.1180000E+00
       11   -1    0    0    0    0  0.00000000000E+00  0.00000000000E+00  0.39999999673E+01  0.40000000000E+01  0.51109989000E-03 0. -1.
     -623   -1    0    0    0    0  0.00000000000E+00  0.00000000000E+00  0.12525980253E-10  0.17130000000E+03  0.17130000000E+03 0. -1.
       11    1    1    2    0    0 -0.21301444479E+00  0.17793012848E+00  0.60796155475E-01  0.28413151542E+00  0.51109989000E-03 0. -1.
     -623    1    1    2    0    0 -0.28181644962E+00 -0.47936482488E+00  0.11687081531E+01  0.17130488928E+03  0.17130000000E+03 0. -1.
      622    1    1    2    0    0  0.49483089441E+00  0.30143469639E+00  0.27704956588E+01  0.37109792085E+01  0.24000000000E+01 0. -1.
</event>
<event>
 5   0  0.6825300E-03  0.9118800E+02  0.7818608E-02  0.1180000E+00
       11   -1    0    0    0    0  0.00000000000E+00  0.00000000000E+00  0.39999999673E+01  0.40000000000E+01  0.51109989000E-03 0.  1.
     -623   -1    0    0    0    0  0.00000000000E+00  0.00000000000E+00  0.12525980253E-10  0.17130000000E+03  0.17130000000E+03 0. -1.
       11    1    1    2    0    0  0.64735420380E-01  0.74795763572E-01  0.15082257261E+00  0.18036848541E+00  0.51109989000E-03 0.  1.
     -623    1    1    2    0    0 -0.43002535024E+00  0.39405169651E+00  0.94246936354E+00  0.17130358562E+03  0.17130000000E+03 0. -1.
      622    1    1    2    0    0  0.36528992985E+00 -0.46884746008E+00  0.29067080312E+01  0.38160458923E+01  0.24000000000E+01 0.  1.
</event>
<event>
 5   0  0.6825300E-03  0.9118800E+02  0.7818608E-02  0.1180000E+00
       11   -1    0    0    0    0  0.00000000000E+00  0.00000000000E+00  0.39999999673E+01  0.40000000000E+01  0.51109989000E-03 0.  1.
     -623   -1    0    0    0    0  0.00000000000E+00  0.00000000000E+00  0.12525980253E-10  0.17130000000E+03  0.17130000000E+03 0.  1.
       11    1    1    2    0    0  0.27331649644E+00  0.12886529362E+00 -0.10441569428E+00  0.31970465990E+00  0.51109989000E-03 0.  1.
     -623    1    1    2    0    0 -0.99145843301E-01  0.77557460247E-01  0.13343866656E+01  0.17130524345E+03  0.17130000000E+03 0.  1.
      622    1    1    2    0    0 -0.17417065314E+00 -0.20642275387E+00  0.27700289960E+01  0.36750518919E+01  0.24000000000E+01 0.  1.
</event>
<event>
 5   0  0.6825300E-03  0.9118800E+02  0.7818608E-02  0.1180000E+00
       11   -1    0    0    0    0  0.00000000000E+00  0.00000000000E+00  0.39999999673E+01  0.40000000000E+01  0.51109989000E-03 0. -1.
     -623   -1    0    0    0    0  0.00000000000E+00  0.00000000000E+00  0.12525980253E-10  0.17130000000E+03  0.17130000000E+03 0.  1.
       11    1    1    2    0    0 -0.64638241680E-01 -0.35591591791E-01 -0.45581315070E-01  0.86733967967E-01  0.51109989000E-03 0. -1.
     -623    1    1    2    0    0 -0.45720211840E-02 -0.61851336482E-01  0.96042107974E+00  0.17130270358E+03  0.17130000000E+03 0.  1.
      622    1    1    2    0    0  0.69210262864E-01  0.97442928273E-01  0.30851602027E+01  0.39105624482E+01  0.24000000000E+01 0. -1.
</event>
<event>
 5   0  0.6825300E-03  0.9118800E+02  0.7818608E-02  0.1180000E+00
       11   -1    0    0    0    0  0.00000000000E+00  0.00000000000E+00  0.39999999673E+01  0.40000000000E+01  0.51109989000E-03 0.  1.
     -623   -1    0    0    0    0  0.00000000000E+00  0.00000000000E+00  0.12525980253E-10  0.17130000000E+03  0.17130000000E+03 0. -1.
       11    1    1    2    0    0 -0.16419663408E-01 -0.36029370196E-01 -0.23370621897E-02  0.39666660359E-01  0.51109989000E-03 0.  1.
     -623    1    1    2    0    0  0.22959506359E+00  0.66242071584E-01  0.86237277328E+00  0.17130233737E+03  0.17130000000E+03 0. -1.
      622    1    1    2    0    0 -0.21317540018E+00 -0.30212701388E-01  0.31399642563E+01  0.39579959688E+01  0.24000000000E+01 0.  1.
</event>
<event>
 5   0  0.6825300E-03  0.9118800E+02  0.7818608E-02  0.1180000E+00
       11   -1    0    0    0    0  0.00000000000E+00  0.00000000000E+00  0.39999999673E+01  0.40000000000E+01  0.51109989000E-03 0.  1.
     -623   -1    0    0    0    0  0.00000000000E+00  0.00000000000E+00  0.12525980253E-10  0.17130000000E+03  0.17130000000E+03 0. -1.
       11    1    1    2    0    0  0.12418004441E+00  0.42274514897E+00  0.26882629838E+00  0.51614143830E+00  0.51109989000E-03 0.  1.
     -623    1    1    2    0    0 -0.10880708267E+00  0.14300419592E+00  0.12769597644E+01  0.17130485374E+03  0.17130000000E+03 0. -1.
      622    1    1    2    0    0 -0.15372961744E-01 -0.56574934489E+00  0.24542139045E+01  0.34790048201E+01  0.24000000000E+01 0.  1.
</event>
<event>
 5   0  0.6825300E-03  0.9118800E+02  0.7818608E-02  0.1180000E+00
       11   -1    0    0    0    0  0.00000000000E+00  0.00000000000E+00  0.39999999673E+01  0.40000000000E+01  0.51109989000E-03 0.  1.
     -623   -1    0    0    0    0  0.00000000000E+00  0.00000000000E+00  0.12525980253E-10  0.17130000000E+03  0.17130000000E+03 0.  1.
       11    1    1    2    0    0  0.41183818918E-01 -0.58496852853E-01  0.24169406927E-01  0.75514304530E-01  0.51109989000E-03 0.  1.
     -623    1    1    2    0    0 -0.35173880431E+00 -0.45785009943E-01  0.89148522387E+00  0.17130268697E+03  0.17130000000E+03 0.  1.
      622    1    1    2    0    0  0.31055498539E+00  0.10428186280E+00  0.30843453366E+01  0.39217987278E+01  0.24000000000E+01 0.  1.
</event>
<event>
 5   0  0.6825300E-03  0.9118800E+02  0.7818608E-02  0.1180000E+00
       11   -1    0    0    0    0  0.00000000000E+00  0.00000000000E+00  0.39999999673E+01  0.40000000000E+01  0.51109989000E-03 0. -1.
     -623   -1    0    0    0    0  0.00000000000E+00  0.00000000000E+00  0.12525980253E-10  0.17130000000E+03  0.17130000000E+03 0.  1.
       11    1    1    2    0    0 -0.82204893650E-02 -0.70205593776E-01  0.10876069811E+00  0.12971334749E+00  0.51109989000E-03 0. -1.
     -623    1    1    2    0    0  0.42067841098E+00  0.39913979018E+00  0.90549171163E+00  0.17130337474E+03  0.17130000000E+03 0.  1.
      622    1    1    2    0    0 -0.41245792162E+00 -0.32893419640E+00  0.29857475576E+01  0.38669119101E+01  0.24000000000E+01 0. -1.
</event>
<event>
 5   0  0.6825300E-03  0.9118800E+02  0.7818608E-02  0.1180000E+00
       11   -1    0    0    0    0  0.00000000000E+00  0.00000000000E+00  0.39999999673E+01  0.40000000000E+01  0.51109989000E-03 0.  1.
     -623   -1    0    0    0    0  0.00000000000E+00  0.00000000000E+00  0.12525980253E-10  0.17130000000E+03  0.17130000000E+03 0. -1.
       11    1    1    2    0    0  0.19181144724E+00  0.23814568789E+00  0.22446203139E+00  0.37932633011E+00  0.51109989000E-03 0.  1.
     -623    1    1    2    0    0  0.20533059756E+00  0.43437401108E+00  0.11861988250E+01  0.17130478075E+03  0.17130000000E+03 0. -1.
      622    1    1    2    0    0 -0.39714204480E+00 -0.67251969897E+00  0.25893391110E+01  0.36158929162E+01  0.24000000000E+01 0.  1.
</event>
<event>
 5   0  0.6825300E-03  0.9118800E+02  0.7818608E-02  0.1180000E+00
       11   -1    0    0    0    0  0.00000000000E+00  0.00000000000E+00  0.39999999673E+01  0.40000000000E+01  0.51109989000E-03 0. -1.
     -623   -1    0    0    0    0  0.00000000000E+00  0.00000000000E+00  0.12525980253E-10  0.17130000000E+03  0.17130000000E+03 0. -1.
       11    1    1    2    0    0 -0.98122283296E-01  0.41122361077E-01 -0.93471836127E-01  0.14162018370E+00  0.51109989000E-03 0. -1.
     -623    1    1    2    0    0  0.48493449819E+00 -0.16654015870E+00  0.11054432544E+01  0.17130433416E+03  0.17130000000E+03 0. -1.
      622    1    1    2    0    0 -0.38681221490E+00  0.12541779763E+00  0.29880285491E+01  0.38540456567E+01  0.24000000000E+01 0. -1.
</event>
<event>
 5   0  0.6825300E-03  0.9118800E+02  0.7818608E-02  0.1180000E+00
       11   -1    0    0    0    0  0.00000000000E+00  0.00000000000E+00  0.39999999673E+01  0.40000000000E+01  0.51109989000E-03 0.  1.
     -623   -1    0    0    0    0  0.00000000000E+00  0.00000000000E+00  0.12525980253E-10  0.17130000000E+03  0.17130000000E+03 0. -1.
       11    1    1    2    0    0 -0.19139302583E+00 -0.17920795195E+00  0.33176408594E-02  0.26221755917E+00  0.51109989000E-03 0.  1.
     -623    1    1    2    0    0 -0.67108781138E-01  0.40537720192E+00  0.11576445138E+01  0.17130440442E+03  0.17130000000E+03 0. -1.
      622    1    1    2    0    0  0.25850180697E+00 -0.22616924997E+00  0.28390378127E+01  0.37333780168E+01  0.24000000000E+01 0.  1.
</event>
<event>
 5   0  0.6825300E-03  0.9118800E+02  0.7818608E-02  0.1180000E+00
       11   -1    0    0    0    0  0.00000000000E+00  0.00000000000E+00  0.39999999673E+01  0.40000000000E+01  0.51109989000E-03 0. -1.
     -623   -1    0    0    0    0  0.00000000000E+00  0.00000000000E+00  0.12525980253E-10  0.17130000000E+03  0.17130000000E+03 0. -1.
       11    1    1    2    0    0 -0.20175034458E+00 -0.16844223740E-01  0.14508407279E+00  0.24907143314E+00  0.51109989000E-03 0. -1.
     -623    1    1    2    0    0  0.84121053925E+00  0.54292917807E+00  0.11025962759E+01  0.17130647427E+03  0.17130000000E+03 0. -1.
      622    1    1    2    0    0 -0.63946019468E+00 -0.52608495434E+00  0.27523196187E+01  0.37444542998E+01  0.24000000000E+01 0. -1.
</event>
<event>
 5   0  0.6825300E-03  0.9118800E+02  0.7818608E-02  0.1180000E+00
       11   -1    0    0    0    0  0.00000000000E+00  0.00000000000E+00  0.39999999673E+01  0.40000000000E+01  0.51109989000E-03 0. -1.
     -623   -1    0    0    0    0  0.00000000000E+00  0.00000000000E+00  0.12525980253E-10  0.17130000000E+03  0.17130000000E+03 0. -1.
       11    1    1    2    0    0  0.28191599069E+00  0.56788684783E+00  0.81184872792E+00  0.10300828685E+01  0.51109989000E-03 0. -1.
     -623    1    1    2    0    0 -0.58746171490E+00 -0.60071342015E+00  0.14805801059E+01  0.17130845888E+03  0.17130000000E+03 0. -1.
      622    1    1    2    0    0  0.30554572421E+00  0.32826572320E-01  0.17075711336E+01  0.29614582471E+01  0.24000000000E+01 0. -1.
</event>
<event>
 5   0  0.6825300E-03  0.9118800E+02  0.7818608E-02  0.1180000E+00
       11   -1    0    0    0    0  0.00000000000E+00  0.00000000000E+00  0.39999999673E+01  0.40000000000E+01  0.51109989000E-03 0. -1.
     -623   -1    0    0    0    0  0.00000000000E+00  0.00000000000E+00  0.12525980253E-10  0.17130000000E+03  0.17130000000E+03 0. -1.
       11    1    1    2    0    0  0.60166273581E+00  0.39650262732E+00 -0.16401200038E+00  0.73899430216E+00  0.51109989000E-03 0. -1.
     -623    1    1    2    0    0 -0.21041157588E+00 -0.80898324189E+00  0.20527007031E+01  0.17131433772E+03  0.17130000000E+03 0. -1.
      622    1    1    2    0    0 -0.39125115993E+00  0.41248061457E+00  0.21113112647E+01  0.32466679818E+01  0.24000000000E+01 0. -1.
</event>
<event>
 5   0  0.6825300E-03  0.9118800E+02  0.7818608E-02  0.1180000E+00
       11   -1    0    0    0    0  0.00000000000E+00  0.00000000000E+00  0.39999999673E+01  0.40000000000E+01  0.51109989000E-03 0. -1.
     -623   -1    0    0    0    0  0.00000000000E+00  0.00000000000E+00  0.12525980253E-10  0.17130000000E+03  0.17130000000E+03 0. -1.
       11    1    1    2    0    0  0.16064080792E-01 -0.87844891105E-01  0.10451294566E+00  0.13746998443E+00  0.51109989000E-03 0. -1.
     -623    1    1    2    0    0  0.26169059507E+00  0.10316831426E+00  0.88511947036E+00  0.17130251768E+03  0.17130000000E+03 0. -1.
      622    1    1    2    0    0 -0.27775467587E+00 -0.15323423157E-01  0.30103675513E+01  0.38600123395E+01  0.24000000000E+01 0. -1.
</event>
<event>
 5   0  0.6825300E-03  0.9118800E+02  0.7818608E-02  0.1180000E+00
       11   -1    0    0    0    0  0.00000000000E+00  0.00000000000E+00  0.39999999673E+01  0.40000000000E+01  0.51109989000E-03 0. -1.
     -623   -1    0    0    0    0  0.00000000000E+00  0.00000000000E+00  0.12525980253E-10  0.17130000000E+03  0.17130000000E+03 0. -1.
       11    1    1    2    0    0  0.28018119861E-01 -0.91820530054E-01 -0.28528786894E-01  0.10015077475E+00  0.51109989000E-03 0. -1.
     -623    1    1    2    0    0 -0.36774181188E+00  0.39198573985E+00  0.99302214677E+00  0.17130372144E+03  0.17130000000E+03 0. -1.
      622    1    1    2    0    0  0.33972369202E+00 -0.30016520980E+00  0.30355066075E+01  0.38961277833E+01  0.24000000000E+01 0. -1.
</event>
<event>
 5   0  0.6825300E-03  0.9118800E+02  0.7818608E-02  0.1180000E+00
       11   -1    0    0    0    0  0.00000000000E+00  0.00000000000E+00  0.39999999673E+01  0.40000000000E+01  0.51109989000E-03 0. -1.
     -623   -1    0    0    0    0  0.00000000000E+00  0.00000000000E+00  0.12525980253E-10  0.17130000000E+03  0.17130000000E+03 0. -1.
       11    1    1    2    0    0  0.54296998445E-02  0.23870426825E-01  0.21942258437E-01  0.32878607720E-01  0.51109989000E-03 0. -1.
     -623    1    1    2    0    0  0.26284338053E+00 -0.27168707763E+00  0.84359050912E+00  0.17130249428E+03  0.17130000000E+03 0. -1.
      622    1    1    2    0    0 -0.26827308038E+00  0.24781665080E+00  0.31344671998E+01  0.39646271155E+01  0.24000000000E+01 0. -1.
</event>
<event>
 5   0  0.6825300E-03  0.9118800E+02  0.7818608E-02  0.1180000E+00
       11   -1    0    0    0    0  0.00000000000E+00  0.00000000000E+00  0.39999999673E+01  0.40000000000E+01  0.51109989000E-03 0. -1.
     -623   -1    0    0    0    0  0.00000000000E+00  0.00000000000E+00  0.12525980253E-10  0.17130000000E+03  0.17130000000E+03 0. -1.
       11    1    1    2    0    0 -0.81541138821E-01 -0.56938744304E-01  0.67440156285E-01  0.12016411204E+00  0.51109989000E-03 0. -1.
     -623    1    1    2    0    0  0.12085239156E+00 -0.17945841291E+00  0.89670213591E+00  0.17130248359E+03  0.17130000000E+03 0. -1.
      622    1    1    2    0    0 -0.39311252743E-01  0.23639715721E+00  0.30358576752E+01  0.38773522943E+01  0.24000000000E+01 0. -1.
</event>
<event>
 5   0  0.6825300E-03  0.9118800E+02  0.7818608E-02  0.1180000E+00
       11   -1    0    0    0    0  0.00000000000E+00  0.00000000000E+00  0.39999999673E+01  0.40000000000E+01  0.51109989000E-03 0.  1.
     -623   -1    0    0    0    0  0.00000000000E+00  0.00000000000E+00  0.12525980253E-10  0.17130000000E+03  0.17130000000E+03 0. -1.
       11    1    1    2    0    0  0.94894037024E-01  0.17609767109E+00  0.28778526649E+00  0.35047951275E+00  0.51109989000E-03 0.  1.
     -623    1    1    2    0    0  0.35789607578E+00 -0.58156054657E+00  0.10370032661E+01  0.17130449988E+03  0.17130000000E+03 0. -1.
      622    1    1    2    0    0 -0.45279011280E+00  0.40546287548E+00  0.26752114348E+01  0.36450206104E+01  0.24000000000E+01 0.  1.
</event>
<event>
 5   0  0.6825300E-03  0.9118800E+02  0.7818608E-02  0.1180000E+00
       11   -1    0    0    0    0  0.00000000000E+00  0.00000000000E+00  0.39999999673E+01  0.40000000000E+01  0.51109989000E-03 0. -1.
     -623   -1    0    0    0    0  0.00000000000E+00  0.00000000000E+00  0.12525980253E-10  0.17130000000E+03  0.17130000000E+03 0.  1.
       11    1    1    2    0    0  0.54226531582E-01 -0.88197406598E-01 -0.39131797531E-01  0.11068359435E+00  0.51109989000E-03 0. -1.
     -623    1    1    2    0    0 -0.22900087895E+00  0.27863329393E+00  0.99370768476E+00  0.17130326189E+03  0.17130000000E+03 0.  1.
      622    1    1    2    0    0  0.17477434737E+00 -0.19043588734E+00  0.30454240801E+01  0.38860545194E+01  0.24000000000E+01 0. -1.
</event>
<event>
 5   0  0.6825300E-03  0.9118800E+02  0.7818608E-02  0.1180000E+00
       11   -1    0    0    0    0  0.00000000000E+00  0.00000000000E+00  0.39999999673E+01  0.40000000000E+01  0.51109989000E-03 0.  1.
     -623   -1    0    0    0    0  0.00000000000E+00  0.00000000000E+00  0.12525980253E-10  0.17130000000E+03  0.17130000000E+03 0. -1.
       11    1    1    2    0    0 -0.27047396919E-01  0.20255112167E+00  0.38341508225E+00  0.43447198424E+00  0.51109989000E-03 0.  1.
     -623    1    1    2    0    0 -0.23885865417E+00  0.67459829648E-01  0.10114336730E+01  0.17130316577E+03  0.17130000000E+03 0. -1.
      622    1    1    2    0    0  0.26590605109E+00 -0.27001095132E+00  0.26051512121E+01  0.35623622471E+01  0.24000000000E+01 0.  1.
</event>
<event>
 5   0  0.6825300E-03  0.9118800E+02  0.7818608E-02  0.1180000E+00
       11   -1    0    0    0    0  0.00000000000E+00  0.00000000000E+00  0.39999999673E+01  0.40000000000E+01  0.51109989000E-03 0. -1.
     -623   -1    0    0    0    0  0.00000000000E+00  0.00000000000E+00  0.12525980253E-10  0.17130000000E+03  0.17130000000E+03 0. -1.
       11    1    1    2    0    0 -0.13522807542E-01 -0.57739384665E-01 -0.11080797923E+00  0.12567964174E+00  0.51109989000E-03 0. -1.
     -623    1    1    2    0    0 -0.75449382497E+00 -0.39645671606E+00  0.12117360797E+01  0.17130640602E+03  0.17130000000E+03 0. -1.
      622    1    1    2    0    0  0.76801663251E+00  0.45419610073E+00  0.28990718669E+01  0.38679143391E+01  0.24000000000E+01 0. -1.
</event>
<event>
 5   0  0.6825300E-03  0.9118800E+02  0.7818608E-02  0.1180000E+00
       11   -1    0    0    0    0  0.00000000000E+00  0.00000000000E+00  0.39999999673E+01  0.40000000000E+01  0.51109989000E-03 0.  1.
     -623   -1    0    0    0    0  0.00000000000E+00  0.00000000000E+00  0.12525980253E-10  0.17130000000E+03  0.17130000000E+03 0.  1.
       11    1    1    2    0    0  0.98574716941E-01  0.65021869380E-01 -0.16362323056E+00  0.20178612717E+00  0.51109989000E-03 0.  1.
     -623    1    1    2    0    0 -0.47568937184E+00  0.13037537486E+00  0.12574906642E+01  0.17130532555E+03  0.17130000000E+03 0.  1.
      622    1    1    2    0    0  0.37711465490E+00 -0.19539724424E+00  0.29061325337E+01  0.37928883255E+01  0.24000000000E+01 0.  1.
</event>
<event>
 5   0  0.6825300E-03  0.9118800E+02  0.7818608E-02  0.1180000E+00
       11   -1    0    0    0    0  0.00000000000E+00  0.00000000000E+00  0.39999999673E+01  0.40000000000E+01  0.51109989000E-03 0. -1.
     -623   -1    0    0    0    0  0.00000000000E+00  0.00000000000E+00  0.12525980253E-10  0.17130000000E+03  0.17130000000E+03 0.  1.
       11    1    1    2    0    0  0.42159581080E-01 -0.20877144960E+00  0.15455720162E+00  0.26315611002E+00  0.51109989000E-03 0. -1.
     -623    1    1    2    0    0 -0.24306852433E+00  0.51764544237E-01  0.99658630593E+00  0.17130307921E+03  0.17130000000E+03 0.  1.
      622    1    1    2    0    0  0.20090894325E+00  0.15700690537E+00  0.28488564598E+01  0.37337646820E+01  0.24000000000E+01 0. -1.
</event>
<event>
 5   0  0.6825300E-03  0.9118800E+02  0.7818608E-02  0.1180000E+00
       11   -1    0    0    0    0  0.00000000000E+00  0.00000000000E+00  0.39999999673E+01  0.40000000000E+01  0.51109989000E-03 0.  1.
     -623   -1    0    0    0    0  0.00000000000E+00  0.00000000000E+00  0.12525980253E-10  0.17130000000E+03  0.17130000000E+03 0.  1.
       11    1    1    2    0    0  0.13570455522E+00 -0.60835047129E-01 -0.27313354269E+00  0.31099649939E+00  0.51109989000E-03 0.  1.
     -623    1    1    2    0    0  0.46840633954E+00 -0.17777505026E+00  0.15585044253E+01  0.17130782219E+03  0.17130000000E+03 0.  1.
      622    1    1    2    0    0 -0.60411089476E+00  0.23861009739E+00  0.27146290847E+01  0.36811813076E+01  0.24000000000E+01 0.  1.
</event>
<event>
 5   0  0.6825300E-03  0.9118800E+02  0.7818608E-02  0.1180000E+00
       11   -1    0    0    0    0  0.00000000000E+00  0.00000000000E+00  0.39999999673E+01  0.40000000000E+01  0.51109989000E-03 0. -1.
     -623   -1    0    0    0    0  0.00000000000E+00  0.00000000000E+00  0.12525980253E-10  0.17130000000E+03  0.17130000000E+03 0.  1.
       11    1    1    2    0    0  0.75785132788E+00 -0.24423424257E+00  0.72483195726E+00  0.10767407431E+01  0.51109989000E-03 0. -1.
     -623    1    1    2    0    0 -0.65332742280E+00  0.79959314709E-01  0.16336195182E+01  0.17130905388E+03  0.17130000000E+03 0.  1.
      622    1    1    2    0    0 -0.10452390508E+00  0.16427492786E+00  0.16415484919E+01  0.29142053720E+01  0.24000000000E+01 0. -1.
</event>
<event>
 5   0  0.6825300E-03  0.9118800E+02  0.7818608E-02  0.1180000E+00
       11   -1    0    0    0    0  0.00000000000E+00  0.00000000000E+00  0.39999999673E+01  0.40000000000E+01  0.51109989000E-03 0. -1.
     -623   -1    0    0    0    0  0.00000000000E+00  0.00000000000E+00  0.12525980253E-10  0.17130000000E+03  0.17130000000E+03 0. -1.
       11    1    1    2    0    0  0.69712796822E-01  0.27736581804E+00 -0.40390030986E+00  0.49490139683E+00  0.51109989000E-03 0. -1.
     -623    1    1    2    0    0 -0.73128335840E+00  0.31251523673E+00  0.20283686327E+01  0.17131385443E+03  0.17130000000E+03 0. -1.
      622    1    1    2    0    0  0.66157056157E+00 -0.58988105477E+00  0.23755316446E+01  0.34912441709E+01  0.24000000000E+01 0. -1.
</event>
<event>
 5   0  0.6825300E-03  0.9118800E+02  0.7818608E-02  0.1180000E+00
       11   -1    0    0    0    0  0.00000000000E+00  0.00000000000E+00  0.39999999673E+01  0.40000000000E+01  0.51109989000E-03 0.  1.
     -623   -1    0    0    0    0  0.00000000000E+00  0.00000000000E+00  0.12525980253E-10  0.17130000000E+03  0.17130000000E+03 0. -1.
       11    1    1    2    0    0 -0.90161682909E-01 -0.37417356791E-01 -0.27460685411E-01  0.10140778136E+00  0.51109989000E-03 0.  1.
     -623    1    1    2    0    0  0.66124864220E+00 -0.19794755194E+00  0.10236609060E+01  0.17130444920E+03  0.17130000000E+03 0. -1.
      622    1    1    2    0    0 -0.57108695929E+00  0.23536490874E+00  0.30037997467E+01  0.38941430217E+01  0.24000000000E+01 0.  1.
</event>
<event>
 5   0  0.6825300E-03  0.9118800E+02  0.7818608E-02  0.1180000E+00
       11   -1    0    0    0    0  0.00000000000E+00  0.00000000000E+00  0.39999999673E+01  0.40000000000E+01  0.51109989000E-03 0.  1.
     -623   -1    0    0    0    0  0.00000000000E+00  0.00000000000E+00  0.12525980253E-10  0.17130000000E+03  0.17130000000E+03 0.  1.
       11    1    1    2    0    0  0.13920399128E+00  0.95906555966E-01  0.13732916393E-01  0.16960151201E+00  0.51109989000E-03 0.  1.
     -623    1    1    2    0    0 -0.57734927077E-01 -0.82245860949E+00  0.10991834092E+01  0.17130551064E+03  0.17130000000E+03 0.  1.
      622    1    1    2    0    0 -0.81469064199E-01  0.72655205353E+00  0.28870836417E+01  0.38248878479E+01  0.24000000000E+01 0.  1.
</event>
<event>
 5   0  0.6825300E-03  0.9118800E+02  0.7818608E-02  0.1180000E+00
       11   -1    0    0    0    0  0.00000000000E+00  0.00000000000E+00  0.39999999673E+01  0.40000000000E+01  0.51109989000E-03 0. -1.
     -623   -1    0    0    0    0  0.00000000000E+00  0.00000000000E+00  0.12525980253E-10  0.17130000000E+03  0.17130000000E+03 0. -1.
       11    1    1    2    0    0 -0.15590408356E-01 -0.57345292602E-01 -0.40845515381E-02  0.59569188350E-01  0.51109989000E-03 0. -1.
     -623    1    1    2    0    0  0.16801582844E+00  0.67946468731E+00  0.95044788057E+00  0.17130406666E+03  0.17130000000E+03 0. -1.
      622    1    1    2    0    0 -0.15242542009E+00 -0.62211939471E+00  0.30536366383E+01  0.39363641560E+01  0.24000000000E+01 0. -1.
</event>
<event>
 5   0  0.6825300E-03  0.9118800E+02  0.7818608E-02  0.1180000E+00
       11   -1    0    0    0    0  0.00000000000E+00  0.00000000000E+00  0.39999999673E+01  0.40000000000E+01  0.51109989000E-03 0.  1.
     -623   -1    0    0    0    0  0.00000000000E+00  0.00000000000E+00  0.12525980253E-10  0.17130000000E+03  0.17130000000E+03 0.  1.
       11    1    1    2    0    0  0.10463082260E+00 -0.38848376464E-01  0.71424208481E-01  0.13250843056E+00  0.51109989000E-03 0.  1.
     -623    1    1    2    0    0 -0.92581936029E+00  0.27750565349E+00  0.10266227065E+01  0.17130580289E+03  0.17130000000E+03 0.  1.
      622    1    1    2    0    0  0.82118853769E+00 -0.23865727702E+00  0.29019530523E+01  0.38616886757E+01  0.24000000000E+01 0.  1.
</event>
<event>
 5   0  0.6825300E-03  0.9118800E+02  0.7818608E-02  0.1180000E+00
       11   -1    0    0    0    0  0.00000000000E+00  0.00000000000E+00  0.39999999673E+01  0.40000000000E+01  0.51109989000E-03 0. -1.
     -623   -1    0    0    0    0  0.00000000000E+00  0.00000000000E+00  0.12525980253E-10  0.17130000000E+03  0.17130000000E+03 0.  1.
       11    1    1    2    0    0  0.21018593199E-01 -0.25550562080E+00  0.11751461985E+00  0.28201923804E+00  0.51109989000E-03 0. -1.
     -623    1    1    2    0    0 -0.50416815265E+00  0.85958908131E+00  0.11595566572E+01  0.17130682313E+03  0.17130000000E+03 0.  1.
      622    1    1    2    0    0  0.48314955945E+00 -0.60408346051E+00  0.27229286903E+01  0.37111576329E+01  0.24000000000E+01 0. -1.
</event>
<event>
 5   0  0.6825300E-03  0.9118800E+02  0.7818608E-02  0.1180000E+00
       11   -1    0    0    0    0  0.00000000000E+00  0.00000000000E+00  0.39999999673E+01  0.40000000000E+01  0.51109989000E-03 0. -1.
     -623   -1    0    0    0    0  0.00000000000E+00  0.00000000000E+00  0.12525980253E-10  0.17130000000E+03  0.17130000000E+03 0.  1.
       11    1    1    2    0    0  0.14080066977E+00 -0.76385645725E-01 -0.70007214346E-01  0.17481666615E+00  0.51109989000E-03 0. -1.
     -623    1    1    2    0    0 -0.40155585469E+00 -0.32748802494E+00  0.11363901395E+01  0.17130455300E+03  0.17130000000E+03 0.  1.
      622    1    1    2    0    0  0.26075518492E+00  0.40387367067E+00  0.29336170422E+01  0.38206303352E+01  0.24000000000E+01 0. -1.
</event>
<event>
 5   0  0.6825300E-03  0.9118800E+02  0.7818608E-02  0.1180000E+00
       11   -1    0    0    0    0  0.00000000000E+00  0.00000000000E+00  0.39999999673E+01  0.40000000000E+01  0.51109989000E-03 0. -1.
     -623   -1    0    0    0    0  0.00000000000E+00  0.00000000000E+00  0.12525980253E-10  0.17130000000E+03  0.17130000000E+03 0. -1.
       11    1    1    2    0    0 -0.31675831915E+00  0.28558324822E+00  0.38387925240E+00  0.57380934644E+00  0.51109989000E-03 0. -1.
     -623    1    1    2    0    0 -0.80174601853E-01 -0.46878103573E+00  0.12174710331E+01  0.17130498656E+03  0.17130000000E+03 0. -1.
      622    1    1    2    0    0  0.39693292101E+00  0.18319778751E+00  0.23986496818E+01  0.34212040964E+01  0.24000000000E+01 0. -1.
</event>
<event>
 5   0  0.6825300E-03  0.9118800E+02  0.7818608E-02  0.1180000E+00
       11   -1    0    0    0    0  0.00000000000E+00  0.00000000000E+00  0.39999999673E+01  0.40000000000E+01  0.51109989000E-03 0.  1.
     -623   -1    0    0    0    0  0.00000000000E+00  0.00000000000E+00  0.12525980253E-10  0.17130000000E+03  0.17130000000E+03 0.  1.
       11    1    1    2    0    0  0.33016911388E+00 -0.14022403957E+00 -0.65568262539E-01  0.36465584228E+00  0.51109989000E-03 0.  1.
     -623    1    1    2    0    0 -0.43405082698E-01  0.25840790468E+00  0.13602336484E+01  0.17130560088E+03  0.17130000000E+03 0.  1.
      622    1    1    2    0    0 -0.28676403119E+00 -0.11818386511E+00  0.27053345815E+01  0.36297432737E+01  0.24000000000E+01 0.  1.
</event>
<event>
 5   0  0.6825300E-03  0.9118800E+02  0.7818608E-02  0.1180000E+00
       11   -1    0    0    0    0  0.00000000000E+00  0.00000000000E+00  0.39999999673E+01  0.40000000000E+01  0.51109989000E-03 0.  1.
     -623   -1    0    0    0    0  0.00000000000E+00  0.00000000000E+00  0.12525980253E-10  0.17130000000E+03  0.17130000000E+03 0. -1.
       11    1    1    2    0    0  0.18006572144E+00  0.40440836321E-01  0.40759883225E-01  0.18899935075E+00  0.51109989000E-03 0.  1.
     -623    1    1    2    0    0  0.15103401905E+00  0.17137341290E+00  0.10293061412E+01  0.17130324472E+03  0.17130000000E+03 0. -1.
      622    1    1    2    0    0 -0.33109974049E+00 -0.21181424922E+00  0.29299339430E+01  0.38077559303E+01  0.24000000000E+01 0.  1.
</event>
<event>
 5   0  0.6825300E-03  0.9118800E+02  0.7818608E-02  0.1180000E+00
       11   -1    0    0    0    0  0.00000000000E+00  0.00000000000E+00  0.39999999673E+01  0.40000000000E+01  0.51109989000E-03 0.  1.
     -623   -1    0    0    0    0  0.00000000000E+00  0.00000000000E+00  0.12525980253E-10  0.17130000000E+03  0.17130000000E+03 0.  1.
       11    1    1    2    0    0  0.24671237311E+00  0.54619827932E+00  0.13699269612E+00  0.61479005798E+00  0.51109989000E-03 0.  1.
     -623    1    1    2    0    0  0.46412442388E+00 -0.55420335891E+00  0.15972553475E+01  0.17130897168E+03  0.17130000000E+03 0.  1.
      622    1    1    2    0    0 -0.71083679699E+00  0.80050795919E-02  0.22657519237E+01  0.33762382637E+01  0.24000000000E+01 0.  1.
</event>
<event>
 5   0  0.6825300E-03  0.9118800E+02  0.7818608E-02  0.1180000E+00
       11   -1    0    0    0    0  0.00000000000E+00  0.00000000000E+00  0.39999999673E+01  0.40000000000E+01  0.51109989000E-03 0. -1.
     -623   -1    0    0    0    0  0.00000000000E+00  0.00000000000E+00  0.12525980253E-10  0.17130000000E+03  0.17130000000E+03 0.  1.
       11    1    1    2    0    0  0.16734593891E+00  0.31648596752E+00  0.17259904384E+00  0.39744021193E+00  0.51109989000E-03 0. -1.
     -623    1    1    2    0    0 -0.43287255403E+00 -0.40594072724E+00  0.11620396212E+01  0.17130496929E+03  0.17130000000E+03 0.  1.
      622    1    1    2    0    0  0.26552661513E+00  0.89454759727E-01  0.26653613024E+01  0.35975905005E+01  0.24000000000E+01 0. -1.
</event>
<event>
 5   0  0.6825300E-03  0.9118800E+02  0.7818608E-02  0.1180000E+00
       11   -1    0    0    0    0  0.00000000000E+00  0.00000000000E+00  0.39999999673E+01  0.40000000000E+01  0.51109989000E-03 0.  1.
     -623   -1    0    0    0    0  0.00000000000E+00  0.00000000000E+00  0.12525980253E-10  0.17130000000E+03  0.17130000000E+03 0. -1.
       11    1    1    2    0    0  0.44898172237E+00  0.44020040738E-01  0.23734626320E+00  0.50976059174E+00  0.51109989000E-03 0.  1.
     -623    1    1    2    0    0 -0.79719460218E+00  0.28870935267E-01  0.12626941970E+01  0.17130651111E+03  0.17130000000E+03 0. -1.
      622    1    1    2    0    0  0.34821287981E+00 -0.72890976005E-01  0.24999595072E+01  0.34837282962E+01  0.24000000000E+01 0.  1.
</event>
<event>
 5   0  0.6825300E-03  0.9118800E+02  0.7818608E-02  0.1180000E+00
       11   -1    0    0    0    0  0.00000000000E+00  0.00000000000E+00  0.39999999673E+01  0.40000000000E+01  0.51109989000E-03 0.  1.
     -623   -1    0    0    0    0  0.00000000000E+00  0.00000000000E+00  0.12525980253E-10  0.17130000000E+03  0.17130000000E+03 0.  1.
       11    1    1    2    0    0  0.56238877735E-01  0.24767494430E-01 -0.10173662764E-01  0.62289684430E-01  0.51109989000E-03 0.  1.
     -623    1    1    2    0    0  0.40258325126E-01  0.25073034500E+00  0.90533301513E+00  0.17130258058E+03  0.17130000000E+03 0.  1.
      622    1    1    2    0    0 -0.96497202861E-01 -0.27549783943E+00  0.31048406150E+01  0.39351297328E+01  0.24000000000E+01 0.  1.
</event>
<event>
 5   0  0.6825300E-03  0.9118800E+02  0.7818608E-02  0.1180000E+00
       11   -1    0    0    0    0  0.00000000000E+00  0.00000000000E+00  0.39999999673E+01  0.40000000000E+01  0.51109989000E-03 0.  1.
     -623   -1    0    0    0    0  0.00000000000E+00  0.00000000000E+00  0.12525980253E-10  0.17130000000E+03  0.17130000000E+03 0. -1.
       11    1    1    2    0    0  0.79039285791E-01  0.59317562448E-02 -0.16169980438E-01  0.80895759590E-01  0.51109989000E-03 0.  1.
     -623    1    1    2    0    0 -0.58563416899E+00 -0.55163045319E+00  0.10150709416E+01  0.17130489670E+03  0.17130000000E+03 0. -1.
      622    1    1    2    0    0  0.50659488320E+00  0.54569869694E+00  0.30010990062E+01  0.39142075429E+01  0.24000000000E+01 0.  1.
</event>
<event>
 5   0  0.6825300E-03  0.9118800E+02  0.7818608E-02  0.1180000E+00
       11   -1    0    0    0    0  0.00000000000E+00  0.00000000000E+00  0.39999999673E+01  0.40000000000E+01  0.51109989000E-03 0. -1.
     -623   -1    0    0    0    0  0.00000000000E+00  0.00000000000E+00  0.12525980253E-10  0.17130000000E+03  0.17130000000E+03 0. -1.
       11    1    1    2    0    0 -0.18111829557E+00  0.18816751474E+00 -0.64405240200E-01  0.26899655533E+00  0.51109989000E-03 0. -1.
     -623    1    1    2    0    0  0.57601550607E+00 -0.13856438832E-01  0.12478570887E+01  0.17130551402E+03  0.17130000000E+03 0. -1.
      622    1    1    2    0    0 -0.39489721050E+00 -0.17431107590E+00  0.28165481188E+01  0.37254894261E+01  0.24000000000E+01 0. -1.
</event>
<event>
 5   0  0.6825300E-03  0.9118800E+02  0.7818608E-02  0.1180000E+00
       11   -1    0    0    0    0  0.00000000000E+00  0.00000000000E+00  0.39999999673E+01  0.40000000000E+01  0.51109989000E-03 0. -1.
     -623   -1    0    0    0    0  0.00000000000E+00  0.00000000000E+00  0.12525980253E-10  0.17130000000E+03  0.17130000000E+03 0. -1.
       11    1    1    2    0    0  0.27356976392E+00  0.18791335466E+00  0.35799523102E+00  0.48817280879E+00  0.51109989000E-03 0. -1.
     -623    1    1    2    0    0 -0.13793517231E-01  0.12997401867E+00  0.11164345500E+01  0.17130368796E+03  0.17130000000E+03 0. -1.
      622    1    1    2    0    0 -0.25977624669E+00 -0.31788737333E+00  0.25255701864E+01  0.35081392285E+01  0.24000000000E+01 0. -1.
</event>
<event>
 5   0  0.6825300E-03  0.9118800E+02  0.7818608E-02  0.1180000E+00
       11   -1    0    0    0    0  0.00000000000E+00  0.00000000000E+00  0.39999999673E+01  0.40000000000E+01  0.51109989000E-03 0. -1.
     -623   -1    0    0    0    0  0.00000000000E+00  0.00000000000E+00  0.12525980253E-10  0.17130000000E+03  0.17130000000E+03 0.  1.
       11    1    1    2    0    0 -0.40012689565E+00  0.23048241446E+00  0.91089443049E+00  0.10212505083E+01  0.51109989000E-03 0. -1.
     -623    1    1    2    0    0  0.69978816826E+00 -0.19785404861E+00  0.13626490782E+01  0.17130696326E+03  0.17130000000E+03 0.  1.
      622    1    1    2    0    0 -0.29966127261E+00 -0.32628365847E-01  0.17264564586E+01  0.29717862292E+01  0.24000000000E+01 0. -1.
</event>
<event>
 5   0  0.6825300E-03  0.9118800E+02  0.7818608E-02  0.1180000E+00
       11   -1    0    0    0    0  0.00000000000E+00  0.00000000000E+00  0.39999999673E+01  0.40000000000E+01  0.51109989000E-03 0. -1.
     -623   -1    0    0    0    0  0.00000000000E+00  0.00000000000E+00  0.12525980253E-10  0.17130000000E+03  0.17130000000E+03 0.  1.
       11    1    1    2    0    0  0.26633611751E-01  0.38145165077E-01 -0.64463161341E-01  0.79499454632E-01  0.51109989000E-03 0. -1.
     -623    1    1    2    0    0  0.22181782903E+00  0.66780553641E+00  0.10622816157E+01  0.17130473902E+03  0.17130000000E+03 0.  1.
      622    1    1    2    0    0 -0.24845144078E+00 -0.70595070149E+00  0.30021815130E+01  0.39157615286E+01  0.24000000000E+01 0. -1.
</event>
<event>
 5   0  0.6825300E-03  0.9118800E+02  0.7818608E-02  0.1180000E+00
       11   -1    0    0    0    0  0.00000000000E+00  0.00000000000E+00  0.39999999673E+01  0.40000000000E+01  0.51109989000E-03 0. -1.
     -623   -1    0    0    0    0  0.00000000000E+00  0.00000000000E+00  0.12525980253E-10  0.17130000000E+03  0.17130000000E+03 0. -1.
       11    1    1    2    0    0  0.38815155991E-01  0.15551672892E+00 -0.60954056614E-01  0.17148681451E+00  0.51109989000E-03 0. -1.
     -623    1    1    2    0    0  0.59432563534E+00  0.53682072792E-01  0.11601147653E+01  0.17130496774E+03  0.17130000000E+03 0. -1.
      622    1    1    2    0    0 -0.63314079133E+00 -0.20919880171E+00  0.29008392587E+01  0.38235454496E+01  0.24000000000E+01 0. -1.
</event>
<event>
 5   0  0.6825300E-03  0.9118800E+02  0.7818608E-02  0.1180000E+00
       11   -1    0    0    0    0  0.00000000000E+00  0.00000000000E+00  0.39999999673E+01  0.40000000000E+01  0.51109989000E-03 0.  1.
     -623   -1    0    0    0    0  0.00000000000E+00  0.00000000000E+00  0.12525980253E-10  0.17130000000E+03  0.17130000000E+03 0.  1.
       11    1    1    2    0    0  0.27344563883E+00 -0.24360265936E+00  0.25834977913E+00  0.44817367464E+00  0.51109989000E-03 0.  1.
     -623    1    1    2    0    0 -0.99250313235E-01 -0.33465816316E+00  0.12003194700E+01  0.17130456098E+03  0.17130000000E+03 0.  1.
      622    1    1    2    0    0 -0.17419532559E+00  0.57826082252E+00  0.25413307183E+01  0.35472653425E+01  0.24000000000E+01 0.  1.
</event>
<event>
 5   0  0.6825300E-03  0.9118800E+02  0.7818608E-02  0.1180000E+00
       11   -1    0    0    0    0  0.00000000000E+00  0.00000000000E+00  0.39999999673E+01  0.40000000000E+01  0.51109989000E-03 0.  1.
     -623   -1    0    0    0    0  0.00000000000E+00  0.00000000000E+00  0.12525980253E-10  0.17130000000E+03  0.17130000000E+03 0. -1.
       11    1    1    2    0    0  0.33166800855E+00 -0.13288004704E+00  0.15715052958E+00  0.39032976439E+00  0.51109989000E-03 0.  1.
     -623    1    1    2    0    0 -0.66917598938E+00  0.15615103544E+00  0.11752208505E+01  0.17130540950E+03  0.17130000000E+03 0. -1.
      622    1    1    2    0    0  0.33750798083E+00 -0.23270988406E-01  0.26676285873E+01  0.36042607364E+01  0.24000000000E+01 0.  1.
</event>
<event>
 5   0  0.6825300E-03  0.9118800E+02  0.7818608E-02  0.1180000E+00
       11   -1    0    0    0    0  0.00000000000E+00  0.00000000000E+00  0.39999999673E+01  0.40000000000E+01  0.51109989000E-03 0.  1.
     -623   -1    0    0    0    0  0.00000000000E+00  0.00000000000E+00  0.12525980253E-10  0.17130000000E+03  0.17130000000E+03 0. -1.
       11    1    1    2    0    0  0.75435781373E+00 -0.18902248048E+00  0.17460949449E+00  0.79704074303E+00  0.51109989000E-03 0.  1.
     -623    1    1    2    0    0 -0.52432062998E+00 -0.73555987627E-02  0.17407413721E+01  0.17130964698E+03  0.17130000000E+03 0. -1.
      622    1    1    2    0    0 -0.23003718375E+00  0.19637807924E+00  0.20846491008E+01  0.31933122818E+01  0.24000000000E+01 0.  0.
</event>
<event>
 5   0  0.6825300E-03  0.9118800E+02  0.7818608E-02  0.1180000E+00
       11   -1    0    0    0    0  0.00000000000E+00  0.00000000000E+00  0.39999999673E+01  0.40000000000E+01  0.51109989000E-03 0. -1.
     -623   -1    0    0    0    0  0.00000000000E+00  0.00000000000E+00  0.12525980253E-10  0.17130000000E+03  0.17130000000E+03 0. -1.
       11    1    1    2    0    0  0.15218317921E-01 -0.39209037026E-01  0.51838648719E-01  0.66756666391E-01  0.51109989000E-03 0. -1.
     -623    1    1    2    0    0 -0.35158526475E+00  0.10806415066E+00  0.85418876757E+00  0.17130252458E+03  0.17130000000E+03 0. -1.
      622    1    1    2    0    0  0.33636694683E+00 -0.68855113639E-01  0.30939725511E+01  0.39307187506E+01  0.24000000000E+01 0. -1.
</event>
<event>
 5   0  0.6825300E-03  0.9118800E+02  0.7818608E-02  0.1180000E+00
       11   -1    0    0    0    0  0.00000000000E+00  0.00000000000E+00  0.39999999673E+01  0.40000000000E+01  0.51109989000E-03 0. -1.
     -623   -1    0    0    0    0  0.00000000000E+00  0.00000000000E+00  0.12525980253E-10  0.17130000000E+03  0.17130000000E+03 0.  1.
       11    1    1    2    0    0 -0.33055520959E+00 -0.23812472827E+00  0.36541951825E+00  0.54726759299E+00  0.51109989000E-03 0. -1.
     -623    1    1    2    0    0 -0.10892229283E-02  0.21810400851E-01  0.11899850407E+01  0.17130413463E+03  0.17130000000E+03 0.  1.
      622    1    1    2    0    0  0.33164443252E+00  0.21631432742E+00  0.24445954084E+01  0.34485977772E+01  0.24000000000E+01 0.  0.
</event>
<event>
 5   0  0.6825300E-03  0.9118800E+02  0.7818608E-02  0.1180000E+00
       11   -1    0    0    0    0  0.00000000000E+00  0.00000000000E+00  0.39999999673E+01  0.40000000000E+01  0.51109989000E-03 0. -1.
     -623   -1    0    0    0    0  0.00000000000E+00  0.00000000000E+00  0.12525980253E-10  0.17130000000E+03  0.17130000000E+03 0. -1.
       11    1    1    2    0    0 -0.34277524813E-03 -0.21304038446E+00  0.29644576053E-02  0.21306189743E+00  0.51109989000E-03 0. -1.
     -623    1    1    2    0    0  0.65784050568E+00  0.66462988206E+00  0.11873719560E+01  0.17130666753E+03  0.17130000000E+03 0. -1.
      622    1    1    2    0    0 -0.65749773043E+00 -0.45158949761E+00  0.28096635538E+01  0.37802705757E+01  0.24000000000E+01 0. -1.
</event>
<event>
 5   0  0.6825300E-03  0.9118800E+02  0.7818608E-02  0.1180000E+00
       11   -1    0    0    0    0  0.00000000000E+00  0.00000000000E+00  0.39999999673E+01  0.40000000000E+01  0.51109989000E-03 0.  1.
     -623   -1    0    0    0    0  0.00000000000E+00  0.00000000000E+00  0.12525980253E-10  0.17130000000E+03  0.17130000000E+03 0.  1.
       11    1    1    2    0    0  0.11558099185E+00  0.18819115108E-01  0.81202237354E-01  0.14250329591E+00  0.51109989000E-03 0.  1.
     -623    1    1    2    0    0 -0.11151861097E+00 -0.36982870828E-01  0.90196004495E+00  0.17130241486E+03  0.17130000000E+03 0.  1.
      622    1    1    2    0    0 -0.40623808803E-02  0.18163755720E-01  0.30168376851E+01  0.38550818465E+01  0.24000000000E+01 0.  1.
</event>
<event>
 5   0  0.6825300E-03  0.9118800E+02  0.7818608E-02  0.1180000E+00
       11   -1    0    0    0    0  0.00000000000E+00  0.00000000000E+00  0.39999999673E+01  0.40000000000E+01  0.51109989000E-03 0. -1.
     -623   -1    0    0    0    0  0.00000000000E+00  0.00000000000E+00  0.12525980253E-10  0.17130000000E+03  0.17130000000E+03 0. -1.
       11    1    1    2    0    0  0.11731058264E+00  0.31147659824E+00 -0.85168970447E-01  0.34355997846E+00  0.51109989000E-03 0. -1.
     -623    1    1    2    0    0 -0.15084147487E+00  0.10242072625E+00  0.13654924161E+01  0.17130553935E+03  0.17130000000E+03 0. -1.
      622    1    1    2    0    0  0.33530892227E-01 -0.41389732449E+00  0.27196765217E+01  0.36509006695E+01  0.24000000000E+01 0.  0.
</event>
<event>
 5   0  0.6825300E-03  0.9118800E+02  0.7818608E-02  0.1180000E+00
       11   -1    0    0    0    0  0.00000000000E+00  0.00000000000E+00  0.39999999673E+01  0.40000000000E+01  0.51109989000E-03 0.  1.
     -623   -1    0    0    0    0  0.00000000000E+00  0.00000000000E+00  0.12525980253E-10  0.17130000000E+03  0.17130000000E+03 0.  1.
       11    1    1    2    0    0 -0.27221576329E+00  0.16952335313E+00  0.28246092516E+00  0.42734532232E+00  0.51109989000E-03 0.  1.
     -623    1    1    2    0    0  0.13901645966E+00 -0.53519530868E+00  0.11059229974E+01  0.17130446236E+03  0.17130000000E+03 0.  1.
      622    1    1    2    0    0  0.13319930363E+00  0.36567195556E+00  0.26116160448E+01  0.35681923153E+01  0.24000000000E+01 0.  1.
</event>
<event>
 5   0  0.6825300E-03  0.9118800E+02  0.7818608E-02  0.1180000E+00
       11   -1    0    0    0    0  0.00000000000E+00  0.00000000000E+00  0.39999999673E+01  0.40000000000E+01  0.51109989000E-03 0. -1.
     -623   -1    0    0    0    0  0.00000000000E+00  0.00000000000E+00  0.12525980253E-10  0.17130000000E+03  0.17130000000E+03 0. -1.
       11    1    1    2    0    0  0.47939888712E-01  0.35229500186E-01  0.10330423262E+00  0.11921147726E+00  0.51109989000E-03 0. -1.
     -623    1    1    2    0    0 -0.32527410979E+00  0.22143685464E+00  0.87396134875E+00  0.17130268137E+03  0.17130000000E+03 0. -1.
      622    1    1    2    0    0  0.27733422108E+00 -0.25666635482E+00  0.30227343860E+01  0.38781071486E+01  0.24000000000E+01 0. -1.
</event>
<event>
 5   0  0.6825300E-03  0.9118800E+02  0.7818608E-02  0.1180000E+00
       11   -1    0    0    0    0  0.00000000000E+00  0.00000000000E+00  0.39999999673E+01  0.40000000000E+01  0.51109989000E-03 0. -1.
     -623   -1    0    0    0    0  0.00000000000E+00  0.00000000000E+00  0.12525980253E-10  0.17130000000E+03  0.17130000000E+03 0. -1.
       11    1    1    2    0    0 -0.16100534637E+00  0.54808356382E-01 -0.27893547282E-01  0.17235135245E+00  0.51109989000E-03 0. -1.
     -623    1    1    2    0    0  0.64435528058E+00 -0.36978005067E+00  0.11092878241E+01  0.17130520264E+03  0.17130000000E+03 0. -1.
      622    1    1    2    0    0 -0.48334993421E+00  0.31497169429E+00  0.29186056905E+01  0.38224460106E+01  0.24000000000E+01 0. -1.
</event>
<event>
 5   0  0.6825300E-03  0.9118800E+02  0.7818608E-02  0.1180000E+00
       11   -1    0    0    0    0  0.00000000000E+00  0.00000000000E+00  0.39999999673E+01  0.40000000000E+01  0.51109989000E-03 0.  1.
     -623   -1    0    0    0    0  0.00000000000E+00  0.00000000000E+00  0.12525980253E-10  0.17130000000E+03  0.17130000000E+03 0.  1.
       11    1    1    2    0    0  0.74687289786E-01 -0.68238539658E-01  0.19751870569E+00  0.22192023312E+00  0.51109989000E-03 0.  1.
     -623    1    1    2    0    0 -0.52271154443E+00  0.22394676023E+00  0.92797202472E+00  0.17130345738E+03  0.17130000000E+03 0.  1.
      622    1    1    2    0    0  0.44802425464E+00 -0.15570822057E+00  0.28745092370E+01  0.37746223832E+01  0.24000000000E+01 0.  1.
</event>
<event>
 5   0  0.6825300E-03  0.9118800E+02  0.7818608E-02  0.1180000E+00
       11   -1    0    0    0    0  0.00000000000E+00  0.00000000000E+00  0.39999999673E+01  0.40000000000E+01  0.51109989000E-03 0. -1.
     -623   -1    0    0    0    0  0.00000000000E+00  0.00000000000E+00  0.12525980253E-10  0.17130000000E+03  0.17130000000E+03 0.  1.
       11    1    1    2    0    0  0.88341999729E-01  0.58442825623E-01 -0.93191690510E-01  0.14108446117E+00  0.51109989000E-03 0. -1.
     -623    1    1    2    0    0 -0.29694426592E-01 -0.77840417831E-01  0.10763772751E+01  0.17130340198E+03  0.17130000000E+03 0.  1.
      622    1    1    2    0    0 -0.58647573137E-01  0.19397592208E-01  0.30168143828E+01  0.38555135617E+01  0.24000000000E+01 0. -1.
</event>
<event>
 5   0  0.6825300E-03  0.9118800E+02  0.7818608E-02  0.1180000E+00
       11   -1    0    0    0    0  0.00000000000E+00  0.00000000000E+00  0.39999999673E+01  0.40000000000E+01  0.51109989000E-03 0.  1.
     -623   -1    0    0    0    0  0.00000000000E+00  0.00000000000E+00  0.12525980253E-10  0.17130000000E+03  0.17130000000E+03 0. -1.
       11    1    1    2    0    0  0.14177242110E+00  0.69797090817E-01  0.19610189099E+00  0.25184770427E+00  0.51109989000E-03 0.  1.
     -623    1    1    2    0    0  0.52447057009E-01  0.59331386900E+00  0.10144636966E+01  0.17130403938E+03  0.17130000000E+03 0. -1.
      622    1    1    2    0    0 -0.19421947811E+00 -0.66311095982E+00  0.27894343798E+01  0.37441129136E+01  0.24000000000E+01 0.  1.
</event>
<event>
 5   0  0.6825300E-03  0.9118800E+02  0.7818608E-02  0.1180000E+00
       11   -1    0    0    0    0  0.00000000000E+00  0.00000000000E+00  0.39999999673E+01  0.40000000000E+01  0.51109989000E-03 0. -1.
     -623   -1    0    0    0    0  0.00000000000E+00  0.00000000000E+00  0.12525980253E-10  0.17130000000E+03  0.17130000000E+03 0.  1.
       11    1    1    2    0    0 -0.44358230010E-02 -0.63892648589E-01 -0.42579249160E-02  0.64189860703E-01  0.51109989000E-03 0. -1.
     -623    1    1    2    0    0  0.16826564521E+00  0.43843725865E+00  0.91570575363E+00  0.17130309121E+03  0.17130000000E+03 0.  1.
      622    1    1    2    0    0 -0.16382982221E+00 -0.37454461006E+00  0.30885521387E+01  0.39327189308E+01  0.24000000000E+01 0. -1.
</event>
<event>
 5   0  0.6825300E-03  0.9118800E+02  0.7818608E-02  0.1180000E+00
       11   -1    0    0    0    0  0.00000000000E+00  0.00000000000E+00  0.39999999673E+01  0.40000000000E+01  0.51109989000E-03 0. -1.
     -623   -1    0    0    0    0  0.00000000000E+00  0.00000000000E+00  0.12525980253E-10  0.17130000000E+03  0.17130000000E+03 0. -1.
       11    1    1    2    0    0  0.31591769463E+00 -0.10176252946E+00  0.27703103995E+00  0.43232633566E+00  0.51109989000E-03 0. -1.
     -623    1    1    2    0    0 -0.14125934615E+00  0.38558388071E+00  0.11099087484E+01  0.17130408789E+03  0.17130000000E+03 0. -1.
      622    1    1    2    0    0 -0.17465834848E+00 -0.28382135125E+00  0.26130601790E+01  0.35635857780E+01  0.24000000000E+01 0. -1.
</event>
<event>
 5   0  0.6825300E-03  0.9118800E+02  0.7818608E-02  0.1180000E+00
       11   -1    0    0    0    0  0.00000000000E+00  0.00000000000E+00  0.39999999673E+01  0.40000000000E+01  0.51109989000E-03 0. -1.
     -623   -1    0    0    0    0  0.00000000000E+00  0.00000000000E+00  0.12525980253E-10  0.17130000000E+03  0.17130000000E+03 0.  1.
       11    1    1    2    0    0  0.13762854474E+00 -0.28729908890E+00 -0.14058309303E-01  0.31887345467E+00  0.51109989000E-03 0. -1.
     -623    1    1    2    0    0 -0.19631425732E-01 -0.18068459163E+00  0.12713699177E+01  0.17130481433E+03  0.17130000000E+03 0.  1.
      622    1    1    2    0    0 -0.11799711901E+00  0.46798368053E+00  0.27426883590E+01  0.36763122120E+01  0.24000000000E+01 0. -1.
</event>
<event>
 5   0  0.6825300E-03  0.9118800E+02  0.7818608E-02  0.1180000E+00
       11   -1    0    0    0    0  0.00000000000E+00  0.00000000000E+00  0.39999999673E+01  0.40000000000E+01  0.51109989000E-03 0. -1.
     -623   -1    0    0    0    0  0.00000000000E+00  0.00000000000E+00  0.12525980253E-10  0.17130000000E+03  0.17130000000E+03 0. -1.
       11    1    1    2    0    0  0.55720252060E-01 -0.80354820424E-01  0.17540847344E+00  0.20082339862E+00  0.51109989000E-03 0. -1.
     -623    1    1    2    0    0 -0.49274601838E-01  0.10636100116E+00  0.88257688767E+00  0.17130231371E+03  0.17130000000E+03 0. -1.
      622    1    1    2    0    0 -0.64456502214E-02 -0.26006180735E-01  0.29420146063E+01  0.37968628908E+01  0.24000000000E+01 0. -1.
</event>
<event>
 5   0  0.6825300E-03  0.9118800E+02  0.7818608E-02  0.1180000E+00
       11   -1    0    0    0    0  0.00000000000E+00  0.00000000000E+00  0.39999999673E+01  0.40000000000E+01  0.51109989000E-03 0. -1.
     -623   -1    0    0    0    0  0.00000000000E+00  0.00000000000E+00  0.12525980253E-10  0.17130000000E+03  0.17130000000E+03 0. -1.
       11    1    1    2    0    0 -0.15216041605E+00  0.46514259453E-01  0.11073238579E+00  0.19385120849E+00  0.51109989000E-03 0. -1.
     -623    1    1    2    0    0  0.49784949774E+00 -0.54960171220E+00  0.10049070997E+01  0.17130455264E+03  0.17130000000E+03 0. -1.
      622    1    1    2    0    0 -0.34568908169E+00  0.50308745275E+00  0.28843604819E+01  0.38015961537E+01  0.24000000000E+01 0. -1.
</event>
<event>
 5   0  0.6825300E-03  0.9118800E+02  0.7818608E-02  0.1180000E+00
       11   -1    0    0    0    0  0.00000000000E+00  0.00000000000E+00  0.39999999673E+01  0.40000000000E+01  0.51109989000E-03 0.  1.
     -623   -1    0    0    0    0  0.00000000000E+00  0.00000000000E+00  0.12525980253E-10  0.17130000000E+03  0.17130000000E+03 0. -1.
       11    1    1    2    0    0  0.38609797015E-01 -0.12031731729E-01  0.92656893429E-01  0.10109915982E+00  0.51109989000E-03 0.  1.
     -623    1    1    2    0    0 -0.93667233252E-02  0.37863973368E+00  0.86003645757E+00  0.17130257768E+03  0.17130000000E+03 0. -1.
      622    1    1    2    0    0 -0.29243073690E-01 -0.36660800195E+00  0.30473066164E+01  0.38963231640E+01  0.24000000000E+01 0.  1.
</event>
<event>
 5   0  0.6825300E-03  0.9118800E+02  0.7818608E-02  0.1180000E+00
       11   -1    0    0    0    0  0.00000000000E+00  0.00000000000E+00  0.39999999673E+01  0.40000000000E+01  0.51109989000E-03 0. -1.
     -623   -1    0    0    0    0  0.00000000000E+00  0.00000000000E+00  0.12525980253E-10  0.17130000000E+03  0.17130000000E+03 0.  1.
       11    1    1    2    0    0  0.49472936322E-01  0.14577636808E+00 -0.11069041737E+00  0.18960735914E+00  0.51109989000E-03 0. -1.
     -623    1    1    2    0    0  0.13471635992E+01 -0.20657212797E+00  0.15198893622E+01  0.17131216415E+03  0.17130000000E+03 0. -1.
      622    1    1    2    0    0 -0.13966365355E+01  0.60795759887E-01  0.25908010225E+01  0.37982284917E+01  0.24000000000E+01 0. -1.
</event>
<event>
 5   0  0.6825300E-03  0.9118800E+02  0.7818608E-02  0.1180000E+00
       11   -1    0    0    0    0  0.00000000000E+00  0.00000000000E+00  0.39999999673E+01  0.40000000000E+01  0.51109989000E-03 0. -1.
     -623   -1    0    0    0    0  0.00000000000E+00  0.00000000000E+00  0.12525980253E-10  0.17130000000E+03  0.17130000000E+03 0. -1.
       11    1    1    2    0    0  0.13193619397E+00 -0.39197214618E-01  0.19025439703E+00  0.23482030944E+00  0.51109989000E-03 0. -1.
     -623    1    1    2    0    0 -0.52468962635E+00  0.92452026542E+00  0.10843299163E+01  0.17130673019E+03  0.17130000000E+03 0. -1.
      622    1    1    2    0    0  0.39275343239E+00 -0.88532305080E+00  0.27254156541E+01  0.37584495008E+01  0.24000000000E+01 0. -1.
</event>
<event>
 5   0  0.6825300E-03  0.9118800E+02  0.7818608E-02  0.1180000E+00
       11   -1    0    0    0    0  0.00000000000E+00  0.00000000000E+00  0.39999999673E+01  0.40000000000E+01  0.51109989000E-03 0.  1.
     -623   -1    0    0    0    0  0.00000000000E+00  0.00000000000E+00  0.12525980253E-10  0.17130000000E+03  0.17130000000E+03 0. -1.
       11    1    1    2    0    0  0.14191643587E+00  0.12620038777E+00 -0.13060004240E+00  0.23048523802E+00  0.51109989000E-03 0.  1.
     -623    1    1    2    0    0 -0.91961235568E-01  0.67848668889E+00  0.13468913809E+01  0.17130666338E+03  0.17130000000E+03 0. -1.
      622    1    1    2    0    0 -0.49955200306E-01 -0.80468707666E+00  0.27837086288E+01  0.37628513847E+01  0.24000000000E+01 0.  1.
</event>
<event>
 5   0  0.6825300E-03  0.9118800E+02  0.7818608E-02  0.1180000E+00
       11   -1    0    0    0    0  0.00000000000E+00  0.00000000000E+00  0.39999999673E+01  0.40000000000E+01  0.51109989000E-03 0.  1.
     -623   -1    0    0    0    0  0.00000000000E+00  0.00000000000E+00  0.12525980253E-10  0.17130000000E+03  0.17130000000E+03 0.  1.
       11    1    1    2    0    0  0.21098127106E+00 -0.40580710581E+00  0.66643912362E+00  0.80829070920E+00  0.51109989000E-03 0.  1.
     -623    1    1    2    0    0 -0.83966028093E-01  0.11028904624E+00  0.12614702979E+01  0.17130470081E+03  0.17130000000E+03 0.  1.
      622    1    1    2    0    0 -0.12701524297E+00  0.29551805956E+00  0.20720905458E+01  0.31870084759E+01  0.24000000000E+01 0.  1.
</event>
<event>
 5   0  0.6825300E-03  0.9118800E+02  0.7818608E-02  0.1180000E+00
       11   -1    0    0    0    0  0.00000000000E+00  0.00000000000E+00  0.39999999673E+01  0.40000000000E+01  0.51109989000E-03 0. -1.
     -623   -1    0    0    0    0  0.00000000000E+00  0.00000000000E+00  0.12525980253E-10  0.17130000000E+03  0.17130000000E+03 0. -1.
       11    1    1    2    0    0 -0.45298456093E+00  0.31189015431E+00  0.22901430506E+00  0.59575019424E+00  0.51109989000E-03 0. -1.
     -623    1    1    2    0    0  0.64016807172E+00  0.80417497250E-01  0.14061480830E+01  0.17130698624E+03  0.17130000000E+03 0. -1.
      622    1    1    2    0    0 -0.18718351080E+00 -0.39230765156E+00  0.23648375793E+01  0.33972635660E+01  0.24000000000E+01 0. -1.
</event>
<event>
 5   0  0.6825300E-03  0.9118800E+02  0.7818608E-02  0.1180000E+00
       11   -1    0    0    0    0  0.00000000000E+00  0.00000000000E+00  0.39999999673E+01  0.40000000000E+01  0.51109989000E-03 0.  1.
     -623   -1    0    0    0    0  0.00000000000E+00  0.00000000000E+00  0.12525980253E-10  0.17130000000E+03  0.17130000000E+03 0.  1.
       11    1    1    2    0    0  0.49840413873E-01  0.91966606158E-01 -0.29703968029E-01  0.10874056485E+00  0.51109989000E-03 0.  1.
     -623    1    1    2    0    0 -0.20838135162E+00  0.12429274498E+00  0.98228699280E+00  0.17130298818E+03  0.17130000000E+03 0.  1.
      622    1    1    2    0    0  0.15854093775E+00 -0.21625935113E+00  0.30474169426E+01  0.38882712557E+01  0.24000000000E+01 0.  1.
</event>
<event>
 5   0  0.6825300E-03  0.9118800E+02  0.7818608E-02  0.1180000E+00
       11   -1    0    0    0    0  0.00000000000E+00  0.00000000000E+00  0.39999999673E+01  0.40000000000E+01  0.51109989000E-03 0.  1.
     -623   -1    0    0    0    0  0.00000000000E+00  0.00000000000E+00  0.12525980253E-10  0.17130000000E+03  0.17130000000E+03 0. -1.
       11    1    1    2    0    0 -0.22292505556E+00 -0.64456948092E-01  0.26159824312E+00  0.34969155062E+00  0.51109989000E-03 0.  1.
     -623    1    1    2    0    0  0.49890260497E+00 -0.42969266205E+00  0.10529669525E+01  0.17130450163E+03  0.17130000000E+03 0. -1.
      622    1    1    2    0    0 -0.27597754941E+00  0.49414961014E+00  0.26854347717E+01  0.36458068185E+01  0.24000000000E+01 0.  1.
</event>
<event>
 5   0  0.6825300E-03  0.9118800E+02  0.7818608E-02  0.1180000E+00
       11   -1    0    0    0    0  0.00000000000E+00  0.00000000000E+00  0.39999999673E+01  0.40000000000E+01  0.51109989000E-03 0. -1.
     -623   -1    0    0    0    0  0.00000000000E+00  0.00000000000E+00  0.12525980253E-10  0.17130000000E+03  0.17130000000E+03 0.  1.
       11    1    1    2    0    0 -0.30748400752E+00 -0.67692434022E+00  0.36063236521E+00  0.82633464246E+00  0.51109989000E-03 0. -1.
     -623    1    1    2    0    0 -0.31967082334E+00  0.29567592606E+00  0.17117356119E+01  0.17130910557E+03  0.17130000000E+03 0.  1.
      622    1    1    2    0    0  0.62715483086E+00  0.38124841416E+00  0.19276319902E+01  0.31645597837E+01  0.24000000000E+01 0. -1.
</event>
<event>
 5   0  0.6825300E-03  0.9118800E+02  0.7818608E-02  0.1180000E+00
       11   -1    0    0    0    0  0.00000000000E+00  0.00000000000E+00  0.39999999673E+01  0.40000000000E+01  0.51109989000E-03 0. -1.
     -623   -1    0    0    0    0  0.00000000000E+00  0.00000000000E+00  0.12525980253E-10  0.17130000000E+03  0.17130000000E+03 0.  1.
       11    1    1    2    0    0 -0.39474028937E-01  0.33245010037E+00  0.45013864623E+00  0.56098692520E+00  0.51109989000E-03 0. -1.
     -623    1    1    2    0    0  0.12609488336E+00 -0.52470914193E+00  0.11019769103E+01  0.17130439449E+03  0.17130000000E+03 0.  1.
      622    1    1    2    0    0 -0.86620854427E-01  0.19225904156E+00  0.24478844109E+01  0.34346185815E+01  0.24000000000E+01 0. -1.
</event>
<event>
 5   0  0.6825300E-03  0.9118800E+02  0.7818608E-02  0.1180000E+00
       11   -1    0    0    0    0  0.00000000000E+00  0.00000000000E+00  0.39999999673E+01  0.40000000000E+01  0.51109989000E-03 0. -1.
     -623   -1    0    0    0    0  0.00000000000E+00  0.00000000000E+00  0.12525980253E-10  0.17130000000E+03  0.17130000000E+03 0.  1.
       11    1    1    2    0    0  0.13192100716E+00 -0.17671713299E-01 -0.35704301580E-01  0.13780602293E+00  0.51109989000E-03 0. -1.
     -623    1    1    2    0    0  0.37969675657E+00  0.44031006379E+00  0.10892120525E+01  0.17130444952E+03  0.17130000000E+03 0.  1.
      622    1    1    2    0    0 -0.51161776374E+00 -0.42263835049E+00  0.29464922165E+01  0.38577444567E+01  0.24000000000E+01 0. -1.
</event>
<event>
 5   0  0.6825300E-03  0.9118800E+02  0.7818608E-02  0.1180000E+00
       11   -1    0    0    0    0  0.00000000000E+00  0.00000000000E+00  0.39999999673E+01  0.40000000000E+01  0.51109989000E-03 0. -1.
     -623   -1    0    0    0    0  0.00000000000E+00  0.00000000000E+00  0.12525980253E-10  0.17130000000E+03  0.17130000000E+03 0. -1.
       11    1    1    2    0    0 -0.15053931205E-01  0.14898348843E+00 -0.39755628315E-01  0.15493053887E+00  0.51109989000E-03 0. -1.
     -623    1    1    2    0    0  0.95842543819E+00 -0.19371910495E+00  0.11973949497E+01  0.17130697552E+03  0.17130000000E+03 0. -1.
      622    1    1    2    0    0 -0.94337150699E+00  0.44735616520E-01  0.28423606460E+01  0.38380939433E+01  0.24000000000E+01 0. -1.
</event>
<event>
 5   0  0.6825300E-03  0.9118800E+02  0.7818608E-02  0.1180000E+00
       11   -1    0    0    0    0  0.00000000000E+00  0.00000000000E+00  0.39999999673E+01  0.40000000000E+01  0.51109989000E-03 0. -1.
     -623   -1    0    0    0    0  0.00000000000E+00  0.00000000000E+00  0.12525980253E-10  0.17130000000E+03  0.17130000000E+03 0. -1.
       11    1    1    2    0    0 -0.35514846023E+00 -0.14340539187E+00  0.91954626695E-01  0.39389268820E+00  0.51109989000E-03 0. -1.
     -623    1    1    2    0    0  0.38262372878E-01 -0.17868251247E-01  0.12463036421E+01  0.17130453892E+03  0.17130000000E+03 0. -1.
      622    1    1    2    0    0  0.31688608735E+00  0.16127364312E+00  0.26617416986E+01  0.36015683875E+01  0.24000000000E+01 0.  0.
</event>
<event>
 5   0  0.6825300E-03  0.9118800E+02  0.7818608E-02  0.1180000E+00
       11   -1    0    0    0    0  0.00000000000E+00  0.00000000000E+00  0.39999999673E+01  0.40000000000E+01  0.51109989000E-03 0. -1.
     -623   -1    0    0    0    0  0.00000000000E+00  0.00000000000E+00  0.12525980253E-10  0.17130000000E+03  0.17130000000E+03 0. -1.
       11    1    1    2    0    0 -0.11636256809E+00  0.17926514522E+00  0.18628733997E+00  0.28351274010E+00  0.51109989000E-03 0. -1.
     -623    1    1    2    0    0  0.56072277303E+00 -0.11562060041E+00  0.10170658733E+01  0.17130397602E+03  0.17130000000E+03 0. -1.
      622    1    1    2    0    0 -0.44436020494E+00 -0.63644544816E-01  0.27966467541E+01  0.37125112373E+01  0.24000000000E+01 0. -1.
</event>
<event>
 5   0  0.6825300E-03  0.9118800E+02  0.7818608E-02  0.1180000E+00
       11   -1    0    0    0    0  0.00000000000E+00  0.00000000000E+00  0.39999999673E+01  0.40000000000E+01  0.51109989000E-03 0. -1.
     -623   -1    0    0    0    0  0.00000000000E+00  0.00000000000E+00  0.12525980253E-10  0.17130000000E+03  0.17130000000E+03 0.  1.
       11    1    1    2    0    0  0.26046746814E-01  0.71106271303E-01 -0.13413632066E+00  0.15403684164E+00  0.51109989000E-03 0. -1.
     -623    1    1    2    0    0  0.37040441540E+00 -0.70138178821E+00  0.12308775597E+01  0.17130625848E+03  0.17130000000E+03 0.  1.
      622    1    1    2    0    0 -0.39645116221E+00  0.63027551691E+00  0.29032587283E+01  0.38397046755E+01  0.24000000000E+01 0. -1.
</event>
<event>
 5   0  0.6825300E-03  0.9118800E+02  0.7818608E-02  0.1180000E+00
       11   -1    0    0    0    0  0.00000000000E+00  0.00000000000E+00  0.39999999673E+01  0.40000000000E+01  0.51109989000E-03 0.  1.
     -623   -1    0    0    0    0  0.00000000000E+00  0.00000000000E+00  0.12525980253E-10  0.17130000000E+03  0.17130000000E+03 0.  1.
       11    1    1    2    0    0  0.21175646271E-01  0.39035986420E-01  0.19152952156E+00  0.19661138085E+00  0.51109989000E-03 0.  1.
     -623    1    1    2    0    0 -0.33055003401E+00 -0.19516009496E+00  0.88184314155E+00  0.17130269991E+03  0.17130000000E+03 0.  1.
      622    1    1    2    0    0  0.30937438774E+00  0.15612410854E+00  0.29266273043E+01  0.38006887043E+01  0.24000000000E+01 0.  1.
</event>
<event>
 5   0  0.6825300E-03  0.9118800E+02  0.7818608E-02  0.1180000E+00
       11   -1    0    0    0    0  0.00000000000E+00  0.00000000000E+00  0.39999999673E+01  0.40000000000E+01  0.51109989000E-03 0.  1.
     -623   -1    0    0    0    0  0.00000000000E+00  0.00000000000E+00  0.12525980253E-10  0.17130000000E+03  0.17130000000E+03 0. -1.
       11    1    1    2    0    0 -0.38466695168E-01 -0.60269691393E-03 -0.26755600454E-02  0.38567729066E-01  0.51109989000E-03 0.  1.
     -623    1    1    2    0    0 -0.23392277821E+00  0.22435216035E+00  0.87400205776E+00  0.17130253627E+03  0.17130000000E+03 0. -1.
      622    1    1    2    0    0  0.27238947338E+00 -0.22374946344E+00  0.31286734696E+01  0.39588959985E+01  0.24000000000E+01 0.  1.
</event>
<event>
 5   0  0.6825300E-03  0.9118800E+02  0.7818608E-02  0.1180000E+00
       11   -1    0    0    0    0  0.00000000000E+00  0.00000000000E+00  0.39999999673E+01  0.40000000000E+01  0.51109989000E-03 0.  1.
     -623   -1    0    0    0    0  0.00000000000E+00  0.00000000000E+00  0.12525980253E-10  0.17130000000E+03  0.17130000000E+03 0.  1.
       11    1    1    2    0    0 -0.16772956547E+00  0.11606040731E+00  0.18876073959E+00  0.27791024326E+00  0.51109989000E-03 0.  1.
     -623    1    1    2    0    0  0.46315073370E-01 -0.21003119298E+00  0.97420526782E+00  0.17130290521E+03  0.17130000000E+03 0.  1.
      622    1    1    2    0    0  0.12141449210E+00  0.93970785669E-01  0.28370339600E+01  0.37191845447E+01  0.24000000000E+01 0.  1.
</event>
<event>
 5   0  0.6825300E-03  0.9118800E+02  0.7818608E-02  0.1180000E+00
       11   -1    0    0    0    0  0.00000000000E+00  0.00000000000E+00  0.39999999673E+01  0.40000000000E+01  0.51109989000E-03 0. -1.
     -623   -1    0    0    0    0  0.00000000000E+00  0.00000000000E+00  0.12525980253E-10  0.17130000000E+03  0.17130000000E+03 0. -1.
       11    1    1    2    0    0 -0.50881840685E+00  0.89944631098E-01  0.69777787374E+00  0.86826288077E+00  0.51109989000E-03 0. -1.
     -623    1    1    2    0    0  0.44246498972E+00 -0.30222514956E+00  0.13118363499E+01  0.17130586105E+03  0.17130000000E+03 0. -1.
      622    1    1    2    0    0  0.66353417126E-01  0.21228051846E+00  0.19903857437E+01  0.31258760697E+01  0.24000000000E+01 0. -1.
</event>
<event>
 5   0  0.6825300E-03  0.9118800E+02  0.7818608E-02  0.1180000E+00
       11   -1    0    0    0    0  0.00000000000E+00  0.00000000000E+00  0.39999999673E+01  0.40000000000E+01  0.51109989000E-03 0. -1.
     -623   -1    0    0    0    0  0.00000000000E+00  0.00000000000E+00  0.12525980253E-10  0.17130000000E+03  0.17130000000E+03 0. -1.
       11    1    1    2    0    0  0.95811123083E-01 -0.33832809554E-01  0.11152578759E-01  0.10222070017E+00  0.51109989000E-03 0. -1.
     -623    1    1    2    0    0 -0.45093090818E-01  0.40029431072E+00  0.94387400556E+00  0.17130307402E+03  0.17130000000E+03 0. -1.
      622    1    1    2    0    0 -0.50718032265E-01 -0.36646150117E+00  0.30449733830E+01  0.38947052846E+01  0.24000000000E+01 0. -1.
</event>
<event>
 5   0  0.6825300E-03  0.9118800E+02  0.7818608E-02  0.1180000E+00
       11   -1    0    0    0    0  0.00000000000E+00  0.00000000000E+00  0.39999999673E+01  0.40000000000E+01  0.51109989000E-03 0. -1.
     -623   -1    0    0    0    0  0.00000000000E+00  0.00000000000E+00  0.12525980253E-10  0.17130000000E+03  0.17130000000E+03 0. -1.
       11    1    1    2    0    0  0.10683653477E+00  0.14988012330E+00  0.55240790399E-01  0.19217154490E+00  0.51109989000E-03 0. -1.
     -623    1    1    2    0    0 -0.17724422676E+00  0.91890704960E-01  0.10031779439E+01  0.17130305375E+03  0.17130000000E+03 0. -1.
      622    1    1    2    0    0  0.70407691987E-01 -0.24177082826E+00  0.29415812330E+01  0.38047747012E+01  0.24000000000E+01 0. -1.
</event>
<event>
 5   0  0.6825300E-03  0.9118800E+02  0.7818608E-02  0.1180000E+00
       11   -1    0    0    0    0  0.00000000000E+00  0.00000000000E+00  0.39999999673E+01  0.40000000000E+01  0.51109989000E-03 0.  1.
     -623   -1    0    0    0    0  0.00000000000E+00  0.00000000000E+00  0.12525980253E-10  0.17130000000E+03  0.17130000000E+03 0.  1.
       11    1    1    2    0    0 -0.38717826182E+00 -0.18589167276E-01  0.12931080627E+00  0.40862465590E+00  0.51109989000E-03 0.  1.
     -623    1    1    2    0    0  0.82659483422E-01  0.34317550898E-01  0.12223835688E+01  0.17130438474E+03  0.17130000000E+03 0.  1.
      622    1    1    2    0    0  0.30451877840E+00 -0.15728383623E-01  0.26483055923E+01  0.35869906020E+01  0.24000000000E+01 0.  1.
</event>
<event>
 5   0  0.6825300E-03  0.9118800E+02  0.7818608E-02  0.1180000E+00
       11   -1    0    0    0    0  0.00000000000E+00  0.00000000000E+00  0.39999999673E+01  0.40000000000E+01  0.51109989000E-03 0. -1.
     -623   -1    0    0    0    0  0.00000000000E+00  0.00000000000E+00  0.12525980253E-10  0.17130000000E+03  0.17130000000E+03 0.  1.
       11    1    1    2    0    0 -0.87247104163E-01  0.23890581781E+00  0.30818622735E+00  0.39958360692E+00  0.51109989000E-03 0. -1.
     -623    1    1    2    0    0  0.41659217033E+00 -0.71657772463E+00  0.10788680960E+01  0.17130540268E+03  0.17130000000E+03 0.  1.
      622    1    1    2    0    0 -0.32934506617E+00  0.47767190682E+00  0.26129456440E+01  0.35950137082E+01  0.24000000000E+01 0. -1.
</event>
<event>
 5   0  0.6825300E-03  0.9118800E+02  0.7818608E-02  0.1180000E+00
       11   -1    0    0    0    0  0.00000000000E+00  0.00000000000E+00  0.39999999673E+01  0.40000000000E+01  0.51109989000E-03 0. -1.
     -623   -1    0    0    0    0  0.00000000000E+00  0.00000000000E+00  0.12525980253E-10  0.17130000000E+03  0.17130000000E+03 0.  1.
       11    1    1    2    0    0 -0.15706657095E+00  0.31031422912E+00  0.29714929098E-01  0.34906742435E+00  0.51109989000E-03 0. -1.
     -623    1    1    2    0    0  0.14688922992E+00 -0.68958260198E+00  0.12534268316E+01  0.17130603661E+03  0.17130000000E+03 0.  1.
      622    1    1    2    0    0  0.10177341032E-01  0.37926837285E+00  0.27168582066E+01  0.36448959645E+01  0.24000000000E+01 0. -1.
</event>
<event>
 5   0  0.6825300E-03  0.9118800E+02  0.7818608E-02  0.1180000E+00
       11   -1    0    0    0    0  0.00000000000E+00  0.00000000000E+00  0.39999999673E+01  0.40000000000E+01  0.51109989000E-03 0.  1.
     -623   -1    0    0    0    0  0.00000000000E+00  0.00000000000E+00  0.12525980253E-10  0.17130000000E+03  0.17130000000E+03 0.  1.
       11    1    1    2    0    0 -0.20246957690E+00 -0.11450694061E+00  0.14027094655E+00  0.27162836503E+00  0.51109989000E-03 0.  1.
     -623    1    1    2    0    0  0.54359694349E+00  0.32528386803E+00  0.10405663668E+01  0.17130433178E+03  0.17130000000E+03 0.  1.
      622    1    1    2    0    0 -0.34112736658E+00 -0.21077692742E+00  0.28191626540E+01  0.37240398579E+01  0.24000000000E+01 0.  1.
</event>
<event>
 5   0  0.6825300E-03  0.9118800E+02  0.7818608E-02  0.1180000E+00
       11   -1    0    0    0    0  0.00000000000E+00  0.00000000000E+00  0.39999999673E+01  0.40000000000E+01  0.51109989000E-03 0. -1.
     -623   -1    0    0    0    0  0.00000000000E+00  0.00000000000E+00  0.12525980253E-10  0.17130000000E+03  0.17130000000E+03 0.  1.
       11    1    1    2    0    0 -0.15794297455E-01 -0.43398950565E-01 -0.51712368910E-01  0.69335121414E-01  0.51109989000E-03 0. -1.
     -623    1    1    2    0    0  0.24492914669E+00 -0.17322705717E+00  0.95856562407E+00  0.17130294465E+03  0.17130000000E+03 0.  1.
      622    1    1    2    0    0 -0.22913484923E+00  0.21662600773E+00  0.30931467122E+01  0.39277202280E+01  0.24000000000E+01 0. -1.
</event>
<event>
 5   0  0.6825300E-03  0.9118800E+02  0.7818608E-02  0.1180000E+00
       11   -1    0    0    0    0  0.00000000000E+00  0.00000000000E+00  0.39999999673E+01  0.40000000000E+01  0.51109989000E-03 0.  1.
     -623   -1    0    0    0    0  0.00000000000E+00  0.00000000000E+00  0.12525980253E-10  0.17130000000E+03  0.17130000000E+03 0.  1.
       11    1    1    2    0    0 -0.78302307795E-01  0.15984890704E+00  0.16396105314E+00  0.24200498478E+00  0.51109989000E-03 0.  1.
     -623    1    1    2    0    0  0.65041808934E+00 -0.34805587175E+00  0.10137480267E+01  0.17130458801E+03  0.17130000000E+03 0.  1.
      622    1    1    2    0    0 -0.57211578154E+00  0.18820696471E+00  0.28222908875E+01  0.37534070100E+01  0.24000000000E+01 0.  0.
</event>
<event>
 5   0  0.6825300E-03  0.9118800E+02  0.7818608E-02  0.1180000E+00
       11   -1    0    0    0    0  0.00000000000E+00  0.00000000000E+00  0.39999999673E+01  0.40000000000E+01  0.51109989000E-03 0. -1.
     -623   -1    0    0    0    0  0.00000000000E+00  0.00000000000E+00  0.12525980253E-10  0.17130000000E+03  0.17130000000E+03 0.  1.
       11    1    1    2    0    0 -0.76562556022E-02  0.46117744837E+00  0.13695930880E+00  0.48114589328E+00  0.51109989000E-03 0. -1.
     -623    1    1    2    0    0 -0.45347409321E+00 -0.60316171096E+00  0.13449607900E+01  0.17130694196E+03  0.17130000000E+03 0.  1.
      622    1    1    2    0    0  0.46113034881E+00  0.14198426260E+00  0.25180798686E+01  0.35119121507E+01  0.24000000000E+01 0. -1.
</event>
<event>
 5   0  0.6825300E-03  0.9118800E+02  0.7818608E-02  0.1180000E+00
       11   -1    0    0    0    0  0.00000000000E+00  0.00000000000E+00  0.39999999673E+01  0.40000000000E+01  0.51109989000E-03 0. -1.
     -623   -1    0    0    0    0  0.00000000000E+00  0.00000000000E+00  0.12525980253E-10  0.17130000000E+03  0.17130000000E+03 0. -1.
       11    1    1    2    0    0  0.98599427762E-01 -0.20914786872E+00  0.36789168564E-01  0.23413325755E+00  0.51109989000E-03 0. -1.
     -623    1    1    2    0    0 -0.66140679533E-01  0.46983002566E+00  0.10783804637E+01  0.17130405138E+03  0.17130000000E+03 0. -1.
      622    1    1    2    0    0 -0.32458748229E-01 -0.26068215694E+00  0.28848303351E+01  0.37618153623E+01  0.24000000000E+01 0. -1.
</event>
<event>
 5   0  0.6825300E-03  0.9118800E+02  0.7818608E-02  0.1180000E+00
       11   -1    0    0    0    0  0.00000000000E+00  0.00000000000E+00  0.39999999673E+01  0.40000000000E+01  0.51109989000E-03 0. -1.
     -623   -1    0    0    0    0  0.00000000000E+00  0.00000000000E+00  0.12525980253E-10  0.17130000000E+03  0.17130000000E+03 0. -1.
       11    1    1    2    0    0  0.28054808132E+00  0.10005552105E-01 -0.39261905829E-01  0.28345916016E+00  0.51109989000E-03 0. -1.
     -623    1    1    2    0    0  0.28315269170E+00 -0.22739923595E+00  0.12734640113E+01  0.17130511842E+03  0.17130000000E+03 0. -1.
      622    1    1    2    0    0 -0.56370077301E+00  0.21739368384E+00  0.27657978619E+01  0.37114224211E+01  0.24000000000E+01 0. -1.
</event>
<event>
 5   0  0.6825300E-03  0.9118800E+02  0.7818608E-02  0.1180000E+00
       11   -1    0    0    0    0  0.00000000000E+00  0.00000000000E+00  0.39999999673E+01  0.40000000000E+01  0.51109989000E-03 0.  1.
     -623   -1    0    0    0    0  0.00000000000E+00  0.00000000000E+00  0.12525980253E-10  0.17130000000E+03  0.17130000000E+03 0.  1.
       11    1    1    2    0    0 -0.38203765845E+00  0.92740948517E-01  0.65755324342E+00  0.76611368945E+00  0.51109989000E-03 0.  1.
     -623    1    1    2    0    0  0.20984722622E+00 -0.51279865211E+00  0.12311578402E+01  0.17130532026E+03  0.17130000000E+03 0.  1.
      622    1    1    2    0    0  0.17219043223E+00  0.42005770359E+00  0.21112888837E+01  0.32285660547E+01  0.24000000000E+01 0.  1.
</event>
<event>
 5   0  0.6825300E-03  0.9118800E+02  0.7818608E-02  0.1180000E+00
       11   -1    0    0    0    0  0.00000000000E+00  0.00000000000E+00  0.39999999673E+01  0.40000000000E+01  0.51109989000E-03 0.  1.
     -623   -1    0    0    0    0  0.00000000000E+00  0.00000000000E+00  0.12525980253E-10  0.17130000000E+03  0.17130000000E+03 0. -1.
       11    1    1    2    0    0  0.88888751710E-01 -0.80175479516E-02  0.16259625255E+00  0.18548124925E+00  0.51109989000E-03 0.  1.
     -623    1    1    2    0    0 -0.15710687246E+00 -0.18306913035E+00  0.88261972409E+00  0.17130244369E+03  0.17130000000E+03 0. -1.
      622    1    1    2    0    0  0.68218120754E-01  0.19108667831E+00  0.29547839907E+01  0.38120750599E+01  0.24000000000E+01 0.  1.
</event>
<event>
 5   0  0.6825300E-03  0.9118800E+02  0.7818608E-02  0.1180000E+00
       11   -1    0    0    0    0  0.00000000000E+00  0.00000000000E+00  0.39999999673E+01  0.40000000000E+01  0.51109989000E-03 0.  1.
     -623   -1    0    0    0    0  0.00000000000E+00  0.00000000000E+00  0.12525980253E-10  0.17130000000E+03  0.17130000000E+03 0.  1.
       11    1    1    2    0    0 -0.25804797645E+00 -0.31143644921E+00  0.97358400423E+00  0.10542521020E+01  0.51109989000E-03 0.  1.
     -623    1    1    2    0    0 -0.84005149466E-01  0.31006495274E+00  0.13630647859E+01  0.17130572420E+03  0.17130000000E+03 0.  1.
      622    1    1    2    0    0  0.34205312592E+00  0.13714964724E-02  0.16633511773E+01  0.29400237007E+01  0.24000000000E+01 0.  1.
</event>
<event>
 5   0  0.6825300E-03  0.9118800E+02  0.7818608E-02  0.1180000E+00
       11   -1    0    0    0    0  0.00000000000E+00  0.00000000000E+00  0.39999999673E+01  0.40000000000E+01  0.51109989000E-03 0.  1.
     -623   -1    0    0    0    0  0.00000000000E+00  0.00000000000E+00  0.12525980253E-10  0.17130000000E+03  0.17130000000E+03 0. -1.
       11    1    1    2    0    0  0.23781361484E-01  0.14528648302E+00  0.92467780088E-01  0.17385127805E+00  0.51109989000E-03 0.  1.
     -623    1    1    2    0    0  0.14257162216E+00  0.21530234731E+00  0.95800064789E+00  0.17130287343E+03  0.17130000000E+03 0. -1.
      622    1    1    2    0    0 -0.16635298365E+00 -0.36058883033E+00  0.29495315394E+01  0.38232752872E+01  0.24000000000E+01 0.  1.
</event>
<event>
 5   0  0.6825300E-03  0.9118800E+02  0.7818608E-02  0.1180000E+00
       11   -1    0    0    0    0  0.00000000000E+00  0.00000000000E+00  0.39999999673E+01  0.40000000000E+01  0.51109989000E-03 0. -1.
     -623   -1    0    0    0    0  0.00000000000E+00  0.00000000000E+00  0.12525980253E-10  0.17130000000E+03  0.17130000000E+03 0.  1.
       11    1    1    2    0    0 -0.19861011305E+00  0.30450240591E+00  0.56246644707E-01  0.36787448739E+00  0.51109989000E-03 0. -1.
     -623    1    1    2    0    0 -0.12236997896E+01  0.51377136930E+00  0.17909278283E+01  0.17131450267E+03  0.17130000000E+03 0.  1.
      622    1    1    2    0    0  0.14223099027E+01 -0.81827377521E+00  0.21528254943E+01  0.36176228437E+01  0.24000000000E+01 0. -1.
</event>
<event>
 5   0  0.6825300E-03  0.9118800E+02  0.7818608E-02  0.1180000E+00
       11   -1    0    0    0    0  0.00000000000E+00  0.00000000000E+00  0.39999999673E+01  0.40000000000E+01  0.51109989000E-03 0.  1.
     -623   -1    0    0    0    0  0.00000000000E+00  0.00000000000E+00  0.12525980253E-10  0.17130000000E+03  0.17130000000E+03 0. -1.
       11    1    1    2    0    0 -0.11385857697E+00  0.29421382022E+00  0.59083473713E+00  0.66978466344E+00  0.51109989000E-03 0.  1.
     -623    1    1    2    0    0  0.38232802177E+00  0.59565975584E-01  0.11498506325E+01  0.17130429615E+03  0.17130000000E+03 0. -1.
      622    1    1    2    0    0 -0.26846944480E+00 -0.35377979581E+00  0.22593145978E+01  0.33259191870E+01  0.24000000000E+01 0.  1.
</event>
<event>
 5   0  0.6825300E-03  0.9118800E+02  0.7818608E-02  0.1180000E+00
       11   -1    0    0    0    0  0.00000000000E+00  0.00000000000E+00  0.39999999673E+01  0.40000000000E+01  0.51109989000E-03 0.  1.
     -623   -1    0    0    0    0  0.00000000000E+00  0.00000000000E+00  0.12525980253E-10  0.17130000000E+03  0.17130000000E+03 0. -1.
       11    1    1    2    0    0  0.21323777683E+00 -0.16557763076E-01  0.42569340086E-02  0.21392263016E+00  0.51109989000E-03 0.  1.
     -623    1    1    2    0    0 -0.16625066219E+00  0.13499101037E-01  0.10723639392E+01  0.17130343775E+03  0.17130000000E+03 0. -1.
      622    1    1    2    0    0 -0.46987114644E-01  0.30586620393E-02  0.29233790941E+01  0.37826396170E+01  0.24000000000E+01 0.  1.
</event>
<event>
 5   0  0.6825300E-03  0.9118800E+02  0.7818608E-02  0.1180000E+00
       11   -1    0    0    0    0  0.00000000000E+00  0.00000000000E+00  0.39999999673E+01  0.40000000000E+01  0.51109989000E-03 0.  1.
     -623   -1    0    0    0    0  0.00000000000E+00  0.00000000000E+00  0.12525980253E-10  0.17130000000E+03  0.17130000000E+03 0. -1.
       11    1    1    2    0    0  0.19275128411E-01  0.19256815549E-01 -0.52263154761E-01  0.58941106942E-01  0.51109989000E-03 0.  1.
     -623    1    1    2    0    0  0.24533115051E+00  0.44860408790E+00  0.97735557035E+00  0.17130355121E+03  0.17130000000E+03 0. -1.
      622    1    1    2    0    0 -0.26460627892E+00 -0.46786090345E+00  0.30749075518E+01  0.39375076838E+01  0.24000000000E+01 0.  1.
</event>
<event>
 5   0  0.6825300E-03  0.9118800E+02  0.7818608E-02  0.1180000E+00
       11   -1    0    0    0    0  0.00000000000E+00  0.00000000000E+00  0.39999999673E+01  0.40000000000E+01  0.51109989000E-03 0.  1.
     -623   -1    0    0    0    0  0.00000000000E+00  0.00000000000E+00  0.12525980253E-10  0.17130000000E+03  0.17130000000E+03 0. -1.
       11    1    1    2    0    0 -0.79218761530E-01 -0.20559705336E+00 -0.38878648879E-01  0.22373549359E+00  0.51109989000E-03 0.  1.
     -623    1    1    2    0    0  0.18224468646E-03  0.29082989161E+00  0.11308513733E+01  0.17130397954E+03  0.17130000000E+03 0. -1.
      622    1    1    2    0    0  0.79036516843E-01 -0.85232838253E-01  0.29080272430E+01  0.37722849645E+01  0.24000000000E+01 0.  1.
</event>
<event>
 5   0  0.6825300E-03  0.9118800E+02  0.7818608E-02  0.1180000E+00
       11   -1    0    0    0    0  0.00000000000E+00  0.00000000000E+00  0.39999999673E+01  0.40000000000E+01  0.51109989000E-03 0. -1.
     -623   -1    0    0    0    0  0.00000000000E+00  0.00000000000E+00  0.12525980253E-10  0.17130000000E+03  0.17130000000E+03 0.  1.
       11    1    1    2    0    0  0.91551616652E-01  0.21151626279E+00 -0.80417868957E-01  0.24410678566E+00  0.51109989000E-03 0. -1.
     -623    1    1    2    0    0  0.37577455232E+00 -0.31147067982E+00  0.12379627590E+01  0.17130516855E+03  0.17130000000E+03 0.  1.
      622    1    1    2    0    0 -0.46732616897E+00  0.99954417026E-01  0.28424550773E+01  0.37507246633E+01  0.24000000000E+01 0. -1.
</event>
<event>
 5   0  0.6825300E-03  0.9118800E+02  0.7818608E-02  0.1180000E+00
       11   -1    0    0    0    0  0.00000000000E+00  0.00000000000E+00  0.39999999673E+01  0.40000000000E+01  0.51109989000E-03 0. -1.
     -623   -1    0    0    0    0  0.00000000000E+00  0.00000000000E+00  0.12525980253E-10  0.17130000000E+03  0.17130000000E+03 0.  1.
       11    1    1    2    0    0 -0.23418106830E+00  0.10589400949E+00  0.39159384486E+00  0.46840187292E+00  0.51109989000E-03 0. -1.
     -623    1    1    2    0    0  0.64935611081E+00 -0.12857652800E+00  0.10574782534E+01  0.17130454301E+03  0.17130000000E+03 0.  1.
      622    1    1    2    0    0 -0.41517504252E+00  0.22682518503E-01  0.25509278690E+01  0.35270551180E+01  0.24000000000E+01 0. -1.
</event>
<event>
 5   0  0.6825300E-03  0.9118800E+02  0.7818608E-02  0.1180000E+00
       11   -1    0    0    0    0  0.00000000000E+00  0.00000000000E+00  0.39999999673E+01  0.40000000000E+01  0.51109989000E-03 0. -1.
     -623   -1    0    0    0    0  0.00000000000E+00  0.00000000000E+00  0.12525980253E-10  0.17130000000E+03  0.17130000000E+03 0.  1.
       11    1    1    2    0    0  0.30670297805E-02 -0.33911734612E+00  0.18927848691E+00  0.38837686330E+00  0.51109989000E-03 0. -1.
     -623    1    1    2    0    0  0.17641573334E+00  0.61805912267E+00  0.11390629571E+01  0.17130499288E+03  0.17130000000E+03 0.  1.
      622    1    1    2    0    0 -0.17948276312E+00 -0.27894177654E+00  0.26716585234E+01  0.36066302614E+01  0.24000000000E+01 0. -1.
</event>
<event>
 5   0  0.6825300E-03  0.9118800E+02  0.7818608E-02  0.1180000E+00
       11   -1    0    0    0    0  0.00000000000E+00  0.00000000000E+00  0.39999999673E+01  0.40000000000E+01  0.51109989000E-03 0.  1.
     -623   -1    0    0    0    0  0.00000000000E+00  0.00000000000E+00  0.12525980253E-10  0.17130000000E+03  0.17130000000E+03 0.  1.
       11    1    1    2    0    0  0.21569988710E-01 -0.27969583559E+00  0.29072243413E-02  0.28054186503E+00  0.51109989000E-03 0.  1.
     -623    1    1    2    0    0  0.38918040909E-01  0.85066299729E-01  0.11681304626E+01  0.17130400836E+03  0.17130000000E+03 0.  1.
      622    1    1    2    0    0 -0.60488029618E-01  0.19462953586E+00  0.28289622804E+01  0.37154497765E+01  0.24000000000E+01 0.  0.
</event>
<event>
 5   0  0.6825300E-03  0.9118800E+02  0.7818608E-02  0.1180000E+00
       11   -1    0    0    0    0  0.00000000000E+00  0.00000000000E+00  0.39999999673E+01  0.40000000000E+01  0.51109989000E-03 0.  1.
     -623   -1    0    0    0    0  0.00000000000E+00  0.00000000000E+00  0.12525980253E-10  0.17130000000E+03  0.17130000000E+03 0.  1.
       11    1    1    2    0    0 -0.21670188290E+00 -0.11885259711E+00  0.17856852085E+00  0.30491412521E+00  0.51109989000E-03 0.  1.
     -623    1    1    2    0    0  0.75715933316E+00  0.47466989455E+00  0.10952820847E+01  0.17130583249E+03  0.17130000000E+03 0.  1.
      622    1    1    2    0    0 -0.54045745027E+00 -0.35581729743E+00  0.27261493618E+01  0.36892533862E+01  0.24000000000E+01 0.  1.
</event>
<event>
 5   0  0.6825300E-03  0.9118800E+02  0.7818608E-02  0.1180000E+00
       11   -1    0    0    0    0  0.00000000000E+00  0.00000000000E+00  0.39999999673E+01  0.40000000000E+01  0.51109989000E-03 0.  1.
     -623   -1    0    0    0    0  0.00000000000E+00  0.00000000000E+00  0.12525980253E-10  0.17130000000E+03  0.17130000000E+03 0.  1.
       11    1    1    2    0    0  0.25124220678E+00 -0.15768694070E+00  0.16578559338E+00  0.33981309853E+00  0.51109989000E-03 0.  1.
     -623    1    1    2    0    0  0.46814597037E+00 -0.63633872383E+00  0.12965452509E+01  0.17130672817E+03  0.17130000000E+03 0.  1.
      622    1    1    2    0    0 -0.71938817715E+00  0.79402566452E+00  0.25376691230E+01  0.36534587288E+01  0.24000000000E+01 0.  1.
</event>
<event>
 5   0  0.6825300E-03  0.9118800E+02  0.7818608E-02  0.1180000E+00
       11   -1    0    0    0    0  0.00000000000E+00  0.00000000000E+00  0.39999999673E+01  0.40000000000E+01  0.51109989000E-03 0. -1.
     -623   -1    0    0    0    0  0.00000000000E+00  0.00000000000E+00  0.12525980253E-10  0.17130000000E+03  0.17130000000E+03 0. -1.
       11    1    1    2    0    0 -0.25995857928E+00 -0.16343962969E+00  0.74173143577E+00  0.80278064222E+00  0.51109989000E-03 0. -1.
     -623    1    1    2    0    0  0.49053439662E+00 -0.54872186334E-01  0.11771634124E+01  0.17130475577E+03  0.17130000000E+03 0. -1.
      622    1    1    2    0    0 -0.23057581734E+00  0.21831181602E+00  0.20811051192E+01  0.31924635900E+01  0.24000000000E+01 0. -1.
</event>
<event>
 5   0  0.6825300E-03  0.9118800E+02  0.7818608E-02  0.1180000E+00
       11   -1    0    0    0    0  0.00000000000E+00  0.00000000000E+00  0.39999999673E+01  0.40000000000E+01  0.51109989000E-03 0. -1.
     -623   -1    0    0    0    0  0.00000000000E+00  0.00000000000E+00  0.12525980253E-10  0.17130000000E+03  0.17130000000E+03 0.  1.
       11    1    1    2    0    0  0.72797001793E-01 -0.36219108628E-01 -0.43380596660E-01  0.92159452524E-01  0.51109989000E-03 0. -1.
     -623    1    1    2    0    0  0.56788416877E+00  0.14180751996E+00  0.10338264774E+01  0.17130411962E+03  0.17130000000E+03 0.  1.
      622    1    1    2    0    0 -0.64068117057E+00 -0.10558841133E+00  0.30095540866E+01  0.39037209269E+01  0.24000000000E+01 0. -1.
</event>
<event>
 5   0  0.6825300E-03  0.9118800E+02  0.7818608E-02  0.1180000E+00
       11   -1    0    0    0    0  0.00000000000E+00  0.00000000000E+00  0.39999999673E+01  0.40000000000E+01  0.51109989000E-03 0. -1.
     -623   -1    0    0    0    0  0.00000000000E+00  0.00000000000E+00  0.12525980253E-10  0.17130000000E+03  0.17130000000E+03 0.  1.
       11    1    1    2    0    0 -0.68823042556E-02  0.11484855338E+00  0.10628720745E+00  0.15663584525E+00  0.51109989000E-03 0. -1.
     -623    1    1    2    0    0 -0.41072770658E+00  0.14903351432E-01  0.92771824733E+00  0.17130300517E+03  0.17130000000E+03 0.  1.
      622    1    1    2    0    0  0.41761001083E+00 -0.12975190481E+00  0.29659945126E+01  0.38403589841E+01  0.24000000000E+01 0. -1.
</event>
<event>
 5   0  0.6825300E-03  0.9118800E+02  0.7818608E-02  0.1180000E+00
       11   -1    0    0    0    0  0.00000000000E+00  0.00000000000E+00  0.39999999673E+01  0.40000000000E+01  0.51109989000E-03 0. -1.
     -623   -1    0    0    0    0  0.00000000000E+00  0.00000000000E+00  0.12525980253E-10  0.17130000000E+03  0.17130000000E+03 0. -1.
       11    1    1    2    0    0  0.74638642747E-01  0.26526717048E-01  0.16381581191E-01  0.80890117644E-01  0.51109989000E-03 0. -1.
     -623    1    1    2    0    0  0.75898183042E-01  0.53890495587E-01  0.89301060523E+00  0.17130235297E+03  0.17130000000E+03 0. -1.
      622    1    1    2    0    0 -0.15053682579E+00 -0.80417212636E-01  0.30906077809E+01  0.39167569135E+01  0.24000000000E+01 0. -1.
</event>
<event>
 5   0  0.6825300E-03  0.9118800E+02  0.7818608E-02  0.1180000E+00
       11   -1    0    0    0    0  0.00000000000E+00  0.00000000000E+00  0.39999999673E+01  0.40000000000E+01  0.51109989000E-03 0.  1.
     -623   -1    0    0    0    0  0.00000000000E+00  0.00000000000E+00  0.12525980253E-10  0.17130000000E+03  0.17130000000E+03 0. -1.
       11    1    1    2    0    0 -0.48983069783E+00  0.12949675997E+00 -0.11929777753E+00  0.52051488387E+00  0.51109989000E-03 0.  1.
     -623    1    1    2    0    0  0.69090260805E+00 -0.83802239893E+00  0.17276581298E+01  0.17131215494E+03  0.17130000000E+03 0. -1.
      622    1    1    2    0    0 -0.20107191022E+00  0.70852563896E+00  0.23916396151E+01  0.34673301750E+01  0.24000000000E+01 0. -1.
</event>
<event>
 5   0  0.6825300E-03  0.9118800E+02  0.7818608E-02  0.1180000E+00
       11   -1    0    0    0    0  0.00000000000E+00  0.00000000000E+00  0.39999999673E+01  0.40000000000E+01  0.51109989000E-03 0. -1.
     -623   -1    0    0    0    0  0.00000000000E+00  0.00000000000E+00  0.12525980253E-10  0.17130000000E+03  0.17130000000E+03 0. -1.
       11    1    1    2    0    0 -0.86788819489E-01 -0.19920730556E-01  0.19010344984E-03  0.89047358505E-01  0.51109989000E-03 0. -1.
     -623    1    1    2    0    0 -0.11102472110E-01  0.13534908284E+00  0.91874542593E+00  0.17130251760E+03  0.17130000000E+03 0. -1.
      622    1    1    2    0    0  0.97891291600E-01 -0.11542835228E+00  0.30810644380E+01  0.39084350424E+01  0.24000000000E+01 0. -1.
</event>
<event>
 5   0  0.6825300E-03  0.9118800E+02  0.7818608E-02  0.1180000E+00
       11   -1    0    0    0    0  0.00000000000E+00  0.00000000000E+00  0.39999999673E+01  0.40000000000E+01  0.51109989000E-03 0. -1.
     -623   -1    0    0    0    0  0.00000000000E+00  0.00000000000E+00  0.12525980253E-10  0.17130000000E+03  0.17130000000E+03 0. -1.
       11    1    1    2    0    0 -0.86538457493E-01 -0.23051225150E+00  0.79102236147E-01  0.25861598501E+00  0.51109989000E-03 0. -1.
     -623    1    1    2    0    0 -0.16612948806E+00  0.29229017274E+00  0.10673102877E+01  0.17130365490E+03  0.17130000000E+03 0. -1.
      622    1    1    2    0    0  0.25266794556E+00 -0.61777921245E-01  0.28535874435E+01  0.37377291100E+01  0.24000000000E+01 0. -1.
</event>
<event>
 5   0  0.6825300E-03  0.9118800E+02  0.7818608E-02  0.1180000E+00
       11   -1    0    0    0    0  0.00000000000E+00  0.00000000000E+00  0.39999999673E+01  0.40000000000E+01  0.51109989000E-03 0. -1.
     -623   -1    0    0    0    0  0.00000000000E+00  0.00000000000E+00  0.12525980253E-10  0.17130000000E+03  0.17130000000E+03 0.  1.
       11    1    1    2    0    0 -0.45511179554E-01 -0.55154213301E-01  0.15081608884E+00  0.16691018119E+00  0.51109989000E-03 0. -1.
     -623    1    1    2    0    0  0.32987272140E+00 -0.28589721842E+00  0.89738357881E+00  0.17130290672E+03  0.17130000000E+03 0.  1.
      622    1    1    2    0    0 -0.28436154184E+00  0.34105143173E+00  0.29518002997E+01  0.38301830994E+01  0.24000000000E+01 0. -1.
</event>
<event>
 5   0  0.6825300E-03  0.9118800E+02  0.7818608E-02  0.1180000E+00
       11   -1    0    0    0    0  0.00000000000E+00  0.00000000000E+00  0.39999999673E+01  0.40000000000E+01  0.51109989000E-03 0. -1.
     -623   -1    0    0    0    0  0.00000000000E+00  0.00000000000E+00  0.12525980253E-10  0.17130000000E+03  0.17130000000E+03 0.  1.
       11    1    1    2    0    0 -0.19391496078E+00  0.73897514219E-01 -0.11237121330E+00  0.23599026552E+00  0.51109989000E-03 0. -1.
     -623    1    1    2    0    0  0.18820044057E+00  0.26432562378E+00  0.12388141092E+01  0.17130478670E+03  0.17130000000E+03 0.  1.
      622    1    1    2    0    0  0.57145202072E-02 -0.33822313800E+00  0.28735570715E+01  0.37592230301E+01  0.24000000000E+01 0. -1.
</event>
<event>
 5   0  0.6825300E-03  0.9118800E+02  0.7818608E-02  0.1180000E+00
       11   -1    0    0    0    0  0.00000000000E+00  0.00000000000E+00  0.39999999673E+01  0.40000000000E+01  0.51109989000E-03 0.  1.
     -623   -1    0    0    0    0  0.00000000000E+00  0.00000000000E+00  0.12525980253E-10  0.17130000000E+03  0.17130000000E+03 0.  1.
       11    1    1    2    0    0  0.25350446814E+00  0.88293641459E-01 -0.24987729139E-01  0.26960142863E+00  0.51109989000E-03 0.  1.
     -623    1    1    2    0    0 -0.29962588812E+00  0.67841734807E+00  0.12830697740E+01  0.17130641055E+03  0.17130000000E+03 0.  1.
      622    1    1    2    0    0  0.46121419977E-01 -0.76671098953E+00  0.27419179225E+01  0.37239880264E+01  0.24000000000E+01 0.  1.
</event>
<event>
 5   0  0.6825300E-03  0.9118800E+02  0.7818608E-02  0.1180000E+00
       11   -1    0    0    0    0  0.00000000000E+00  0.00000000000E+00  0.39999999673E+01  0.40000000000E+01  0.51109989000E-03 0.  1.
     -623   -1    0    0    0    0  0.00000000000E+00  0.00000000000E+00  0.12525980253E-10  0.17130000000E+03  0.17130000000E+03 0. -1.
       11    1    1    2    0    0 -0.44920464047E+00 -0.15762047686E+00  0.11849523960E+00  0.49058170244E+00  0.51109989000E-03 0.  1.
     -623    1    1    2    0    0 -0.56454767109E+00 -0.45884679621E+00  0.16268845713E+01  0.17130927006E+03  0.17130000000E+03 0. -1.
      622    1    1    2    0    0  0.10137523116E+01  0.61646727306E+00  0.22546201564E+01  0.35001482394E+01  0.24000000000E+01 0.  1.
</event>
<event>
 5   0  0.6825300E-03  0.9118800E+02  0.7818608E-02  0.1180000E+00
       11   -1    0    0    0    0  0.00000000000E+00  0.00000000000E+00  0.39999999673E+01  0.40000000000E+01  0.51109989000E-03 0. -1.
     -623   -1    0    0    0    0  0.00000000000E+00  0.00000000000E+00  0.12525980253E-10  0.17130000000E+03  0.17130000000E+03 0.  1.
       11    1    1    2    0    0  0.12438147076E+00 -0.21777325507E+00  0.32430058774E+00  0.40995984355E+00  0.51109989000E-03 0. -1.
     -623    1    1    2    0    0 -0.20094052110E+00  0.49036981172E-01  0.10164673403E+01  0.17130314062E+03  0.17130000000E+03 0.  1.
      622    1    1    2    0    0  0.76559050343E-01  0.16873627390E+00  0.26592320394E+01  0.35868995327E+01  0.24000000000E+01 0. -1.
</event>
<event>
 5   0  0.6825300E-03  0.9118800E+02  0.7818608E-02  0.1180000E+00
       11   -1    0    0    0    0  0.00000000000E+00  0.00000000000E+00  0.39999999673E+01  0.40000000000E+01  0.51109989000E-03 0.  1.
     -623   -1    0    0    0    0  0.00000000000E+00  0.00000000000E+00  0.12525980253E-10  0.17130000000E+03  0.17130000000E+03 0. -1.
       11    1    1    2    0    0 -0.17709249555E+00 -0.21367710642E+00  0.14086107138E+00  0.31122622069E+00  0.51109989000E-03 0.  1.
     -623    1    1    2    0    0 -0.16122560509E+00  0.43714772534E+00  0.10928639533E+01  0.17130411975E+03  0.17130000000E+03 0. -1.
      622    1    1    2    0    0  0.33831810064E+00 -0.22347061893E+00  0.27662749426E+01  0.36846540289E+01  0.24000000000E+01 0.  1.
</event>
<event>
 5   0  0.6825300E-03  0.9118800E+02  0.7818608E-02  0.1180000E+00
       11   -1    0    0    0    0  0.00000000000E+00  0.00000000000E+00  0.39999999673E+01  0.40000000000E+01  0.51109989000E-03 0. -1.
     -623   -1    0    0    0    0  0.00000000000E+00  0.00000000000E+00  0.12525980253E-10  0.17130000000E+03  0.17130000000E+03 0. -1.
       11    1    1    2    0    0 -0.63352132329E-02  0.37112429014E+00  0.50423607415E+00  0.62612111716E+00  0.51109989000E-03 0. -1.
     -623    1    1    2    0    0  0.16167154700E+00 -0.38229526467E+00  0.11356733987E+01  0.17130426743E+03  0.17130000000E+03 0. -1.
      622    1    1    2    0    0 -0.15533633376E+00  0.11170974525E-01  0.23600904945E+01  0.33696114479E+01  0.24000000000E+01 0. -1.
</event>
<event>
 5   0  0.6825300E-03  0.9118800E+02  0.7818608E-02  0.1180000E+00
       11   -1    0    0    0    0  0.00000000000E+00  0.00000000000E+00  0.39999999673E+01  0.40000000000E+01  0.51109989000E-03 0.  1.
     -623   -1    0    0    0    0  0.00000000000E+00  0.00000000000E+00  0.12525980253E-10  0.17130000000E+03  0.17130000000E+03 0. -1.
       11    1    1    2    0    0 -0.46037082579E-01 -0.11563285668E+00  0.10768898934E+00  0.16458295830E+00  0.51109989000E-03 0.  1.
     -623    1    1    2    0    0 -0.21579557846E-01 -0.69262577220E+00  0.10185311098E+01  0.17130442960E+03  0.17130000000E+03 0. -1.
      622    1    1    2    0    0  0.67616640426E-01  0.80825862888E+00  0.28737798682E+01  0.38309874383E+01  0.24000000000E+01 0.  1.
</event>
<event>
 5   0  0.6825300E-03  0.9118800E+02  0.7818608E-02  0.1180000E+00
       11   -1    0    0    0    0  0.00000000000E+00  0.00000000000E+00  0.39999999673E+01  0.40000000000E+01  0.51109989000E-03 0.  1.
     -623   -1    0    0    0    0  0.00000000000E+00  0.00000000000E+00  0.12525980253E-10  0.17130000000E+03  0.17130000000E+03 0.  1.
       11    1    1    2    0    0  0.94564803495E-01  0.15121310739E-02 -0.28506961099E-01  0.98781054113E-01  0.51109989000E-03 0.  1.
     -623    1    1    2    0    0 -0.37044542275E+00 -0.42377904511E-01  0.96955868738E+00  0.17130314962E+03  0.17130000000E+03 0.  1.
      622    1    1    2    0    0  0.27588061926E+00  0.40865773437E-01  0.30589482411E+01  0.38980693258E+01  0.24000000000E+01 0.  1.
</event>
<event>
 5   0  0.6825300E-03  0.9118800E+02  0.7818608E-02  0.1180000E+00
       11   -1    0    0    0    0  0.00000000000E+00  0.00000000000E+00  0.39999999673E+01  0.40000000000E+01  0.51109989000E-03 0.  1.
     -623   -1    0    0    0    0  0.00000000000E+00  0.00000000000E+00  0.12525980253E-10  0.17130000000E+03  0.17130000000E+03 0. -1.
       11    1    1    2    0    0  0.65899851630E-01 -0.42977840623E+00  0.39131623432E+00  0.58496232816E+00  0.51109989000E-03 0.  1.
     -623    1    1    2    0    0 -0.37528821362E+00  0.33651580251E+00  0.12078634595E+01  0.17130499998E+03  0.17130000000E+03 0. -1.
      622    1    1    2    0    0  0.30938836199E+00  0.93262603717E-01  0.24008202735E+01  0.34100376915E+01  0.24000000000E+01 0.  1.
</event>
<event>
 5   0  0.6825300E-03  0.9118800E+02  0.7818608E-02  0.1180000E+00
       11   -1    0    0    0    0  0.00000000000E+00  0.00000000000E+00  0.39999999673E+01  0.40000000000E+01  0.51109989000E-03 0.  1.
     -623   -1    0    0    0    0  0.00000000000E+00  0.00000000000E+00  0.12525980253E-10  0.17130000000E+03  0.17130000000E+03 0. -1.
       11    1    1    2    0    0 -0.12488080505E+00 -0.41691322769E+00  0.21084781985E+00  0.48359995787E+00  0.51109989000E-03 0.  1.
     -623    1    1    2    0    0  0.42136617924E+00  0.52744055143E+00  0.12467673897E+01  0.17130586730E+03  0.17130000000E+03 0. -1.
      622    1    1    2    0    0 -0.29648537419E+00 -0.11052732373E+00  0.25423847578E+01  0.35105327406E+01  0.24000000000E+01 0.  1.
</event>
<event>
 5   0  0.6825300E-03  0.9118800E+02  0.7818608E-02  0.1180000E+00
       11   -1    0    0    0    0  0.00000000000E+00  0.00000000000E+00  0.39999999673E+01  0.40000000000E+01  0.51109989000E-03 0. -1.
     -623   -1    0    0    0    0  0.00000000000E+00  0.00000000000E+00  0.12525980253E-10  0.17130000000E+03  0.17130000000E+03 0.  1.
       11    1    1    2    0    0 -0.47586312809E-01  0.84671005642E-01 -0.62643157573E-01  0.11557708586E+00  0.51109989000E-03 0. -1.
     -623    1    1    2    0    0  0.15592164703E+00  0.17462948257E+00  0.10254253118E+01  0.17130322911E+03  0.17130000000E+03 0.  1.
      622    1    1    2    0    0 -0.10833533422E+00 -0.25930048821E+00  0.30372178131E+01  0.38811938025E+01  0.24000000000E+01 0. -1.
</event>
<event>
 5   0  0.6825300E-03  0.9118800E+02  0.7818608E-02  0.1180000E+00
       11   -1    0    0    0    0  0.00000000000E+00  0.00000000000E+00  0.39999999673E+01  0.40000000000E+01  0.51109989000E-03 0.  1.
     -623   -1    0    0    0    0  0.00000000000E+00  0.00000000000E+00  0.12525980253E-10  0.17130000000E+03  0.17130000000E+03 0.  1.
       11    1    1    2    0    0 -0.13557992745E+00 -0.14666092709E+00  0.18949617214E+00  0.27531873300E+00  0.51109989000E-03 0.  1.
     -623    1    1    2    0    0  0.37945433153E+00  0.23153364884E-01  0.97950958644E+00  0.17130322227E+03  0.17130000000E+03 0.  1.
      622    1    1    2    0    0 -0.24387440407E+00  0.12350756221E+00  0.28309942088E+01  0.37214589952E+01  0.24000000000E+01 0.  1.
</event>
<event>
 5   0  0.6825300E-03  0.9118800E+02  0.7818608E-02  0.1180000E+00
       11   -1    0    0    0    0  0.00000000000E+00  0.00000000000E+00  0.39999999673E+01  0.40000000000E+01  0.51109989000E-03 0. -1.
     -623   -1    0    0    0    0  0.00000000000E+00  0.00000000000E+00  0.12525980253E-10  0.17130000000E+03  0.17130000000E+03 0.  1.
       11    1    1    2    0    0  0.41801913445E+00 -0.42942181741E+00  0.24017987739E+00  0.64562351937E+00  0.51109989000E-03 0. -1.
     -623    1    1    2    0    0 -0.12742093434E+01 -0.23801752607E-01  0.16458947754E+01  0.17131264736E+03  0.17130000000E+03 0.  1.
      622    1    1    2    0    0  0.85619020892E+00  0.45322357002E+00  0.21139253146E+01  0.33417291204E+01  0.24000000000E+01 0. -1.
</event>
<event>
 5   0  0.6825300E-03  0.9118800E+02  0.7818608E-02  0.1180000E+00
       11   -1    0    0    0    0  0.00000000000E+00  0.00000000000E+00  0.39999999673E+01  0.40000000000E+01  0.51109989000E-03 0.  1.
     -623   -1    0    0    0    0  0.00000000000E+00  0.00000000000E+00  0.12525980253E-10  0.17130000000E+03  0.17130000000E+03 0.  1.
       11    1    1    2    0    0 -0.15497373391E+00  0.35755902357E-01  0.46099627036E-01  0.16559220873E+00  0.51109989000E-03 0.  1.
     -623    1    1    2    0    0  0.38231391241E+00  0.22666703366E+00  0.98811737682E+00  0.17130342646E+03  0.17130000000E+03 0.  1.
      622    1    1    2    0    0 -0.22734017850E+00 -0.26242293602E+00  0.29657829635E+01  0.38309813287E+01  0.24000000000E+01 0.  1.
</event>
<event>
 5   0  0.6825300E-03  0.9118800E+02  0.7818608E-02  0.1180000E+00
       11   -1    0    0    0    0  0.00000000000E+00  0.00000000000E+00  0.39999999673E+01  0.40000000000E+01  0.51109989000E-03 0.  1.
     -623   -1    0    0    0    0  0.00000000000E+00  0.00000000000E+00  0.12525980253E-10  0.17130000000E+03  0.17130000000E+03 0.  1.
       11    1    1    2    0    0 -0.22369931488E-01  0.12864062355E+00  0.23856498808E-01  0.13273363410E+00  0.51109989000E-03 0.  1.
     -623    1    1    2    0    0  0.18107040045E+00 -0.19869068647E+00  0.95231161104E+00  0.17130285801E+03  0.17130000000E+03 0.  1.
      622    1    1    2    0    0 -0.15870046896E+00  0.70050062914E-01  0.30238318575E+01  0.38644083574E+01  0.24000000000E+01 0.  1.
</event>
<event>
 5   0  0.6825300E-03  0.9118800E+02  0.7818608E-02  0.1180000E+00
       11   -1    0    0    0    0  0.00000000000E+00  0.00000000000E+00  0.39999999673E+01  0.40000000000E+01  0.51109989000E-03 0.  1.
     -623   -1    0    0    0    0  0.00000000000E+00  0.00000000000E+00  0.12525980253E-10  0.17130000000E+03  0.17130000000E+03 0.  1.
       11    1    1    2    0    0 -0.33705432665E-01 -0.11566604475E+00  0.16337581392E+00  0.20299410803E+00  0.51109989000E-03 0.  1.
     -623    1    1    2    0    0  0.16835609118E+00  0.75807294410E-02  0.90255517859E+00  0.17130246060E+03  0.17130000000E+03 0.  1.
      622    1    1    2    0    0 -0.13465065851E+00  0.10808531531E+00  0.29340689748E+01  0.37945452935E+01  0.24000000000E+01 0.  1.
</event>
<event>
 5   0  0.6825300E-03  0.9118800E+02  0.7818608E-02  0.1180000E+00
       11   -1    0    0    0    0  0.00000000000E+00  0.00000000000E+00  0.39999999673E+01  0.40000000000E+01  0.51109989000E-03 0. -1.
     -623   -1    0    0    0    0  0.00000000000E+00  0.00000000000E+00  0.12525980253E-10  0.17130000000E+03  0.17130000000E+03 0. -1.
       11    1    1    2    0    0  0.72574648723E-01  0.16657137556E+00  0.55237531134E-01  0.18990668461E+00  0.51109989000E-03 0. -1.
     -623    1    1    2    0    0  0.16588465817E+00 -0.89003049746E-01  0.10001224231E+01  0.17130302299E+03  0.17130000000E+03 0. -1.
      622    1    1    2    0    0 -0.23845930690E+00 -0.77568325812E-01  0.29446400132E+01  0.38070703294E+01  0.24000000000E+01 0. -1.
</event>
<event>
 5   0  0.6825300E-03  0.9118800E+02  0.7818608E-02  0.1180000E+00
       11   -1    0    0    0    0  0.00000000000E+00  0.00000000000E+00  0.39999999673E+01  0.40000000000E+01  0.51109989000E-03 0.  1.
     -623   -1    0    0    0    0  0.00000000000E+00  0.00000000000E+00  0.12525980253E-10  0.17130000000E+03  0.17130000000E+03 0. -1.
       11    1    1    2    0    0  0.34670284260E-01 -0.16726525983E-01 -0.29678405433E-01  0.48609404998E-01  0.51109989000E-03 0.  1.
     -623    1    1    2    0    0  0.61250145778E-01 -0.24298716489E+00  0.90614613597E+00  0.17130257994E+03  0.17130000000E+03 0. -1.
      622    1    1    2    0    0 -0.95920430038E-01  0.25971369087E+00  0.31235322368E+01  0.39488106519E+01  0.24000000000E+01 0.  1.
</event>
<event>
 5   0  0.6825300E-03  0.9118800E+02  0.7818608E-02  0.1180000E+00
       11   -1    0    0    0    0  0.00000000000E+00  0.00000000000E+00  0.39999999673E+01  0.40000000000E+01  0.51109989000E-03 0. -1.
     -623   -1    0    0    0    0  0.00000000000E+00  0.00000000000E+00  0.12525980253E-10  0.17130000000E+03  0.17130000000E+03 0.  1.
       11    1    1    2    0    0  0.68793917978E-01 -0.37241448622E+00  0.41362719544E+00  0.56081447086E+00  0.51109989000E-03 0. -1.
     -623    1    1    2    0    0 -0.14959045591E-01  0.25385360602E+00  0.11319821379E+01  0.17130392888E+03  0.17130000000E+03 0.  1.
      622    1    1    2    0    0 -0.53834872387E-01  0.11856088020E+00  0.24543906340E+01  0.34352566513E+01  0.24000000000E+01 0. -1.
</event>
<event>
 5   0  0.6825300E-03  0.9118800E+02  0.7818608E-02  0.1180000E+00
       11   -1    0    0    0    0  0.00000000000E+00  0.00000000000E+00  0.39999999673E+01  0.40000000000E+01  0.51109989000E-03 0.  1.
     -623   -1    0    0    0    0  0.00000000000E+00  0.00000000000E+00  0.12525980253E-10  0.17130000000E+03  0.17130000000E+03 0.  1.
       11    1    1    2    0    0 -0.10285093979E-01  0.33335071971E+00  0.26307440049E+00  0.42477863282E+00  0.51109989000E-03 0.  1.
     -623    1    1    2    0    0  0.15530923826E+00  0.19227701898E+00  0.11492496155E+01  0.17130403342E+03  0.17130000000E+03 0.  1.
      622    1    1    2    0    0 -0.14502414428E+00 -0.52562773868E+00  0.25876759514E+01  0.35711879468E+01  0.24000000000E+01 0.  1.
</event>
<event>
 5   0  0.6825300E-03  0.9118800E+02  0.7818608E-02  0.1180000E+00
       11   -1    0    0    0    0  0.00000000000E+00  0.00000000000E+00  0.39999999673E+01  0.40000000000E+01  0.51109989000E-03 0. -1.
     -623   -1    0    0    0    0  0.00000000000E+00  0.00000000000E+00  0.12525980253E-10  0.17130000000E+03  0.17130000000E+03 0. -1.
       11    1    1    2    0    0  0.18620062624E-01 -0.10387737514E-01 -0.62319415448E-01  0.65867917741E-01  0.51109989000E-03 0. -1.
     -623    1    1    2    0    0  0.11101693554E+00 -0.14764523691E+00  0.95524964431E+00  0.17130276304E+03  0.17130000000E+03 0. -1.
      622    1    1    2    0    0 -0.12963699816E+00  0.15803297442E+00  0.31070697385E+01  0.39313690404E+01  0.24000000000E+01 0. -1.
</event>
<event>
 5   0  0.6825300E-03  0.9118800E+02  0.7818608E-02  0.1180000E+00
       11   -1    0    0    0    0  0.00000000000E+00  0.00000000000E+00  0.39999999673E+01  0.40000000000E+01  0.51109989000E-03 0. -1.
     -623   -1    0    0    0    0  0.00000000000E+00  0.00000000000E+00  0.12525980253E-10  0.17130000000E+03  0.17130000000E+03 0.  1.
       11    1    1    2    0    0  0.22531437836E-01 -0.24933703798E+00  0.18837954686E+00  0.31331093039E+00  0.51109989000E-03 0. -1.
     -623    1    1    2    0    0 -0.12188751841E+00  0.35424607743E+00  0.10213986242E+01  0.17130345473E+03  0.17130000000E+03 0.  1.
      622    1    1    2    0    0  0.99356080572E-01 -0.10490903944E+00  0.27902217963E+01  0.36832343409E+01  0.24000000000E+01 0. -1.
</event>
<event>
 5   0  0.6825300E-03  0.9118800E+02  0.7818608E-02  0.1180000E+00
       11   -1    0    0    0    0  0.00000000000E+00  0.00000000000E+00  0.39999999673E+01  0.40000000000E+01  0.51109989000E-03 0. -1.
     -623   -1    0    0    0    0  0.00000000000E+00  0.00000000000E+00  0.12525980253E-10  0.17130000000E+03  0.17130000000E+03 0. -1.
       11    1    1    2    0    0 -0.48215988892E-01 -0.30554107298E+00  0.54635744957E-01  0.31411057720E+00  0.51109989000E-03 0. -1.
     -623    1    1    2    0    0 -0.43163971403E+00  0.19147962204E+00  0.11982124308E+01  0.17130484141E+03  0.17130000000E+03 0. -1.
      622    1    1    2    0    0  0.47985570292E+00  0.11406145093E+00  0.27471517916E+01  0.36810480133E+01  0.24000000000E+01 0. -1.
</event>
<event>
 5   0  0.6825300E-03  0.9118800E+02  0.7818608E-02  0.1180000E+00
       11   -1    0    0    0    0  0.00000000000E+00  0.00000000000E+00  0.39999999673E+01  0.40000000000E+01  0.51109989000E-03 0. -1.
     -623   -1    0    0    0    0  0.00000000000E+00  0.00000000000E+00  0.12525980253E-10  0.17130000000E+03  0.17130000000E+03 0. -1.
       11    1    1    2    0    0  0.34119192579E+00  0.33008292251E+00  0.41825122745E-01  0.47656717058E+00  0.51109989000E-03 0. -1.
     -623    1    1    2    0    0 -0.62625336433E+00  0.30732775450E+00  0.14859976223E+01  0.17130786565E+03  0.17130000000E+03 0. -1.
      622    1    1    2    0    0  0.28506143854E+00 -0.63741067701E+00  0.24721772223E+01  0.35155671823E+01  0.24000000000E+01 0. -1.
</event>
<event>
 5   0  0.6825300E-03  0.9118800E+02  0.7818608E-02  0.1180000E+00
       11   -1    0    0    0    0  0.00000000000E+00  0.00000000000E+00  0.39999999673E+01  0.40000000000E+01  0.51109989000E-03 0. -1.
     -623   -1    0    0    0    0  0.00000000000E+00  0.00000000000E+00  0.12525980253E-10  0.17130000000E+03  0.17130000000E+03 0.  1.
       11    1    1    2    0    0 -0.11192499746E+00  0.77591289649E-01 -0.31684218130E-02  0.13622743265E+00  0.51109989000E-03 0. -1.
     -623    1    1    2    0    0 -0.17859150505E+00 -0.24004196574E-01  0.99343697439E+00  0.17130297542E+03  0.17130000000E+03 0.  1.
      622    1    1    2    0    0  0.29051650251E+00 -0.53587093075E-01  0.30097314148E+01  0.38607971462E+01  0.24000000000E+01 0. -1.
</event>
<event>
 5   0  0.6825300E-03  0.9118800E+02  0.7818608E-02  0.1180000E+00
       11   -1    0    0    0    0  0.00000000000E+00  0.00000000000E+00  0.39999999673E+01  0.40000000000E+01  0.51109989000E-03 0. -1.
     -623   -1    0    0    0    0  0.00000000000E+00  0.00000000000E+00  0.12525980253E-10  0.17130000000E+03  0.17130000000E+03 0. -1.
       11    1    1    2    0    0  0.18586842315E+00  0.20723254558E+00  0.12526983100E+00  0.30526249435E+00  0.51109989000E-03 0. -1.
     -623    1    1    2    0    0  0.19232065854E+00 -0.66699635912E+00  0.11363993630E+01  0.17130517586E+03  0.17130000000E+03 0. -1.
      622    1    1    2    0    0 -0.37818908169E+00  0.45976381353E+00  0.27383307734E+01  0.36895616501E+01  0.24000000000E+01 0. -1.
</event>
<event>
 5   0  0.6825300E-03  0.9118800E+02  0.7818608E-02  0.1180000E+00
       11   -1    0    0    0    0  0.00000000000E+00  0.00000000000E+00  0.39999999673E+01  0.40000000000E+01  0.51109989000E-03 0. -1.
     -623   -1    0    0    0    0  0.00000000000E+00  0.00000000000E+00  0.12525980253E-10  0.17130000000E+03  0.17130000000E+03 0.  1.
       11    1    1    2    0    0  0.10052809179E+00  0.72874684349E-01 -0.77188613705E-01  0.14620177894E+00  0.51109989000E-03 0. -1.
     -623    1    1    2    0    0 -0.54591248714E+00  0.21675860823E+00  0.11151300909E+01  0.17130463660E+03  0.17130000000E+03 0.  1.
      622    1    1    2    0    0  0.44538439535E+00 -0.28963329258E+00  0.29620584902E+01  0.38491616234E+01  0.24000000000E+01 0. -1.
</event>
<event>
 5   0  0.6825300E-03  0.9118800E+02  0.7818608E-02  0.1180000E+00
       11   -1    0    0    0    0  0.00000000000E+00  0.00000000000E+00  0.39999999673E+01  0.40000000000E+01  0.51109989000E-03 0. -1.
     -623   -1    0    0    0    0  0.00000000000E+00  0.00000000000E+00  0.12525980253E-10  0.17130000000E+03  0.17130000000E+03 0. -1.
       11    1    1    2    0    0  0.24326355625E+00 -0.24551172808E+00 -0.10512793021E-01  0.34578019964E+00  0.51109989000E-03 0. -1.
     -623    1    1    2    0    0 -0.84697352935E-01  0.30939370390E+00  0.12668487454E+01  0.17130498476E+03  0.17130000000E+03 0. -1.
      622    1    1    2    0    0 -0.15856620332E+00 -0.63881975820E-01  0.27436640150E+01  0.36492350397E+01  0.24000000000E+01 0. -1.
</event>
<event>
 5   0  0.6825300E-03  0.9118800E+02  0.7818608E-02  0.1180000E+00
       11   -1    0    0    0    0  0.00000000000E+00  0.00000000000E+00  0.39999999673E+01  0.40000000000E+01  0.51109989000E-03 0.  1.
     -623   -1    0    0    0    0  0.00000000000E+00  0.00000000000E+00  0.12525980253E-10  0.17130000000E+03  0.17130000000E+03 0.  1.
       11    1    1    2    0    0 -0.18334268813E+00  0.20870609036E+00  0.30555636356E+00  0.41296213625E+00  0.51109989000E-03 0.  1.
     -623    1    1    2    0    0  0.52725094239E+00 -0.25804491250E+00  0.10571085155E+01  0.17130426749E+03  0.17130000000E+03 0.  1.
      622    1    1    2    0    0 -0.34390825427E+00  0.49338822140E-01  0.26373350883E+01  0.35827703771E+01  0.24000000000E+01 0.  1.
</event>
<event>
 5   0  0.6825300E-03  0.9118800E+02  0.7818608E-02  0.1180000E+00
       11   -1    0    0    0    0  0.00000000000E+00  0.00000000000E+00  0.39999999673E+01  0.40000000000E+01  0.51109989000E-03 0. -1.
     -623   -1    0    0    0    0  0.00000000000E+00  0.00000000000E+00  0.12525980253E-10  0.17130000000E+03  0.17130000000E+03 0. -1.
       11    1    1    2    0    0  0.22915642959E+00 -0.35031520282E+00  0.26361749674E+00  0.49469976386E+00  0.51109989000E-03 0. -1.
     -623    1    1    2    0    0  0.30157480996E+00  0.54529441228E+00  0.12529573926E+01  0.17130571560E+03  0.17130000000E+03 0. -1.
      622    1    1    2    0    0 -0.53073123955E+00 -0.19497920946E+00  0.24834250780E+01  0.34995846409E+01  0.24000000000E+01 0. -1.
</event>
<event>
 5   0  0.6825300E-03  0.9118800E+02  0.7818608E-02  0.1180000E+00
       11   -1    0    0    0    0  0.00000000000E+00  0.00000000000E+00  0.39999999673E+01  0.40000000000E+01  0.51109989000E-03 0. -1.
     -623   -1    0    0    0    0  0.00000000000E+00  0.00000000000E+00  0.12525980253E-10  0.17130000000E+03  0.17130000000E+03 0. -1.
       11    1    1    2    0    0  0.88706335895E-01  0.83090491274E-01  0.41283792267E-01  0.12836454532E+00  0.51109989000E-03 0. -1.
     -623    1    1    2    0    0  0.14721726489E+00 -0.38483941240E+00  0.94895395621E+00  0.17130312399E+03  0.17130000000E+03 0. -1.
      622    1    1    2    0    0 -0.23592360078E+00  0.30174892113E+00  0.30097622189E+01  0.38685114671E+01  0.24000000000E+01 0. -1.
</event>
<event>
 5   0  0.6825300E-03  0.9118800E+02  0.7818608E-02  0.1180000E+00
       11   -1    0    0    0    0  0.00000000000E+00  0.00000000000E+00  0.39999999673E+01  0.40000000000E+01  0.51109989000E-03 0. -1.
     -623   -1    0    0    0    0  0.00000000000E+00  0.00000000000E+00  0.12525980253E-10  0.17130000000E+03  0.17130000000E+03 0. -1.
       11    1    1    2    0    0  0.92388345517E-02 -0.22530262760E+00  0.43553868565E+00  0.49044962839E+00  0.51109989000E-03 0. -1.
     -623    1    1    2    0    0  0.19462005069E-01  0.31367731399E+00  0.10099752812E+01  0.17130326565E+03  0.17130000000E+03 0. -1.
      622    1    1    2    0    0 -0.28700839621E-01 -0.88374686395E-01  0.25544860005E+01  0.35062847218E+01  0.24000000000E+01 0. -1.
</event>
<event>
 5   0  0.6825300E-03  0.9118800E+02  0.7818608E-02  0.1180000E+00
       11   -1    0    0    0    0  0.00000000000E+00  0.00000000000E+00  0.39999999673E+01  0.40000000000E+01  0.51109989000E-03 0. -1.
     -623   -1    0    0    0    0  0.00000000000E+00  0.00000000000E+00  0.12525980253E-10  0.17130000000E+03  0.17130000000E+03 0. -1.
       11    1    1    2    0    0 -0.22246468522E-01  0.78967308743E-02  0.29208249749E-01  0.37558578172E-01  0.51109989000E-03 0. -1.
     -623    1    1    2    0    0 -0.56607883692E-01  0.20955913885E+00  0.82906412373E+00  0.17130214379E+03  0.17130000000E+03 0. -1.
      622    1    1    2    0    0  0.78854352214E-01 -0.21745586972E+00  0.31417275939E+01  0.39602976325E+01  0.24000000000E+01 0. -1.
</event>
<event>
 5   0  0.6825300E-03  0.9118800E+02  0.7818608E-02  0.1180000E+00
       11   -1    0    0    0    0  0.00000000000E+00  0.00000000000E+00  0.39999999673E+01  0.40000000000E+01  0.51109989000E-03 0. -1.
     -623   -1    0    0    0    0  0.00000000000E+00  0.00000000000E+00  0.12525980253E-10  0.17130000000E+03  0.17130000000E+03 0.  1.
       11    1    1    2    0    0 -0.65187506017E-01 -0.20144814343E+00  0.13682430817E+00  0.25209505739E+00  0.51109989000E-03 0. -1.
     -623    1    1    2    0    0  0.33887943422E+00  0.42473688567E+00  0.10112981282E+01  0.17130384691E+03  0.17130000000E+03 0.  1.
      622    1    1    2    0    0 -0.27369192820E+00 -0.22328874224E+00  0.28518775310E+01  0.37440580372E+01  0.24000000000E+01 0.  0.
</event>
<event>
 5   0  0.6825300E-03  0.9118800E+02  0.7818608E-02  0.1180000E+00
       11   -1    0    0    0    0  0.00000000000E+00  0.00000000000E+00  0.39999999673E+01  0.40000000000E+01  0.51109989000E-03 0. -1.
     -623   -1    0    0    0    0  0.00000000000E+00  0.00000000000E+00  0.12525980253E-10  0.17130000000E+03  0.17130000000E+03 0. -1.
       11    1    1    2    0    0  0.81168015229E-01 -0.10910449909E+00 -0.14866923804E+00  0.20148161698E+00  0.51109989000E-03 0. -1.
     -623    1    1    2    0    0  0.73769031355E-01 -0.17994533521E+00  0.12285839447E+01  0.17130451611E+03  0.17130000000E+03 0. -1.
      622    1    1    2    0    0 -0.15493704658E+00  0.28904983430E+00  0.29200852607E+01  0.37940022700E+01  0.24000000000E+01 0. -1.
</event>
<event>
 5   0  0.6825300E-03  0.9118800E+02  0.7818608E-02  0.1180000E+00
       11   -1    0    0    0    0  0.00000000000E+00  0.00000000000E+00  0.39999999673E+01  0.40000000000E+01  0.51109989000E-03 0. -1.
     -623   -1    0    0    0    0  0.00000000000E+00  0.00000000000E+00  0.12525980253E-10  0.17130000000E+03  0.17130000000E+03 0. -1.
       11    1    1    2    0    0 -0.12413433433E+00 -0.43711185529E-03 -0.89182650110E-01  0.15285067985E+00  0.51109989000E-03 0. -1.
     -623    1    1    2    0    0 -0.17734809423E+00  0.54784167435E-01  0.11027733295E+01  0.17130365017E+03  0.17130000000E+03 0. -1.
      622    1    1    2    0    0  0.30148242855E+00 -0.54347055580E-01  0.29864092880E+01  0.38434991469E+01  0.24000000000E+01 0. -1.
</event>
<event>
 5   0  0.6825300E-03  0.9118800E+02  0.7818608E-02  0.1180000E+00
       11   -1    0    0    0    0  0.00000000000E+00  0.00000000000E+00  0.39999999673E+01  0.40000000000E+01  0.51109989000E-03 0. -1.
     -623   -1    0    0    0    0  0.00000000000E+00  0.00000000000E+00  0.12525980253E-10  0.17130000000E+03  0.17130000000E+03 0. -1.
       11    1    1    2    0    0  0.19689860777E-01 -0.28268886072E+00  0.47720150332E+00  0.55499749422E+00  0.51109989000E-03 0. -1.
     -623    1    1    2    0    0 -0.10835046171E+00  0.22864437339E+00  0.10583596395E+01  0.17130345631E+03  0.17130000000E+03 0. -1.
      622    1    1    2    0    0  0.88660600931E-01  0.54044487327E-01  0.24644388246E+01  0.34415461974E+01  0.24000000000E+01 0. -1.
</event>
<event>
 5   0  0.6825300E-03  0.9118800E+02  0.7818608E-02  0.1180000E+00
       11   -1    0    0    0    0  0.00000000000E+00  0.00000000000E+00  0.39999999673E+01  0.40000000000E+01  0.51109989000E-03 0.  1.
     -623   -1    0    0    0    0  0.00000000000E+00  0.00000000000E+00  0.12525980253E-10  0.17130000000E+03  0.17130000000E+03 0.  1.
       11    1    1    2    0    0  0.23788188587E+00  0.95843280171E-01  0.44293731514E-01  0.26026125692E+00  0.51109989000E-03 0.  1.
     -623    1    1    2    0    0 -0.98163779121E-01  0.11066588554E+00  0.11032614433E+01  0.17130361663E+03  0.17130000000E+03 0.  1.
      622    1    1    2    0    0 -0.13971810675E+00 -0.20650916571E+00  0.28524447926E+01  0.37361221179E+01  0.24000000000E+01 0.  1.
</event>
<event>
 5   0  0.6825300E-03  0.9118800E+02  0.7818608E-02  0.1180000E+00
       11   -1    0    0    0    0  0.00000000000E+00  0.00000000000E+00  0.39999999673E+01  0.40000000000E+01  0.51109989000E-03 0.  1.
     -623   -1    0    0    0    0  0.00000000000E+00  0.00000000000E+00  0.12525980253E-10  0.17130000000E+03  0.17130000000E+03 0. -1.
       11    1    1    2    0    0  0.90414955125E-01 -0.29006083485E-01  0.14721097850E+00  0.17517862428E+00  0.51109989000E-03 0.  1.
     -623    1    1    2    0    0 -0.17534417732E+00  0.80295828411E-01  0.87935247719E+00  0.17130236558E+03  0.17130000000E+03 0. -1.
      622    1    1    2    0    0  0.84929222196E-01 -0.51289744926E-01  0.29734365117E+01  0.38224557943E+01  0.24000000000E+01 0.  1.
</event>
<event>
 5   0  0.6825300E-03  0.9118800E+02  0.7818608E-02  0.1180000E+00
       11   -1    0    0    0    0  0.00000000000E+00  0.00000000000E+00  0.39999999673E+01  0.40000000000E+01  0.51109989000E-03 0. -1.
     -623   -1    0    0    0    0  0.00000000000E+00  0.00000000000E+00  0.12525980253E-10  0.17130000000E+03  0.17130000000E+03 0.  1.
       11    1    1    2    0    0  0.36561801408E-01 -0.71383135041E-01  0.20652211518E-01  0.82819637487E-01  0.51109989000E-03 0. -1.
     -623    1    1    2    0    0  0.19602226446E+00  0.59059381490E-01  0.89539427673E+00  0.17130246246E+03  0.17130000000E+03 0.  1.
      622    1    1    2    0    0 -0.23258406586E+00  0.12323753551E-01  0.30839534791E+01  0.39147179060E+01  0.24000000000E+01 0. -1.
</event>
<event>
 5   0  0.6825300E-03  0.9118800E+02  0.7818608E-02  0.1180000E+00
       11   -1    0    0    0    0  0.00000000000E+00  0.00000000000E+00  0.39999999673E+01  0.40000000000E+01  0.51109989000E-03 0.  1.
     -623   -1    0    0    0    0  0.00000000000E+00  0.00000000000E+00  0.12525980253E-10  0.17130000000E+03  0.17130000000E+03 0. -1.
       11    1    1    2    0    0  0.55226144612E-01 -0.44574648025E-01 -0.56332471006E-01  0.90611449644E-01  0.51109989000E-03 0.  1.
     -623    1    1    2    0    0  0.63516003939E-01  0.46498940443E+00  0.10060276235E+01  0.17130359699E+03  0.17130000000E+03 0. -1.
      622    1    1    2    0    0 -0.11874214855E+00 -0.42041475640E+00  0.30503048149E+01  0.39057915624E+01  0.24000000000E+01 0.  1.
</event>
<event>
 5   0  0.6825300E-03  0.9118800E+02  0.7818608E-02  0.1180000E+00
       11   -1    0    0    0    0  0.00000000000E+00  0.00000000000E+00  0.39999999673E+01  0.40000000000E+01  0.51109989000E-03 0.  1.
     -623   -1    0    0    0    0  0.00000000000E+00  0.00000000000E+00  0.12525980253E-10  0.17130000000E+03  0.17130000000E+03 0. -1.
       11    1    1    2    0    0  0.10954100407E+00 -0.27649348371E-02 -0.68801655706E-01  0.12938626468E+00  0.51109989000E-03 0.  1.
     -623    1    1    2    0    0  0.90988898045E-01  0.10510293770E-01  0.10428095862E+01  0.17130319857E+03  0.17130000000E+03 0. -1.
      622    1    1    2    0    0 -0.20052990212E+00 -0.77453589325E-02  0.30259920368E+01  0.38674151625E+01  0.24000000000E+01 0.  1.
</event>
<event>
 5   0  0.6825300E-03  0.9118800E+02  0.7818608E-02  0.1180000E+00
       11   -1    0    0    0    0  0.00000000000E+00  0.00000000000E+00  0.39999999673E+01  0.40000000000E+01  0.51109989000E-03 0. -1.
     -623   -1    0    0    0    0  0.00000000000E+00  0.00000000000E+00  0.12525980253E-10  0.17130000000E+03  0.17130000000E+03 0.  1.
       11    1    1    2    0    0 -0.74391741753E-01  0.12639220679E+00  0.58090096854E-01  0.15774613071E+00  0.51109989000E-03 0. -1.
     -623    1    1    2    0    0 -0.25772022868E+00  0.76909087004E-01  0.97062395373E+00  0.17130296099E+03  0.17130000000E+03 0.  1.
      622    1    1    2    0    0  0.33211197044E+00 -0.20330129379E+00  0.29712859168E+01  0.38392928745E+01  0.24000000000E+01 0. -1.
</event>
<event>
 5   0  0.6825300E-03  0.9118800E+02  0.7818608E-02  0.1180000E+00
       11   -1    0    0    0    0  0.00000000000E+00  0.00000000000E+00  0.39999999673E+01  0.40000000000E+01  0.51109989000E-03 0. -1.
     -623   -1    0    0    0    0  0.00000000000E+00  0.00000000000E+00  0.12525980253E-10  0.17130000000E+03  0.17130000000E+03 0.  1.
       11    1    1    2    0    0  0.16980501083E+00  0.31510750351E+00  0.27715264263E+00  0.45270335653E+00  0.51109989000E-03 0. -1.
     -623    1    1    2    0    0 -0.22306421811E-01 -0.20583944727E+00  0.11223357421E+01  0.17130380178E+03  0.17130000000E+03 0.  1.
      622    1    1    2    0    0 -0.14749858902E+00 -0.10926805623E+00  0.26005115826E+01  0.35434948615E+01  0.24000000000E+01 0. -1.
</event>
<event>
 5   0  0.6825300E-03  0.9118800E+02  0.7818608E-02  0.1180000E+00
       11   -1    0    0    0    0  0.00000000000E+00  0.00000000000E+00  0.39999999673E+01  0.40000000000E+01  0.51109989000E-03 0.  1.
     -623   -1    0    0    0    0  0.00000000000E+00  0.00000000000E+00  0.12525980253E-10  0.17130000000E+03  0.17130000000E+03 0. -1.
       11    1    1    2    0    0 -0.23533783474E-01  0.84700802902E-02 -0.15872214711E-01  0.29627177517E-01  0.51109989000E-03 0.  1.
     -623    1    1    2    0    0  0.28589678223E+00  0.31746950558E+00  0.88434855983E+00  0.17130281549E+03  0.17130000000E+03 0. -1.
      622    1    1    2    0    0 -0.26236299875E+00 -0.32593958587E+00  0.31315236222E+01  0.39675573283E+01  0.24000000000E+01 0.  1.
</event>
<event>
 5   0  0.6825300E-03  0.9118800E+02  0.7818608E-02  0.1180000E+00
       11   -1    0    0    0    0  0.00000000000E+00  0.00000000000E+00  0.39999999673E+01  0.40000000000E+01  0.51109989000E-03 0.  1.
     -623   -1    0    0    0    0  0.00000000000E+00  0.00000000000E+00  0.12525980253E-10  0.17130000000E+03  0.17130000000E+03 0. -1.
       11    1    1    2    0    0 -0.12988040409E+00  0.12851259620E+00  0.54401191828E-01  0.19064143737E+00  0.51109989000E-03 0.  1.
     -623    1    1    2    0    0 -0.23314754245E+00 -0.11383799722E+00  0.10138994283E+01  0.17130319702E+03  0.17130000000E+03 0. -1.
      622    1    1    2    0    0  0.36302794654E+00 -0.14674598981E-01  0.29316993472E+01  0.38061615437E+01  0.24000000000E+01 0.  1.
</event>
<event>
 5   0  0.6825300E-03  0.9118800E+02  0.7818608E-02  0.1180000E+00
       11   -1    0    0    0    0  0.00000000000E+00  0.00000000000E+00  0.39999999673E+01  0.40000000000E+01  0.51109989000E-03 0.  1.
     -623   -1    0    0    0    0  0.00000000000E+00  0.00000000000E+00  0.12525980253E-10  0.17130000000E+03  0.17130000000E+03 0. -1.
       11    1    1    2    0    0  0.92232253303E-01  0.13135143561E+00  0.11422017393E+00  0.19699364848E+00  0.51109989000E-03 0.  1.
     -623    1    1    2    0    0  0.43647700295E+00 -0.14770690567E+00  0.98807723466E+00  0.17130346939E+03  0.17130000000E+03 0. -1.
      622    1    1    2    0    0 -0.52870925625E+00  0.16355470065E-01  0.28977025588E+01  0.37995369584E+01  0.24000000000E+01 0.  1.
</event>
<event>
 5   0  0.6825300E-03  0.9118800E+02  0.7818608E-02  0.1180000E+00
       11   -1    0    0    0    0  0.00000000000E+00  0.00000000000E+00  0.39999999673E+01  0.40000000000E+01  0.51109989000E-03 0. -1.
     -623   -1    0    0    0    0  0.00000000000E+00  0.00000000000E+00  0.12525980253E-10  0.17130000000E+03  0.17130000000E+03 0.  1.
       11    1    1    2    0    0  0.54953914998E-01 -0.15205659497E+00 -0.23613104032E+00  0.28618048548E+00  0.51109989000E-03 0. -1.
     -623    1    1    2    0    0 -0.49146716274E+00  0.30296029633E+00  0.14493001911E+01  0.17130710375E+03  0.17130000000E+03 0.  1.
      622    1    1    2    0    0  0.43651324774E+00 -0.15090370136E+00  0.27868308166E+01  0.37067157623E+01  0.24000000000E+01 0. -1.
</event>
<event>
 5   0  0.6825300E-03  0.9118800E+02  0.7818608E-02  0.1180000E+00
       11   -1    0    0    0    0  0.00000000000E+00  0.00000000000E+00  0.39999999673E+01  0.40000000000E+01  0.51109989000E-03 0.  1.
     -623   -1    0    0    0    0  0.00000000000E+00  0.00000000000E+00  0.12525980253E-10  0.17130000000E+03  0.17130000000E+03 0. -1.
       11    1    1    2    0    0  0.29329488732E+00 -0.22555045857E+00  0.16750328324E+00  0.40614346161E+00  0.51109989000E-03 0.  1.
     -623    1    1    2    0    0  0.42137997002E+00 -0.56636519687E-01  0.12776178976E+01  0.17130529203E+03  0.17130000000E+03 0. -1.
      622    1    1    2    0    0 -0.71467485734E+00  0.28218697826E+00  0.25548787866E+01  0.35885645119E+01  0.24000000000E+01 0.  1.
</event>
<event>
 5   0  0.6825300E-03  0.9118800E+02  0.7818608E-02  0.1180000E+00
       11   -1    0    0    0    0  0.00000000000E+00  0.00000000000E+00  0.39999999673E+01  0.40000000000E+01  0.51109989000E-03 0. -1.
     -623   -1    0    0    0    0  0.00000000000E+00  0.00000000000E+00  0.12525980253E-10  0.17130000000E+03  0.17130000000E+03 0.  1.
       11    1    1    2    0    0  0.26258152509E-01  0.41334030553E+00 -0.18459717721E-01  0.41458499870E+00  0.51109989000E-03 0. -1.
     -623    1    1    2    0    0  0.40690379074E+00 -0.50499175667E-01  0.14242384050E+01  0.17130641137E+03  0.17130000000E+03 0.  1.
      622    1    1    2    0    0 -0.43316194325E+00 -0.36284112986E+00  0.25942212801E+01  0.35790036330E+01  0.24000000000E+01 0. -1.
</event>
<event>
 5   0  0.6825300E-03  0.9118800E+02  0.7818608E-02  0.1180000E+00
       11   -1    0    0    0    0  0.00000000000E+00  0.00000000000E+00  0.39999999673E+01  0.40000000000E+01  0.51109989000E-03 0.  1.
     -623   -1    0    0    0    0  0.00000000000E+00  0.00000000000E+00  0.12525980253E-10  0.17130000000E+03  0.17130000000E+03 0. -1.
       11    1    1    2    0    0  0.28045340740E+00  0.63563919229E-01  0.11634140128E+00  0.31020971685E+00  0.51109989000E-03 0.  1.
     -623    1    1    2    0    0 -0.18648607681E+00  0.69073609730E-01  0.10905106181E+01  0.17130358654E+03  0.17130000000E+03 0. -1.
      622    1    1    2    0    0 -0.93967330587E-01 -0.13263752896E+00  0.27931479480E+01  0.36862037427E+01  0.24000000000E+01 0.  1.
</event>
<event>
 5   0  0.6825300E-03  0.9118800E+02  0.7818608E-02  0.1180000E+00
       11   -1    0    0    0    0  0.00000000000E+00  0.00000000000E+00  0.39999999673E+01  0.40000000000E+01  0.51109989000E-03 0.  1.
     -623   -1    0    0    0    0  0.00000000000E+00  0.00000000000E+00  0.12525980253E-10  0.17130000000E+03  0.17130000000E+03 0. -1.
       11    1    1    2    0    0 -0.38745702813E-01 -0.20059342216E+00  0.20017697625E-02  0.20431157286E+00  0.51109989000E-03 0.  1.
     -623    1    1    2    0    0 -0.50294244453E+00 -0.25368836383E-01  0.11223672025E+01  0.17130441706E+03  0.17130000000E+03 0. -1.
      622    1    1    2    0    0  0.54168814734E+00  0.22596225855E+00  0.28756309951E+01  0.37912713714E+01  0.24000000000E+01 0.  1.
</event>
<event>
 5   0  0.6825300E-03  0.9118800E+02  0.7818608E-02  0.1180000E+00
       11   -1    0    0    0    0  0.00000000000E+00  0.00000000000E+00  0.39999999673E+01  0.40000000000E+01  0.51109989000E-03 0.  1.
     -623   -1    0    0    0    0  0.00000000000E+00  0.00000000000E+00  0.12525980253E-10  0.17130000000E+03  0.17130000000E+03 0.  1.
       11    1    1    2    0    0 -0.41503827994E-02 -0.52027468878E+00  0.20077631223E+00  0.55768662010E+00  0.51109989000E-03 0.  1.
     -623    1    1    2    0    0 -0.29527485518E+00  0.58260704423E+00  0.13599020599E+01  0.17130664305E+03  0.17130000000E+03 0.  1.
      622    1    1    2    0    0  0.29942523798E+00 -0.62332355442E-01  0.24393215952E+01  0.34356703335E+01  0.24000000000E+01 0.  1.
</event>
<event>
 5   0  0.6825300E-03  0.9118800E+02  0.7818608E-02  0.1180000E+00
       11   -1    0    0    0    0  0.00000000000E+00  0.00000000000E+00  0.39999999673E+01  0.40000000000E+01  0.51109989000E-03 0. -1.
     -623   -1    0    0    0    0  0.00000000000E+00  0.00000000000E+00  0.12525980253E-10  0.17130000000E+03  0.17130000000E+03 0. -1.
       11    1    1    2    0    0  0.55906721784E-01 -0.41778722743E-01  0.10297570564E+00  0.12439968002E+00  0.51109989000E-03 0. -1.
     -623    1    1    2    0    0 -0.22328912854E+00  0.17291583233E+00  0.86447455308E+00  0.17130241409E+03  0.17130000000E+03 0. -1.
      622    1    1    2    0    0  0.16738240676E+00 -0.13113710958E+00  0.30325497086E+01  0.38731862267E+01  0.24000000000E+01 0. -1.
</event>
<event>
 5   0  0.6825300E-03  0.9118800E+02  0.7818608E-02  0.1180000E+00
       11   -1    0    0    0    0  0.00000000000E+00  0.00000000000E+00  0.39999999673E+01  0.40000000000E+01  0.51109989000E-03 0. -1.
     -623   -1    0    0    0    0  0.00000000000E+00  0.00000000000E+00  0.12525980253E-10  0.17130000000E+03  0.17130000000E+03 0.  1.
       11    1    1    2    0    0  0.11919646929E+00 -0.21715349615E-01  0.15980077325E+00  0.20053903125E+00  0.51109989000E-03 0. -1.
     -623    1    1    2    0    0  0.79974229323E-01  0.32816774438E+00  0.92112745383E+00  0.17130280957E+03  0.17130000000E+03 0.  1.
      622    1    1    2    0    0 -0.19917069862E+00 -0.30645239476E+00  0.29190717403E+01  0.37966514012E+01  0.24000000000E+01 0. -1.
</event>
<event>
 5   0  0.6825300E-03  0.9118800E+02  0.7818608E-02  0.1180000E+00
       11   -1    0    0    0    0  0.00000000000E+00  0.00000000000E+00  0.39999999673E+01  0.40000000000E+01  0.51109989000E-03 0. -1.
     -623   -1    0    0    0    0  0.00000000000E+00  0.00000000000E+00  0.12525980253E-10  0.17130000000E+03  0.17130000000E+03 0. -1.
       11    1    1    2    0    0  0.67175100170E-01 -0.37263366735E+00  0.33036416531E+00  0.50250282295E+00  0.51109989000E-03 0. -1.
     -623    1    1    2    0    0 -0.19346447423E+00  0.69459501857E+00  0.11566739479E+01  0.17130542252E+03  0.17130000000E+03 0. -1.
      622    1    1    2    0    0  0.12628937406E+00 -0.32196135122E+00  0.25129618541E+01  0.34920746553E+01  0.24000000000E+01 0. -1.
</event>
<event>
 5   0  0.6825300E-03  0.9118800E+02  0.7818608E-02  0.1180000E+00
       11   -1    0    0    0    0  0.00000000000E+00  0.00000000000E+00  0.39999999673E+01  0.40000000000E+01  0.51109989000E-03 0.  1.
     -623   -1    0    0    0    0  0.00000000000E+00  0.00000000000E+00  0.12525980253E-10  0.17130000000E+03  0.17130000000E+03 0.  1.
       11    1    1    2    0    0  0.12675777792E+00 -0.11585058941E+00  0.26607155296E-01  0.17377311434E+00  0.51109989000E-03 0.  1.
     -623    1    1    2    0    0  0.62018464377E+00  0.30446660940E+00  0.11013231486E+01  0.17130493350E+03  0.17130000000E+03 0.  1.
      622    1    1    2    0    0 -0.74694242169E+00 -0.18861601999E+00  0.28720696635E+01  0.38212933852E+01  0.24000000000E+01 0.  1.
</event>
<event>
 5   0  0.6825300E-03  0.9118800E+02  0.7818608E-02  0.1180000E+00
       11   -1    0    0    0    0  0.00000000000E+00  0.00000000000E+00  0.39999999673E+01  0.40000000000E+01  0.51109989000E-03 0.  1.
     -623   -1    0    0    0    0  0.00000000000E+00  0.00000000000E+00  0.12525980253E-10  0.17130000000E+03  0.17130000000E+03 0.  1.
       11    1    1    2    0    0 -0.15117724782E+00  0.12669369709E+00 -0.21850178590E+00  0.29436226797E+00  0.51109989000E-03 0.  1.
     -623    1    1    2    0    0  0.22284112101E+00 -0.11567779474E+00  0.14038017586E+01  0.17130593597E+03  0.17130000000E+03 0.  1.
      622    1    1    2    0    0 -0.71663873183E-01 -0.11015902354E-01  0.28146999946E+01  0.36997017610E+01  0.24000000000E+01 0.  1.
</event>
<event>
 5   0  0.6825300E-03  0.9118800E+02  0.7818608E-02  0.1180000E+00
       11   -1    0    0    0    0  0.00000000000E+00  0.00000000000E+00  0.39999999673E+01  0.40000000000E+01  0.51109989000E-03 0.  1.
     -623   -1    0    0    0    0  0.00000000000E+00  0.00000000000E+00  0.12525980253E-10  0.17130000000E+03  0.17130000000E+03 0. -1.
       11    1    1    2    0    0 -0.34309435247E+00 -0.17242971164E+00  0.44198870311E+00  0.58549125958E+00  0.51109989000E-03 0.  1.
     -623    1    1    2    0    0  0.14225194912E+01  0.45410894174E+00  0.14202858446E+01  0.17131239590E+03  0.17130000000E+03 0. -1.
      622    1    1    2    0    0 -0.10794251387E+01 -0.28167923010E+00  0.21377254196E+01  0.34021128418E+01  0.24000000000E+01 0.  1.
</event>
<event>
 5   0  0.6825300E-03  0.9118800E+02  0.7818608E-02  0.1180000E+00
       11   -1    0    0    0    0  0.00000000000E+00  0.00000000000E+00  0.39999999673E+01  0.40000000000E+01  0.51109989000E-03 0.  1.
     -623   -1    0    0    0    0  0.00000000000E+00  0.00000000000E+00  0.12525980253E-10  0.17130000000E+03  0.17130000000E+03 0.  1.
       11    1    1    2    0    0  0.44896592443E+00 -0.22607165805E+00  0.65932866916E+00  0.82909188337E+00  0.51109989000E-03 0.  1.
     -623    1    1    2    0    0 -0.29777106748E+00  0.42248482361E+00  0.12919126231E+01  0.17130565139E+03  0.17130000000E+03 0.  1.
      622    1    1    2    0    0 -0.15119485695E+00 -0.19641316557E+00  0.20487586751E+01  0.31652567234E+01  0.24000000000E+01 0.  1.
</event>
<event>
 5   0  0.6825300E-03  0.9118800E+02  0.7818608E-02  0.1180000E+00
       11   -1    0    0    0    0  0.00000000000E+00  0.00000000000E+00  0.39999999673E+01  0.40000000000E+01  0.51109989000E-03 0.  1.
     -623   -1    0    0    0    0  0.00000000000E+00  0.00000000000E+00  0.12525980253E-10  0.17130000000E+03  0.17130000000E+03 0.  1.
       11    1    1    2    0    0  0.20476012226E+00 -0.16839997249E+00 -0.16729783028E-01  0.26564149763E+00  0.51109989000E-03 0.  1.
     -623    1    1    2    0    0 -0.10115982465E+00  0.19927320062E+00  0.11631032464E+01  0.17130409438E+03  0.17130000000E+03 0.  1.
      622    1    1    2    0    0 -0.10360029761E+00 -0.30873228134E-01  0.28536265040E+01  0.37302641197E+01  0.24000000000E+01 0.  1.
</event>
<event>
 5   0  0.6825300E-03  0.9118800E+02  0.7818608E-02  0.1180000E+00
       11   -1    0    0    0    0  0.00000000000E+00  0.00000000000E+00  0.39999999673E+01  0.40000000000E+01  0.51109989000E-03 0. -1.
     -623   -1    0    0    0    0  0.00000000000E+00  0.00000000000E+00  0.12525980253E-10  0.17130000000E+03  0.17130000000E+03 0.  1.
       11    1    1    2    0    0 -0.11624210318E-01 -0.73157947193E-01 -0.58676822281E-01  0.94500995757E-01  0.51109989000E-03 0. -1.
     -623    1    1    2    0    0  0.23226412190E-01 -0.76163368572E-01  0.98487785150E+00  0.17130284973E+03  0.17130000000E+03 0.  1.
      622    1    1    2    0    0 -0.11602201872E-01  0.14932131576E+00  0.30737989381E+01  0.39026492769E+01  0.24000000000E+01 0. -1.
</event>
<event>
 5   0  0.6825300E-03  0.9118800E+02  0.7818608E-02  0.1180000E+00
       11   -1    0    0    0    0  0.00000000000E+00  0.00000000000E+00  0.39999999673E+01  0.40000000000E+01  0.51109989000E-03 0.  1.
     -623   -1    0    0    0    0  0.00000000000E+00  0.00000000000E+00  0.12525980253E-10  0.17130000000E+03  0.17130000000E+03 0.  1.
       11    1    1    2    0    0 -0.45848389918E-01  0.57704974443E-01  0.19864011916E-01  0.76333342158E-01  0.51109989000E-03 0.  1.
     -623    1    1    2    0    0  0.19334481067E+00  0.99813194412E-01  0.88667404404E+00  0.17130243295E+03  0.17130000000E+03 0.  1.
      622    1    1    2    0    0 -0.14749642075E+00 -0.15751816885E+00  0.30934619114E+01  0.39212337045E+01  0.24000000000E+01 0.  1.
</event>
<event>
 5   0  0.6825300E-03  0.9118800E+02  0.7818608E-02  0.1180000E+00
       11   -1    0    0    0    0  0.00000000000E+00  0.00000000000E+00  0.39999999673E+01  0.40000000000E+01  0.51109989000E-03 0.  1.
     -623   -1    0    0    0    0  0.00000000000E+00  0.00000000000E+00  0.12525980253E-10  0.17130000000E+03  0.17130000000E+03 0. -1.
       11    1    1    2    0    0  0.16516508080E+00 -0.29257323115E+00  0.46124129769E+00  0.57063332834E+00  0.51109989000E-03 0.  1.
     -623    1    1    2    0    0  0.24048807774E+00  0.44383474453E+00  0.11341192827E+01  0.17130449804E+03  0.17130000000E+03 0. -1.
      622    1    1    2    0    0 -0.40565315854E+00 -0.15126151338E+00  0.24046393870E+01  0.34248686270E+01  0.24000000000E+01 0.  1.
</event>
<event>
 5   0  0.6825300E-03  0.9118800E+02  0.7818608E-02  0.1180000E+00
       11   -1    0    0    0    0  0.00000000000E+00  0.00000000000E+00  0.39999999673E+01  0.40000000000E+01  0.51109989000E-03 0.  1.
     -623   -1    0    0    0    0  0.00000000000E+00  0.00000000000E+00  0.12525980253E-10  0.17130000000E+03  0.17130000000E+03 0. -1.
       11    1    1    2    0    0  0.10409591841E+00  0.27858399508E+00  0.22138243294E-01  0.29822033060E+00  0.51109989000E-03 0.  1.
     -623    1    1    2    0    0 -0.30681164762E+00 -0.20289975589E+00  0.11736361574E+01  0.17130441536E+03  0.17130000000E+03 0. -1.
      622    1    1    2    0    0  0.20271572921E+00 -0.75684239190E-01  0.28042255667E+01  0.36973643044E+01  0.24000000000E+01 0.  1.
</event>
<event>
 5   0  0.6825300E-03  0.9118800E+02  0.7818608E-02  0.1180000E+00
       11   -1    0    0    0    0  0.00000000000E+00  0.00000000000E+00  0.39999999673E+01  0.40000000000E+01  0.51109989000E-03 0. -1.
     -623   -1    0    0    0    0  0.00000000000E+00  0.00000000000E+00  0.12525980253E-10  0.17130000000E+03  0.17130000000E+03 0.  1.
       11    1    1    2    0    0 -0.12616020606E+00  0.16015538062E+00  0.12364691844E+00  0.23844279229E+00  0.51109989000E-03 0. -1.
     -623    1    1    2    0    0  0.24645603503E+00 -0.52667754289E+00  0.10109293991E+01  0.17130396991E+03  0.17130000000E+03 0.  1.
      622    1    1    2    0    0 -0.12029582897E+00  0.36652216227E+00  0.28654236498E+01  0.37575872944E+01  0.24000000000E+01 0. -1.
</event>
<event>
 5   0  0.6825300E-03  0.9118800E+02  0.7818608E-02  0.1180000E+00
       11   -1    0    0    0    0  0.00000000000E+00  0.00000000000E+00  0.39999999673E+01  0.40000000000E+01  0.51109989000E-03 0. -1.
     -623   -1    0    0    0    0  0.00000000000E+00  0.00000000000E+00  0.12525980253E-10  0.17130000000E+03  0.17130000000E+03 0.  1.
       11    1    1    2    0    0  0.11574334657E-01  0.13757045530E+00 -0.50577943967E-01  0.14703055816E+00  0.51109989000E-03 0. -1.
     -623    1    1    2    0    0  0.37531743993E+00  0.31197580722E+00  0.11008321496E+01  0.17130423236E+03  0.17130000000E+03 0.  1.
      622    1    1    2    0    0 -0.38689177459E+00 -0.44954626252E+00  0.29497457617E+01  0.38487370846E+01  0.24000000000E+01 0. -1.
</event>
<event>
 5   0  0.6825300E-03  0.9118800E+02  0.7818608E-02  0.1180000E+00
       11   -1    0    0    0    0  0.00000000000E+00  0.00000000000E+00  0.39999999673E+01  0.40000000000E+01  0.51109989000E-03 0. -1.
     -623   -1    0    0    0    0  0.00000000000E+00  0.00000000000E+00  0.12525980253E-10  0.17130000000E+03  0.17130000000E+03 0. -1.
       11    1    1    2    0    0  0.16950470407E+00  0.16070199912E+00  0.18180704735E+00  0.29599162305E+00  0.51109989000E-03 0. -1.
     -623    1    1    2    0    0  0.85774016990E-01 -0.10660272082E+00  0.10130192774E+01  0.17130304997E+03  0.17130000000E+03 0. -1.
      622    1    1    2    0    0 -0.25527872106E+00 -0.54099278306E-01  0.28051736426E+01  0.37009584059E+01  0.24000000000E+01 0. -1.
</event>
<event>
 5   0  0.6825300E-03  0.9118800E+02  0.7818608E-02  0.1180000E+00
       11   -1    0    0    0    0  0.00000000000E+00  0.00000000000E+00  0.39999999673E+01  0.40000000000E+01  0.51109989000E-03 0. -1.
     -623   -1    0    0    0    0  0.00000000000E+00  0.00000000000E+00  0.12525980253E-10  0.17130000000E+03  0.17130000000E+03 0.  1.
       11    1    1    2    0    0 -0.59454381036E-01 -0.76357380099E-01  0.21163477382E+00  0.23271186397E+00  0.51109989000E-03 0. -1.
     -623    1    1    2    0    0  0.36032295609E+00  0.35593189214E+00  0.91789205918E+00  0.17130320793E+03  0.17130000000E+03 0.  1.
      622    1    1    2    0    0 -0.30086857506E+00 -0.27957451204E+00  0.28704731344E+01  0.37640802093E+01  0.24000000000E+01 0. -1.
</event>
<event>
 5   0  0.6825300E-03  0.9118800E+02  0.7818608E-02  0.1180000E+00
       11   -1    0    0    0    0  0.00000000000E+00  0.00000000000E+00  0.39999999673E+01  0.40000000000E+01  0.51109989000E-03 0.  1.
     -623   -1    0    0    0    0  0.00000000000E+00  0.00000000000E+00  0.12525980253E-10  0.17130000000E+03  0.17130000000E+03 0.  1.
       11    1    1    2    0    0  0.14324574887E-01 -0.25366394205E+00  0.15605125409E+00  0.29816579963E+00  0.51109989000E-03 0.  1.
     -623    1    1    2    0    0 -0.38437359121E+00 -0.17358746852E+00  0.10881035162E+01  0.17130397498E+03  0.17130000000E+03 0.  1.
      622    1    1    2    0    0  0.37004901632E+00  0.42725141057E+00  0.27558451971E+01  0.36978592175E+01  0.24000000000E+01 0.  1.
</event>
<event>
 5   0  0.6825300E-03  0.9118800E+02  0.7818608E-02  0.1180000E+00
       11   -1    0    0    0    0  0.00000000000E+00  0.00000000000E+00  0.39999999673E+01  0.40000000000E+01  0.51109989000E-03 0.  1.
     -623   -1    0    0    0    0  0.00000000000E+00  0.00000000000E+00  0.12525980253E-10  0.17130000000E+03  0.17130000000E+03 0.  1.
       11    1    1    2    0    0  0.14006072827E+00  0.41194666442E-01  0.14330228899E+00  0.20457227427E+00  0.51109989000E-03 0.  1.
     -623    1    1    2    0    0 -0.36942925643E+00  0.12435581300E+00  0.93392984726E+00  0.17130298937E+03  0.17130000000E+03 0.  1.
      622    1    1    2    0    0  0.22936852816E+00 -0.16555047944E+00  0.29227678311E+01  0.37924383551E+01  0.24000000000E+01 0.  1.
</event>
<event>
 5   0  0.6825300E-03  0.9118800E+02  0.7818608E-02  0.1180000E+00
       11   -1    0    0    0    0  0.00000000000E+00  0.00000000000E+00  0.39999999673E+01  0.40000000000E+01  0.51109989000E-03 0.  1.
     -623   -1    0    0    0    0  0.00000000000E+00  0.00000000000E+00  0.12525980253E-10  0.17130000000E+03  0.17130000000E+03 0.  1.
       11    1    1    2    0    0  0.20017605330E+00  0.20737739099E+00 -0.31829005451E+00  0.42940034307E+00  0.51109989000E-03 0.  1.
     -623    1    1    2    0    0 -0.92807651842E+00 -0.80163272998E+00  0.18683283007E+01  0.17131457787E+03  0.17130000000E+03 0.  1.
      622    1    1    2    0    0  0.72790046512E+00  0.59425533900E+00  0.24499617211E+01  0.35560217842E+01  0.24000000000E+01 0.  0.
</event>
<event>
 5   0  0.6825300E-03  0.9118800E+02  0.7818608E-02  0.1180000E+00
       11   -1    0    0    0    0  0.00000000000E+00  0.00000000000E+00  0.39999999673E+01  0.40000000000E+01  0.51109989000E-03 0.  1.
     -623   -1    0    0    0    0  0.00000000000E+00  0.00000000000E+00  0.12525980253E-10  0.17130000000E+03  0.17130000000E+03 0. -1.
       11    1    1    2    0    0  0.49947843013E+00  0.67098829671E-01  0.31776092261E+00  0.59577950642E+00  0.51109989000E-03 0.  1.
     -623    1    1    2    0    0  0.18665774892E+00  0.13087414363E+00  0.13844902859E+01  0.17130574650E+03  0.17130000000E+03 0. -1.
      622    1    1    2    0    0 -0.68613617905E+00 -0.19797297330E+00  0.22977487588E+01  0.33984739977E+01  0.24000000000E+01 0.  1.
</event>
<event>
 5   0  0.6825300E-03  0.9118800E+02  0.7818608E-02  0.1180000E+00
       11   -1    0    0    0    0  0.00000000000E+00  0.00000000000E+00  0.39999999673E+01  0.40000000000E+01  0.51109989000E-03 0. -1.
     -623   -1    0    0    0    0  0.00000000000E+00  0.00000000000E+00  0.12525980253E-10  0.17130000000E+03  0.17130000000E+03 0.  1.
       11    1    1    2    0    0  0.15163856350E+00 -0.21113155934E+00  0.48171198261E-01  0.26437003395E+00  0.51109989000E-03 0. -1.
     -623    1    1    2    0    0  0.13676296039E+00  0.87885351679E+00  0.11918072869E+01  0.17130645491E+03  0.17130000000E+03 0.  1.
      622    1    1    2    0    0 -0.28840152389E+00 -0.66772195745E+00  0.27600214822E+01  0.37291750607E+01  0.24000000000E+01 0. -1.
</event>
<event>
 5   0  0.6825300E-03  0.9118800E+02  0.7818608E-02  0.1180000E+00
       11   -1    0    0    0    0  0.00000000000E+00  0.00000000000E+00  0.39999999673E+01  0.40000000000E+01  0.51109989000E-03 0.  1.
     -623   -1    0    0    0    0  0.00000000000E+00  0.00000000000E+00  0.12525980253E-10  0.17130000000E+03  0.17130000000E+03 0.  1.
       11    1    1    2    0    0 -0.12825700598E+00 -0.23660789605E-01  0.30206993016E-01  0.13387462866E+00  0.51109989000E-03 0.  1.
     -623    1    1    2    0    0 -0.56756550360E-01  0.43592067705E+00  0.97699422870E+00  0.17130335013E+03  0.17130000000E+03 0.  1.
      622    1    1    2    0    0  0.18501355634E+00 -0.41225988744E+00  0.29927987456E+01  0.38627752410E+01  0.24000000000E+01 0.  1.
</event>
<event>
 5   0  0.6825300E-03  0.9118800E+02  0.7818608E-02  0.1180000E+00
       11   -1    0    0    0    0  0.00000000000E+00  0.00000000000E+00  0.39999999673E+01  0.40000000000E+01  0.51109989000E-03 0.  1.
     -623   -1    0    0    0    0  0.00000000000E+00  0.00000000000E+00  0.12525980253E-10  0.17130000000E+03  0.17130000000E+03 0. -1.
       11    1    1    2    0    0  0.20177339933E+00 -0.11669358123E+00  0.26951916313E+00  0.35632953441E+00  0.51109989000E-03 0.  1.
     -623    1    1    2    0    0 -0.65792250478E-01  0.28277661497E+00  0.10015357169E+01  0.17130317383E+03  0.17130000000E+03 0. -1.
      622    1    1    2    0    0 -0.13598114885E+00 -0.16608303374E+00  0.27289450874E+01  0.36404966333E+01  0.24000000000E+01 0.  1.
</event>
<event>
 5   0  0.6825300E-03  0.9118800E+02  0.7818608E-02  0.1180000E+00
       11   -1    0    0    0    0  0.00000000000E+00  0.00000000000E+00  0.39999999673E+01  0.40000000000E+01  0.51109989000E-03 0.  1.
     -623   -1    0    0    0    0  0.00000000000E+00  0.00000000000E+00  0.12525980253E-10  0.17130000000E+03  0.17130000000E+03 0. -1.
       11    1    1    2    0    0  0.15923311297E+00 -0.23164636157E+00  0.54641613752E+00  0.61448033138E+00  0.51109989000E-03 0.  1.
     -623    1    1    2    0    0 -0.55615204599E+00  0.70402830962E+00  0.11560258185E+01  0.17130625020E+03  0.17130000000E+03 0. -1.
      622    1    1    2    0    0  0.39691893302E+00 -0.47238194805E+00  0.22975580114E+01  0.33792694713E+01  0.24000000000E+01 0.  1.
</event>
<event>
 5   0  0.6825300E-03  0.9118800E+02  0.7818608E-02  0.1180000E+00
       11   -1    0    0    0    0  0.00000000000E+00  0.00000000000E+00  0.39999999673E+01  0.40000000000E+01  0.51109989000E-03 0. -1.
     -623   -1    0    0    0    0  0.00000000000E+00  0.00000000000E+00  0.12525980253E-10  0.17130000000E+03  0.17130000000E+03 0. -1.
       11    1    1    2    0    0  0.28266325092E+00 -0.50583522385E-01 -0.40514136777E-01  0.28999803906E+00  0.51109989000E-03 0. -1.
     -623    1    1    2    0    0  0.14038642806E-02  0.21051411364E+00  0.12362667334E+01  0.17130459035E+03  0.17130000000E+03 0. -1.
      622    1    1    2    0    0 -0.28406711520E+00 -0.15993059125E+00  0.28042473708E+01  0.37054116150E+01  0.24000000000E+01 0. -1.
</event>
<event>
 5   0  0.6825300E-03  0.9118800E+02  0.7818608E-02  0.1180000E+00
       11   -1    0    0    0    0  0.00000000000E+00  0.00000000000E+00  0.39999999673E+01  0.40000000000E+01  0.51109989000E-03 0. -1.
     -623   -1    0    0    0    0  0.00000000000E+00  0.00000000000E+00  0.12525980253E-10  0.17130000000E+03  0.17130000000E+03 0. -1.
       11    1    1    2    0    0 -0.85119934049E-01  0.40631078156E+00  0.36804013837E+00  0.55478613812E+00  0.51109989000E-03 0. -1.
     -623    1    1    2    0    0 -0.10929723509E+00 -0.10624312072E+01  0.12684945551E+01  0.17130802604E+03  0.17130000000E+03 0. -1.
      622    1    1    2    0    0  0.19441716914E+00  0.65612042560E+00  0.23634652739E+01  0.34371878258E+01  0.24000000000E+01 0. -1.
</event>
<event>
 5   0  0.6825300E-03  0.9118800E+02  0.7818608E-02  0.1180000E+00
       11   -1    0    0    0    0  0.00000000000E+00  0.00000000000E+00  0.39999999673E+01  0.40000000000E+01  0.51109989000E-03 0. -1.
     -623   -1    0    0    0    0  0.00000000000E+00  0.00000000000E+00  0.12525980253E-10  0.17130000000E+03  0.17130000000E+03 0.  1.
       11    1    1    2    0    0  0.13848366267E+00  0.15894303549E+00  0.18628720598E+00  0.28132507476E+00  0.51109989000E-03 0. -1.
     -623    1    1    2    0    0 -0.21666199641E+00  0.72600646623E+00  0.11230841456E+01  0.17130535703E+03  0.17130000000E+03 0.  1.
      622    1    1    2    0    0  0.78178333748E-01 -0.88494950172E+00  0.26906286158E+01  0.37133178992E+01  0.24000000000E+01 0. -1.
</event>
<event>
 5   0  0.6825300E-03  0.9118800E+02  0.7818608E-02  0.1180000E+00
       11   -1    0    0    0    0  0.00000000000E+00  0.00000000000E+00  0.39999999673E+01  0.40000000000E+01  0.51109989000E-03 0.  1.
     -623   -1    0    0    0    0  0.00000000000E+00  0.00000000000E+00  0.12525980253E-10  0.17130000000E+03  0.17130000000E+03 0. -1.
       11    1    1    2    0    0 -0.44905859616E-01  0.69840609350E-01 -0.14319260408E+00  0.16552531537E+00  0.51109989000E-03 0.  1.
     -623    1    1    2    0    0 -0.39149802343E+00 -0.24544127173E+00  0.11961381585E+01  0.17130479929E+03  0.17130000000E+03 0. -1.
      622    1    1    2    0    0  0.43640388305E+00  0.17560066238E+00  0.29470544129E+01  0.38296753981E+01  0.24000000000E+01 0.  1.
</event>
<event>
 5   0  0.6825300E-03  0.9118800E+02  0.7818608E-02  0.1180000E+00
       11   -1    0    0    0    0  0.00000000000E+00  0.00000000000E+00  0.39999999673E+01  0.40000000000E+01  0.51109989000E-03 0.  1.
     -623   -1    0    0    0    0  0.00000000000E+00  0.00000000000E+00  0.12525980253E-10  0.17130000000E+03  0.17130000000E+03 0.  1.
       11    1    1    2    0    0 -0.28856171996E-01  0.13951679375E+00  0.13558832231E+00  0.19667757567E+00  0.51109989000E-03 0.  1.
     -623    1    1    2    0    0 -0.11193015159E+00  0.39076455030E+00  0.96963883904E+00  0.17130322655E+03  0.17130000000E+03 0.  1.
      622    1    1    2    0    0  0.14078632359E+00 -0.53028134405E+00  0.28947728060E+01  0.38000958792E+01  0.24000000000E+01 0.  1.
</event>
<event>
 5   0  0.6825300E-03  0.9118800E+02  0.7818608E-02  0.1180000E+00
       11   -1    0    0    0    0  0.00000000000E+00  0.00000000000E+00  0.39999999673E+01  0.40000000000E+01  0.51109989000E-03 0.  1.
     -623   -1    0    0    0    0  0.00000000000E+00  0.00000000000E+00  0.12525980253E-10  0.17130000000E+03  0.17130000000E+03 0.  1.
       11    1    1    2    0    0  0.94848565715E-01 -0.22325202025E+00  0.15893424853E+00  0.28999667505E+00  0.51109989000E-03 0.  1.
     -623    1    1    2    0    0  0.17464875702E+00  0.68745903717E+00  0.10697209278E+01  0.17130480847E+03  0.17130000000E+03 0.  1.
      622    1    1    2    0    0 -0.26949732274E+00 -0.46420701692E+00  0.27713447910E+01  0.37051948548E+01  0.24000000000E+01 0.  0.
</event>
<event>
 5   0  0.6825300E-03  0.9118800E+02  0.7818608E-02  0.1180000E+00
       11   -1    0    0    0    0  0.00000000000E+00  0.00000000000E+00  0.39999999673E+01  0.40000000000E+01  0.51109989000E-03 0. -1.
     -623   -1    0    0    0    0  0.00000000000E+00  0.00000000000E+00  0.12525980253E-10  0.17130000000E+03  0.17130000000E+03 0.  1.
       11    1    1    2    0    0  0.22982800615E+00  0.11653661094E-01  0.40959927576E+00  0.46981756901E+00  0.51109989000E-03 0. -1.
     -623    1    1    2    0    0 -0.72681526074E-01 -0.35895214159E+00  0.10346100453E+01  0.17130351586E+03  0.17130000000E+03 0.  1.
      622    1    1    2    0    0 -0.15714648007E+00  0.34729848049E+00  0.25557906463E+01  0.35266665675E+01  0.24000000000E+01 0. -1.
</event>
<event>
 5   0  0.6825300E-03  0.9118800E+02  0.7818608E-02  0.1180000E+00
       11   -1    0    0    0    0  0.00000000000E+00  0.00000000000E+00  0.39999999673E+01  0.40000000000E+01  0.51109989000E-03 0. -1.
     -623   -1    0    0    0    0  0.00000000000E+00  0.00000000000E+00  0.12525980253E-10  0.17130000000E+03  0.17130000000E+03 0. -1.
       11    1    1    2    0    0 -0.17423858290E+00  0.25811724613E+00 -0.52544159647E-01  0.31582391685E+00  0.51109989000E-03 0. -1.
     -623    1    1    2    0    0  0.29725532383E+00 -0.21773123583E+00  0.12670517743E+01  0.17130508220E+03  0.17130000000E+03 0. -1.
      622    1    1    2    0    0 -0.12301674093E+00 -0.40386010299E-01  0.27854923527E+01  0.36790938824E+01  0.24000000000E+01 0. -1.
</event>
<event>
 5   0  0.6825300E-03  0.9118800E+02  0.7818608E-02  0.1180000E+00
       11   -1    0    0    0    0  0.00000000000E+00  0.00000000000E+00  0.39999999673E+01  0.40000000000E+01  0.51109989000E-03 0. -1.
     -623   -1    0    0    0    0  0.00000000000E+00  0.00000000000E+00  0.12525980253E-10  0.17130000000E+03  0.17130000000E+03 0.  1.
       11    1    1    2    0    0 -0.11525919260E+00  0.25782087902E+00  0.27465946926E+00  0.39394716958E+00  0.51109989000E-03 0. -1.
     -623    1    1    2    0    0  0.50344797296E+00  0.11261860324E+00  0.10938141471E+01  0.17130426898E+03  0.17130000000E+03 0.  1.
      622    1    1    2    0    0 -0.38818878036E+00 -0.37043948226E+00  0.26315263510E+01  0.36017838463E+01  0.24000000000E+01 0. -1.
</event>
<event>
 5   0  0.6825300E-03  0.9118800E+02  0.7818608E-02  0.1180000E+00
       11   -1    0    0    0    0  0.00000000000E+00  0.00000000000E+00  0.39999999673E+01  0.40000000000E+01  0.51109989000E-03 0. -1.
     -623   -1    0    0    0    0  0.00000000000E+00  0.00000000000E+00  0.12525980253E-10  0.17130000000E+03  0.17130000000E+03 0. -1.
       11    1    1    2    0    0 -0.96909277007E-01  0.79500963992E-01  0.85510027152E-01  0.15173673653E+00  0.51109989000E-03 0. -1.
     -623    1    1    2    0    0  0.37258609250E+00 -0.80412194959E-01  0.92270956622E+00  0.17130290914E+03  0.17130000000E+03 0. -1.
      622    1    1    2    0    0 -0.27567681550E+00  0.91123096738E-03  0.29917803740E+01  0.38453541245E+01  0.24000000000E+01 0. -1.
</event>
<event>
 5   0  0.6825300E-03  0.9118800E+02  0.7818608E-02  0.1180000E+00
       11   -1    0    0    0    0  0.00000000000E+00  0.00000000000E+00  0.39999999673E+01  0.40000000000E+01  0.51109989000E-03 0. -1.
     -623   -1    0    0    0    0  0.00000000000E+00  0.00000000000E+00  0.12525980253E-10  0.17130000000E+03  0.17130000000E+03 0.  1.
       11    1    1    2    0    0 -0.27218619933E+00  0.92446026844E-01  0.24067965237E+00  0.37491139123E+00  0.51109989000E-03 0. -1.
     -623    1    1    2    0    0 -0.11400915003E+00 -0.21280400819E+00  0.10775593494E+01  0.17130355927E+03  0.17130000000E+03 0.  1.
      622    1    1    2    0    0  0.38619534936E+00  0.12035798134E+00  0.26817609656E+01  0.36215293411E+01  0.24000000000E+01 0. -1.
</event>
<event>
 5   0  0.6825300E-03  0.9118800E+02  0.7818608E-02  0.1180000E+00
       11   -1    0    0    0    0  0.00000000000E+00  0.00000000000E+00  0.39999999673E+01  0.40000000000E+01  0.51109989000E-03 0. -1.
     -623   -1    0    0    0    0  0.00000000000E+00  0.00000000000E+00  0.12525980253E-10  0.17130000000E+03  0.17130000000E+03 0. -1.
       11    1    1    2    0    0  0.17126993664E+00 -0.43767450096E-01  0.97930658630E-01  0.20208823817E+00  0.51109989000E-03 0. -1.
     -623    1    1    2    0    0 -0.29151568009E+00 -0.31970714095E+00  0.98800340867E+00  0.17130339560E+03  0.17130000000E+03 0. -1.
      622    1    1    2    0    0  0.12024574345E+00  0.36347459105E+00  0.29140659001E+01  0.37945161598E+01  0.24000000000E+01 0. -1.
</event>
<event>
 5   0  0.6825300E-03  0.9118800E+02  0.7818608E-02  0.1180000E+00
       11   -1    0    0    0    0  0.00000000000E+00  0.00000000000E+00  0.39999999673E+01  0.40000000000E+01  0.51109989000E-03 0. -1.
     -623   -1    0    0    0    0  0.00000000000E+00  0.00000000000E+00  0.12525980253E-10  0.17130000000E+03  0.17130000000E+03 0.  1.
       11    1    1    2    0    0  0.94981584303E-02  0.13819353151E+00 -0.20799426284E-01  0.14007335407E+00  0.51109989000E-03 0. -1.
     -623    1    1    2    0    0 -0.35615061389E-01  0.17760715382E+00  0.10183798556E+01  0.17130312289E+03  0.17130000000E+03 0.  1.
      622    1    1    2    0    0  0.26116902959E-01 -0.31580068533E+00  0.30024195380E+01  0.38568037606E+01  0.24000000000E+01 0. -1.
</event>
<event>
 5   0  0.6825300E-03  0.9118800E+02  0.7818608E-02  0.1180000E+00
       11   -1    0    0    0    0  0.00000000000E+00  0.00000000000E+00  0.39999999673E+01  0.40000000000E+01  0.51109989000E-03 0.  1.
     -623   -1    0    0    0    0  0.00000000000E+00  0.00000000000E+00  0.12525980253E-10  0.17130000000E+03  0.17130000000E+03 0. -1.
       11    1    1    2    0    0  0.21510201246E+00 -0.25269814583E-01  0.10594297537E+00  0.24110498656E+00  0.51109989000E-03 0.  1.
     -623    1    1    2    0    0 -0.30103758926E+00 -0.32304403738E+00  0.10282026949E+01  0.17130365490E+03  0.17130000000E+03 0. -1.
      622    1    1    2    0    0  0.85935576804E-01  0.34831385196E+00  0.28658542970E+01  0.37552401141E+01  0.24000000000E+01 0.  1.
</event>
<event>
 5   0  0.6825300E-03  0.9118800E+02  0.7818608E-02  0.1180000E+00
       11   -1    0    0    0    0  0.00000000000E+00  0.00000000000E+00  0.39999999673E+01  0.40000000000E+01  0.51109989000E-03 0.  1.
     -623   -1    0    0    0    0  0.00000000000E+00  0.00000000000E+00  0.12525980253E-10  0.17130000000E+03  0.17130000000E+03 0. -1.
       11    1    1    2    0    0  0.31493414205E-01  0.99387575679E-01  0.25345180291E-01  0.10729568828E+00  0.51109989000E-03 0.  1.
     -623    1    1    2    0    0  0.20638249667E+00 -0.60438607913E+00  0.96615465594E+00  0.17130391511E+03  0.17130000000E+03 0. -1.
      622    1    1    2    0    0 -0.23787591088E+00  0.50499850345E+00  0.30085001311E+01  0.38887892044E+01  0.24000000000E+01 0.  1.
</event>
<event>
 5   0  0.6825300E-03  0.9118800E+02  0.7818608E-02  0.1180000E+00
       11   -1    0    0    0    0  0.00000000000E+00  0.00000000000E+00  0.39999999673E+01  0.40000000000E+01  0.51109989000E-03 0.  1.
     -623   -1    0    0    0    0  0.00000000000E+00  0.00000000000E+00  0.12525980253E-10  0.17130000000E+03  0.17130000000E+03 0.  1.
       11    1    1    2    0    0  0.25075121582E+00  0.87502331643E-02  0.21962695897E+00  0.33345014791E+00  0.51109989000E-03 0.  1.
     -623    1    1    2    0    0 -0.40597153182E-01  0.17447521144E+00  0.10267187813E+01  0.17130317055E+03  0.17130000000E+03 0.  1.
      622    1    1    2    0    0 -0.21015406264E+00 -0.18322544461E+00  0.27536542271E+01  0.36633793000E+01  0.24000000000E+01 0.  1.
</event>
<event>
 5   0  0.6825300E-03  0.9118800E+02  0.7818608E-02  0.1180000E+00
       11   -1    0    0    0    0  0.00000000000E+00  0.00000000000E+00  0.39999999673E+01  0.40000000000E+01  0.51109989000E-03 0. -1.
     -623   -1    0    0    0    0  0.00000000000E+00  0.00000000000E+00  0.12525980253E-10  0.17130000000E+03  0.17130000000E+03 0.  1.
       11    1    1    2    0    0 -0.39258933802E-01 -0.18315364054E+00  0.61629013303E+00  0.64412755664E+00  0.51109989000E-03 0. -1.
     -623    1    1    2    0    0 -0.63511959755E+00  0.94985803132E-01  0.11464079689E+01  0.17130503977E+03  0.17130000000E+03 0.  1.
      622    1    1    2    0    0  0.67437853135E+00  0.88167837404E-01  0.22373018654E+01  0.33508326738E+01  0.24000000000E+01 0.  0.
</event>
<event>
 5   0  0.6825300E-03  0.9118800E+02  0.7818608E-02  0.1180000E+00
       11   -1    0    0    0    0  0.00000000000E+00  0.00000000000E+00  0.39999999673E+01  0.40000000000E+01  0.51109989000E-03 0. -1.
     -623   -1    0    0    0    0  0.00000000000E+00  0.00000000000E+00  0.12525980253E-10  0.17130000000E+03  0.17130000000E+03 0. -1.
       11    1    1    2    0    0 -0.68135098238E-01  0.11903257875E+00  0.78527600316E-01  0.15804427117E+00  0.51109989000E-03 0. -1.
     -623    1    1    2    0    0 -0.95286880267E-01 -0.39710918649E-01  0.93015355322E+00  0.17130255644E+03  0.17130000000E+03 0. -1.
      622    1    1    2    0    0  0.16342197850E+00 -0.79321660102E-01  0.29913188138E+01  0.38393992909E+01  0.24000000000E+01 0. -1.
</event>
<event>
 5   0  0.6825300E-03  0.9118800E+02  0.7818608E-02  0.1180000E+00
       11   -1    0    0    0    0  0.00000000000E+00  0.00000000000E+00  0.39999999673E+01  0.40000000000E+01  0.51109989000E-03 0. -1.
     -623   -1    0    0    0    0  0.00000000000E+00  0.00000000000E+00  0.12525980253E-10  0.17130000000E+03  0.17130000000E+03 0. -1.
       11    1    1    2    0    0 -0.30318342349E-01 -0.64361681123E-01 -0.15393618633E-01  0.72793218073E-01  0.51109989000E-03 0. -1.
     -623    1    1    2    0    0  0.50323037428E+00  0.84646398386E-01  0.94743687685E+00  0.17130338013E+03  0.17130000000E+03 0. -1.
      622    1    1    2    0    0 -0.47291203193E+00 -0.20284717263E-01  0.30679567091E+01  0.39238266563E+01  0.24000000000E+01 0. -1.
</event>
<event>
 5   0  0.6825300E-03  0.9118800E+02  0.7818608E-02  0.1180000E+00
       11   -1    0    0    0    0  0.00000000000E+00  0.00000000000E+00  0.39999999673E+01  0.40000000000E+01  0.51109989000E-03 0. -1.
     -623   -1    0    0    0    0  0.00000000000E+00  0.00000000000E+00  0.12525980253E-10  0.17130000000E+03  0.17130000000E+03 0. -1.
       11    1    1    2    0    0 -0.19539542922E+00 -0.86996814864E-01  0.20981913019E+00  0.29962000629E+00  0.51109989000E-03 0. -1.
     -623    1    1    2    0    0  0.43323326921E+00 -0.44874295883E+00  0.10411030665E+01  0.17130429929E+03  0.17130000000E+03 0. -1.
      622    1    1    2    0    0 -0.23783783999E+00  0.53573977369E+00  0.27490777707E+01  0.36960806988E+01  0.24000000000E+01 0. -1.
</event>
<event>
 5   0  0.6825300E-03  0.9118800E+02  0.7818608E-02  0.1180000E+00
       11   -1    0    0    0    0  0.00000000000E+00  0.00000000000E+00  0.39999999673E+01  0.40000000000E+01  0.51109989000E-03 0. -1.
     -623   -1    0    0    0    0  0.00000000000E+00  0.00000000000E+00  0.12525980253E-10  0.17130000000E+03  0.17130000000E+03 0. -1.
       11    1    1    2    0    0  0.87429083711E-01  0.84984210846E-01  0.26392477558E+00  0.29072789539E+00  0.51109989000E-03 0. -1.
     -623    1    1    2    0    0 -0.35440368440E+00 -0.32944477560E+00  0.93542229008E+00  0.17130323742E+03  0.17130000000E+03 0. -1.
      622    1    1    2    0    0  0.26697460069E+00  0.24446056475E+00  0.28006529017E+01  0.37060346843E+01  0.24000000000E+01 0. -1.
</event>
<event>
 5   0  0.6825300E-03  0.9118800E+02  0.7818608E-02  0.1180000E+00
       11   -1    0    0    0    0  0.00000000000E+00  0.00000000000E+00  0.39999999673E+01  0.40000000000E+01  0.51109989000E-03 0.  1.
     -623   -1    0    0    0    0  0.00000000000E+00  0.00000000000E+00  0.12525980253E-10  0.17130000000E+03  0.17130000000E+03 0. -1.
       11    1    1    2    0    0 -0.40023594095E-02 -0.15566691971E+00  0.75823016886E-01  0.17319815208E+00  0.51109989000E-03 0.  1.
     -623    1    1    2    0    0  0.25285486348E+00  0.10997356216E+00  0.95800021864E+00  0.17130290072E+03  0.17130000000E+03 0. -1.
      622    1    1    2    0    0 -0.24885250407E+00  0.45693357549E-01  0.29661767318E+01  0.38239011305E+01  0.24000000000E+01 0.  1.
</event>
<event>
 5   0  0.6825300E-03  0.9118800E+02  0.7818608E-02  0.1180000E+00
       11   -1    0    0    0    0  0.00000000000E+00  0.00000000000E+00  0.39999999673E+01  0.40000000000E+01  0.51109989000E-03 0. -1.
     -623   -1    0    0    0    0  0.00000000000E+00  0.00000000000E+00  0.12525980253E-10  0.17130000000E+03  0.17130000000E+03 0.  1.
       11    1    1    2    0    0 -0.48277794111E-01  0.14599467075E-01 -0.12358059783E+00  0.13347777054E+00  0.51109989000E-03 0. -1.
     -623    1    1    2    0    0  0.24635915493E+00 -0.56873009016E-01  0.11036385830E+01  0.17130374177E+03  0.17130000000E+03 0.  1.
      622    1    1    2    0    0 -0.19808136082E+00  0.42273541941E-01  0.30199419821E+01  0.38627804563E+01  0.24000000000E+01 0. -1.
</event>
<event>
 5   0  0.6825300E-03  0.9118800E+02  0.7818608E-02  0.1180000E+00
       11   -1    0    0    0    0  0.00000000000E+00  0.00000000000E+00  0.39999999673E+01  0.40000000000E+01  0.51109989000E-03 0. -1.
     -623   -1    0    0    0    0  0.00000000000E+00  0.00000000000E+00  0.12525980253E-10  0.17130000000E+03  0.17130000000E+03 0. -1.
       11    1    1    2    0    0  0.29761746572E+00  0.26323103237E+00  0.36784969520E+00  0.54146134837E+00  0.51109989000E-03 0. -1.
     -623    1    1    2    0    0  0.18193644115E+00  0.44284912623E-01  0.12141970116E+01  0.17130440548E+03  0.17130000000E+03 0. -1.
      622    1    1    2    0    0 -0.47955390686E+00 -0.30751594499E+00  0.24179532606E+01  0.34541331729E+01  0.24000000000E+01 0. -1.
</event>
<event>
 5   0  0.6825300E-03  0.9118800E+02  0.7818608E-02  0.1180000E+00
       11   -1    0    0    0    0  0.00000000000E+00  0.00000000000E+00  0.39999999673E+01  0.40000000000E+01  0.51109989000E-03 0. -1.
     -623   -1    0    0    0    0  0.00000000000E+00  0.00000000000E+00  0.12525980253E-10  0.17130000000E+03  0.17130000000E+03 0.  1.
       11    1    1    2    0    0 -0.27034164079E+00 -0.35610466650E+00  0.57899468580E+00  0.73152596922E+00  0.51109989000E-03 0. -1.
     -623    1    1    2    0    0  0.33859432802E+00  0.34818969971E+00  0.12106294945E+01  0.17130496638E+03  0.17130000000E+03 0.  1.
      622    1    1    2    0    0 -0.68252687232E-01  0.79149667840E-02  0.22103757871E+01  0.32635076522E+01  0.24000000000E+01 0. -1.
</event>
<event>
 5   0  0.6825300E-03  0.9118800E+02  0.7818608E-02  0.1180000E+00
       11   -1    0    0    0    0  0.00000000000E+00  0.00000000000E+00  0.39999999673E+01  0.40000000000E+01  0.51109989000E-03 0.  1.
     -623   -1    0    0    0    0  0.00000000000E+00  0.00000000000E+00  0.12525980253E-10  0.17130000000E+03  0.17130000000E+03 0.  1.
       11    1    1    2    0    0  0.91591402376E-01  0.60143725972E-02  0.70600628077E-01  0.11580098262E+00  0.51109989000E-03 0.  1.
     -623    1    1    2    0    0 -0.86684091459E-01 -0.16512109305E-01  0.87830038654E+00  0.17130227435E+03  0.17130000000E+03 0.  1.
      622    1    1    2    0    0 -0.49073109169E-02  0.10497736707E-01  0.30510989527E+01  0.38819246649E+01  0.24000000000E+01 0.  1.
</event>
<event>
 5   0  0.6825300E-03  0.9118800E+02  0.7818608E-02  0.1180000E+00
       11   -1    0    0    0    0  0.00000000000E+00  0.00000000000E+00  0.39999999673E+01  0.40000000000E+01  0.51109989000E-03 0. -1.
     -623   -1    0    0    0    0  0.00000000000E+00  0.00000000000E+00  0.12525980253E-10  0.17130000000E+03  0.17130000000E+03 0.  1.
       11    1    1    2    0    0  0.36519236089E-01 -0.16587478114E-01 -0.28696911017E+00  0.28975909037E+00  0.51109989000E-03 0. -1.
     -623    1    1    2    0    0  0.13617305115E+00 -0.14920105467E+00  0.14761790943E+01  0.17130647947E+03  0.17130000000E+03 0.  1.
      622    1    1    2    0    0 -0.17269228724E+00  0.16578853278E+00  0.28107899833E+01  0.37037614386E+01  0.24000000000E+01 0. -1.
</event>
<event>
 5   0  0.6825300E-03  0.9118800E+02  0.7818608E-02  0.1180000E+00
       11   -1    0    0    0    0  0.00000000000E+00  0.00000000000E+00  0.39999999673E+01  0.40000000000E+01  0.51109989000E-03 0.  1.
     -623   -1    0    0    0    0  0.00000000000E+00  0.00000000000E+00  0.12525980253E-10  0.17130000000E+03  0.17130000000E+03 0. -1.
       11    1    1    2    0    0 -0.14269727922E+00  0.36875266352E+00  0.19872552497E+00  0.44253037845E+00  0.51109989000E-03 0.  1.
     -623    1    1    2    0    0 -0.58891806205E-01 -0.45960948711E+00  0.11911411192E+01  0.17130476796E+03  0.17130000000E+03 0. -1.
      622    1    1    2    0    0  0.20158908543E+00  0.90856823587E-01  0.26101333232E+01  0.35527016602E+01  0.24000000000E+01 0.  1.
</event>
<event>
 5   0  0.6825300E-03  0.9118800E+02  0.7818608E-02  0.1180000E+00
       11   -1    0    0    0    0  0.00000000000E+00  0.00000000000E+00  0.39999999673E+01  0.40000000000E+01  0.51109989000E-03 0.  1.
     -623   -1    0    0    0    0  0.00000000000E+00  0.00000000000E+00  0.12525980253E-10  0.17130000000E+03  0.17130000000E+03 0.  1.
       11    1    1    2    0    0  0.28277118158E+00 -0.72997517584E-01  0.11419918876E+00  0.31357597906E+00  0.51109989000E-03 0.  1.
     -623    1    1    2    0    0 -0.50443774346E+00  0.43975604414E+00  0.11273388493E+01  0.17130501667E+03  0.17130000000E+03 0.  1.
      622    1    1    2    0    0  0.22166656188E+00 -0.36675852656E+00  0.27584619293E+01  0.36814073527E+01  0.24000000000E+01 0.  1.
</event>
<event>
 5   0  0.6825300E-03  0.9118800E+02  0.7818608E-02  0.1180000E+00
       11   -1    0    0    0    0  0.00000000000E+00  0.00000000000E+00  0.39999999673E+01  0.40000000000E+01  0.51109989000E-03 0. -1.
     -623   -1    0    0    0    0  0.00000000000E+00  0.00000000000E+00  0.12525980253E-10  0.17130000000E+03  0.17130000000E+03 0. -1.
       11    1    1    2    0    0  0.25468287999E-01 -0.80072329089E-01  0.17008275576E+00  0.18970665937E+00  0.51109989000E-03 0. -1.
     -623    1    1    2    0    0 -0.12115169090E+00  0.59302755913E-01  0.87503688206E+00  0.17130228803E+03  0.17130000000E+03 0. -1.
      622    1    1    2    0    0  0.95683402897E-01  0.20769573175E-01  0.29548803295E+01  0.38080053113E+01  0.24000000000E+01 0. -1.
</event>
<event>
 5   0  0.6825300E-03  0.9118800E+02  0.7818608E-02  0.1180000E+00
       11   -1    0    0    0    0  0.00000000000E+00  0.00000000000E+00  0.39999999673E+01  0.40000000000E+01  0.51109989000E-03 0. -1.
     -623   -1    0    0    0    0  0.00000000000E+00  0.00000000000E+00  0.12525980253E-10  0.17130000000E+03  0.17130000000E+03 0.  1.
       11    1    1    2    0    0  0.11393377767E+00  0.64526271159E-01  0.58842904362E-01  0.14355240848E+00  0.51109989000E-03 0. -1.
     -623    1    1    2    0    0 -0.19384283844E+00 -0.37352544533E-01  0.92704925565E+00  0.17130262225E+03  0.17130000000E+03 0.  1.
      622    1    1    2    0    0  0.79909060769E-01 -0.27173726626E-01  0.30141078073E+01  0.38538253390E+01  0.24000000000E+01 0. -1.
</event>
<event>
 5   0  0.6825300E-03  0.9118800E+02  0.7818608E-02  0.1180000E+00
       11   -1    0    0    0    0  0.00000000000E+00  0.00000000000E+00  0.39999999673E+01  0.40000000000E+01  0.51109989000E-03 0. -1.
     -623   -1    0    0    0    0  0.00000000000E+00  0.00000000000E+00  0.12525980253E-10  0.17130000000E+03  0.17130000000E+03 0.  1.
       11    1    1    2    0    0 -0.85232914841E-01  0.98499061616E-01 -0.86549287165E-01  0.15638975428E+00  0.51109989000E-03 0. -1.
     -623    1    1    2    0    0  0.13054498866E+00 -0.30358291740E+00  0.10965978074E+01  0.17130382871E+03  0.17130000000E+03 0.  1.
      622    1    1    2    0    0 -0.45312073817E-01  0.20508385578E+00  0.29899514471E+01  0.38397815339E+01  0.24000000000E+01 0. -1.
</event>
<event>
 5   0  0.6825300E-03  0.9118800E+02  0.7818608E-02  0.1180000E+00
       11   -1    0    0    0    0  0.00000000000E+00  0.00000000000E+00  0.39999999673E+01  0.40000000000E+01  0.51109989000E-03 0. -1.
     -623   -1    0    0    0    0  0.00000000000E+00  0.00000000000E+00  0.12525980253E-10  0.17130000000E+03  0.17130000000E+03 0.  1.
       11    1    1    2    0    0 -0.20869621635E+00 -0.15898226266E+00  0.29234595872E-02  0.26237049834E+00  0.51109989000E-03 0. -1.
     -623    1    1    2    0    0  0.98797614704E-01 -0.12102613131E+00  0.11528053513E+01  0.17130395024E+03  0.17130000000E+03 0.  1.
      622    1    1    2    0    0  0.10989860165E+00  0.28000839397E+00  0.28442711565E+01  0.37336792598E+01  0.24000000000E+01 0. -1.
</event>
<event>
 5   0  0.6825300E-03  0.9118800E+02  0.7818608E-02  0.1180000E+00
       11   -1    0    0    0    0  0.00000000000E+00  0.00000000000E+00  0.39999999673E+01  0.40000000000E+01  0.51109989000E-03 0.  1.
     -623   -1    0    0    0    0  0.00000000000E+00  0.00000000000E+00  0.12525980253E-10  0.17130000000E+03  0.17130000000E+03 0.  1.
       11    1    1    2    0    0 -0.25357345576E+00  0.29433095198E+00  0.41309695656E+00  0.56707985637E+00  0.51109989000E-03 0.  1.
     -623    1    1    2    0    0  0.16614184497E+01 -0.31420573899E+00  0.16034839690E+01  0.17131584923E+03  0.17130000000E+03 0.  1.
      622    1    1    2    0    0 -0.14078449940E+01  0.19874787004E-01  0.19834190418E+01  0.34170709138E+01  0.24000000000E+01 0.  1.
</event>
<event>
 5   0  0.6825300E-03  0.9118800E+02  0.7818608E-02  0.1180000E+00
       11   -1    0    0    0    0  0.00000000000E+00  0.00000000000E+00  0.39999999673E+01  0.40000000000E+01  0.51109989000E-03 0. -1.
     -623   -1    0    0    0    0  0.00000000000E+00  0.00000000000E+00  0.12525980253E-10  0.17130000000E+03  0.17130000000E+03 0.  1.
       11    1    1    2    0    0  0.92017430333E-02  0.12877353931E+00 -0.40259628725E-01  0.13523459406E+00  0.51109989000E-03 0. -1.
     -623    1    1    2    0    0  0.65544611686E-01  0.25295084856E+00  0.10403994305E+01  0.17130335873E+03  0.17130000000E+03 0.  1.
      622    1    1    2    0    0 -0.74746354719E-01 -0.38172438787E+00  0.29998601656E+01  0.38614066788E+01  0.24000000000E+01 0. -1.
</event>
<event>
 5   0  0.6825300E-03  0.9118800E+02  0.7818608E-02  0.1180000E+00
       11   -1    0    0    0    0  0.00000000000E+00  0.00000000000E+00  0.39999999673E+01  0.40000000000E+01  0.51109989000E-03 0.  1.
     -623   -1    0    0    0    0  0.00000000000E+00  0.00000000000E+00  0.12525980253E-10  0.17130000000E+03  0.17130000000E+03 0.  1.
       11    1    1    2    0    0  0.52107850630E+00  0.35449273393E+00  0.18872642307E+00  0.65787980067E+00  0.51109989000E-03 0.  1.
     -623    1    1    2    0    0 -0.29856163210E+00 -0.15051654366E+00  0.15152506422E+01  0.17130702781E+03  0.17130000000E+03 0.  1.
      622    1    1    2    0    0 -0.22251687420E+00 -0.20397619028E+00  0.22960229021E+01  0.33350923844E+01  0.24000000000E+01 0.  1.
</event>
<event>
 5   0  0.6825300E-03  0.9118800E+02  0.7818608E-02  0.1180000E+00
       11   -1    0    0    0    0  0.00000000000E+00  0.00000000000E+00  0.39999999673E+01  0.40000000000E+01  0.51109989000E-03 0.  1.
     -623   -1    0    0    0    0  0.00000000000E+00  0.00000000000E+00  0.12525980253E-10  0.17130000000E+03  0.17130000000E+03 0.  1.
       11    1    1    2    0    0 -0.39272797741E+00  0.82095963454E-01  0.70106549835E+00  0.80775497872E+00  0.51109989000E-03 0.  1.
     -623    1    1    2    0    0  0.45517390723E-01 -0.26075315640E+00  0.12378383245E+01  0.17130467684E+03  0.17130000000E+03 0.  1.
      622    1    1    2    0    0  0.34721058668E+00  0.17865719294E+00  0.20610961445E+01  0.31875681798E+01  0.24000000000E+01 0.  1.
</event>
<event>
 5   0  0.6825300E-03  0.9118800E+02  0.7818608E-02  0.1180000E+00
       11   -1    0    0    0    0  0.00000000000E+00  0.00000000000E+00  0.39999999673E+01  0.40000000000E+01  0.51109989000E-03 0. -1.
     -623   -1    0    0    0    0  0.00000000000E+00  0.00000000000E+00  0.12525980253E-10  0.17130000000E+03  0.17130000000E+03 0. -1.
       11    1    1    2    0    0  0.34124680040E-01  0.34638409211E-02  0.10489187488E-01  0.35871663733E-01  0.51109989000E-03 0. -1.
     -623    1    1    2    0    0 -0.34415597439E+00 -0.35214014523E-01  0.85301847884E+00  0.17130247320E+03  0.17130000000E+03 0. -1.
      622    1    1    2    0    0  0.31003129435E+00  0.31750173602E-01  0.31364923010E+01  0.39616551379E+01  0.24000000000E+01 0. -1.
</event>
<event>
 5   0  0.6825300E-03  0.9118800E+02  0.7818608E-02  0.1180000E+00
       11   -1    0    0    0    0  0.00000000000E+00  0.00000000000E+00  0.39999999673E+01  0.40000000000E+01  0.51109989000E-03 0.  1.
     -623   -1    0    0    0    0  0.00000000000E+00  0.00000000000E+00  0.12525980253E-10  0.17130000000E+03  0.17130000000E+03 0.  1.
       11    1    1    2    0    0 -0.29757012034E+00  0.10908617299E+00  0.34577164769E-01  0.31881595193E+00  0.51109989000E-03 0.  1.
     -623    1    1    2    0    0  0.86806222474E+00  0.15187541533E-01  0.12449908906E+01  0.17130672423E+03  0.17130000000E+03 0.  1.
      622    1    1    2    0    0 -0.57049210440E+00 -0.12427371452E+00  0.27204319119E+01  0.36744598222E+01  0.24000000000E+01 0.  1.
</event>
<event>
 5   0  0.6825300E-03  0.9118800E+02  0.7818608E-02  0.1180000E+00
       11   -1    0    0    0    0  0.00000000000E+00  0.00000000000E+00  0.39999999673E+01  0.40000000000E+01  0.51109989000E-03 0. -1.
     -623   -1    0    0    0    0  0.00000000000E+00  0.00000000000E+00  0.12525980253E-10  0.17130000000E+03  0.17130000000E+03 0. -1.
       11    1    1    2    0    0 -0.13675071762E+00 -0.18651470814E-01  0.86949782610E-01  0.16312314996E+00  0.51109989000E-03 0. -1.
     -623    1    1    2    0    0  0.34200248625E+00 -0.45652345063E+00  0.96934777482E+00  0.17130369236E+03  0.17130000000E+03 0. -1.
      622    1    1    2    0    0 -0.20525176862E+00  0.47517492145E+00  0.29437024099E+01  0.38331844950E+01  0.24000000000E+01 0. -1.
</event>
<event>
 5   0  0.6825300E-03  0.9118800E+02  0.7818608E-02  0.1180000E+00
       11   -1    0    0    0    0  0.00000000000E+00  0.00000000000E+00  0.39999999673E+01  0.40000000000E+01  0.51109989000E-03 0. -1.
     -623   -1    0    0    0    0  0.00000000000E+00  0.00000000000E+00  0.12525980253E-10  0.17130000000E+03  0.17130000000E+03 0. -1.
       11    1    1    2    0    0 -0.84915066048E-01 -0.43954368899E+00  0.47153369140E+00  0.65019497562E+00  0.51109989000E-03 0. -1.
     -623    1    1    2    0    0  0.18420000523E+00 -0.53698922324E-01  0.12532439365E+01  0.17130469180E+03  0.17130000000E+03 0. -1.
      622    1    1    2    0    0 -0.99284939185E-01  0.49324261132E+00  0.22752223394E+01  0.33451132218E+01  0.24000000000E+01 0. -1.
</event>
<event>
 5   0  0.6825300E-03  0.9118800E+02  0.7818608E-02  0.1180000E+00
       11   -1    0    0    0    0  0.00000000000E+00  0.00000000000E+00  0.39999999673E+01  0.40000000000E+01  0.51109989000E-03 0.  1.
     -623   -1    0    0    0    0  0.00000000000E+00  0.00000000000E+00  0.12525980253E-10  0.17130000000E+03  0.17130000000E+03 0. -1.
       11    1    1    2    0    0 -0.20709229236E+00  0.16607260592E+00  0.50046809960E-01  0.27013380462E+00  0.51109989000E-03 0.  1.
     -623    1    1    2    0    0  0.12409858796E+00 -0.36378165700E+00  0.11081249388E+01  0.17130401536E+03  0.17130000000E+03 0. -1.
      622    1    1    2    0    0  0.82993704403E-01  0.19770905108E+00  0.28418282186E+01  0.37258508355E+01  0.24000000000E+01 0.  1.
</event>
<event>
 5   0  0.6825300E-03  0.9118800E+02  0.7818608E-02  0.1180000E+00
       11   -1    0    0    0    0  0.00000000000E+00  0.00000000000E+00  0.39999999673E+01  0.40000000000E+01  0.51109989000E-03 0.  1.
     -623   -1    0    0    0    0  0.00000000000E+00  0.00000000000E+00  0.12525980253E-10  0.17130000000E+03  0.17130000000E+03 0. -1.
       11    1    1    2    0    0  0.97320021007E-01  0.84510209240E-02  0.10039460306E+00  0.14007834875E+00  0.51109989000E-03 0.  1.
     -623    1    1    2    0    0 -0.43523055729E+00 -0.31286443846E+00  0.91517769327E+00  0.17130328327E+03  0.17130000000E+03 0. -1.
      622    1    1    2    0    0  0.33791053628E+00  0.30441341754E+00  0.29844276710E+01  0.38566383786E+01  0.24000000000E+01 0.  1.
</event>
<event>
 5   0  0.6825300E-03  0.9118800E+02  0.7818608E-02  0.1180000E+00
       11   -1    0    0    0    0  0.00000000000E+00  0.00000000000E+00  0.39999999673E+01  0.40000000000E+01  0.51109989000E-03 0.  1.
     -623   -1    0    0    0    0  0.00000000000E+00  0.00000000000E+00  0.12525980253E-10  0.17130000000E+03  0.17130000000E+03 0.  1.
       11    1    1    2    0    0 -0.21520674972E+00 -0.44134830443E-01  0.12712443011E+00  0.25381629250E+00  0.51109989000E-03 0.  1.
     -623    1    1    2    0    0  0.39351899881E+00 -0.74189241548E-01  0.10089025285E+01  0.17130343909E+03  0.17130000000E+03 0.  1.
      622    1    1    2    0    0 -0.17831224909E+00  0.11832407199E+00  0.28639730088E+01  0.37427446131E+01  0.24000000000E+01 0.  1.
</event>
<event>
 5   0  0.6825300E-03  0.9118800E+02  0.7818608E-02  0.1180000E+00
       11   -1    0    0    0    0  0.00000000000E+00  0.00000000000E+00  0.39999999673E+01  0.40000000000E+01  0.51109989000E-03 0.  1.
     -623   -1    0    0    0    0  0.00000000000E+00  0.00000000000E+00  0.12525980253E-10  0.17130000000E+03  0.17130000000E+03 0.  1.
       11    1    1    2    0    0  0.17046574038E+00 -0.20878252284E+00  0.29679363327E+00  0.40091823662E+00  0.51109989000E-03 0.  1.
     -623    1    1    2    0    0 -0.29610643202E+00  0.55692855268E+00  0.10527776154E+01  0.17130439629E+03  0.17130000000E+03 0.  1.
      622    1    1    2    0    0  0.12564069165E+00 -0.34814602984E+00  0.26504287187E+01  0.35946854709E+01  0.24000000000E+01 0.  1.
</event>
<event>
 5   0  0.6825300E-03  0.9118800E+02  0.7818608E-02  0.1180000E+00
       11   -1    0    0    0    0  0.00000000000E+00  0.00000000000E+00  0.39999999673E+01  0.40000000000E+01  0.51109989000E-03 0. -1.
     -623   -1    0    0    0    0  0.00000000000E+00  0.00000000000E+00  0.12525980253E-10  0.17130000000E+03  0.17130000000E+03 0.  1.
       11    1    1    2    0    0 -0.12487501152E+00 -0.80458233961E-01  0.26818488671E+00  0.30657901200E+00  0.51109989000E-03 0. -1.
     -623    1    1    2    0    0 -0.10277203497E+00  0.40511065606E+00  0.95681213402E+00  0.17130318201E+03  0.17130000000E+03 0.  1.
      622    1    1    2    0    0  0.22764704649E+00 -0.32465242210E+00  0.27750029466E+01  0.36902389796E+01  0.24000000000E+01 0.  0.
</event>
<event>
 5   0  0.6825300E-03  0.9118800E+02  0.7818608E-02  0.1180000E+00
       11   -1    0    0    0    0  0.00000000000E+00  0.00000000000E+00  0.39999999673E+01  0.40000000000E+01  0.51109989000E-03 0. -1.
     -623   -1    0    0    0    0  0.00000000000E+00  0.00000000000E+00  0.12525980253E-10  0.17130000000E+03  0.17130000000E+03 0. -1.
       11    1    1    2    0    0  0.11105660645E+00 -0.37656321767E-01  0.19952584784E+00  0.23143550632E+00  0.51109989000E-03 0. -1.
     -623    1    1    2    0    0 -0.27956117412E+00  0.93738630644E-01  0.90381005193E+00  0.17130263808E+03  0.17130000000E+03 0. -1.
      622    1    1    2    0    0  0.16850456767E+00 -0.56082308877E-01  0.28966640676E+01  0.37659264113E+01  0.24000000000E+01 0. -1.
</event>
<event>
 5   0  0.6825300E-03  0.9118800E+02  0.7818608E-02  0.1180000E+00
       11   -1    0    0    0    0  0.00000000000E+00  0.00000000000E+00  0.39999999673E+01  0.40000000000E+01  0.51109989000E-03 0. -1.
     -623   -1    0    0    0    0  0.00000000000E+00  0.00000000000E+00  0.12525980253E-10  0.17130000000E+03  0.17130000000E+03 0. -1.
       11    1    1    2    0    0 -0.22455493203E+00 -0.72270825734E-01  0.80677793032E-01  0.24931337161E+00  0.51109989000E-03 0. -1.
     -623    1    1    2    0    0  0.68179563393E-01 -0.50059165963E+00  0.11045857694E+01  0.17130430628E+03  0.17130000000E+03 0. -1.
      622    1    1    2    0    0  0.15637536864E+00  0.57286248536E+00  0.28147364049E+01  0.37463803481E+01  0.24000000000E+01 0. -1.
</event>
<event>
 5   0  0.6825300E-03  0.9118800E+02  0.7818608E-02  0.1180000E+00
       11   -1    0    0    0    0  0.00000000000E+00  0.00000000000E+00  0.39999999673E+01  0.40000000000E+01  0.51109989000E-03 0. -1.
     -623   -1    0    0    0    0  0.00000000000E+00  0.00000000000E+00  0.12525980253E-10  0.17130000000E+03  0.17130000000E+03 0.  1.
       11    1    1    2    0    0  0.30948826033E+00 -0.17032676830E+00  0.43708815773E-01  0.35595633592E+00  0.51109989000E-03 0. -1.
     -623    1    1    2    0    0 -0.10257968218E+01  0.12604277705E+00  0.13211035545E+01  0.17130821189E+03  0.17130000000E+03 0.  1.
      622    1    1    2    0    0  0.71630856146E+00  0.44283991256E-01  0.26351875971E+01  0.36358317754E+01  0.24000000000E+01 0. -1.
</event>
<event>
 5   0  0.6825300E-03  0.9118800E+02  0.7818608E-02  0.1180000E+00
       11   -1    0    0    0    0  0.00000000000E+00  0.00000000000E+00  0.39999999673E+01  0.40000000000E+01  0.51109989000E-03 0.  1.
     -623   -1    0    0    0    0  0.00000000000E+00  0.00000000000E+00  0.12525980253E-10  0.17130000000E+03  0.17130000000E+03 0.  1.
       11    1    1    2    0    0  0.12833205065E+00  0.23037685383E-01  0.33551751592E-01  0.13463220799E+00  0.51109989000E-03 0.  1.
     -623    1    1    2    0    0 -0.79230569773E+00 -0.49579789056E+00  0.10557998151E+01  0.17130580340E+03  0.17130000000E+03 0.  1.
      622    1    1    2    0    0  0.66397364708E+00  0.47276020518E+00  0.29106484006E+01  0.38595643961E+01  0.24000000000E+01 0.  1.
</event>
<event>
 5   0  0.6825300E-03  0.9118800E+02  0.7818608E-02  0.1180000E+00
       11   -1    0    0    0    0  0.00000000000E+00  0.00000000000E+00  0.39999999673E+01  0.40000000000E+01  0.51109989000E-03 0. -1.
     -623   -1    0    0    0    0  0.00000000000E+00  0.00000000000E+00  0.12525980253E-10  0.17130000000E+03  0.17130000000E+03 0.  1.
       11    1    1    2    0    0  0.20424474689E+00 -0.11676995671E+00  0.70526849859E-02  0.23537446975E+00  0.51109989000E-03 0. -1.
     -623    1    1    2    0    0 -0.44709738047E+00 -0.13419218168E+00  0.11192483968E+01  0.17130429248E+03  0.17130000000E+03 0.  1.
      622    1    1    2    0    0  0.24285263358E+00  0.25096213839E+00  0.28736988856E+01  0.37603330546E+01  0.24000000000E+01 0. -1.
</event>
<event>
 5   0  0.6825300E-03  0.9118800E+02  0.7818608E-02  0.1180000E+00
       11   -1    0    0    0    0  0.00000000000E+00  0.00000000000E+00  0.39999999673E+01  0.40000000000E+01  0.51109989000E-03 0.  1.
     -623   -1    0    0    0    0  0.00000000000E+00  0.00000000000E+00  0.12525980253E-10  0.17130000000E+03  0.17130000000E+03 0.  1.
       11    1    1    2    0    0 -0.16117622475E+00 -0.93921376782E-02  0.68018396369E-01  0.17519346775E+00  0.51109989000E-03 0.  1.
     -623    1    1    2    0    0  0.31654204195E+00 -0.13324939859E+00  0.96529477266E+00  0.17130306404E+03  0.17130000000E+03 0.  1.
      622    1    1    2    0    0 -0.15536581720E+00  0.14264153627E+00  0.29666867983E+01  0.38217424958E+01  0.24000000000E+01 0.  1.
</event>
<event>
 5   0  0.6825300E-03  0.9118800E+02  0.7818608E-02  0.1180000E+00
       11   -1    0    0    0    0  0.00000000000E+00  0.00000000000E+00  0.39999999673E+01  0.40000000000E+01  0.51109989000E-03 0.  1.
     -623   -1    0    0    0    0  0.00000000000E+00  0.00000000000E+00  0.12525980253E-10  0.17130000000E+03  0.17130000000E+03 0. -1.
       11    1    1    2    0    0  0.19811505873E+00 -0.14578796530E-03 -0.61155188358E-01  0.20733985636E+00  0.51109989000E-03 0.  1.
     -623    1    1    2    0    0 -0.75122522451E-01 -0.12842589263E+00  0.11347876578E+01  0.17130382331E+03  0.17130000000E+03 0. -1.
      622    1    1    2    0    0 -0.12299253628E+00  0.12857168060E+00  0.29263674979E+01  0.37888368365E+01  0.24000000000E+01 0.  1.
</event>
<event>
 5   0  0.6825300E-03  0.9118800E+02  0.7818608E-02  0.1180000E+00
       11   -1    0    0    0    0  0.00000000000E+00  0.00000000000E+00  0.39999999673E+01  0.40000000000E+01  0.51109989000E-03 0. -1.
     -623   -1    0    0    0    0  0.00000000000E+00  0.00000000000E+00  0.12525980253E-10  0.17130000000E+03  0.17130000000E+03 0. -1.
       11    1    1    2    0    0 -0.26791384763E+00 -0.66277893432E-01  0.34760456461E+00  0.44384657650E+00  0.51109989000E-03 0. -1.
     -623    1    1    2    0    0  0.15987853637E+00  0.81525819120E-01  0.10348713596E+01  0.17130321995E+03  0.17130000000E+03 0. -1.
      622    1    1    2    0    0  0.10803531126E+00 -0.15247925688E-01  0.26175240432E+01  0.35529334703E+01  0.24000000000E+01 0. -1.
</event>
<event>
 5   0  0.6825300E-03  0.9118800E+02  0.7818608E-02  0.1180000E+00
       11   -1    0    0    0    0  0.00000000000E+00  0.00000000000E+00  0.39999999673E+01  0.40000000000E+01  0.51109989000E-03 0. -1.
     -623   -1    0    0    0    0  0.00000000000E+00  0.00000000000E+00  0.12525980253E-10  0.17130000000E+03  0.17130000000E+03 0. -1.
       11    1    1    2    0    0 -0.95127826386E-01  0.15678624010E-01 -0.27935813850E-01  0.10037825224E+00  0.51109989000E-03 0. -1.
     -623    1    1    2    0    0  0.33312296300E-01  0.51430060901E-01  0.95910768577E+00  0.17130269596E+03  0.17130000000E+03 0. -1.
      622    1    1    2    0    0  0.61815530086E-01 -0.67108684911E-01  0.30688280954E+01  0.38969257902E+01  0.24000000000E+01 0. -1.
</event>
<event>
 5   0  0.6825300E-03  0.9118800E+02  0.7818608E-02  0.1180000E+00
       11   -1    0    0    0    0  0.00000000000E+00  0.00000000000E+00  0.39999999673E+01  0.40000000000E+01  0.51109989000E-03 0.  1.
     -623   -1    0    0    0    0  0.00000000000E+00  0.00000000000E+00  0.12525980253E-10  0.17130000000E+03  0.17130000000E+03 0.  1.
       11    1    1    2    0    0 -0.89843724472E-01  0.44479152030E-01  0.32392605816E+00  0.33908500729E+00  0.51109989000E-03 0.  1.
     -623    1    1    2    0    0  0.18918814612E+00  0.43097531364E-01  0.91818626664E+00  0.17130257066E+03  0.17130000000E+03 0.  1.
      622    1    1    2    0    0 -0.99344421643E-01 -0.87576683394E-01  0.27578876426E+01  0.36583443302E+01  0.24000000000E+01 0.  1.
</event>
<event>
 5   0  0.6825300E-03  0.9118800E+02  0.7818608E-02  0.1180000E+00
       11   -1    0    0    0    0  0.00000000000E+00  0.00000000000E+00  0.39999999673E+01  0.40000000000E+01  0.51109989000E-03 0. -1.
     -623   -1    0    0    0    0  0.00000000000E+00  0.00000000000E+00  0.12525980253E-10  0.17130000000E+03  0.17130000000E+03 0. -1.
       11    1    1    2    0    0  0.22272778751E+00  0.60712307363E-01  0.28021157371E+00  0.36305982821E+00  0.51109989000E-03 0. -1.
     -623    1    1    2    0    0 -0.51862453778E+00  0.16089334160E-01  0.10093365838E+01  0.17130375942E+03  0.17130000000E+03 0. -1.
      622    1    1    2    0    0  0.29589675027E+00 -0.76801641522E-01  0.27104518098E+01  0.36331807541E+01  0.24000000000E+01 0. -1.
</event>
<event>
 5   0  0.6825300E-03  0.9118800E+02  0.7818608E-02  0.1180000E+00
       11   -1    0    0    0    0  0.00000000000E+00  0.00000000000E+00  0.39999999673E+01  0.40000000000E+01  0.51109989000E-03 0. -1.
     -623   -1    0    0    0    0  0.00000000000E+00  0.00000000000E+00  0.12525980253E-10  0.17130000000E+03  0.17130000000E+03 0. -1.
       11    1    1    2    0    0 -0.54181863916E-01  0.37832143540E-01 -0.31063661243E-01  0.73021625120E-01  0.51109989000E-03 0. -1.
     -623    1    1    2    0    0  0.13162574171E+00 -0.31074420687E-02  0.92721825852E+00  0.17130256002E+03  0.17130000000E+03 0. -1.
      622    1    1    2    0    0 -0.77443877794E-01 -0.34724701471E-01  0.31038453701E+01  0.39244183570E+01  0.24000000000E+01 0. -1.
</event>
<event>
 5   0  0.6825300E-03  0.9118800E+02  0.7818608E-02  0.1180000E+00
       11   -1    0    0    0    0  0.00000000000E+00  0.00000000000E+00  0.39999999673E+01  0.40000000000E+01  0.51109989000E-03 0.  1.
     -623   -1    0    0    0    0  0.00000000000E+00  0.00000000000E+00  0.12525980253E-10  0.17130000000E+03  0.17130000000E+03 0.  1.
       11    1    1    2    0    0  0.35106079942E-01 -0.34935765874E-01  0.27692069965E-01  0.56745542099E-01  0.51109989000E-03 0.  1.
     -623    1    1    2    0    0  0.20786124065E+00  0.44153517032E-01  0.85586093979E+00  0.17130226984E+03  0.17130000000E+03 0.  1.
      622    1    1    2    0    0 -0.24296732059E+00 -0.92177511581E-02  0.31164469576E+01  0.39409846137E+01  0.24000000000E+01 0.  1.
</event>
<event>
 5   0  0.6825300E-03  0.9118800E+02  0.7818608E-02  0.1180000E+00
       11   -1    0    0    0    0  0.00000000000E+00  0.00000000000E+00  0.39999999673E+01  0.40000000000E+01  0.51109989000E-03 0.  1.
     -623   -1    0    0    0    0  0.00000000000E+00  0.00000000000E+00  0.12525980253E-10  0.17130000000E+03  0.17130000000E+03 0. -1.
       11    1    1    2    0    0 -0.36920568694E+00  0.21215479018E+00  0.39161869921E+00  0.57852222175E+00  0.51109989000E-03 0.  1.
     -623    1    1    2    0    0  0.34624935015E+00  0.15404556068E+00  0.12042036247E+01  0.17130465179E+03  0.17130000000E+03 0. -1.
      622    1    1    2    0    0  0.22956336795E-01 -0.36620035086E+00  0.24041776434E+01  0.34168259879E+01  0.24000000000E+01 0.  1.
</event>
<event>
 5   0  0.6825300E-03  0.9118800E+02  0.7818608E-02  0.1180000E+00
       11   -1    0    0    0    0  0.00000000000E+00  0.00000000000E+00  0.39999999673E+01  0.40000000000E+01  0.51109989000E-03 0.  1.
     -623   -1    0    0    0    0  0.00000000000E+00  0.00000000000E+00  0.12525980253E-10  0.17130000000E+03  0.17130000000E+03 0. -1.
       11    1    1    2    0    0 -0.17185328107E+00  0.93275129659E-01 -0.45698536422E-01  0.20080442595E+00  0.51109989000E-03 0.  1.
     -623    1    1    2    0    0  0.12205469517E+00  0.22517622583E+00  0.11232727028E+01  0.17130387428E+03  0.17130000000E+03 0. -1.
      622    1    1    2    0    0  0.49798585900E-01 -0.31845135549E+00  0.29224258010E+01  0.37953212943E+01  0.24000000000E+01 0.  1.
</event>
<event>
 5   0  0.6825300E-03  0.9118800E+02  0.7818608E-02  0.1180000E+00
       11   -1    0    0    0    0  0.00000000000E+00  0.00000000000E+00  0.39999999673E+01  0.40000000000E+01  0.51109989000E-03 0. -1.
     -623   -1    0    0    0    0  0.00000000000E+00  0.00000000000E+00  0.12525980253E-10  0.17130000000E+03  0.17130000000E+03 0.  1.
       11    1    1    2    0    0  0.90935123913E-01 -0.69849977673E-01 -0.55129923086E-01  0.12723122960E+00  0.51109989000E-03 0. -1.
     -623    1    1    2    0    0  0.22544734397E+00 -0.28851401028E+00  0.10582179958E+01  0.17130365989E+03  0.17130000000E+03 0.  1.
      622    1    1    2    0    0 -0.31638246788E+00  0.35836398795E+00  0.29969118946E+01  0.38691088791E+01  0.24000000000E+01 0. -1.
</event>
<event>
 5   0  0.6825300E-03  0.9118800E+02  0.7818608E-02  0.1180000E+00
       11   -1    0    0    0    0  0.00000000000E+00  0.00000000000E+00  0.39999999673E+01  0.40000000000E+01  0.51109989000E-03 0. -1.
     -623   -1    0    0    0    0  0.00000000000E+00  0.00000000000E+00  0.12525980253E-10  0.17130000000E+03  0.17130000000E+03 0. -1.
       11    1    1    2    0    0  0.17500596736E+00  0.29044725185E+00  0.15774296504E+00  0.37399170974E+00  0.51109989000E-03 0. -1.
     -623    1    1    2    0    0 -0.29696765180E+00 -0.35412213744E+00  0.11335103942E+01  0.17130437367E+03  0.17130000000E+03 0. -1.
      622    1    1    2    0    0  0.12196168445E+00  0.63674885589E-01  0.27087466082E+01  0.36216346214E+01  0.24000000000E+01 0. -1.
</event>
<event>
 5   0  0.6825300E-03  0.9118800E+02  0.7818608E-02  0.1180000E+00
       11   -1    0    0    0    0  0.00000000000E+00  0.00000000000E+00  0.39999999673E+01  0.40000000000E+01  0.51109989000E-03 0. -1.
     -623   -1    0    0    0    0  0.00000000000E+00  0.00000000000E+00  0.12525980253E-10  0.17130000000E+03  0.17130000000E+03 0. -1.
       11    1    1    2    0    0  0.49651223334E+00 -0.32925156960E+00  0.56273932066E+00  0.81951619764E+00  0.51109989000E-03 0. -1.
     -623    1    1    2    0    0  0.25031970618E-01  0.76203652794E+00  0.14764017110E+01  0.17130805903E+03  0.17130000000E+03 0. -1.
      622    1    1    2    0    0 -0.52154420396E+00 -0.43278495834E+00  0.19608589357E+01  0.31724247734E+01  0.24000000000E+01 0. -1.
</event>
<event>
 5   0  0.6825300E-03  0.9118800E+02  0.7818608E-02  0.1180000E+00
       11   -1    0    0    0    0  0.00000000000E+00  0.00000000000E+00  0.39999999673E+01  0.40000000000E+01  0.51109989000E-03 0. -1.
     -623   -1    0    0    0    0  0.00000000000E+00  0.00000000000E+00  0.12525980253E-10  0.17130000000E+03  0.17130000000E+03 0. -1.
       11    1    1    2    0    0  0.22157183448E+00 -0.57657677811E-01  0.66209296240E-01  0.23833257808E+00  0.51109989000E-03 0. -1.
     -623    1    1    2    0    0  0.22612361145E+00 -0.43202923636E+00  0.11200446084E+01  0.17130435570E+03  0.17130000000E+03 0. -1.
      622    1    1    2    0    0 -0.44769544593E+00  0.48968691417E+00  0.28137460627E+01  0.37573117240E+01  0.24000000000E+01 0. -1.
</event>
<event>
 5   0  0.6825300E-03  0.9118800E+02  0.7818608E-02  0.1180000E+00
       11   -1    0    0    0    0  0.00000000000E+00  0.00000000000E+00  0.39999999673E+01  0.40000000000E+01  0.51109989000E-03 0.  1.
     -623   -1    0    0    0    0  0.00000000000E+00  0.00000000000E+00  0.12525980253E-10  0.17130000000E+03  0.17130000000E+03 0. -1.
       11    1    1    2    0    0 -0.20227880404E-01  0.14382812234E+00 -0.15420498482E+00  0.21183751907E+00  0.51109989000E-03 0.  1.
     -623    1    1    2    0    0  0.48305298319E-01 -0.78277423846E+00  0.13028823813E+01  0.17130674993E+03  0.17130000000E+03 0.  1.
      622    1    1    2    0    0 -0.28077417915E-01  0.63894611611E+00  0.28513225709E+01  0.37814125514E+01  0.24000000000E+01 0.  1.
</event>
<event>
 5   0  0.6825300E-03  0.9118800E+02  0.7818608E-02  0.1180000E+00
       11   -1    0    0    0    0  0.00000000000E+00  0.00000000000E+00  0.39999999673E+01  0.40000000000E+01  0.51109989000E-03 0.  1.
     -623   -1    0    0    0    0  0.00000000000E+00  0.00000000000E+00  0.12525980253E-10  0.17130000000E+03  0.17130000000E+03 0.  1.
       11    1    1    2    0    0 -0.26001006227E+00  0.35667783256E+00  0.52426640720E+00  0.68533191642E+00  0.51109989000E-03 0.  1.
     -623    1    1    2    0    0  0.36426305545E+00 -0.24706392378E+00  0.12014237835E+01  0.17130477853E+03  0.17130000000E+03 0.  1.
      622    1    1    2    0    0 -0.10425299318E+00 -0.10961390878E+00  0.22743097767E+01  0.33098895534E+01  0.24000000000E+01 0.  1.
</event>
<event>
 5   0  0.6825300E-03  0.9118800E+02  0.7818608E-02  0.1180000E+00
       11   -1    0    0    0    0  0.00000000000E+00  0.00000000000E+00  0.39999999673E+01  0.40000000000E+01  0.51109989000E-03 0. -1.
     -623   -1    0    0    0    0  0.00000000000E+00  0.00000000000E+00  0.12525980253E-10  0.17130000000E+03  0.17130000000E+03 0. -1.
       11    1    1    2    0    0 -0.24225788982E+00 -0.13842619040E+00  0.84122933983E+00  0.88629439735E+00  0.51109989000E-03 0. -1.
     -623    1    1    2    0    0  0.13703202275E+01 -0.76671858207E+00  0.18407258048E+01  0.17131708586E+03  0.17130000000E+03 0. -1.
      622    1    1    2    0    0 -0.11280623377E+01  0.90514477248E+00  0.13180448227E+01  0.30966197460E+01  0.24000000000E+01 0.  0.
</event>
<event>
 5   0  0.6825300E-03  0.9118800E+02  0.7818608E-02  0.1180000E+00
       11   -1    0    0    0    0  0.00000000000E+00  0.00000000000E+00  0.39999999673E+01  0.40000000000E+01  0.51109989000E-03 0. -1.
     -623   -1    0    0    0    0  0.00000000000E+00  0.00000000000E+00  0.12525980253E-10  0.17130000000E+03  0.17130000000E+03 0.  1.
       11    1    1    2    0    0 -0.30995418979E+00 -0.28229864657E+00  0.64421890280E+00  0.76862369309E+00  0.51109989000E-03 0. -1.
     -623    1    1    2    0    0  0.16599216324E+00  0.16055907781E+00  0.12068779098E+01  0.17130440709E+03  0.17130000000E+03 0.  1.
      622    1    1    2    0    0  0.14396202655E+00  0.12173956876E+00  0.21489031547E+01  0.32269692214E+01  0.24000000000E+01 0. -1.
</event>
<event>
 5   0  0.6825300E-03  0.9118800E+02  0.7818608E-02  0.1180000E+00
       11   -1    0    0    0    0  0.00000000000E+00  0.00000000000E+00  0.39999999673E+01  0.40000000000E+01  0.51109989000E-03 0.  1.
     -623   -1    0    0    0    0  0.00000000000E+00  0.00000000000E+00  0.12525980253E-10  0.17130000000E+03  0.17130000000E+03 0.  1.
       11    1    1    2    0    0  0.12688704144E+00  0.13474387072E-01  0.68918020336E-01  0.14502356753E+00  0.51109989000E-03 0.  1.
     -623    1    1    2    0    0 -0.32198563068E-01  0.39482478538E+00  0.94755352954E+00  0.17130307873E+03  0.17130000000E+03 0.  1.
      622    1    1    2    0    0 -0.94688478374E-01 -0.40829917245E+00  0.29835284175E+01  0.38518977063E+01  0.24000000000E+01 0.  1.
</event>
<event>
 5   0  0.6825300E-03  0.9118800E+02  0.7818608E-02  0.1180000E+00
       11   -1    0    0    0    0  0.00000000000E+00  0.00000000000E+00  0.39999999673E+01  0.40000000000E+01  0.51109989000E-03 0.  1.
     -623   -1    0    0    0    0  0.00000000000E+00  0.00000000000E+00  0.12525980253E-10  0.17130000000E+03  0.17130000000E+03 0. -1.
       11    1    1    2    0    0  0.10668007130E+00  0.14579969706E-01  0.40488313670E-01  0.11503381197E+00  0.51109989000E-03 0.  1.
     -623    1    1    2    0    0  0.29138389252E+00 -0.36222782614E+00  0.95483510729E+00  0.17130329192E+03  0.17130000000E+03 0. -1.
      622    1    1    2    0    0 -0.39806396382E+00  0.34764785644E+00  0.30046765464E+01  0.38816742650E+01  0.24000000000E+01 0.  1.
</event>
<event>
 5   0  0.6825300E-03  0.9118800E+02  0.7818608E-02  0.1180000E+00
       11   -1    0    0    0    0  0.00000000000E+00  0.00000000000E+00  0.39999999673E+01  0.40000000000E+01  0.51109989000E-03 0.  1.
     -623   -1    0    0    0    0  0.00000000000E+00  0.00000000000E+00  0.12525980253E-10  0.17130000000E+03  0.17130000000E+03 0. -1.
       11    1    1    2    0    0 -0.23410210501E-01 -0.44112385187E-01  0.23368175865E-01  0.55138673805E-01  0.51109989000E-03 0.  1.
     -623    1    1    2    0    0  0.35874665958E+00  0.22689989735E+00  0.87270067492E+00  0.17130274892E+03  0.17130000000E+03 0. -1.
      622    1    1    2    0    0 -0.33533644908E+00 -0.18278751216E+00  0.31039311166E+01  0.39421124014E+01  0.24000000000E+01 0.  1.
</event>
<event>
 5   0  0.6825300E-03  0.9118800E+02  0.7818608E-02  0.1180000E+00
       11   -1    0    0    0    0  0.00000000000E+00  0.00000000000E+00  0.39999999673E+01  0.40000000000E+01  0.51109989000E-03 0.  1.
     -623   -1    0    0    0    0  0.00000000000E+00  0.00000000000E+00  0.12525980253E-10  0.17130000000E+03  0.17130000000E+03 0. -1.
       11    1    1    2    0    0 -0.18075922589E+00 -0.17895307183E+00  0.27135294673E+00  0.37192846434E+00  0.51109989000E-03 0.  1.
     -623    1    1    2    0    0  0.31468957386E+00  0.98689457631E-01  0.10167591804E+01  0.17130333496E+03  0.17130000000E+03 0. -1.
      622    1    1    2    0    0 -0.13393034797E+00  0.80263614203E-01  0.27118878403E+01  0.36247365758E+01  0.24000000000E+01 0.  1.
</event>
<event>
 5   0  0.6825300E-03  0.9118800E+02  0.7818608E-02  0.1180000E+00
       11   -1    0    0    0    0  0.00000000000E+00  0.00000000000E+00  0.39999999673E+01  0.40000000000E+01  0.51109989000E-03 0. -1.
     -623   -1    0    0    0    0  0.00000000000E+00  0.00000000000E+00  0.12525980253E-10  0.17130000000E+03  0.17130000000E+03 0. -1.
       11    1    1    2    0    0 -0.13944676011E+00  0.25612748262E-01 -0.90191080256E-01  0.16803601983E+00  0.51109989000E-03 0. -1.
     -623    1    1    2    0    0 -0.81182197763E-01 -0.23518495484E+00  0.11234169527E+01  0.17130386443E+03  0.17130000000E+03 0. -1.
      622    1    1    2    0    0  0.22062895787E+00  0.20957220658E+00  0.29667740949E+01  0.38280995516E+01  0.24000000000E+01 0. -1.
</event>
<event>
 5   0  0.6825300E-03  0.9118800E+02  0.7818608E-02  0.1180000E+00
       11   -1    0    0    0    0  0.00000000000E+00  0.00000000000E+00  0.39999999673E+01  0.40000000000E+01  0.51109989000E-03 0. -1.
     -623   -1    0    0    0    0  0.00000000000E+00  0.00000000000E+00  0.12525980253E-10  0.17130000000E+03  0.17130000000E+03 0.  1.
       11    1    1    2    0    0  0.10934867322E+00 -0.35088701844E+00  0.38985760758E-01  0.36959299616E+00  0.51109989000E-03 0. -1.
     -623    1    1    2    0    0 -0.34763415834E+00  0.10181581249E+01  0.13427787654E+01  0.17130864120E+03  0.17130000000E+03 0.  1.
      622    1    1    2    0    0  0.23828548512E+00 -0.66727110647E+00  0.26182354412E+01  0.36217658024E+01  0.24000000000E+01 0. -1.
</event>
<event>
 5   0  0.6825300E-03  0.9118800E+02  0.7818608E-02  0.1180000E+00
       11   -1    0    0    0    0  0.00000000000E+00  0.00000000000E+00  0.39999999673E+01  0.40000000000E+01  0.51109989000E-03 0. -1.
     -623   -1    0    0    0    0  0.00000000000E+00  0.00000000000E+00  0.12525980253E-10  0.17130000000E+03  0.17130000000E+03 0.  1.
       11    1    1    2    0    0  0.14626212452E+00  0.12803616070E+00  0.11708371985E+00  0.22692449447E+00  0.51109989000E-03 0. -1.
     -623    1    1    2    0    0 -0.48895497645E-01 -0.24050940072E+00  0.97920639239E+00  0.17130297452E+03  0.17130000000E+03 0.  1.
      622    1    1    2    0    0 -0.97366626873E-01  0.11247324002E+00  0.29037098551E+01  0.37701009817E+01  0.24000000000E+01 0. -1.
</event>
<event>
 5   0  0.6825300E-03  0.9118800E+02  0.7818608E-02  0.1180000E+00
       11   -1    0    0    0    0  0.00000000000E+00  0.00000000000E+00  0.39999999673E+01  0.40000000000E+01  0.51109989000E-03 0. -1.
     -623   -1    0    0    0    0  0.00000000000E+00  0.00000000000E+00  0.12525980253E-10  0.17130000000E+03  0.17130000000E+03 0.  1.
       11    1    1    2    0    0  0.13088875843E+00  0.14360789567E+00 -0.12928439542E+00  0.23338768370E+00  0.51109989000E-03 0. -1.
     -623    1    1    2    0    0 -0.21041180693E-01  0.60960931318E+00  0.13363364003E+01  0.17130629837E+03  0.17130000000E+03 0.  1.
      622    1    1    2    0    0 -0.10984757774E+00 -0.75321720885E+00  0.27929479624E+01  0.37603139463E+01  0.24000000000E+01 0. -1.
</event>
<event>
 5   0  0.6825300E-03  0.9118800E+02  0.7818608E-02  0.1180000E+00
       11   -1    0    0    0    0  0.00000000000E+00  0.00000000000E+00  0.39999999673E+01  0.40000000000E+01  0.51109989000E-03 0. -1.
     -623   -1    0    0    0    0  0.00000000000E+00  0.00000000000E+00  0.12525980253E-10  0.17130000000E+03  0.17130000000E+03 0.  1.
       11    1    1    2    0    0 -0.10581116758E+00  0.20806978287E-01  0.28746773238E-01  0.11160453271E+00  0.51109989000E-03 0. -1.
     -623    1    1    2    0    0  0.27413278779E+00  0.76075480525E+00  0.10247649359E+01  0.17130497377E+03  0.17130000000E+03 0.  1.
      622    1    1    2    0    0 -0.16832162021E+00 -0.78156178354E+00  0.29464882582E+01  0.38834216929E+01  0.24000000000E+01 0. -1.
</event>
<event>
 5   0  0.6825300E-03  0.9118800E+02  0.7818608E-02  0.1180000E+00
       11   -1    0    0    0    0  0.00000000000E+00  0.00000000000E+00  0.39999999673E+01  0.40000000000E+01  0.51109989000E-03 0. -1.
     -623   -1    0    0    0    0  0.00000000000E+00  0.00000000000E+00  0.12525980253E-10  0.17130000000E+03  0.17130000000E+03 0.  1.
       11    1    1    2    0    0  0.16233246675E+00  0.61121772998E-01  0.66983085089E-01  0.18594272184E+00  0.51109989000E-03 0. -1.
     -623    1    1    2    0    0 -0.54288389471E+00 -0.44196872903E+00  0.10239043330E+01  0.17130449042E+03  0.17130000000E+03 0.  1.
      622    1    1    2    0    0  0.38055142796E+00  0.38084695603E+00  0.29091125493E+01  0.38095668543E+01  0.24000000000E+01 0. -1.
</event>
<event>
 5   0  0.6825300E-03  0.9118800E+02  0.7818608E-02  0.1180000E+00
       11   -1    0    0    0    0  0.00000000000E+00  0.00000000000E+00  0.39999999673E+01  0.40000000000E+01  0.51109989000E-03 0.  1.
     -623   -1    0    0    0    0  0.00000000000E+00  0.00000000000E+00  0.12525980253E-10  0.17130000000E+03  0.17130000000E+03 0. -1.
       11    1    1    2    0    0  0.81635863876E-01  0.69687959613E-01 -0.54519482381E-01  0.12038879170E+00  0.51109989000E-03 0.  1.
     -623    1    1    2    0    0 -0.19327008397E+00  0.27386945050E-01  0.10139007215E+01  0.17130311176E+03  0.17130000000E+03 0. -1.
      622    1    1    2    0    0  0.11163422009E+00 -0.97074904662E-01  0.30406187282E+01  0.38764994501E+01  0.24000000000E+01 0.  1.
</event>
<event>
 5   0  0.6825300E-03  0.9118800E+02  0.7818608E-02  0.1180000E+00
       11   -1    0    0    0    0  0.00000000000E+00  0.00000000000E+00  0.39999999673E+01  0.40000000000E+01  0.51109989000E-03 0. -1.
     -623   -1    0    0    0    0  0.00000000000E+00  0.00000000000E+00  0.12525980253E-10  0.17130000000E+03  0.17130000000E+03 0. -1.
       11    1    1    2    0    0  0.11633789612E+00 -0.35996255734E-02  0.39859956673E-01  0.12303064961E+00  0.51109989000E-03 0. -1.
     -623    1    1    2    0    0 -0.99445402137E-01  0.64806327873E+00  0.98972068694E+00  0.17130411385E+03  0.17130000000E+03 0. -1.
      622    1    1    2    0    0 -0.16892493982E-01 -0.64446365315E+00  0.29704193237E+01  0.38728554989E+01  0.24000000000E+01 0. -1.
</event>
<event>
 5   0  0.6825300E-03  0.9118800E+02  0.7818608E-02  0.1180000E+00
       11   -1    0    0    0    0  0.00000000000E+00  0.00000000000E+00  0.39999999673E+01  0.40000000000E+01  0.51109989000E-03 0. -1.
     -623   -1    0    0    0    0  0.00000000000E+00  0.00000000000E+00  0.12525980253E-10  0.17130000000E+03  0.17130000000E+03 0. -1.
       11    1    1    2    0    0 -0.75226317351E-01 -0.21329560624E+00  0.63700904852E+00  0.67596952859E+00  0.51109989000E-03 0. -1.
     -623    1    1    2    0    0  0.15345423767E+00  0.21418507641E+00  0.10696259510E+01  0.17130354206E+03  0.17130000000E+03 0. -1.
      622    1    1    2    0    0 -0.78227920321E-01 -0.88947016730E-03  0.22933649678E+01  0.33204884090E+01  0.24000000000E+01 0. -1.
</event>
<event>
 5   0  0.6825300E-03  0.9118800E+02  0.7818608E-02  0.1180000E+00
       11   -1    0    0    0    0  0.00000000000E+00  0.00000000000E+00  0.39999999673E+01  0.40000000000E+01  0.51109989000E-03 0.  1.
     -623   -1    0    0    0    0  0.00000000000E+00  0.00000000000E+00  0.12525980253E-10  0.17130000000E+03  0.17130000000E+03 0.  1.
       11    1    1    2    0    0 -0.16376977297E+00  0.10190203236E+00  0.42868479680E+00  0.47008028992E+00  0.51109989000E-03 0.  1.
     -623    1    1    2    0    0  0.10976572469E+00 -0.33337296031E+00  0.99822817537E+00  0.17130326805E+03  0.17130000000E+03 0.  1.
      622    1    1    2    0    0  0.54004048286E-01  0.23147092795E+00  0.25730869952E+01  0.35266516574E+01  0.24000000000E+01 0.  1.
</event>
<event>
 5   0  0.6825300E-03  0.9118800E+02  0.7818608E-02  0.1180000E+00
       11   -1    0    0    0    0  0.00000000000E+00  0.00000000000E+00  0.39999999673E+01  0.40000000000E+01  0.51109989000E-03 0. -1.
     -623   -1    0    0    0    0  0.00000000000E+00  0.00000000000E+00  0.12525980253E-10  0.17130000000E+03  0.17130000000E+03 0.  1.
       11    1    1    2    0    0  0.77831041012E-01  0.20338989867E+00 -0.11235413821E+00  0.24504863889E+00  0.51109989000E-03 0. -1.
     -623    1    1    2    0    0 -0.25258288970E+00 -0.59810241303E+00  0.12647133987E+01  0.17130589898E+03  0.17130000000E+03 0.  1.
      622    1    1    2    0    0  0.17475184869E+00  0.39471251436E+00  0.28476407068E+01  0.37490523833E+01  0.24000000000E+01 0. -1.
</event>
<event>
 5   0  0.6825300E-03  0.9118800E+02  0.7818608E-02  0.1180000E+00
       11   -1    0    0    0    0  0.00000000000E+00  0.00000000000E+00  0.39999999673E+01  0.40000000000E+01  0.51109989000E-03 0. -1.
     -623   -1    0    0    0    0  0.00000000000E+00  0.00000000000E+00  0.12525980253E-10  0.17130000000E+03  0.17130000000E+03 0.  1.
       11    1    1    2    0    0 -0.73579052086E-02  0.20592835669E-01  0.57991622737E-02  0.22629519547E-01  0.51109989000E-03 0. -1.
     -623    1    1    2    0    0 -0.61403799192E+00 -0.26128518551E+00  0.89801606011E+00  0.17130365363E+03  0.17130000000E+03 0.  1.
      622    1    1    2    0    0  0.62139589713E+00  0.24069234984E+00  0.30961847450E+01  0.39737168549E+01  0.24000000000E+01 0. -1.
</event>
<event>
 5   0  0.6825300E-03  0.9118800E+02  0.7818608E-02  0.1180000E+00
       11   -1    0    0    0    0  0.00000000000E+00  0.00000000000E+00  0.39999999673E+01  0.40000000000E+01  0.51109989000E-03 0. -1.
     -623   -1    0    0    0    0  0.00000000000E+00  0.00000000000E+00  0.12525980253E-10  0.17130000000E+03  0.17130000000E+03 0.  1.
       11    1    1    2    0    0 -0.90846317462E-01 -0.26488278735E-02  0.20597236126E-01  0.93191078138E-01  0.51109989000E-03 0. -1.
     -623    1    1    2    0    0 -0.32427786594E+00 -0.34890895295E-01  0.92861036668E+00  0.17130282745E+03  0.17130000000E+03 0.  1.
      622    1    1    2    0    0  0.41512418340E+00  0.37539723169E-01  0.30507923646E+01  0.39039814767E+01  0.24000000000E+01 0. -1.
</event>
<event>
 5   0  0.6825300E-03  0.9118800E+02  0.7818608E-02  0.1180000E+00
       11   -1    0    0    0    0  0.00000000000E+00  0.00000000000E+00  0.39999999673E+01  0.40000000000E+01  0.51109989000E-03 0.  1.
     -623   -1    0    0    0    0  0.00000000000E+00  0.00000000000E+00  0.12525980253E-10  0.17130000000E+03  0.17130000000E+03 0.  1.
       11    1    1    2    0    0  0.73680668025E-01 -0.88117700811E-01 -0.14882758963E+00  0.18799862418E+00  0.51109989000E-03 0.  1.
     -623    1    1    2    0    0 -0.99476352899E+00  0.18628947391E+00  0.13470025659E+01  0.17130828548E+03  0.17130000000E+03 0.  1.
      622    1    1    2    0    0  0.92108286097E+00 -0.98171773095E-01  0.28018249911E+01  0.38037158956E+01  0.24000000000E+01 0.  1.
</event>
<event>
 5   0  0.6825300E-03  0.9118800E+02  0.7818608E-02  0.1180000E+00
       11   -1    0    0    0    0  0.00000000000E+00  0.00000000000E+00  0.39999999673E+01  0.40000000000E+01  0.51109989000E-03 0.  1.
     -623   -1    0    0    0    0  0.00000000000E+00  0.00000000000E+00  0.12525980253E-10  0.17130000000E+03  0.17130000000E+03 0.  1.
       11    1    1    2    0    0  0.17830789290E-01 -0.13512520142E+00  0.80495119426E-02  0.13653502470E+00  0.51109989000E-03 0.  1.
     -623    1    1    2    0    0  0.29762993452E-01  0.53866214514E+00  0.99656979522E+00  0.17130374834E+03  0.17130000000E+03 0.  1.
      622    1    1    2    0    0 -0.47593782742E-01 -0.40353694372E+00  0.29953806602E+01  0.38597166389E+01  0.24000000000E+01 0.  1.
</event>
<event>
 5   0  0.6825300E-03  0.9118800E+02  0.7818608E-02  0.1180000E+00
       11   -1    0    0    0    0  0.00000000000E+00  0.00000000000E+00  0.39999999673E+01  0.40000000000E+01  0.51109989000E-03 0.  1.
     -623   -1    0    0    0    0  0.00000000000E+00  0.00000000000E+00  0.12525980253E-10  0.17130000000E+03  0.17130000000E+03 0. -1.
       11    1    1    2    0    0 -0.27992238868E+00 -0.30069701829E+00  0.22927549248E+00  0.47047077823E+00  0.51109989000E-03 0.  1.
     -623    1    1    2    0    0  0.51666897196E+00  0.12559598221E+01  0.13935178363E+01  0.17131105123E+03  0.17130000000E+03 0. -1.
      622    1    1    2    0    0 -0.23674658328E+00 -0.95526280384E+00  0.23772066386E+01  0.35184779908E+01  0.24000000000E+01 0.  1.
</event>
<event>
 5   0  0.6825300E-03  0.9118800E+02  0.7818608E-02  0.1180000E+00
       11   -1    0    0    0    0  0.00000000000E+00  0.00000000000E+00  0.39999999673E+01  0.40000000000E+01  0.51109989000E-03 0.  1.
     -623   -1    0    0    0    0  0.00000000000E+00  0.00000000000E+00  0.12525980253E-10  0.17130000000E+03  0.17130000000E+03 0.  1.
       11    1    1    2    0    0 -0.16294566281E-01  0.69134034135E-01 -0.31374004999E-01  0.77650608346E-01  0.51109989000E-03 0.  1.
     -623    1    1    2    0    0 -0.50500709504E+00 -0.29656228661E+00  0.98650556002E+00  0.17130384168E+03  0.17130000000E+03 0.  1.
      622    1    1    2    0    0  0.52130166132E+00  0.22742825247E+00  0.30448684123E+01  0.39185077109E+01  0.24000000000E+01 0.  1.
</event>
<event>
 5   0  0.6825300E-03  0.9118800E+02  0.7818608E-02  0.1180000E+00
       11   -1    0    0    0    0  0.00000000000E+00  0.00000000000E+00  0.39999999673E+01  0.40000000000E+01  0.51109989000E-03 0. -1.
     -623   -1    0    0    0    0  0.00000000000E+00  0.00000000000E+00  0.12525980253E-10  0.17130000000E+03  0.17130000000E+03 0.  1.
       11    1    1    2    0    0  0.92596672432E-02 -0.63909023566E-01 -0.18271555963E+00  0.19379200625E+00  0.51109989000E-03 0. -1.
     -623    1    1    2    0    0 -0.94519329500E-02 -0.82669292942E-02  0.12351523830E+01  0.17130445341E+03  0.17130000000E+03 0.  1.
      622    1    1    2    0    0  0.19226570678E-03  0.72175952861E-01  0.29475631440E+01  0.38017545809E+01  0.24000000000E+01 0. -1.
</event>
<event>
 5   0  0.6825300E-03  0.9118800E+02  0.7818608E-02  0.1180000E+00
       11   -1    0    0    0    0  0.00000000000E+00  0.00000000000E+00  0.39999999673E+01  0.40000000000E+01  0.51109989000E-03 0.  1.
     -623   -1    0    0    0    0  0.00000000000E+00  0.00000000000E+00  0.12525980253E-10  0.17130000000E+03  0.17130000000E+03 0.  1.
       11    1    1    2    0    0  0.96025038346E-02 -0.22023434170E-01 -0.30543142973E-01  0.38863666043E-01  0.51109989000E-03 0.  1.
     -623    1    1    2    0    0  0.26171693894E+00  0.39949576897E+00  0.91770478565E+00  0.17130312395E+03  0.17130000000E+03 0.  1.
      622    1    1    2    0    0 -0.27131944277E+00 -0.37747233481E+00  0.31128383247E+01  0.39580123849E+01  0.24000000000E+01 0.  1.
</event>
<event>
 5   0  0.6825300E-03  0.9118800E+02  0.7818608E-02  0.1180000E+00
       11   -1    0    0    0    0  0.00000000000E+00  0.00000000000E+00  0.39999999673E+01  0.40000000000E+01  0.51109989000E-03 0. -1.
     -623   -1    0    0    0    0  0.00000000000E+00  0.00000000000E+00  0.12525980253E-10  0.17130000000E+03  0.17130000000E+03 0.  1.
       11    1    1    2    0    0  0.10986127406E+00 -0.18985999590E+00  0.17272528134E+00  0.27919634958E+00  0.51109989000E-03 0. -1.
     -623    1    1    2    0    0  0.35930546506E-02  0.37494404060E+00  0.99661487698E+00  0.17130330948E+03  0.17130000000E+03 0.  1.
      622    1    1    2    0    0 -0.11345432871E+00 -0.18508404470E+00  0.28306598090E+01  0.37174941752E+01  0.24000000000E+01 0. -1.
</event>
<event>
 5   0  0.6825300E-03  0.9118800E+02  0.7818608E-02  0.1180000E+00
       11   -1    0    0    0    0  0.00000000000E+00  0.00000000000E+00  0.39999999673E+01  0.40000000000E+01  0.51109989000E-03 0.  1.
     -623   -1    0    0    0    0  0.00000000000E+00  0.00000000000E+00  0.12525980253E-10  0.17130000000E+03  0.17130000000E+03 0. -1.
       11    1    1    2    0    0  0.55002307161E+00 -0.29427645374E+00  0.45482626600E+00  0.77200466578E+00  0.51109989000E-03 0.  1.
     -623    1    1    2    0    0 -0.92868214873E+00  0.74194323737E+00  0.14840695699E+01  0.17131055249E+03  0.17130000000E+03 0. -1.
      622    1    1    2    0    0  0.37865907712E+00 -0.44766678364E+00  0.20611041315E+01  0.32174428490E+01  0.24000000000E+01 0.  1.
</event>
<event>
 5   0  0.6825300E-03  0.9118800E+02  0.7818608E-02  0.1180000E+00
       11   -1    0    0    0    0  0.00000000000E+00  0.00000000000E+00  0.39999999673E+01  0.40000000000E+01  0.51109989000E-03 0.  1.
     -623   -1    0    0    0    0  0.00000000000E+00  0.00000000000E+00  0.12525980253E-10  0.17130000000E+03  0.17130000000E+03 0.  1.
       11    1    1    2    0    0 -0.39732989820E-01 -0.78947329072E-02  0.14062915263E+00  0.14634840990E+00  0.51109989000E-03 0.  1.
     -623    1    1    2    0    0  0.58390158573E-01  0.90785278330E-02  0.84705179266E+00  0.17130210445E+03  0.17130000000E+03 0.  1.
      622    1    1    2    0    0 -0.18657168753E-01 -0.11837949258E-02  0.30123190221E+01  0.38515471413E+01  0.24000000000E+01 0.  1.
</event>
<event>
 5   0  0.6825300E-03  0.9118800E+02  0.7818608E-02  0.1180000E+00
       11   -1    0    0    0    0  0.00000000000E+00  0.00000000000E+00  0.39999999673E+01  0.40000000000E+01  0.51109989000E-03 0. -1.
     -623   -1    0    0    0    0  0.00000000000E+00  0.00000000000E+00  0.12525980253E-10  0.17130000000E+03  0.17130000000E+03 0.  1.
       11    1    1    2    0    0  0.63245749996E-01  0.27817848904E-01 -0.11686472954E+00  0.13576260105E+00  0.51109989000E-03 0. -1.
     -623    1    1    2    0    0 -0.39789687724E-01 -0.10883026803E+00  0.10939636826E+01  0.17130353232E+03  0.17130000000E+03 0.  1.
      622    1    1    2    0    0 -0.23456062272E-01  0.81012419122E-01  0.30229010143E+01  0.38607050834E+01  0.24000000000E+01 0. -1.
</event>
<event>
 5   0  0.6825300E-03  0.9118800E+02  0.7818608E-02  0.1180000E+00
       11   -1    0    0    0    0  0.00000000000E+00  0.00000000000E+00  0.39999999673E+01  0.40000000000E+01  0.51109989000E-03 0. -1.
     -623   -1    0    0    0    0  0.00000000000E+00  0.00000000000E+00  0.12525980253E-10  0.17130000000E+03  0.17130000000E+03 0. -1.
       11    1    1    2    0    0  0.15173405977E-01 -0.27161893136E-01 -0.17451314359E-01  0.35676466805E-01  0.51109989000E-03 0. -1.
     -623    1    1    2    0    0  0.59550394409E+00  0.84275349889E+00  0.10395100968E+01  0.17130626211E+03  0.17130000000E+03 0. -1.
      622    1    1    2    0    0 -0.61067735007E+00 -0.81559160576E+00  0.29779411849E+01  0.39580614187E+01  0.24000000000E+01 0. -1.
</event>
<event>
 5   0  0.6825300E-03  0.9118800E+02  0.7818608E-02  0.1180000E+00
       11   -1    0    0    0    0  0.00000000000E+00  0.00000000000E+00  0.39999999673E+01  0.40000000000E+01  0.51109989000E-03 0.  1.
     -623   -1    0    0    0    0  0.00000000000E+00  0.00000000000E+00  0.12525980253E-10  0.17130000000E+03  0.17130000000E+03 0.  1.
       11    1    1    2    0    0 -0.28816176432E+00 -0.40877820022E-01  0.44449861147E-01  0.29442189111E+00  0.51109989000E-03 0.  1.
     -623    1    1    2    0    0  0.27631458150E+00  0.30441261165E+00  0.11502946342E+01  0.17130435545E+03  0.17130000000E+03 0.  1.
      622    1    1    2    0    0  0.11847182815E-01 -0.26353479163E+00  0.28052554720E+01  0.37012226636E+01  0.24000000000E+01 0.  1.
</event>
<event>
 5   0  0.6825300E-03  0.9118800E+02  0.7818608E-02  0.1180000E+00
       11   -1    0    0    0    0  0.00000000000E+00  0.00000000000E+00  0.39999999673E+01  0.40000000000E+01  0.51109989000E-03 0.  1.
     -623   -1    0    0    0    0  0.00000000000E+00  0.00000000000E+00  0.12525980253E-10  0.17130000000E+03  0.17130000000E+03 0.  1.
       11    1    1    2    0    0 -0.45643594020E-02 -0.19427659058E+00  0.16147695067E+00  0.25266438974E+00  0.51109989000E-03 0.  1.
     -623    1    1    2    0    0 -0.42745260729E+00  0.19792556016E+00  0.99788086725E+00  0.17130355413E+03  0.17130000000E+03 0.  1.
      622    1    1    2    0    0  0.43201696669E+00 -0.36489695842E-02  0.28406421494E+01  0.37437814834E+01  0.24000000000E+01 0.  1.
</event>
<event>
 5   0  0.6825300E-03  0.9118800E+02  0.7818608E-02  0.1180000E+00
       11   -1    0    0    0    0  0.00000000000E+00  0.00000000000E+00  0.39999999673E+01  0.40000000000E+01  0.51109989000E-03 0.  1.
     -623   -1    0    0    0    0  0.00000000000E+00  0.00000000000E+00  0.12525980253E-10  0.17130000000E+03  0.17130000000E+03 0. -1.
       11    1    1    2    0    0  0.16718477874E+00  0.54067771915E-01  0.14154333475E+00  0.22562989836E+00  0.51109989000E-03 0.  1.
     -623    1    1    2    0    0 -0.10012162730E+00 -0.30773998509E+00  0.96115284717E+00  0.17130300214E+03  0.17130000000E+03 0. -1.
      622    1    1    2    0    0 -0.67063151436E-01  0.25367221318E+00  0.28973037854E+01  0.37713679591E+01  0.24000000000E+01 0.  1.
</event>
<event>
 5   0  0.6825300E-03  0.9118800E+02  0.7818608E-02  0.1180000E+00
       11   -1    0    0    0    0  0.00000000000E+00  0.00000000000E+00  0.39999999673E+01  0.40000000000E+01  0.51109989000E-03 0.  1.
     -623   -1    0    0    0    0  0.00000000000E+00  0.00000000000E+00  0.12525980253E-10  0.17130000000E+03  0.17130000000E+03 0.  1.
       11    1    1    2    0    0  0.13470829111E+00 -0.66043761318E+00  0.40354922029E+00  0.78560575292E+00  0.51109989000E-03 0.  1.
     -623    1    1    2    0    0 -0.35331969049E-01  0.37298332462E+00  0.14903741091E+01  0.17130689297E+03  0.17130000000E+03 0.  1.
      622    1    1    2    0    0 -0.99376322058E-01  0.28745428857E+00  0.21060766380E+01  0.32075012746E+01  0.24000000000E+01 0.  1.
</event>
<event>
 5   0  0.6825300E-03  0.9118800E+02  0.7818608E-02  0.1180000E+00
       11   -1    0    0    0    0  0.00000000000E+00  0.00000000000E+00  0.39999999673E+01  0.40000000000E+01  0.51109989000E-03 0. -1.
     -623   -1    0    0    0    0  0.00000000000E+00  0.00000000000E+00  0.12525980253E-10  0.17130000000E+03  0.17130000000E+03 0. -1.
       11    1    1    2    0    0 -0.14970369257E+00  0.16521657026E+00  0.11072896198E+00  0.24893548341E+00  0.51109989000E-03 0. -1.
     -623    1    1    2    0    0  0.41903138093E+00 -0.10153280583E+00  0.10245109222E+01  0.17130360626E+03  0.17130000000E+03 0. -1.
      622    1    1    2    0    0 -0.26932768836E+00 -0.63683764431E-01  0.28647600831E+01  0.37474582532E+01  0.24000000000E+01 0. -1.
</event>
<event>
 5   0  0.6825300E-03  0.9118800E+02  0.7818608E-02  0.1180000E+00
       11   -1    0    0    0    0  0.00000000000E+00  0.00000000000E+00  0.39999999673E+01  0.40000000000E+01  0.51109989000E-03 0.  1.
     -623   -1    0    0    0    0  0.00000000000E+00  0.00000000000E+00  0.12525980253E-10  0.17130000000E+03  0.17130000000E+03 0.  1.
       11    1    1    2    0    0 -0.16831051808E+00 -0.48983846406E-01  0.43122114235E-02  0.17534738120E+00  0.51109989000E-03 0.  1.
     -623    1    1    2    0    0  0.59435832732E+00  0.65418893196E-01  0.10540195046E+01  0.17130428628E+03  0.17130000000E+03 0.  1.
      622    1    1    2    0    0 -0.42604780925E+00 -0.16435046790E-01  0.29416682514E+01  0.38203663368E+01  0.24000000000E+01 0.  1.
</event>
<event>
 5   0  0.6825300E-03  0.9118800E+02  0.7818608E-02  0.1180000E+00
       11   -1    0    0    0    0  0.00000000000E+00  0.00000000000E+00  0.39999999673E+01  0.40000000000E+01  0.51109989000E-03 0. -1.
     -623   -1    0    0    0    0  0.00000000000E+00  0.00000000000E+00  0.12525980253E-10  0.17130000000E+03  0.17130000000E+03 0. -1.
       11    1    1    2    0    0  0.41791897104E-01  0.21960136540E+00  0.20369830355E+00  0.30243112016E+00  0.51109989000E-03 0. -1.
     -623    1    1    2    0    0 -0.95523625016E-01 -0.33338594793E+00  0.99051869052E+00  0.17130321479E+03  0.17130000000E+03 0. -1.
      622    1    1    2    0    0  0.53731727912E-01  0.11378458253E+00  0.28057829733E+01  0.36943540874E+01  0.24000000000E+01 0. -1.
</event>
<event>
 5   0  0.6825300E-03  0.9118800E+02  0.7818608E-02  0.1180000E+00
       11   -1    0    0    0    0  0.00000000000E+00  0.00000000000E+00  0.39999999673E+01  0.40000000000E+01  0.51109989000E-03 0.  1.
     -623   -1    0    0    0    0  0.00000000000E+00  0.00000000000E+00  0.12525980253E-10  0.17130000000E+03  0.17130000000E+03 0. -1.
       11    1    1    2    0    0  0.36465788298E-01  0.24577643369E+00  0.36008032315E+00  0.43748589625E+00  0.51109989000E-03 0.  1.
     -623    1    1    2    0    0 -0.68535635250E+00 -0.84993262676E-01  0.11003285019E+01  0.17130492597E+03  0.17130000000E+03 0. -1.
      622    1    1    2    0    0  0.64889056420E+00 -0.16078317101E+00  0.25395911423E+01  0.35575881384E+01  0.24000000000E+01 0.  1.
</event>
<event>
 5   0  0.6825300E-03  0.9118800E+02  0.7818608E-02  0.1180000E+00
       11   -1    0    0    0    0  0.00000000000E+00  0.00000000000E+00  0.39999999673E+01  0.40000000000E+01  0.51109989000E-03 0.  1.
     -623   -1    0    0    0    0  0.00000000000E+00  0.00000000000E+00  0.12525980253E-10  0.17130000000E+03  0.17130000000E+03 0. -1.
       11    1    1    2    0    0  0.32218696851E+00  0.31468926505E+00  0.53357049552E+00  0.69823456741E+00  0.51109989000E-03 0.  1.
     -623    1    1    2    0    0  0.17014579611E+00 -0.62499050908E+00  0.12839650340E+01  0.17130603646E+03  0.17130000000E+03 0. -1.
      622    1    1    2    0    0 -0.49233276462E+00  0.31030124403E+00  0.21824644379E+01  0.32957289688E+01  0.24000000000E+01 0.  1.
</event>
<event>
 5   0  0.6825300E-03  0.9118800E+02  0.7818608E-02  0.1180000E+00
       11   -1    0    0    0    0  0.00000000000E+00  0.00000000000E+00  0.39999999673E+01  0.40000000000E+01  0.51109989000E-03 0. -1.
     -623   -1    0    0    0    0  0.00000000000E+00  0.00000000000E+00  0.12525980253E-10  0.17130000000E+03  0.17130000000E+03 0.  1.
       11    1    1    2    0    0  0.14298679739E+00 -0.20275900094E+00 -0.11821075861E+00  0.27482809420E+00  0.51109989000E-03 0. -1.
     -623    1    1    2    0    0 -0.99344532003E-02  0.16707048444E+00  0.12788839132E+01  0.17130485561E+03  0.17130000000E+03 0.  1.
      622    1    1    2    0    0 -0.13305234419E+00  0.35688516498E-01  0.28393268128E+01  0.37203162966E+01  0.24000000000E+01 0. -1.
</event>
<event>
 5   0  0.6825300E-03  0.9118800E+02  0.7818608E-02  0.1180000E+00
       11   -1    0    0    0    0  0.00000000000E+00  0.00000000000E+00  0.39999999673E+01  0.40000000000E+01  0.51109989000E-03 0.  1.
     -623   -1    0    0    0    0  0.00000000000E+00  0.00000000000E+00  0.12525980253E-10  0.17130000000E+03  0.17130000000E+03 0.  1.
       11    1    1    2    0    0  0.63256138715E-01  0.15654374967E+00  0.49319892190E+00  0.52129907196E+00  0.51109989000E-03 0.  1.
     -623    1    1    2    0    0  0.55834493132E-01 -0.64479316647E+00  0.10454788870E+01  0.17130441297E+03  0.17130000000E+03 0.  1.
      622    1    1    2    0    0 -0.11909063185E+00  0.48824941680E+00  0.24613221584E+01  0.34742879615E+01  0.24000000000E+01 0.  1.
</event>
<event>
 5   0  0.6825300E-03  0.9118800E+02  0.7818608E-02  0.1180000E+00
       11   -1    0    0    0    0  0.00000000000E+00  0.00000000000E+00  0.39999999673E+01  0.40000000000E+01  0.51109989000E-03 0. -1.
     -623   -1    0    0    0    0  0.00000000000E+00  0.00000000000E+00  0.12525980253E-10  0.17130000000E+03  0.17130000000E+03 0. -1.
       11    1    1    2    0    0 -0.15308097108E+00 -0.22754301532E+00  0.13593811817E+00  0.30608665558E+00  0.51109989000E-03 0. -1.
     -623    1    1    2    0    0  0.16819351332E+00  0.10487311602E+00  0.10632573637E+01  0.17130341445E+03  0.17130000000E+03 0. -1.
      622    1    1    2    0    0 -0.15112542241E-01  0.12266989930E+00  0.28008044855E+01  0.36904988903E+01  0.24000000000E+01 0. -1.
</event>
<event>
 5   0  0.6825300E-03  0.9118800E+02  0.7818608E-02  0.1180000E+00
       11   -1    0    0    0    0  0.00000000000E+00  0.00000000000E+00  0.39999999673E+01  0.40000000000E+01  0.51109989000E-03 0.  1.
     -623   -1    0    0    0    0  0.00000000000E+00  0.00000000000E+00  0.12525980253E-10  0.17130000000E+03  0.17130000000E+03 0.  1.
       11    1    1    2    0    0  0.22701407672E+00  0.17669160352E+00  0.28453509512E+00  0.40461808580E+00  0.51109989000E-03 0.  1.
     -623    1    1    2    0    0 -0.40992074834E+00 -0.15069753781E+00  0.10498470850E+01  0.17130377382E+03  0.17130000000E+03 0.  1.
      622    1    1    2    0    0  0.18290667161E+00 -0.25994065709E-01  0.26656177872E+01  0.35916080980E+01  0.24000000000E+01 0.  1.
</event>
<event>
 5   0  0.6825300E-03  0.9118800E+02  0.7818608E-02  0.1180000E+00
       11   -1    0    0    0    0  0.00000000000E+00  0.00000000000E+00  0.39999999673E+01  0.40000000000E+01  0.51109989000E-03 0.  1.
     -623   -1    0    0    0    0  0.00000000000E+00  0.00000000000E+00  0.12525980253E-10  0.17130000000E+03  0.17130000000E+03 0. -1.
       11    1    1    2    0    0 -0.25737603811E+00 -0.17160103788E+00  0.26669792077E+00  0.40843283825E+00  0.51109989000E-03 0.  1.
     -623    1    1    2    0    0  0.37193033115E+00  0.85894749871E+00  0.11628724518E+01  0.17130650424E+03  0.17130000000E+03 0. -1.
      622    1    1    2    0    0 -0.11455429305E+00 -0.68734646082E+00  0.25704295947E+01  0.35850629206E+01  0.24000000000E+01 0.  1.
</event>
<event>
 5   0  0.6825300E-03  0.9118800E+02  0.7818608E-02  0.1180000E+00
       11   -1    0    0    0    0  0.00000000000E+00  0.00000000000E+00  0.39999999673E+01  0.40000000000E+01  0.51109989000E-03 0. -1.
     -623   -1    0    0    0    0  0.00000000000E+00  0.00000000000E+00  0.12525980253E-10  0.17130000000E+03  0.17130000000E+03 0.  1.
       11    1    1    2    0    0  0.40924055780E-01  0.17683136809E+00 -0.27672996962E-01  0.18360328717E+00  0.51109989000E-03 0. -1.
     -623    1    1    2    0    0 -0.32499650865E+00 -0.28610406962E+00  0.10811421000E+01  0.17130395893E+03  0.17130000000E+03 0.  1.
      622    1    1    2    0    0  0.28407245287E+00  0.10927270153E+00  0.29465308644E+01  0.38124377787E+01  0.24000000000E+01 0. -1.
</event>
<event>
 5   0  0.6825300E-03  0.9118800E+02  0.7818608E-02  0.1180000E+00
       11   -1    0    0    0    0  0.00000000000E+00  0.00000000000E+00  0.39999999673E+01  0.40000000000E+01  0.51109989000E-03 0. -1.
     -623   -1    0    0    0    0  0.00000000000E+00  0.00000000000E+00  0.12525980253E-10  0.17130000000E+03  0.17130000000E+03 0. -1.
       11    1    1    2    0    0  0.14475541906E+00 -0.18437470763E-01  0.69942095574E-01  0.16182159816E+00  0.51109989000E-03 0. -1.
     -623    1    1    2    0    0  0.18791410841E+00  0.92249029818E+00  0.11022334266E+01  0.17130613304E+03  0.17130000000E+03 0. -1.
      622    1    1    2    0    0 -0.33266952747E+00 -0.90405282741E+00  0.28278244452E+01  0.38320453575E+01  0.24000000000E+01 0. -1.
</event>
<event>
 5   0  0.6825300E-03  0.9118800E+02  0.7818608E-02  0.1180000E+00
       11   -1    0    0    0    0  0.00000000000E+00  0.00000000000E+00  0.39999999673E+01  0.40000000000E+01  0.51109989000E-03 0.  1.
     -623   -1    0    0    0    0  0.00000000000E+00  0.00000000000E+00  0.12525980253E-10  0.17130000000E+03  0.17130000000E+03 0. -1.
       11    1    1    2    0    0  0.86370893029E-01 -0.11591377078E+00  0.10523202159E+00  0.17880149052E+00  0.51109989000E-03 0.  1.
     -623    1    1    2    0    0  0.19733550067E+00  0.10195416898E+00  0.93839557979E+00  0.17130271429E+03  0.17130000000E+03 0. -1.
      622    1    1    2    0    0 -0.28370639369E+00  0.13959601809E-01  0.29563723660E+01  0.38184842221E+01  0.24000000000E+01 0.  1.
</event>
<event>
 5   0  0.6825300E-03  0.9118800E+02  0.7818608E-02  0.1180000E+00
       11   -1    0    0    0    0  0.00000000000E+00  0.00000000000E+00  0.39999999673E+01  0.40000000000E+01  0.51109989000E-03 0. -1.
     -623   -1    0    0    0    0  0.00000000000E+00  0.00000000000E+00  0.12525980253E-10  0.17130000000E+03  0.17130000000E+03 0. -1.
       11    1    1    2    0    0 -0.38235644126E+00 -0.14180642105E+00  0.53290534275E+00  0.67103939883E+00  0.51109989000E-03 0. -1.
     -623    1    1    2    0    0 -0.67487419305E+00  0.29544184528E+00  0.14348196128E+01  0.17130759308E+03  0.17130000000E+03 0. -1.
      622    1    1    2    0    0  0.10572306343E+01 -0.15363542423E+00  0.20322750118E+01  0.33213675167E+01  0.24000000000E+01 0. -1.
</event>
<event>
 5   0  0.6825300E-03  0.9118800E+02  0.7818608E-02  0.1180000E+00
       11   -1    0    0    0    0  0.00000000000E+00  0.00000000000E+00  0.39999999673E+01  0.40000000000E+01  0.51109989000E-03 0. -1.
     -623   -1    0    0    0    0  0.00000000000E+00  0.00000000000E+00  0.12525980253E-10  0.17130000000E+03  0.17130000000E+03 0.  1.
       11    1    1    2    0    0  0.27831341488E+00  0.13964906213E+00  0.21166058411E+00  0.37651119711E+00  0.51109989000E-03 0. -1.
     -623    1    1    2    0    0 -0.43455482377E+00  0.23348703429E+00  0.11097483706E+01  0.17130430495E+03  0.17130000000E+03 0.  1.
      622    1    1    2    0    0  0.15624140889E+00 -0.37313609642E+00  0.26785910126E+01  0.36191838496E+01  0.24000000000E+01 0. -1.
</event>
<event>
 5   0  0.6825300E-03  0.9118800E+02  0.7818608E-02  0.1180000E+00
       11   -1    0    0    0    0  0.00000000000E+00  0.00000000000E+00  0.39999999673E+01  0.40000000000E+01  0.51109989000E-03 0.  1.
     -623   -1    0    0    0    0  0.00000000000E+00  0.00000000000E+00  0.12525980253E-10  0.17130000000E+03  0.17130000000E+03 0. -1.
       11    1    1    2    0    0 -0.50633652740E-01 -0.16419667747E+00  0.30320662329E-01  0.17448186000E+00  0.51109989000E-03 0.  1.
     -623    1    1    2    0    0  0.69438323031E-01  0.53578307085E-01  0.99652295276E+00  0.17130292102E+03  0.17130000000E+03 0. -1.
      622    1    1    2    0    0 -0.18804670291E-01  0.11061837038E+00  0.29731563523E+01  0.38225971190E+01  0.24000000000E+01 0.  1.
</event>
<event>
 5   0  0.6825300E-03  0.9118800E+02  0.7818608E-02  0.1180000E+00
       11   -1    0    0    0    0  0.00000000000E+00  0.00000000000E+00  0.39999999673E+01  0.40000000000E+01  0.51109989000E-03 0. -1.
     -623   -1    0    0    0    0  0.00000000000E+00  0.00000000000E+00  0.12525980253E-10  0.17130000000E+03  0.17130000000E+03 0.  1.
       11    1    1    2    0    0  0.98562116070E-01 -0.63460847491E-01 -0.44260159245E-01  0.12530360253E+00  0.51109989000E-03 0. -1.
     -623    1    1    2    0    0 -0.72069201497E-01  0.23545570914E+00  0.10113587647E+01  0.17130316249E+03  0.17130000000E+03 0.  1.
      622    1    1    2    0    0 -0.26492914573E-01 -0.17199486165E+00  0.30329013619E+01  0.38715339050E+01  0.24000000000E+01 0. -1.
</event>
<event>
 5   0  0.6825300E-03  0.9118800E+02  0.7818608E-02  0.1180000E+00
       11   -1    0    0    0    0  0.00000000000E+00  0.00000000000E+00  0.39999999673E+01  0.40000000000E+01  0.51109989000E-03 0. -1.
     -623   -1    0    0    0    0  0.00000000000E+00  0.00000000000E+00  0.12525980253E-10  0.17130000000E+03  0.17130000000E+03 0.  1.
       11    1    1    2    0    0  0.38957846415E-01  0.16622470784E-01 -0.59724396545E-01  0.73220796896E-01  0.51109989000E-03 0. -1.
     -623    1    1    2    0    0 -0.18775829774E+00  0.44271010290E+00  0.99402235962E+00  0.17130355900E+03  0.17130000000E+03 0.  1.
      622    1    1    2    0    0  0.14880045133E+00 -0.45933257369E+00  0.30657020043E+01  0.39232202037E+01  0.24000000000E+01 0. -1.
</event>
<event>
 5   0  0.6825300E-03  0.9118800E+02  0.7818608E-02  0.1180000E+00
       11   -1    0    0    0    0  0.00000000000E+00  0.00000000000E+00  0.39999999673E+01  0.40000000000E+01  0.51109989000E-03 0. -1.
     -623   -1    0    0    0    0  0.00000000000E+00  0.00000000000E+00  0.12525980253E-10  0.17130000000E+03  0.17130000000E+03 0.  1.
       11    1    1    2    0    0  0.20157142671E+00 -0.32826266661E+00  0.36242726259E+00  0.52890566290E+00  0.51109989000E-03 0. -1.
     -623    1    1    2    0    0 -0.62623242737E+00  0.24981865398E+00  0.11748804205E+01  0.17130535578E+03  0.17130000000E+03 0.  1.
      622    1    1    2    0    0  0.42466100067E+00  0.78444012632E-01  0.24626922843E+01  0.34657385527E+01  0.24000000000E+01 0. -1.
</event>
<event>
 5   0  0.6825300E-03  0.9118800E+02  0.7818608E-02  0.1180000E+00
       11   -1    0    0    0    0  0.00000000000E+00  0.00000000000E+00  0.39999999673E+01  0.40000000000E+01  0.51109989000E-03 0. -1.
     -623   -1    0    0    0    0  0.00000000000E+00  0.00000000000E+00  0.12525980253E-10  0.17130000000E+03  0.17130000000E+03 0. -1.
       11    1    1    2    0    0  0.11863262005E+00  0.23078136862E-01  0.80804031147E-01  0.14538174443E+00  0.51109989000E-03 0. -1.
     -623    1    1    2    0    0 -0.88999579637E-01 -0.10742500551E+00  0.90736403135E+00  0.17130245991E+03  0.17130000000E+03 0. -1.
      622    1    1    2    0    0 -0.29633040415E-01  0.84346868652E-01  0.30118319049E+01  0.38521583475E+01  0.24000000000E+01 0. -1.
</event>
<event>
 5   0  0.6825300E-03  0.9118800E+02  0.7818608E-02  0.1180000E+00
       11   -1    0    0    0    0  0.00000000000E+00  0.00000000000E+00  0.39999999673E+01  0.40000000000E+01  0.51109989000E-03 0.  1.
     -623   -1    0    0    0    0  0.00000000000E+00  0.00000000000E+00  0.12525980253E-10  0.17130000000E+03  0.17130000000E+03 0. -1.
       11    1    1    2    0    0  0.20590515107E+00  0.17504356197E+00  0.16150003286E+00  0.31483281541E+00  0.51109989000E-03 0.  1.
     -623    1    1    2    0    0 -0.76250938799E+00  0.42673892221E+00  0.11734487196E+01  0.17130624772E+03  0.17130000000E+03 0. -1.
      622    1    1    2    0    0  0.55660423692E+00 -0.60178248418E+00  0.26650512149E+01  0.36789194626E+01  0.24000000000E+01 0.  1.
</event>
<event>
 5   0  0.6825300E-03  0.9118800E+02  0.7818608E-02  0.1180000E+00
       11   -1    0    0    0    0  0.00000000000E+00  0.00000000000E+00  0.39999999673E+01  0.40000000000E+01  0.51109989000E-03 0. -1.
     -623   -1    0    0    0    0  0.00000000000E+00  0.00000000000E+00  0.12525980253E-10  0.17130000000E+03  0.17130000000E+03 0. -1.
       11    1    1    2    0    0 -0.49815705243E-01  0.25952600575E-01 -0.69621292672E-01  0.89456847597E-01  0.51109989000E-03 0. -1.
     -623    1    1    2    0    0  0.77433901639E-01 -0.32100471706E-01  0.98592140817E+00  0.17130285773E+03  0.17130000000E+03 0. -1.
      622    1    1    2    0    0 -0.27618196396E-01  0.61478711311E-02  0.30836998519E+01  0.39076854195E+01  0.24000000000E+01 0. -1.
</event>
<event>
 5   0  0.6825300E-03  0.9118800E+02  0.7818608E-02  0.1180000E+00
       11   -1    0    0    0    0  0.00000000000E+00  0.00000000000E+00  0.39999999673E+01  0.40000000000E+01  0.51109989000E-03 0. -1.
     -623   -1    0    0    0    0  0.00000000000E+00  0.00000000000E+00  0.12525980253E-10  0.17130000000E+03  0.17130000000E+03 0.  1.
       11    1    1    2    0    0  0.31443161517E+00  0.15970738694E+00  0.45022214958E-01  0.35552911431E+00  0.51109989000E-03 0. -1.
     -623    1    1    2    0    0 -0.15765848843E+00  0.26986896916E+00  0.12573181273E+01  0.17130489933E+03  0.17130000000E+03 0.  1.
      622    1    1    2    0    0 -0.15677312674E+00 -0.42957635610E+00  0.26976596251E+01  0.36395715561E+01  0.24000000000E+01 0. -1.
</event>
<event>
 5   0  0.6825300E-03  0.9118800E+02  0.7818608E-02  0.1180000E+00
       11   -1    0    0    0    0  0.00000000000E+00  0.00000000000E+00  0.39999999673E+01  0.40000000000E+01  0.51109989000E-03 0. -1.
     -623   -1    0    0    0    0  0.00000000000E+00  0.00000000000E+00  0.12525980253E-10  0.17130000000E+03  0.17130000000E+03 0.  1.
       11    1    1    2    0    0 -0.62414342606E-01 -0.16705460167E-01  0.22536997150E-01  0.68430987322E-01  0.51109989000E-03 0. -1.
     -623    1    1    2    0    0 -0.21156226147E+00  0.56947023956E-01  0.87879688148E+00  0.17130239428E+03  0.17130000000E+03 0.  1.
      622    1    1    2    0    0  0.27397660407E+00 -0.40241563789E-01  0.30986660887E+01  0.39291747343E+01  0.24000000000E+01 0. -1.
</event>
<event>
 5   0  0.6825300E-03  0.9118800E+02  0.7818608E-02  0.1180000E+00
       11   -1    0    0    0    0  0.00000000000E+00  0.00000000000E+00  0.39999999673E+01  0.40000000000E+01  0.51109989000E-03 0. -1.
     -623   -1    0    0    0    0  0.00000000000E+00  0.00000000000E+00  0.12525980253E-10  0.17130000000E+03  0.17130000000E+03 0. -1.
       11    1    1    2    0    0 -0.34259058297E-01  0.31752323217E-01 -0.11585481048E-01  0.48128761664E-01  0.51109989000E-03 0. -1.
     -623    1    1    2    0    0  0.87073887050E-01 -0.13443477252E+00  0.87700044952E+00  0.17130231985E+03  0.17130000000E+03 0. -1.
      622    1    1    2    0    0 -0.52814828753E-01  0.10268244930E+00  0.31345849989E+01  0.39495513931E+01  0.24000000000E+01 0. -1.
</event>
<event>
 5   0  0.6825300E-03  0.9118800E+02  0.7818608E-02  0.1180000E+00
       11   -1    0    0    0    0  0.00000000000E+00  0.00000000000E+00  0.39999999673E+01  0.40000000000E+01  0.51109989000E-03 0. -1.
     -623   -1    0    0    0    0  0.00000000000E+00  0.00000000000E+00  0.12525980253E-10  0.17130000000E+03  0.17130000000E+03 0. -1.
       11    1    1    2    0    0  0.12128192168E+00  0.35118278831E-01 -0.83402414980E-02  0.12654018684E+00  0.51109989000E-03 0. -1.
     -623    1    1    2    0    0 -0.21669465444E+00 -0.16430042414E+00  0.97606488353E+00  0.17130299663E+03  0.17130000000E+03 0. -1.
      622    1    1    2    0    0  0.95412732763E-01  0.12918214531E+00  0.30322753253E+01  0.38704631848E+01  0.24000000000E+01 0. -1.
</event>
<event>
 5   0  0.6825300E-03  0.9118800E+02  0.7818608E-02  0.1180000E+00
       11   -1    0    0    0    0  0.00000000000E+00  0.00000000000E+00  0.39999999673E+01  0.40000000000E+01  0.51109989000E-03 0.  1.
     -623   -1    0    0    0    0  0.00000000000E+00  0.00000000000E+00  0.12525980253E-10  0.17130000000E+03  0.17130000000E+03 0. -1.
       11    1    1    2    0    0  0.41799003606E-01 -0.43599947980E-01  0.24367295338E+00  0.25104756840E+00  0.51109989000E-03 0.  1.
     -623    1    1    2    0    0 -0.11504967311E-01  0.44452072735E+00  0.90841361044E+00  0.17130298581E+03  0.17130000000E+03 0. -1.
      622    1    1    2    0    0 -0.30294036295E-01 -0.40092077937E+00  0.28479134035E+01  0.37459666248E+01  0.24000000000E+01 0.  1.
</event>
<event>
 5   0  0.6825300E-03  0.9118800E+02  0.7818608E-02  0.1180000E+00
       11   -1    0    0    0    0  0.00000000000E+00  0.00000000000E+00  0.39999999673E+01  0.40000000000E+01  0.51109989000E-03 0. -1.
     -623   -1    0    0    0    0  0.00000000000E+00  0.00000000000E+00  0.12525980253E-10  0.17130000000E+03  0.17130000000E+03 0. -1.
       11    1    1    2    0    0  0.16370822442E+00  0.21734179916E+00 -0.87003439224E-01  0.28567061463E+00  0.51109989000E-03 0. -1.
     -623    1    1    2    0    0  0.11127258149E+00 -0.71644913709E+00  0.13188904872E+01  0.17130661153E+03  0.17130000000E+03 0. -1.
      622    1    1    2    0    0 -0.27498080591E+00  0.49910733793E+00  0.27681129194E+01  0.37077178578E+01  0.24000000000E+01 0. -1.
</event>
<event>
 5   0  0.6825300E-03  0.9118800E+02  0.7818608E-02  0.1180000E+00
       11   -1    0    0    0    0  0.00000000000E+00  0.00000000000E+00  0.39999999673E+01  0.40000000000E+01  0.51109989000E-03 0. -1.
     -623   -1    0    0    0    0  0.00000000000E+00  0.00000000000E+00  0.12525980253E-10  0.17130000000E+03  0.17130000000E+03 0. -1.
       11    1    1    2    0    0  0.17122547859E+00  0.32139763783E-01  0.29887926982E+00  0.34594827372E+00  0.51109989000E-03 0. -1.
     -623    1    1    2    0    0 -0.85679090165E-01  0.20552636151E+00  0.96113239279E+00  0.17130284107E+03  0.17130000000E+03 0. -1.
      622    1    1    2    0    0 -0.85546388430E-01 -0.23766612529E+00  0.27399883047E+01  0.36512106597E+01  0.24000000000E+01 0. -1.
</event>
<event>
 5   0  0.6825300E-03  0.9118800E+02  0.7818608E-02  0.1180000E+00
       11   -1    0    0    0    0  0.00000000000E+00  0.00000000000E+00  0.39999999673E+01  0.40000000000E+01  0.51109989000E-03 0. -1.
     -623   -1    0    0    0    0  0.00000000000E+00  0.00000000000E+00  0.12525980253E-10  0.17130000000E+03  0.17130000000E+03 0. -1.
       11    1    1    2    0    0  0.16903887208E-01 -0.59982565810E-01 -0.92016152021E-02  0.62996670938E-01  0.51109989000E-03 0. -1.
     -623    1    1    2    0    0  0.23149035016E+00 -0.59614493173E+00  0.97331026808E+00  0.17130395883E+03  0.17130000000E+03 0. -1.
      622    1    1    2    0    0 -0.24839423736E+00  0.65612749754E+00  0.30358913145E+01  0.39330445031E+01  0.24000000000E+01 0. -1.
</event>
<event>
 5   0  0.6825300E-03  0.9118800E+02  0.7818608E-02  0.1180000E+00
       11   -1    0    0    0    0  0.00000000000E+00  0.00000000000E+00  0.39999999673E+01  0.40000000000E+01  0.51109989000E-03 0. -1.
     -623   -1    0    0    0    0  0.00000000000E+00  0.00000000000E+00  0.12525980253E-10  0.17130000000E+03  0.17130000000E+03 0. -1.
       11    1    1    2    0    0  0.19050055686E+00  0.49334479422E-01  0.20050829040E+00  0.28094161095E+00  0.51109989000E-03 0. -1.
     -623    1    1    2    0    0 -0.71122671717E-01 -0.71927293394E+00  0.10475500035E+01  0.17130472782E+03  0.17130000000E+03 0. -1.
      622    1    1    2    0    0 -0.11937788514E+00  0.66993845452E+00  0.27519416735E+01  0.37143305705E+01  0.24000000000E+01 0. -1.
</event>
<event>
 5   0  0.6825300E-03  0.9118800E+02  0.7818608E-02  0.1180000E+00
       11   -1    0    0    0    0  0.00000000000E+00  0.00000000000E+00  0.39999999673E+01  0.40000000000E+01  0.51109989000E-03 0. -1.
     -623   -1    0    0    0    0  0.00000000000E+00  0.00000000000E+00  0.12525980253E-10  0.17130000000E+03  0.17130000000E+03 0. -1.
       11    1    1    2    0    0 -0.18035634126E+00  0.17960488153E+00  0.14261870522E+00  0.29176476759E+00  0.51109989000E-03 0. -1.
     -623    1    1    2    0    0 -0.44716502706E+00 -0.58806719861E+00  0.11388295805E+01  0.17130537853E+03  0.17130000000E+03 0. -1.
      622    1    1    2    0    0  0.62752136832E+00  0.40846231707E+00  0.27185516817E+01  0.37028567050E+01  0.24000000000E+01 0. -1.
</event>
<event>
 5   0  0.6825300E-03  0.9118800E+02  0.7818608E-02  0.1180000E+00
       11   -1    0    0    0    0  0.00000000000E+00  0.00000000000E+00  0.39999999673E+01  0.40000000000E+01  0.51109989000E-03 0.  1.
     -623   -1    0    0    0    0  0.00000000000E+00  0.00000000000E+00  0.12525980253E-10  0.17130000000E+03  0.17130000000E+03 0. -1.
       11    1    1    2    0    0  0.29003811664E+00 -0.57463692396E-01  0.38287227434E+00  0.48375161470E+00  0.51109989000E-03 0.  1.
     -623    1    1    2    0    0 -0.33216994369E-01  0.19702994823E+00  0.10687333090E+01  0.17130345039E+03  0.17130000000E+03 0. -1.
      622    1    1    2    0    0 -0.25682112227E+00 -0.13956625584E+00  0.25483943841E+01  0.35127979967E+01  0.24000000000E+01 0.  1.
</event>
<event>
 5   0  0.6825300E-03  0.9118800E+02  0.7818608E-02  0.1180000E+00
       11   -1    0    0    0    0  0.00000000000E+00  0.00000000000E+00  0.39999999673E+01  0.40000000000E+01  0.51109989000E-03 0. -1.
     -623   -1    0    0    0    0  0.00000000000E+00  0.00000000000E+00  0.12525980253E-10  0.17130000000E+03  0.17130000000E+03 0. -1.
       11    1    1    2    0    0  0.13712916330E+00  0.26687040682E+00 -0.17273335083E-01  0.30053760296E+00  0.51109989000E-03 0. -1.
     -623    1    1    2    0    0 -0.33844451716E+00 -0.49377739046E+00  0.12255243245E+01  0.17130542978E+03  0.17130000000E+03 0. -1.
      622    1    1    2    0    0  0.20131535386E+00  0.22690698364E+00  0.27917489779E+01  0.36940326212E+01  0.24000000000E+01 0. -1.
</event>
<event>
 5   0  0.6825300E-03  0.9118800E+02  0.7818608E-02  0.1180000E+00
       11   -1    0    0    0    0  0.00000000000E+00  0.00000000000E+00  0.39999999673E+01  0.40000000000E+01  0.51109989000E-03 0.  1.
     -623   -1    0    0    0    0  0.00000000000E+00  0.00000000000E+00  0.12525980253E-10  0.17130000000E+03  0.17130000000E+03 0.  1.
       11    1    1    2    0    0 -0.14846771393E+00  0.19147066512E+00 -0.26521965802E-01  0.24373623770E+00  0.51109989000E-03 0.  1.
     -623    1    1    2    0    0  0.38202802149E+00 -0.37993786234E+00  0.11588298434E+01  0.17130476696E+03  0.17130000000E+03 0.  1.
      622    1    1    2    0    0 -0.23356030756E+00  0.18846719723E+00  0.28676920897E+01  0.37514967977E+01  0.24000000000E+01 0.  1.
</event>
<event>
 5   0  0.6825300E-03  0.9118800E+02  0.7818608E-02  0.1180000E+00
       11   -1    0    0    0    0  0.00000000000E+00  0.00000000000E+00  0.39999999673E+01  0.40000000000E+01  0.51109989000E-03 0. -1.
     -623   -1    0    0    0    0  0.00000000000E+00  0.00000000000E+00  0.12525980253E-10  0.17130000000E+03  0.17130000000E+03 0. -1.
       11    1    1    2    0    0  0.19895612818E+00 -0.20067955603E+00 -0.14688065890E+00  0.31848079115E+00  0.51109989000E-03 0. -1.
     -623    1    1    2    0    0 -0.12762274758E-01 -0.83442429324E-01  0.13833792573E+01  0.17130560663E+03  0.17130000000E+03 0. -1.
      622    1    1    2    0    0 -0.18619385342E+00  0.28412198536E+00  0.27635013690E+01  0.36759125765E+01  0.24000000000E+01 0. -1.
</event>
<event>
 5   0  0.6825300E-03  0.9118800E+02  0.7818608E-02  0.1180000E+00
       11   -1    0    0    0    0  0.00000000000E+00  0.00000000000E+00  0.39999999673E+01  0.40000000000E+01  0.51109989000E-03 0.  1.
     -623   -1    0    0    0    0  0.00000000000E+00  0.00000000000E+00  0.12525980253E-10  0.17130000000E+03  0.17130000000E+03 0. -1.
       11    1    1    2    0    0  0.37303669227E+00  0.94275407990E-01 -0.29135905535E-01  0.38586706071E+00  0.51109989000E-03 0.  1.
     -623    1    1    2    0    0 -0.36195752495E+00  0.19127010973E+00  0.13498914020E+01  0.17130580785E+03  0.17130000000E+03 0. -1.
      622    1    1    2    0    0 -0.11079167314E-01 -0.28554551772E+00  0.26792444709E+01  0.36083250859E+01  0.24000000000E+01 0.  1.
</event>
<event>
 5   0  0.6825300E-03  0.9118800E+02  0.7818608E-02  0.1180000E+00
       11   -1    0    0    0    0  0.00000000000E+00  0.00000000000E+00  0.39999999673E+01  0.40000000000E+01  0.51109989000E-03 0. -1.
     -623   -1    0    0    0    0  0.00000000000E+00  0.00000000000E+00  0.12525980253E-10  0.17130000000E+03  0.17130000000E+03 0.  1.
       11    1    1    2    0    0  0.84859457021E-01 -0.65354975706E-01  0.62733454517E-01  0.12412956067E+00  0.51109989000E-03 0. -1.
     -623    1    1    2    0    0 -0.34545108578E+00  0.33989537370E+00  0.92154568188E+00  0.17130316434E+03  0.17130000000E+03 0.  1.
      622    1    1    2    0    0  0.26059162876E+00 -0.27454039799E+00  0.30157208310E+01  0.38727061026E+01  0.24000000000E+01 0. -1.
</event>
<event>
 5   0  0.6825300E-03  0.9118800E+02  0.7818608E-02  0.1180000E+00
       11   -1    0    0    0    0  0.00000000000E+00  0.00000000000E+00  0.39999999673E+01  0.40000000000E+01  0.51109989000E-03 0.  1.
     -623   -1    0    0    0    0  0.00000000000E+00  0.00000000000E+00  0.12525980253E-10  0.17130000000E+03  0.17130000000E+03 0. -1.
       11    1    1    2    0    0 -0.36859120704E-01 -0.13206403873E+00  0.17007057004E+00  0.21845769642E+00  0.51109989000E-03 0.  1.
     -623    1    1    2    0    0 -0.14302359685E+00  0.21596183599E+00  0.91778297339E+00  0.17130265445E+03  0.17130000000E+03 0. -1.
      622    1    1    2    0    0  0.17988271755E+00 -0.83897797255E-01  0.29121464239E+01  0.37788878558E+01  0.24000000000E+01 0.  1.
</event>
<event>
 5   0  0.6825300E-03  0.9118800E+02  0.7818608E-02  0.1180000E+00
       11   -1    0    0    0    0  0.00000000000E+00  0.00000000000E+00  0.39999999673E+01  0.40000000000E+01  0.51109989000E-03 0.  1.
     -623   -1    0    0    0    0  0.00000000000E+00  0.00000000000E+00  0.12525980253E-10  0.17130000000E+03  0.17130000000E+03 0.  1.
       11    1    1    2    0    0 -0.10620770952E+00 -0.12408798691E+00 -0.15134122162E+00  0.22267090659E+00  0.51109989000E-03 0.  1.
     -623    1    1    2    0    0  0.95141982236E+00 -0.43899506989E+00  0.14296552013E+01  0.17130917030E+03  0.17130000000E+03 0.  1.
      622    1    1    2    0    0 -0.84521211284E+00  0.56308305679E+00  0.27216859877E+01  0.37681587891E+01  0.24000000000E+01 0.  1.
</event>
<event>
 5   0  0.6825300E-03  0.9118800E+02  0.7818608E-02  0.1180000E+00
       11   -1    0    0    0    0  0.00000000000E+00  0.00000000000E+00  0.39999999673E+01  0.40000000000E+01  0.51109989000E-03 0.  1.
     -623   -1    0    0    0    0  0.00000000000E+00  0.00000000000E+00  0.12525980253E-10  0.17130000000E+03  0.17130000000E+03 0. -1.
       11    1    1    2    0    0 -0.70913498349E-01 -0.89731639464E-01 -0.51216620927E-01  0.12531518204E+00  0.51109989000E-03 0.  1.
     -623    1    1    2    0    0  0.42236251660E+00  0.24519474894E+00  0.10386234998E+01  0.17130384482E+03  0.17130000000E+03 0. -1.
      622    1    1    2    0    0 -0.35144901826E+00 -0.15546310948E+00  0.30125930885E+01  0.38708400002E+01  0.24000000000E+01 0.  1.
</event>
<event>
 5   0  0.6825300E-03  0.9118800E+02  0.7818608E-02  0.1180000E+00
       11   -1    0    0    0    0  0.00000000000E+00  0.00000000000E+00  0.39999999673E+01  0.40000000000E+01  0.51109989000E-03 0.  1.
     -623   -1    0    0    0    0  0.00000000000E+00  0.00000000000E+00  0.12525980253E-10  0.17130000000E+03  0.17130000000E+03 0.  1.
       11    1    1    2    0    0 -0.11613695450E+00 -0.15355862199E+00 -0.85051976734E-01  0.21048074154E+00  0.51109989000E-03 0.  1.
     -623    1    1    2    0    0  0.21398453095E+00 -0.31196472887E+00  0.11972647301E+01  0.17130460167E+03  0.17130000000E+03 0.  1.
      622    1    1    2    0    0 -0.97847576453E-01  0.46552335087E+00  0.28877872140E+01  0.37849175859E+01  0.24000000000E+01 0.  1.
</event>
<event>
 5   0  0.6825300E-03  0.9118800E+02  0.7818608E-02  0.1180000E+00
       11   -1    0    0    0    0  0.00000000000E+00  0.00000000000E+00  0.39999999673E+01  0.40000000000E+01  0.51109989000E-03 0. -1.
     -623   -1    0    0    0    0  0.00000000000E+00  0.00000000000E+00  0.12525980253E-10  0.17130000000E+03  0.17130000000E+03 0. -1.
       11    1    1    2    0    0 -0.36369088330E+00  0.28919737949E+00  0.15654395159E+00  0.49031872583E+00  0.51109989000E-03 0. -1.
     -623    1    1    2    0    0  0.96055603106E+00 -0.72666303697E+00  0.14062234671E+01  0.17131000605E+03  0.17130000000E+03 0. -1.
      622    1    1    2    0    0 -0.59686514777E+00  0.43746565748E+00  0.24372325487E+01  0.34996752281E+01  0.24000000000E+01 0. -1.
</event>
<event>
 5   0  0.6825300E-03  0.9118800E+02  0.7818608E-02  0.1180000E+00
       11   -1    0    0    0    0  0.00000000000E+00  0.00000000000E+00  0.39999999673E+01  0.40000000000E+01  0.51109989000E-03 0.  1.
     -623   -1    0    0    0    0  0.00000000000E+00  0.00000000000E+00  0.12525980253E-10  0.17130000000E+03  0.17130000000E+03 0.  1.
       11    1    1    2    0    0  0.42409215005E-01  0.22902608955E-01 -0.21095424557E-01  0.52615104054E-01  0.51109989000E-03 0.  1.
     -623    1    1    2    0    0 -0.19009650277E+00 -0.83927943208E-01  0.89429293228E+00  0.17130246040E+03  0.17130000000E+03 0.  1.
      622    1    1    2    0    0  0.14768728776E+00  0.61025334253E-01  0.31268024596E+01  0.39449244920E+01  0.24000000000E+01 0.  1.
</event>
<event>
 5   0  0.6825300E-03  0.9118800E+02  0.7818608E-02  0.1180000E+00
       11   -1    0    0    0    0  0.00000000000E+00  0.00000000000E+00  0.39999999673E+01  0.40000000000E+01  0.51109989000E-03 0. -1.
     -623   -1    0    0    0    0  0.00000000000E+00  0.00000000000E+00  0.12525980253E-10  0.17130000000E+03  0.17130000000E+03 0. -1.
       11    1    1    2    0    0  0.76184398787E+00 -0.38722577141E-01  0.56023556582E+00  0.94645118748E+00  0.51109989000E-03 0. -1.
     -623    1    1    2    0    0 -0.26666386650E+00 -0.17452647171E+00  0.16443421037E+01  0.17130818845E+03  0.17130000000E+03 0. -1.
      622    1    1    2    0    0 -0.49518012137E+00  0.21324904885E+00  0.17954222978E+01  0.30453603624E+01  0.24000000000E+01 0. -1.
</event>
<event>
 5   0  0.6825300E-03  0.9118800E+02  0.7818608E-02  0.1180000E+00
       11   -1    0    0    0    0  0.00000000000E+00  0.00000000000E+00  0.39999999673E+01  0.40000000000E+01  0.51109989000E-03 0.  1.
     -623   -1    0    0    0    0  0.00000000000E+00  0.00000000000E+00  0.12525980253E-10  0.17130000000E+03  0.17130000000E+03 0.  1.
       11    1    1    2    0    0  0.24640564060E+00  0.34606164723E+00 -0.18647159257E+00  0.46394646185E+00  0.51109989000E-03 0.  1.
     -623    1    1    2    0    0 -0.18414544947E+00 -0.78605474845E+00  0.16414312412E+01  0.17130976647E+03  0.17130000000E+03 0.  1.
      622    1    1    2    0    0 -0.62260191129E-01  0.43999310122E+00  0.25450403187E+01  0.35262870678E+01  0.24000000000E+01 0.  1.
</event>
<event>
 5   0  0.6825300E-03  0.9118800E+02  0.7818608E-02  0.1180000E+00
       11   -1    0    0    0    0  0.00000000000E+00  0.00000000000E+00  0.39999999673E+01  0.40000000000E+01  0.51109989000E-03 0.  1.
     -623   -1    0    0    0    0  0.00000000000E+00  0.00000000000E+00  0.12525980253E-10  0.17130000000E+03  0.17130000000E+03 0. -1.
       11    1    1    2    0    0 -0.16288835739E+00 -0.25570639843E-01 -0.54492752348E-01  0.17365539404E+00  0.51109989000E-03 0.  1.
     -623    1    1    2    0    0  0.43180257863E+00 -0.32553162035E+00  0.11132118981E+01  0.17130447065E+03  0.17130000000E+03 0. -1.
      622    1    1    2    0    0 -0.26891422123E+00  0.35110226020E+00  0.29412808217E+01  0.38218739549E+01  0.24000000000E+01 0.  1.
</event>
<event>
 5   0  0.6825300E-03  0.9118800E+02  0.7818608E-02  0.1180000E+00
       11   -1    0    0    0    0  0.00000000000E+00  0.00000000000E+00  0.39999999673E+01  0.40000000000E+01  0.51109989000E-03 0.  1.
     -623   -1    0    0    0    0  0.00000000000E+00  0.00000000000E+00  0.12525980253E-10  0.17130000000E+03  0.17130000000E+03 0. -1.
       11    1    1    2    0    0 -0.16224439336E+00 -0.38211601417E-01  0.63375174531E+00  0.65530520032E+00  0.51109989000E-03 0.  1.
     -623    1    1    2    0    0 -0.11553051166E+00  0.10932278870E+00  0.10592201251E+01  0.17130334861E+03  0.17130000000E+03 0. -1.
      622    1    1    2    0    0  0.27777490502E+00 -0.71111187282E-01  0.23070280969E+01  0.33413461866E+01  0.24000000000E+01 0.  1.
</event>
<event>
 5   0  0.6825300E-03  0.9118800E+02  0.7818608E-02  0.1180000E+00
       11   -1    0    0    0    0  0.00000000000E+00  0.00000000000E+00  0.39999999673E+01  0.40000000000E+01  0.51109989000E-03 0. -1.
     -623   -1    0    0    0    0  0.00000000000E+00  0.00000000000E+00  0.12525980253E-10  0.17130000000E+03  0.17130000000E+03 0.  1.
       11    1    1    2    0    0 -0.21388107524E-01 -0.36833861473E-01 -0.19740661426E+00  0.20195003607E+00  0.51109989000E-03 0. -1.
     -623    1    1    2    0    0 -0.64093974469E-01  0.71256499869E+00  0.13425868313E+01  0.17130675526E+03  0.17130000000E+03 0.  1.
      622    1    1    2    0    0  0.85482081993E-01 -0.67573113722E+00  0.28548197503E+01  0.37912947080E+01  0.24000000000E+01 0. -1.
</event>
<event>
 5   0  0.6825300E-03  0.9118800E+02  0.7818608E-02  0.1180000E+00
       11   -1    0    0    0    0  0.00000000000E+00  0.00000000000E+00  0.39999999673E+01  0.40000000000E+01  0.51109989000E-03 0. -1.
     -623   -1    0    0    0    0  0.00000000000E+00  0.00000000000E+00  0.12525980253E-10  0.17130000000E+03  0.17130000000E+03 0.  1.
       11    1    1    2    0    0 -0.25681458847E+00 -0.35733520559E-01  0.44345409872E+00  0.51369486686E+00  0.51109989000E-03 0. -1.
     -623    1    1    2    0    0  0.91717412527E-01 -0.14306767741E+00  0.10441102908E+01  0.17130326630E+03  0.17130000000E+03 0.  1.
      622    1    1    2    0    0  0.16509717594E+00  0.17880119797E+00  0.25124355778E+01  0.34830388282E+01  0.24000000000E+01 0. -1.
</event>
<event>
 5   0  0.6825300E-03  0.9118800E+02  0.7818608E-02  0.1180000E+00
       11   -1    0    0    0    0  0.00000000000E+00  0.00000000000E+00  0.39999999673E+01  0.40000000000E+01  0.51109989000E-03 0.  1.
     -623   -1    0    0    0    0  0.00000000000E+00  0.00000000000E+00  0.12525980253E-10  0.17130000000E+03  0.17130000000E+03 0. -1.
       11    1    1    2    0    0 -0.10613192705E-02 -0.12963605486E-01  0.19755480696E-01  0.23658438377E-01  0.51109989000E-03 0.  1.
     -623    1    1    2    0    0 -0.40354670395E+00  0.58019505481E+00  0.89223962840E+00  0.17130378153E+03  0.17130000000E+03 0. -1.
      622    1    1    2    0    0  0.40460802322E+00 -0.56723144933E+00  0.30880048583E+01  0.39725600278E+01  0.24000000000E+01 0.  1.
</event>
<event>
 5   0  0.6825300E-03  0.9118800E+02  0.7818608E-02  0.1180000E+00
       11   -1    0    0    0    0  0.00000000000E+00  0.00000000000E+00  0.39999999673E+01  0.40000000000E+01  0.51109989000E-03 0.  1.
     -623   -1    0    0    0    0  0.00000000000E+00  0.00000000000E+00  0.12525980253E-10  0.17130000000E+03  0.17130000000E+03 0.  1.
       11    1    1    2    0    0  0.15079955549E-01 -0.66918499949E-01  0.12733975253E-01  0.69770380848E-01  0.51109989000E-03 0.  1.
     -623    1    1    2    0    0  0.37995683681E-01 -0.14436975434E-01  0.87929277582E+00  0.17130226154E+03  0.17130000000E+03 0.  1.
      622    1    1    2    0    0 -0.53075639230E-01  0.81355475383E-01  0.31079732163E+01  0.39279680816E+01  0.24000000000E+01 0.  1.
</event>
<event>
 5   0  0.6825300E-03  0.9118800E+02  0.7818608E-02  0.1180000E+00
       11   -1    0    0    0    0  0.00000000000E+00  0.00000000000E+00  0.39999999673E+01  0.40000000000E+01  0.51109989000E-03 0.  1.
     -623   -1    0    0    0    0  0.00000000000E+00  0.00000000000E+00  0.12525980253E-10  0.17130000000E+03  0.17130000000E+03 0. -1.
       11    1    1    2    0    0  0.54796502280E-01  0.44730295957E-02  0.35584375594E+00  0.36006625018E+00  0.51109989000E-03 0.  1.
     -623    1    1    2    0    0 -0.21436864840E+00  0.48338599626E+00  0.96085578744E+00  0.17130351094E+03  0.17130000000E+03 0. -1.
      622    1    1    2    0    0  0.15957214612E+00 -0.48785902585E+00  0.26833004240E+01  0.36364228115E+01  0.24000000000E+01 0.  1.
</event>
<event>
 5   0  0.6825300E-03  0.9118800E+02  0.7818608E-02  0.1180000E+00
       11   -1    0    0    0    0  0.00000000000E+00  0.00000000000E+00  0.39999999673E+01  0.40000000000E+01  0.51109989000E-03 0.  1.
     -623   -1    0    0    0    0  0.00000000000E+00  0.00000000000E+00  0.12525980253E-10  0.17130000000E+03  0.17130000000E+03 0.  1.
       11    1    1    2    0    0 -0.13805348328E+00 -0.77997795201E-01  0.25652909679E-01  0.16062612894E+00  0.51109989000E-03 0.  1.
     -623    1    1    2    0    0  0.47736566746E+00 -0.75279817528E-01  0.10054608473E+01  0.17130363247E+03  0.17130000000E+03 0.  1.
      622    1    1    2    0    0 -0.33931218418E+00  0.15327761273E+00  0.29688862104E+01  0.38357414036E+01  0.24000000000E+01 0.  1.
</event>
<event>
 5   0  0.6825300E-03  0.9118800E+02  0.7818608E-02  0.1180000E+00
       11   -1    0    0    0    0  0.00000000000E+00  0.00000000000E+00  0.39999999673E+01  0.40000000000E+01  0.51109989000E-03 0. -1.
     -623   -1    0    0    0    0  0.00000000000E+00  0.00000000000E+00  0.12525980253E-10  0.17130000000E+03  0.17130000000E+03 0. -1.
       11    1    1    2    0    0  0.85490112080E-01  0.29458044402E+00  0.12276318682E+00  0.33038955571E+00  0.51109989000E-03 0. -1.
     -623    1    1    2    0    0 -0.51835888021E+00  0.37460448731E+00  0.12258340902E+01  0.17130557987E+03  0.17130000000E+03 0. -1.
      622    1    1    2    0    0  0.43286876813E+00 -0.66918493133E+00  0.26514026904E+01  0.36640305770E+01  0.24000000000E+01 0. -1.
</event>
<event>
 5   0  0.6825300E-03  0.9118800E+02  0.7818608E-02  0.1180000E+00
       11   -1    0    0    0    0  0.00000000000E+00  0.00000000000E+00  0.39999999673E+01  0.40000000000E+01  0.51109989000E-03 0. -1.
     -623   -1    0    0    0    0  0.00000000000E+00  0.00000000000E+00  0.12525980253E-10  0.17130000000E+03  0.17130000000E+03 0. -1.
       11    1    1    2    0    0  0.19656044489E+00  0.16374620564E+00  0.14172873281E+00  0.29246559333E+00  0.51109989000E-03 0. -1.
     -623    1    1    2    0    0 -0.42908764615E+00 -0.10368323521E+01  0.11915231284E+01  0.17130781904E+03  0.17130000000E+03 0. -1.
      622    1    1    2    0    0  0.23252720126E+00  0.87308614642E+00  0.26667481062E+01  0.36997153647E+01  0.24000000000E+01 0.  0.
</event>
<event>
 5   0  0.6825300E-03  0.9118800E+02  0.7818608E-02  0.1180000E+00
       11   -1    0    0    0    0  0.00000000000E+00  0.00000000000E+00  0.39999999673E+01  0.40000000000E+01  0.51109989000E-03 0.  1.
     -623   -1    0    0    0    0  0.00000000000E+00  0.00000000000E+00  0.12525980253E-10  0.17130000000E+03  0.17130000000E+03 0.  1.
       11    1    1    2    0    0 -0.10029768608E-01  0.13673529628E-01  0.71266181608E-01  0.73257706307E-01  0.51109989000E-03 0.  1.
     -623    1    1    2    0    0  0.28079217663E-01 -0.52698044074E+00  0.86738209103E+00  0.17130300887E+03  0.17130000000E+03 0.  1.
      622    1    1    2    0    0 -0.18049449056E-01  0.51330691111E+00  0.30613516947E+01  0.39237334219E+01  0.24000000000E+01 0. -1.
</event>
<event>
 5   0  0.6825300E-03  0.9118800E+02  0.7818608E-02  0.1180000E+00
       11   -1    0    0    0    0  0.00000000000E+00  0.00000000000E+00  0.39999999673E+01  0.40000000000E+01  0.51109989000E-03 0.  1.
     -623   -1    0    0    0    0  0.00000000000E+00  0.00000000000E+00  0.12525980253E-10  0.17130000000E+03  0.17130000000E+03 0.  1.
       11    1    1    2    0    0 -0.19395127407E+00 -0.75574456875E-02  0.48512902141E+00  0.52251759810E+00  0.51109989000E-03 0.  1.
     -623    1    1    2    0    0  0.19484914734E+00 -0.10736175246E+00  0.10052560022E+01  0.17130309405E+03  0.17130000000E+03 0.  1.
      622    1    1    2    0    0 -0.89787327297E-03  0.11491919815E+00  0.25096149438E+01  0.34743883482E+01  0.24000000000E+01 0.  1.
</event>
<event>
 5   0  0.6825300E-03  0.9118800E+02  0.7818608E-02  0.1180000E+00
       11   -1    0    0    0    0  0.00000000000E+00  0.00000000000E+00  0.39999999673E+01  0.40000000000E+01  0.51109989000E-03 0. -1.
     -623   -1    0    0    0    0  0.00000000000E+00  0.00000000000E+00  0.12525980253E-10  0.17130000000E+03  0.17130000000E+03 0. -1.
       11    1    1    2    0    0 -0.13909839366E-01  0.14681698617E+00 -0.46620734657E-01  0.15466888886E+00  0.51109989000E-03 0. -1.
     -623    1    1    2    0    0 -0.60269297466E+00  0.54028412338E+00  0.11957437386E+01  0.17130608556E+03  0.17130000000E+03 0. -1.
      622    1    1    2    0    0  0.61660281403E+00 -0.68710110954E+00  0.28508769634E+01  0.38392455542E+01  0.24000000000E+01 0. -1.
</event>
<event>
 5   0  0.6825300E-03  0.9118800E+02  0.7818608E-02  0.1180000E+00
       11   -1    0    0    0    0  0.00000000000E+00  0.00000000000E+00  0.39999999673E+01  0.40000000000E+01  0.51109989000E-03 0.  1.
     -623   -1    0    0    0    0  0.00000000000E+00  0.00000000000E+00  0.12525980253E-10  0.17130000000E+03  0.17130000000E+03 0. -1.
       11    1    1    2    0    0  0.79401300256E-01  0.51133427672E-01 -0.54719239845E-01  0.10914966945E+00  0.51109989000E-03 0.  1.
     -623    1    1    2    0    0  0.33593690753E+00 -0.11198032047E+00  0.10255638371E+01  0.17130343597E+03  0.17130000000E+03 0. -1.
      622    1    1    2    0    0 -0.41533820779E+00  0.60846892801E-01  0.30291553701E+01  0.38874143627E+01  0.24000000000E+01 0.  1.
</event>
<event>
 5   0  0.6825300E-03  0.9118800E+02  0.7818608E-02  0.1180000E+00
       11   -1    0    0    0    0  0.00000000000E+00  0.00000000000E+00  0.39999999673E+01  0.40000000000E+01  0.51109989000E-03 0.  1.
     -623   -1    0    0    0    0  0.00000000000E+00  0.00000000000E+00  0.12525980253E-10  0.17130000000E+03  0.17130000000E+03 0. -1.
       11    1    1    2    0    0 -0.31827208038E+00 -0.96044141174E-02  0.54613087413E+00  0.63217762917E+00  0.51109989000E-03 0.  1.
     -623    1    1    2    0    0  0.38549997431E+00 -0.11868854002E+00  0.11013772353E+01  0.17130401551E+03  0.17130000000E+03 0. -1.
      622    1    1    2    0    0 -0.67227893931E-01  0.12829295414E+00  0.23524918579E+01  0.33638068633E+01  0.24000000000E+01 0.  1.
</event>
<event>
 5   0  0.6825300E-03  0.9118800E+02  0.7818608E-02  0.1180000E+00
       11   -1    0    0    0    0  0.00000000000E+00  0.00000000000E+00  0.39999999673E+01  0.40000000000E+01  0.51109989000E-03 0. -1.
     -623   -1    0    0    0    0  0.00000000000E+00  0.00000000000E+00  0.12525980253E-10  0.17130000000E+03  0.17130000000E+03 0.  1.
       11    1    1    2    0    0 -0.44482938409E-01 -0.85274413437E-01 -0.17914526724E-01  0.97834804057E-01  0.51109989000E-03 0. -1.
     -623    1    1    2    0    0 -0.17423049033E-01  0.23932031801E+00  0.94911887549E+00  0.17130279742E+03  0.17130000000E+03 0.  1.
      622    1    1    2    0    0  0.61905987442E-01 -0.15404590457E+00  0.30687956186E+01  0.38993677745E+01  0.24000000000E+01 0. -1.
</event>
<event>
 5   0  0.6825300E-03  0.9118800E+02  0.7818608E-02  0.1180000E+00
       11   -1    0    0    0    0  0.00000000000E+00  0.00000000000E+00  0.39999999673E+01  0.40000000000E+01  0.51109989000E-03 0.  1.
     -623   -1    0    0    0    0  0.00000000000E+00  0.00000000000E+00  0.12525980253E-10  0.17130000000E+03  0.17130000000E+03 0. -1.
       11    1    1    2    0    0  0.63989396737E-01 -0.29266918443E-01  0.44445211420E-01  0.83227600286E-01  0.51109989000E-03 0.  1.
     -623    1    1    2    0    0 -0.24553085669E+00 -0.97906092318E-01  0.87123498248E+00  0.17130241948E+03  0.17130000000E+03 0. -1.
      622    1    1    2    0    0  0.18154145995E+00  0.12717301076E+00  0.30843197735E+01  0.39143529148E+01  0.24000000000E+01 0.  1.
</event>
<event>
 5   0  0.6825300E-03  0.9118800E+02  0.7818608E-02  0.1180000E+00
       11   -1    0    0    0    0  0.00000000000E+00  0.00000000000E+00  0.39999999673E+01  0.40000000000E+01  0.51109989000E-03 0. -1.
     -623   -1    0    0    0    0  0.00000000000E+00  0.00000000000E+00  0.12525980253E-10  0.17130000000E+03  0.17130000000E+03 0.  1.
       11    1    1    2    0    0 -0.19288540741E+00 -0.93503764543E-01  0.33850353205E+00  0.40066524282E+00  0.51109989000E-03 0. -1.
     -623    1    1    2    0    0  0.12486599493E+00 -0.15930089467E+00  0.99597977896E+00  0.17130301499E+03  0.17130000000E+03 0.  1.
      622    1    1    2    0    0  0.68019412480E-01  0.25280465922E+00  0.26655166564E+01  0.35963197691E+01  0.24000000000E+01 0. -1.
</event>
<event>
 5   0  0.6825300E-03  0.9118800E+02  0.7818608E-02  0.1180000E+00
       11   -1    0    0    0    0  0.00000000000E+00  0.00000000000E+00  0.39999999673E+01  0.40000000000E+01  0.51109989000E-03 0. -1.
     -623   -1    0    0    0    0  0.00000000000E+00  0.00000000000E+00  0.12525980253E-10  0.17130000000E+03  0.17130000000E+03 0. -1.
       11    1    1    2    0    0  0.10726038472E+00  0.57029154794E-01  0.40439092658E-01  0.12803396449E+00  0.51109989000E-03 0. -1.
     -623    1    1    2    0    0 -0.40835858200E+00 -0.62423426502E+00  0.99564862239E+00  0.17130451757E+03  0.17130000000E+03 0. -1.
      622    1    1    2    0    0  0.30109819728E+00  0.56720511023E+00  0.29639122523E+01  0.38674484613E+01  0.24000000000E+01 0.  0.
</event>
<event>
 5   0  0.6825300E-03  0.9118800E+02  0.7818608E-02  0.1180000E+00
       11   -1    0    0    0    0  0.00000000000E+00  0.00000000000E+00  0.39999999673E+01  0.40000000000E+01  0.51109989000E-03 0. -1.
     -623   -1    0    0    0    0  0.00000000000E+00  0.00000000000E+00  0.12525980253E-10  0.17130000000E+03  0.17130000000E+03 0. -1.
       11    1    1    2    0    0  0.77958718660E-01  0.19979011602E-01 -0.46420015767E-01  0.92907490573E-01  0.51109989000E-03 0. -1.
     -623    1    1    2    0    0 -0.17400659944E+00  0.15635546994E+00  0.97360480989E+00  0.17130292651E+03  0.17130000000E+03 0. -1.
      622    1    1    2    0    0  0.96047880778E-01 -0.17633448154E+00  0.30728151732E+01  0.39041659972E+01  0.24000000000E+01 0. -1.
</event>
<event>
 5   0  0.6825300E-03  0.9118800E+02  0.7818608E-02  0.1180000E+00
       11   -1    0    0    0    0  0.00000000000E+00  0.00000000000E+00  0.39999999673E+01  0.40000000000E+01  0.51109989000E-03 0. -1.
     -623   -1    0    0    0    0  0.00000000000E+00  0.00000000000E+00  0.12525980253E-10  0.17130000000E+03  0.17130000000E+03 0.  1.
       11    1    1    2    0    0 -0.14487924105E+00 -0.29184322231E+00  0.65201667463E-01  0.33228599061E+00  0.51109989000E-03 0. -1.
     -623    1    1    2    0    0 -0.21829403633E+00  0.58408190445E+00  0.12080260201E+01  0.17130539434E+03  0.17130000000E+03 0.  1.
      622    1    1    2    0    0  0.36317327738E+00 -0.29223868213E+00  0.27267722798E+01  0.36623196669E+01  0.24000000000E+01 0.  0.
</event>
<event>
 5   0  0.6825300E-03  0.9118800E+02  0.7818608E-02  0.1180000E+00
       11   -1    0    0    0    0  0.00000000000E+00  0.00000000000E+00  0.39999999673E+01  0.40000000000E+01  0.51109989000E-03 0. -1.
     -623   -1    0    0    0    0  0.00000000000E+00  0.00000000000E+00  0.12525980253E-10  0.17130000000E+03  0.17130000000E+03 0.  1.
       11    1    1    2    0    0  0.21694780958E-01 -0.49005732171E-01  0.15805849788E+00  0.16689809849E+00  0.51109989000E-03 0. -1.
     -623    1    1    2    0    0 -0.25228471824E+00 -0.56692003247E-01  0.86704411832E+00  0.17130238944E+03  0.17130000000E+03 0.  1.
      622    1    1    2    0    0  0.23058993729E+00  0.10569773542E+00  0.29748973512E+01  0.38307124638E+01  0.24000000000E+01 0. -1.
</event>
<event>
 5   0  0.6825300E-03  0.9118800E+02  0.7818608E-02  0.1180000E+00
       11   -1    0    0    0    0  0.00000000000E+00  0.00000000000E+00  0.39999999673E+01  0.40000000000E+01  0.51109989000E-03 0.  1.
     -623   -1    0    0    0    0  0.00000000000E+00  0.00000000000E+00  0.12525980253E-10  0.17130000000E+03  0.17130000000E+03 0. -1.
       11    1    1    2    0    0 -0.87440174277E-01 -0.45019314211E-02  0.33646615148E-01  0.93799826216E-01  0.51109989000E-03 0.  1.
     -623    1    1    2    0    0  0.32340803980E+00  0.24464251138E+00  0.90652152526E+00  0.17130287862E+03  0.17130000000E+03 0. -1.
      622    1    1    2    0    0 -0.23596786552E+00 -0.24014057996E+00  0.30598318270E+01  0.39033215523E+01  0.24000000000E+01 0.  1.
</event>
<event>
 5   0  0.6825300E-03  0.9118800E+02  0.7818608E-02  0.1180000E+00
       11   -1    0    0    0    0  0.00000000000E+00  0.00000000000E+00  0.39999999673E+01  0.40000000000E+01  0.51109989000E-03 0.  1.
     -623   -1    0    0    0    0  0.00000000000E+00  0.00000000000E+00  0.12525980253E-10  0.17130000000E+03  0.17130000000E+03 0. -1.
       11    1    1    2    0    0 -0.15906791473E-02 -0.38842795050E-03 -0.23271649015E-01  0.23334781066E-01  0.51109989000E-03 0.  1.
     -623    1    1    2    0    0 -0.86215224084E-02 -0.43560547273E+00  0.88622841475E+00  0.17130284652E+03  0.17130000000E+03 0. -1.
      622    1    1    2    0    0  0.10212201556E-01  0.43599390068E+00  0.31370432016E+01  0.39738186948E+01  0.24000000000E+01 0.  1.
</event>
<event>
 5   0  0.6825300E-03  0.9118800E+02  0.7818608E-02  0.1180000E+00
       11   -1    0    0    0    0  0.00000000000E+00  0.00000000000E+00  0.39999999673E+01  0.40000000000E+01  0.51109989000E-03 0. -1.
     -623   -1    0    0    0    0  0.00000000000E+00  0.00000000000E+00  0.12525980253E-10  0.17130000000E+03  0.17130000000E+03 0.  1.
       11    1    1    2    0    0 -0.16971329273E+00  0.20504661846E+00  0.28717702366E-01  0.26771567963E+00  0.51109989000E-03 0. -1.
     -623    1    1    2    0    0 -0.14413282956E+00  0.27396954400E+00  0.11766885816E+01  0.17130432111E+03  0.17130000000E+03 0.  1.
      622    1    1    2    0    0  0.31384612228E+00 -0.47901616246E+00  0.27945936833E+01  0.37279632143E+01  0.24000000000E+01 0. -1.
</event>
<event>
 5   0  0.6825300E-03  0.9118800E+02  0.7818608E-02  0.1180000E+00
       11   -1    0    0    0    0  0.00000000000E+00  0.00000000000E+00  0.39999999673E+01  0.40000000000E+01  0.51109989000E-03 0. -1.
     -623   -1    0    0    0    0  0.00000000000E+00  0.00000000000E+00  0.12525980253E-10  0.17130000000E+03  0.17130000000E+03 0. -1.
       11    1    1    2    0    0 -0.12492415690E+00  0.10508809938E+00  0.76215927490E-01  0.18016293302E+00  0.51109989000E-03 0. -1.
     -623    1    1    2    0    0  0.54538604715E+00 -0.64809417355E+00  0.10394387242E+01  0.17130524774E+03  0.17130000000E+03 0. -1.
      622    1    1    2    0    0 -0.42046189025E+00  0.54300607417E+00  0.28843453157E+01  0.38145893223E+01  0.24000000000E+01 0. -1.
</event>
<event>
 5   0  0.6825300E-03  0.9118800E+02  0.7818608E-02  0.1180000E+00
       11   -1    0    0    0    0  0.00000000000E+00  0.00000000000E+00  0.39999999673E+01  0.40000000000E+01  0.51109989000E-03 0.  1.
     -623   -1    0    0    0    0  0.00000000000E+00  0.00000000000E+00  0.12525980253E-10  0.17130000000E+03  0.17130000000E+03 0. -1.
       11    1    1    2    0    0 -0.16005855312E+00  0.11664742303E+00  0.67475235067E-01  0.20923319597E+00  0.51109989000E-03 0.  1.
     -623    1    1    2    0    0 -0.28191799883E+00  0.15864154861E+00  0.10494516466E+01  0.17130352009E+03  0.17130000000E+03 0. -1.
      622    1    1    2    0    0  0.44197655195E+00 -0.27528897164E+00  0.28830730857E+01  0.37872467186E+01  0.24000000000E+01 0.  1.
</event>
<event>
 5   0  0.6825300E-03  0.9118800E+02  0.7818608E-02  0.1180000E+00
       11   -1    0    0    0    0  0.00000000000E+00  0.00000000000E+00  0.39999999673E+01  0.40000000000E+01  0.51109989000E-03 0.  1.
     -623   -1    0    0    0    0  0.00000000000E+00  0.00000000000E+00  0.12525980253E-10  0.17130000000E+03  0.17130000000E+03 0. -1.
       11    1    1    2    0    0  0.37011558968E+00  0.43170926247E+00  0.49496441556E-01  0.57079645757E+00  0.51109989000E-03 0.  1.
     -623    1    1    2    0    0 -0.12598057298E+01 -0.12586262259E+01  0.18547638206E+01  0.17131929663E+03  0.17130000000E+03 0. -1.
      622    1    1    2    0    0  0.88969014017E+00  0.82691696346E+00  0.20957397052E+01  0.34099069081E+01  0.24000000000E+01 0.  1.
</event>
<event>
 5   0  0.6825300E-03  0.9118800E+02  0.7818608E-02  0.1180000E+00
       11   -1    0    0    0    0  0.00000000000E+00  0.00000000000E+00  0.39999999673E+01  0.40000000000E+01  0.51109989000E-03 0. -1.
     -623   -1    0    0    0    0  0.00000000000E+00  0.00000000000E+00  0.12525980253E-10  0.17130000000E+03  0.17130000000E+03 0.  1.
       11    1    1    2    0    0  0.37085123549E+00 -0.10110981233E+00  0.47660116056E+00  0.61229303481E+00  0.51109989000E-03 0. -1.
     -623    1    1    2    0    0 -0.43255734583E+00 -0.38933690923E-01  0.11435742458E+01  0.17130436767E+03  0.17130000000E+03 0.  1.
      622    1    1    2    0    0  0.61706110347E-01  0.14004350325E+00  0.23798245610E+01  0.33833392925E+01  0.24000000000E+01 0. -1.
</event>
<event>
 5   0  0.6825300E-03  0.9118800E+02  0.7818608E-02  0.1180000E+00
       11   -1    0    0    0    0  0.00000000000E+00  0.00000000000E+00  0.39999999673E+01  0.40000000000E+01  0.51109989000E-03 0. -1.
     -623   -1    0    0    0    0  0.00000000000E+00  0.00000000000E+00  0.12525980253E-10  0.17130000000E+03  0.17130000000E+03 0. -1.
       11    1    1    2    0    0 -0.26496697361E+00 -0.14580531873E+00  0.12435507066E+00  0.32700326130E+00  0.51109989000E-03 0. -1.
     -623    1    1    2    0    0  0.38101697349E-01  0.16436768025E+00  0.11094008800E+01  0.17130367550E+03  0.17130000000E+03 0. -1.
      622    1    1    2    0    0  0.22686527627E+00 -0.18562361514E-01  0.27662440167E+01  0.36693212417E+01  0.24000000000E+01 0. -1.
</event>
<event>
 5   0  0.6825300E-03  0.9118800E+02  0.7818608E-02  0.1180000E+00
       11   -1    0    0    0    0  0.00000000000E+00  0.00000000000E+00  0.39999999673E+01  0.40000000000E+01  0.51109989000E-03 0. -1.
     -623   -1    0    0    0    0  0.00000000000E+00  0.00000000000E+00  0.12525980253E-10  0.17130000000E+03  0.17130000000E+03 0.  1.
       11    1    1    2    0    0  0.39213883381E+00  0.85117904286E-01  0.33361463621E+00  0.52183992692E+00  0.51109989000E-03 0. -1.
     -623    1    1    2    0    0 -0.19366621165E+00  0.47681645430E+00  0.12278459807E+01  0.17130517350E+03  0.17130000000E+03 0.  1.
      622    1    1    2    0    0 -0.19847262216E+00 -0.56193435858E+00  0.24385393505E+01  0.34729865777E+01  0.24000000000E+01 0. -1.
</event>
<event>
 5   0  0.6825300E-03  0.9118800E+02  0.7818608E-02  0.1180000E+00
       11   -1    0    0    0    0  0.00000000000E+00  0.00000000000E+00  0.39999999673E+01  0.40000000000E+01  0.51109989000E-03 0. -1.
     -623   -1    0    0    0    0  0.00000000000E+00  0.00000000000E+00  0.12525980253E-10  0.17130000000E+03  0.17130000000E+03 0. -1.
       11    1    1    2    0    0  0.66105045490E-01 -0.34933786566E+00 -0.11354081401E+00  0.37322727539E+00  0.51109989000E-03 0. -1.
     -623    1    1    2    0    0 -0.12234418933E+00  0.61555782213E+00  0.14175040395E+01  0.17130701444E+03  0.17130000000E+03 0. -1.
      622    1    1    2    0    0  0.56239143843E-01 -0.26621995646E+00  0.26960367419E+01  0.36197582820E+01  0.24000000000E+01 0. -1.
</event>
<event>
 5   0  0.6825300E-03  0.9118800E+02  0.7818608E-02  0.1180000E+00
       11   -1    0    0    0    0  0.00000000000E+00  0.00000000000E+00  0.39999999673E+01  0.40000000000E+01  0.51109989000E-03 0. -1.
     -623   -1    0    0    0    0  0.00000000000E+00  0.00000000000E+00  0.12525980253E-10  0.17130000000E+03  0.17130000000E+03 0. -1.
       11    1    1    2    0    0  0.51855969063E+00 -0.10959174889E+00  0.61675880148E+00  0.81320734416E+00  0.51109989000E-03 0. -1.
     -623    1    1    2    0    0 -0.34469100029E+00  0.10377603680E+00  0.13020243409E+01  0.17130532639E+03  0.17130000000E+03 0. -1.
      622    1    1    2    0    0 -0.17386869033E+00  0.58157120915E-02  0.20812168250E+01  0.31814662683E+01  0.24000000000E+01 0. -1.
</event>
<event>
 5   0  0.6825300E-03  0.9118800E+02  0.7818608E-02  0.1180000E+00
       11   -1    0    0    0    0  0.00000000000E+00  0.00000000000E+00  0.39999999673E+01  0.40000000000E+01  0.51109989000E-03 0. -1.
     -623   -1    0    0    0    0  0.00000000000E+00  0.00000000000E+00  0.12525980253E-10  0.17130000000E+03  0.17130000000E+03 0.  1.
       11    1    1    2    0    0  0.57415910184E-01 -0.23833425715E-01 -0.29153102750E-01  0.68664281443E-01  0.51109989000E-03 0. -1.
     -623    1    1    2    0    0 -0.74979467606E+00 -0.14949878174E+00  0.10043514510E+01  0.17130465044E+03  0.17130000000E+03 0.  1.
      622    1    1    2    0    0  0.69237876587E+00  0.17333220745E+00  0.30248016191E+01  0.39266852744E+01  0.24000000000E+01 0. -1.
</event>
<event>
 5   0  0.6825300E-03  0.9118800E+02  0.7818608E-02  0.1180000E+00
       11   -1    0    0    0    0  0.00000000000E+00  0.00000000000E+00  0.39999999673E+01  0.40000000000E+01  0.51109989000E-03 0.  1.
     -623   -1    0    0    0    0  0.00000000000E+00  0.00000000000E+00  0.12525980253E-10  0.17130000000E+03  0.17130000000E+03 0.  1.
       11    1    1    2    0    0  0.34908932463E+00 -0.33990115915E+00  0.30359369954E+00  0.57407800009E+00  0.51109989000E-03 0.  1.
     -623    1    1    2    0    0 -0.69333843820E+00 -0.43634022658E+00  0.14155181191E+01  0.17130780718E+03  0.17130000000E+03 0.  1.
      622    1    1    2    0    0  0.34424911356E+00  0.77624138573E+00  0.22808881487E+01  0.34181148149E+01  0.24000000000E+01 0.  1.
</event>
<event>
 5   0  0.6825300E-03  0.9118800E+02  0.7818608E-02  0.1180000E+00
       11   -1    0    0    0    0  0.00000000000E+00  0.00000000000E+00  0.39999999673E+01  0.40000000000E+01  0.51109989000E-03 0. -1.
     -623   -1    0    0    0    0  0.00000000000E+00  0.00000000000E+00  0.12525980253E-10  0.17130000000E+03  0.17130000000E+03 0.  1.
       11    1    1    2    0    0 -0.67645975765E-02 -0.14466933326E+00  0.11499784265E+00  0.18493171929E+00  0.51109989000E-03 0. -1.
     -623    1    1    2    0    0 -0.48669160139E-01  0.44403563622E+00  0.93916177767E+00  0.17130315689E+03  0.17130000000E+03 0.  1.
      622    1    1    2    0    0  0.55433757716E-01 -0.29936630297E+00  0.29458403470E+01  0.38119113887E+01  0.24000000000E+01 0. -1.
</event>
<event>
 5   0  0.6825300E-03  0.9118800E+02  0.7818608E-02  0.1180000E+00
       11   -1    0    0    0    0  0.00000000000E+00  0.00000000000E+00  0.39999999673E+01  0.40000000000E+01  0.51109989000E-03 0. -1.
     -623   -1    0    0    0    0  0.00000000000E+00  0.00000000000E+00  0.12525980253E-10  0.17130000000E+03  0.17130000000E+03 0. -1.
       11    1    1    2    0    0 -0.12773549595E+00 -0.43010958373E+00  0.23520992700E+00  0.50659113882E+00  0.51109989000E-03 0. -1.
     -623    1    1    2    0    0 -0.17122474152E+00 -0.69493477424E-01  0.13011076786E+01  0.17130504087E+03  0.17130000000E+03 0. -1.
      622    1    1    2    0    0  0.29896023748E+00  0.49960306116E+00  0.24636823618E+01  0.34883679883E+01  0.24000000000E+01 0. -1.
</event>
<event>
 5   0  0.6825300E-03  0.9118800E+02  0.7818608E-02  0.1180000E+00
       11   -1    0    0    0    0  0.00000000000E+00  0.00000000000E+00  0.39999999673E+01  0.40000000000E+01  0.51109989000E-03 0.  1.
     -623   -1    0    0    0    0  0.00000000000E+00  0.00000000000E+00  0.12525980253E-10  0.17130000000E+03  0.17130000000E+03 0.  1.
       11    1    1    2    0    0 -0.11601998750E+00  0.50503868176E-01  0.16601776266E+00  0.20874251349E+00  0.51109989000E-03 0.  1.
     -623    1    1    2    0    0  0.20202991020E+00 -0.16626208620E+00  0.90598613559E+00  0.17130259563E+03  0.17130000000E+03 0.  1.
      622    1    1    2    0    0 -0.86009922707E-01  0.11575821803E+00  0.29279960691E+01  0.37886618551E+01  0.24000000000E+01 0.  1.
</event>
<event>
 5   0  0.6825300E-03  0.9118800E+02  0.7818608E-02  0.1180000E+00
       11   -1    0    0    0    0  0.00000000000E+00  0.00000000000E+00  0.39999999673E+01  0.40000000000E+01  0.51109989000E-03 0. -1.
     -623   -1    0    0    0    0  0.00000000000E+00  0.00000000000E+00  0.12525980253E-10  0.17130000000E+03  0.17130000000E+03 0. -1.
       11    1    1    2    0    0 -0.59588906028E-01 -0.12463667876E+00 -0.29124963889E-01  0.14118662882E+00  0.51109989000E-03 0. -1.
     -623    1    1    2    0    0  0.29819545134E+00 -0.43874595345E-01  0.10258986870E+01  0.17130333714E+03  0.17130000000E+03 0. -1.
      622    1    1    2    0    0 -0.23860654531E+00  0.16851127411E+00  0.30032262442E+01  0.38554762361E+01  0.24000000000E+01 0. -1.
</event>
<event>
 5   0  0.6825300E-03  0.9118800E+02  0.7818608E-02  0.1180000E+00
       11   -1    0    0    0    0  0.00000000000E+00  0.00000000000E+00  0.39999999673E+01  0.40000000000E+01  0.51109989000E-03 0.  1.
     -623   -1    0    0    0    0  0.00000000000E+00  0.00000000000E+00  0.12525980253E-10  0.17130000000E+03  0.17130000000E+03 0.  1.
       11    1    1    2    0    0 -0.58037737312E-01 -0.22432673659E+00  0.32514286948E+00  0.39926057969E+00  0.51109989000E-03 0.  1.
     -623    1    1    2    0    0  0.60385773678E+00  0.62855348558E+00  0.10857862920E+01  0.17130565856E+03  0.17130000000E+03 0.  1.
      622    1    1    2    0    0 -0.54581999947E+00 -0.40422674900E+00  0.25890708059E+01  0.35950808578E+01  0.24000000000E+01 0.  1.
</event>
<event>
 5   0  0.6825300E-03  0.9118800E+02  0.7818608E-02  0.1180000E+00
       11   -1    0    0    0    0  0.00000000000E+00  0.00000000000E+00  0.39999999673E+01  0.40000000000E+01  0.51109989000E-03 0.  1.
     -623   -1    0    0    0    0  0.00000000000E+00  0.00000000000E+00  0.12525980253E-10  0.17130000000E+03  0.17130000000E+03 0. -1.
       11    1    1    2    0    0  0.30230868998E+00  0.33182388531E+00  0.52522206708E+00  0.69090962931E+00  0.51109989000E-03 0.  1.
     -623    1    1    2    0    0 -0.43816805191E+00 -0.25602008231E+00  0.12092363063E+01  0.17130501975E+03  0.17130000000E+03 0. -1.
      622    1    1    2    0    0  0.13585936193E+00 -0.75803803004E-01  0.22655415940E+01  0.33040706253E+01  0.24000000000E+01 0.  1.
</event>
<event>
 5   0  0.6825300E-03  0.9118800E+02  0.7818608E-02  0.1180000E+00
       11   -1    0    0    0    0  0.00000000000E+00  0.00000000000E+00  0.39999999673E+01  0.40000000000E+01  0.51109989000E-03 0.  1.
     -623   -1    0    0    0    0  0.00000000000E+00  0.00000000000E+00  0.12525980253E-10  0.17130000000E+03  0.17130000000E+03 0. -1.
       11    1    1    2    0    0 -0.11101146301E+00  0.36581438773E+00  0.14594862111E+00  0.40920040617E+00  0.51109989000E-03 0.  1.
     -623    1    1    2    0    0 -0.26136112403E+00  0.73333608713E-01  0.12525282524E+01  0.17130479420E+03  0.17130000000E+03 0. -1.
      622    1    1    2    0    0  0.37237258704E+00 -0.43914799644E+00  0.26015230939E+01  0.35860053980E+01  0.24000000000E+01 0.  1.
</event>
<event>
 5   0  0.6825300E-03  0.9118800E+02  0.7818608E-02  0.1180000E+00
       11   -1    0    0    0    0  0.00000000000E+00  0.00000000000E+00  0.39999999673E+01  0.40000000000E+01  0.51109989000E-03 0.  1.
     -623   -1    0    0    0    0  0.00000000000E+00  0.00000000000E+00  0.12525980253E-10  0.17130000000E+03  0.17130000000E+03 0. -1.
       11    1    1    2    0    0  0.16381728935E+00 -0.68683004291E-01  0.23134770470E+00  0.29167701497E+00  0.51109989000E-03 0.  1.
     -623    1    1    2    0    0  0.47202548322E-02 -0.43957357240E-01  0.95246824772E+00  0.17130265366E+03  0.17130000000E+03 0. -1.
      622    1    1    2    0    0 -0.16853754418E+00  0.11264036153E+00  0.28161840149E+01  0.37056693270E+01  0.24000000000E+01 0.  1.
</event>
<event>
 5   0  0.6825300E-03  0.9118800E+02  0.7818608E-02  0.1180000E+00
       11   -1    0    0    0    0  0.00000000000E+00  0.00000000000E+00  0.39999999673E+01  0.40000000000E+01  0.51109989000E-03 0. -1.
     -623   -1    0    0    0    0  0.00000000000E+00  0.00000000000E+00  0.12525980253E-10  0.17130000000E+03  0.17130000000E+03 0.  1.
       11    1    1    2    0    0 -0.15272791284E-01 -0.50554838971E-01 -0.11263008660E-01  0.54001541498E-01  0.51109989000E-03 0. -1.
     -623    1    1    2    0    0  0.37465434708E-02  0.48376105941E-01  0.88191788558E+00  0.17130227708E+03  0.17130000000E+03 0.  1.
      622    1    1    2    0    0  0.11526247813E-01  0.21787330297E-02  0.31293450904E+01  0.39437213766E+01  0.24000000000E+01 0. -1.
</event>
<event>
 5   0  0.6825300E-03  0.9118800E+02  0.7818608E-02  0.1180000E+00
       11   -1    0    0    0    0  0.00000000000E+00  0.00000000000E+00  0.39999999673E+01  0.40000000000E+01  0.51109989000E-03 0.  1.
     -623   -1    0    0    0    0  0.00000000000E+00  0.00000000000E+00  0.12525980253E-10  0.17130000000E+03  0.17130000000E+03 0.  1.
       11    1    1    2    0    0 -0.24247603353E-02 -0.59742540487E+00 -0.19728832038E-02  0.59743380164E+00  0.51109989000E-03 0.  1.
     -623    1    1    2    0    0  0.27313500584E+00  0.30006360885E+00  0.16356663721E+01  0.17130828948E+03  0.17130000000E+03 0.  1.
      622    1    1    2    0    0 -0.27071024550E+00  0.29736179602E+00  0.23663064784E+01  0.33942767160E+01  0.24000000000E+01 0.  1.
</event>
<event>
 5   0  0.6825300E-03  0.9118800E+02  0.7818608E-02  0.1180000E+00
       11   -1    0    0    0    0  0.00000000000E+00  0.00000000000E+00  0.39999999673E+01  0.40000000000E+01  0.51109989000E-03 0.  1.
     -623   -1    0    0    0    0  0.00000000000E+00  0.00000000000E+00  0.12525980253E-10  0.17130000000E+03  0.17130000000E+03 0. -1.
       11    1    1    2    0    0 -0.26755474764E+00 -0.75006813918E+00  0.31170621215E+00  0.85518932426E+00  0.51109989000E-03 0.  1.
     -623    1    1    2    0    0 -0.15805631199E+00  0.49989395979E+00  0.17322620209E+01  0.17130956076E+03  0.17130000000E+03 0. -1.
      622    1    1    2    0    0  0.42561105963E+00  0.25017417939E+00  0.19560317343E+01  0.31352499166E+01  0.24000000000E+01 0.  0.
</event>
<event>
 5   0  0.6825300E-03  0.9118800E+02  0.7818608E-02  0.1180000E+00
       11   -1    0    0    0    0  0.00000000000E+00  0.00000000000E+00  0.39999999673E+01  0.40000000000E+01  0.51109989000E-03 0.  1.
     -623   -1    0    0    0    0  0.00000000000E+00  0.00000000000E+00  0.12525980253E-10  0.17130000000E+03  0.17130000000E+03 0. -1.
       11    1    1    2    0    0 -0.16151939174E+00  0.24200751291E+00  0.28941111587E-02  0.29097214182E+00  0.51109989000E-03 0.  1.
     -623    1    1    2    0    0  0.88804710493E-01 -0.51395214681E+00  0.11897706256E+01  0.17130492575E+03  0.17130000000E+03 0. -1.
      622    1    1    2    0    0  0.72714681247E-01  0.27194463389E+00  0.28073352306E+01  0.37041021052E+01  0.24000000000E+01 0.  1.
</event>
<event>
 5   0  0.6825300E-03  0.9118800E+02  0.7818608E-02  0.1180000E+00
       11   -1    0    0    0    0  0.00000000000E+00  0.00000000000E+00  0.39999999673E+01  0.40000000000E+01  0.51109989000E-03 0.  1.
     -623   -1    0    0    0    0  0.00000000000E+00  0.00000000000E+00  0.12525980253E-10  0.17130000000E+03  0.17130000000E+03 0.  1.
       11    1    1    2    0    0 -0.63747255519E-01  0.32813236468E+00  0.58290197685E+00  0.67194459383E+00  0.51109989000E-03 0.  1.
     -623    1    1    2    0    0  0.21447203128E+00 -0.26513657537E+00  0.11230800242E+01  0.17130402098E+03  0.17130000000E+03 0.  1.
      622    1    1    2    0    0 -0.15072477576E+00 -0.62995789304E-01  0.22940179663E+01  0.33240344248E+01  0.24000000000E+01 0.  1.
</event>
<event>
 5   0  0.6825300E-03  0.9118800E+02  0.7818608E-02  0.1180000E+00
       11   -1    0    0    0    0  0.00000000000E+00  0.00000000000E+00  0.39999999673E+01  0.40000000000E+01  0.51109989000E-03 0.  1.
     -623   -1    0    0    0    0  0.00000000000E+00  0.00000000000E+00  0.12525980253E-10  0.17130000000E+03  0.17130000000E+03 0.  1.
       11    1    1    2    0    0 -0.12804872995E+00  0.14544723348E+00  0.88733456801E-01  0.21313203079E+00  0.51109989000E-03 0.  1.
     -623    1    1    2    0    0 -0.10358983106E+00 -0.21158169247E+00  0.99592870720E+00  0.17130305710E+03  0.17130000000E+03 0. -1.
      622    1    1    2    0    0  0.23163856101E+00  0.66134458993E-01  0.29153378034E+01  0.37838108697E+01  0.24000000000E+01 0.  1.
</event>
<event>
 5   0  0.6825300E-03  0.9118800E+02  0.7818608E-02  0.1180000E+00
       11   -1    0    0    0    0  0.00000000000E+00  0.00000000000E+00  0.39999999673E+01  0.40000000000E+01  0.51109989000E-03 0.  1.
     -623   -1    0    0    0    0  0.00000000000E+00  0.00000000000E+00  0.12525980253E-10  0.17130000000E+03  0.17130000000E+03 0. -1.
       11    1    1    2    0    0 -0.11374568527E+00 -0.21613987824E-02 -0.15979529696E-01  0.11488411184E+00  0.51109989000E-03 0.  1.
     -623    1    1    2    0    0  0.20100655401E+00 -0.11892590926E+00  0.96813393937E+00  0.17130289499E+03  0.17130000000E+03 0. -1.
      622    1    1    2    0    0 -0.87260868740E-01  0.12108730804E+00  0.30478455577E+01  0.38822209029E+01  0.24000000000E+01 0.  1.
</event>
<event>
 5   0  0.6825300E-03  0.9118800E+02  0.7818608E-02  0.1180000E+00
       11   -1    0    0    0    0  0.00000000000E+00  0.00000000000E+00  0.39999999673E+01  0.40000000000E+01  0.51109989000E-03 0.  1.
     -623   -1    0    0    0    0  0.00000000000E+00  0.00000000000E+00  0.12525980253E-10  0.17130000000E+03  0.17130000000E+03 0. -1.
       11    1    1    2    0    0  0.31566510119E+00  0.21470013012E-01  0.53869598589E+00  0.62473918078E+00  0.51109989000E-03 0.  1.
     -623    1    1    2    0    0 -0.22266797855E+00  0.25789793493E+00  0.11120375302E+01  0.17130394835E+03  0.17130000000E+03 0. -1.
      622    1    1    2    0    0 -0.92997122640E-01 -0.27936794794E+00  0.23492664512E+01  0.33713124706E+01  0.24000000000E+01 0.  1.
</event>
<event>
 5   0  0.6825300E-03  0.9118800E+02  0.7818608E-02  0.1180000E+00
       11   -1    0    0    0    0  0.00000000000E+00  0.00000000000E+00  0.39999999673E+01  0.40000000000E+01  0.51109989000E-03 0.  1.
     -623   -1    0    0    0    0  0.00000000000E+00  0.00000000000E+00  0.12525980253E-10  0.17130000000E+03  0.17130000000E+03 0. -1.
       11    1    1    2    0    0 -0.16983233920E+00 -0.84328114738E-02  0.12569653122E+00  0.21145688669E+00  0.51109989000E-03 0.  1.
     -623    1    1    2    0    0  0.28405222732E-02 -0.28778415278E+00  0.96656495076E+00  0.17130296867E+03  0.17130000000E+03 0. -1.
      622    1    1    2    0    0  0.16699181692E+00  0.29621696425E+00  0.29077384854E+01  0.37855744420E+01  0.24000000000E+01 0.  1.
</event>
<event>
 5   0  0.6825300E-03  0.9118800E+02  0.7818608E-02  0.1180000E+00
       11   -1    0    0    0    0  0.00000000000E+00  0.00000000000E+00  0.39999999673E+01  0.40000000000E+01  0.51109989000E-03 0.  1.
     -623   -1    0    0    0    0  0.00000000000E+00  0.00000000000E+00  0.12525980253E-10  0.17130000000E+03  0.17130000000E+03 0.  1.
       11    1    1    2    0    0 -0.29454469425E-01 -0.96283877480E-01  0.74995442477E-01  0.12554970509E+00  0.51109989000E-03 0.  1.
     -623    1    1    2    0    0  0.19438235760E+00 -0.72904042529E-01  0.89574337694E+00  0.17130246775E+03  0.17130000000E+03 0.  1.
      622    1    1    2    0    0 -0.16492788817E+00  0.16918792001E+00  0.30292611479E+01  0.38719825494E+01  0.24000000000E+01 0.  1.
</event>
<event>
 5   0  0.6825300E-03  0.9118800E+02  0.7818608E-02  0.1180000E+00
       11   -1    0    0    0    0  0.00000000000E+00  0.00000000000E+00  0.39999999673E+01  0.40000000000E+01  0.51109989000E-03 0.  1.
     -623   -1    0    0    0    0  0.00000000000E+00  0.00000000000E+00  0.12525980253E-10  0.17130000000E+03  0.17130000000E+03 0.  1.
       11    1    1    2    0    0  0.10266930443E-01 -0.60685952297E-01  0.67779044730E-01  0.91555746913E-01  0.51109989000E-03 0.  1.
     -623    1    1    2    0    0 -0.22767062075E+00  0.40344581170E+00  0.87792657326E+00  0.17130287609E+03  0.17130000000E+03 0.  1.
      622    1    1    2    0    0  0.21740369031E+00 -0.34275985940E+00  0.30542943494E+01  0.39055681608E+01  0.24000000000E+01 0.  1.
</event>
<event>
 5   0  0.6825300E-03  0.9118800E+02  0.7818608E-02  0.1180000E+00
       11   -1    0    0    0    0  0.00000000000E+00  0.00000000000E+00  0.39999999673E+01  0.40000000000E+01  0.51109989000E-03 0.  1.
     -623   -1    0    0    0    0  0.00000000000E+00  0.00000000000E+00  0.12525980253E-10  0.17130000000E+03  0.17130000000E+03 0.  1.
       11    1    1    2    0    0  0.19816505380E+00 -0.46331219449E-01  0.11842728192E+00  0.23545966272E+00  0.51109989000E-03 0.  1.
     -623    1    1    2    0    0 -0.61246680012E+00 -0.54255079999E-02  0.10168758519E+01  0.17130411315E+03  0.17130000000E+03 0.  1.
      622    1    1    2    0    0  0.41430174633E+00  0.51756727449E-01  0.28646968335E+01  0.37604271890E+01  0.24000000000E+01 0.  1.
</event>
<event>
 5   0  0.6825300E-03  0.9118800E+02  0.7818608E-02  0.1180000E+00
       11   -1    0    0    0    0  0.00000000000E+00  0.00000000000E+00  0.39999999673E+01  0.40000000000E+01  0.51109989000E-03 0.  1.
     -623   -1    0    0    0    0  0.00000000000E+00  0.00000000000E+00  0.12525980253E-10  0.17130000000E+03  0.17130000000E+03 0. -1.
       11    1    1    2    0    0  0.67929234281E-01 -0.62379610189E-01 -0.61003276089E-01  0.11057693048E+00  0.51109989000E-03 0.  1.
     -623    1    1    2    0    0 -0.36892729591E+00  0.20781341587E+00  0.10232359020E+01  0.17130357937E+03  0.17130000000E+03 0. -1.
      622    1    1    2    0    0  0.30099806163E+00 -0.14543380568E+00  0.30377673414E+01  0.38858436981E+01  0.24000000000E+01 0.  1.
</event>
<event>
 5   0  0.6825300E-03  0.9118800E+02  0.7818608E-02  0.1180000E+00
       11   -1    0    0    0    0  0.00000000000E+00  0.00000000000E+00  0.39999999673E+01  0.40000000000E+01  0.51109989000E-03 0.  1.
     -623   -1    0    0    0    0  0.00000000000E+00  0.00000000000E+00  0.12525980253E-10  0.17130000000E+03  0.17130000000E+03 0. -1.
       11    1    1    2    0    0  0.37135364558E+00  0.73523143665E-01  0.58236922810E+00  0.69459582622E+00  0.51109989000E-03 0.  1.
     -623    1    1    2    0    0 -0.69600934650E+00 -0.42982414571E+00  0.12057495092E+01  0.17130619665E+03  0.17130000000E+03 0. -1.
      622    1    1    2    0    0  0.32465570092E+00  0.35630100204E+00  0.22118812301E+01  0.32992075267E+01  0.24000000000E+01 0.  1.
</event>
<event>
 5   0  0.6825300E-03  0.9118800E+02  0.7818608E-02  0.1180000E+00
       11   -1    0    0    0    0  0.00000000000E+00  0.00000000000E+00  0.39999999673E+01  0.40000000000E+01  0.51109989000E-03 0.  1.
     -623   -1    0    0    0    0  0.00000000000E+00  0.00000000000E+00  0.12525980253E-10  0.17130000000E+03  0.17130000000E+03 0.  1.
       11    1    1    2    0    0 -0.42736095655E-01  0.10677560681E+00 -0.13400306612E-01  0.11578960886E+00  0.51109989000E-03 0.  1.
     -623    1    1    2    0    0  0.18779227400E+00 -0.15104220542E+00  0.96683080276E+00  0.17130289794E+03  0.17130000000E+03 0.  1.
      622    1    1    2    0    0 -0.14505617835E+00  0.44266598607E-01  0.30465694712E+01  0.38813124545E+01  0.24000000000E+01 0.  1.
</event>
<event>
 5   0  0.6825300E-03  0.9118800E+02  0.7818608E-02  0.1180000E+00
       11   -1    0    0    0    0  0.00000000000E+00  0.00000000000E+00  0.39999999673E+01  0.40000000000E+01  0.51109989000E-03 0.  1.
     -623   -1    0    0    0    0  0.00000000000E+00  0.00000000000E+00  0.12525980253E-10  0.17130000000E+03  0.17130000000E+03 0.  1.
       11    1    1    2    0    0  0.68749108461E-01 -0.30519144775E-01 -0.24207422718E-02  0.75259413537E-01  0.51109989000E-03 0.  1.
     -623    1    1    2    0    0 -0.11970163814E+00  0.26178249812E+00  0.90941733987E+00  0.17130265584E+03  0.17130000000E+03 0.  1.
      622    1    1    2    0    0  0.50952529678E-01 -0.23126335334E+00  0.30930033698E+01  0.39220847447E+01  0.24000000000E+01 0.  1.
</event>
<event>
 5   0  0.6825300E-03  0.9118800E+02  0.7818608E-02  0.1180000E+00
       11   -1    0    0    0    0  0.00000000000E+00  0.00000000000E+00  0.39999999673E+01  0.40000000000E+01  0.51109989000E-03 0.  1.
     -623   -1    0    0    0    0  0.00000000000E+00  0.00000000000E+00  0.12525980253E-10  0.17130000000E+03  0.17130000000E+03 0.  1.
       11    1    1    2    0    0 -0.47672249100E+00 -0.23331560665E+00 -0.19394659526E-01  0.53110914111E+00  0.51109989000E-03 0.  1.
     -623    1    1    2    0    0  0.25160508079E+00 -0.30239279155E+00  0.15943176033E+01  0.17130787079E+03  0.17130000000E+03 0.  1.
      622    1    1    2    0    0  0.22511741020E+00  0.53570839821E+00  0.24250770236E+01  0.34610200673E+01  0.24000000000E+01 0.  1.
</event>
<event>
 5   0  0.6825300E-03  0.9118800E+02  0.7818608E-02  0.1180000E+00
       11   -1    0    0    0    0  0.00000000000E+00  0.00000000000E+00  0.39999999673E+01  0.40000000000E+01  0.51109989000E-03 0. -1.
     -623   -1    0    0    0    0  0.00000000000E+00  0.00000000000E+00  0.12525980253E-10  0.17130000000E+03  0.17130000000E+03 0. -1.
       11    1    1    2    0    0 -0.97132710867E-01  0.20006314494E+00  0.74562457743E-01  0.23456309772E+00  0.51109989000E-03 0. -1.
     -623    1    1    2    0    0  0.26054879788E+00 -0.32826109308E-01  0.10377629294E+01  0.17130334473E+03  0.17130000000E+03 0. -1.
      622    1    1    2    0    0 -0.16341608702E+00 -0.16723703563E+00  0.28876745803E+01  0.37620921739E+01  0.24000000000E+01 0. -1.
</event>
<event>
 5   0  0.6825300E-03  0.9118800E+02  0.7818608E-02  0.1180000E+00
       11   -1    0    0    0    0  0.00000000000E+00  0.00000000000E+00  0.39999999673E+01  0.40000000000E+01  0.51109989000E-03 0.  1.
     -623   -1    0    0    0    0  0.00000000000E+00  0.00000000000E+00  0.12525980253E-10  0.17130000000E+03  0.17130000000E+03 0. -1.
       11    1    1    2    0    0 -0.16494843907E+00 -0.11716317093E+00  0.85438986446E-01  0.21962531230E+00  0.51109989000E-03 0.  1.
     -623    1    1    2    0    0  0.28049878936E+00 -0.21332351737E+00  0.10192189600E+01  0.17130339458E+03  0.17130000000E+03 0. -1.
      622    1    1    2    0    0 -0.11555035029E+00  0.33048668830E+00  0.28953420209E+01  0.37769801102E+01  0.24000000000E+01 0.  1.
</event>
<event>
 5   0  0.6825300E-03  0.9118800E+02  0.7818608E-02  0.1180000E+00
       11   -1    0    0    0    0  0.00000000000E+00  0.00000000000E+00  0.39999999673E+01  0.40000000000E+01  0.51109989000E-03 0. -1.
     -623   -1    0    0    0    0  0.00000000000E+00  0.00000000000E+00  0.12525980253E-10  0.17130000000E+03  0.17130000000E+03 0. -1.
       11    1    1    2    0    0 -0.36363029075E+00  0.19227890650E+00  0.21903248263E+00  0.46601894372E+00  0.51109989000E-03 0. -1.
     -623    1    1    2    0    0 -0.45426140611E-01  0.16509745167E-01  0.12340761660E+01  0.17130445201E+03  0.17130000000E+03 0. -1.
      622    1    1    2    0    0  0.40905643136E+00 -0.20878865166E+00  0.25468913188E+01  0.35295290415E+01  0.24000000000E+01 0. -1.
</event>
<event>
 5   0  0.6825300E-03  0.9118800E+02  0.7818608E-02  0.1180000E+00
       11   -1    0    0    0    0  0.00000000000E+00  0.00000000000E+00  0.39999999673E+01  0.40000000000E+01  0.51109989000E-03 0. -1.
     -623   -1    0    0    0    0  0.00000000000E+00  0.00000000000E+00  0.12525980253E-10  0.17130000000E+03  0.17130000000E+03 0. -1.
       11    1    1    2    0    0 -0.23323052229E-01 -0.31135584726E+00  0.37125769018E-01  0.31442807180E+00  0.51109989000E-03 0. -1.
     -623    1    1    2    0    0 -0.40755995722E+00  0.94666717409E+00  0.12840886230E+01  0.17130791332E+03  0.17130000000E+03 0. -1.
      622    1    1    2    0    0  0.43088300945E+00 -0.63531132683E+00  0.26787855753E+01  0.36776586041E+01  0.24000000000E+01 0. -1.
</event>
<event>
 5   0  0.6825300E-03  0.9118800E+02  0.7818608E-02  0.1180000E+00
       11   -1    0    0    0    0  0.00000000000E+00  0.00000000000E+00  0.39999999673E+01  0.40000000000E+01  0.51109989000E-03 0. -1.
     -623   -1    0    0    0    0  0.00000000000E+00  0.00000000000E+00  0.12525980253E-10  0.17130000000E+03  0.17130000000E+03 0. -1.
       11    1    1    2    0    0 -0.48176213972E-01  0.17342944991E-01  0.40798263123E-01  0.65471251939E-01  0.51109989000E-03 0. -1.
     -623    1    1    2    0    0  0.31558268181E+00  0.71364478363E-01  0.85728903151E+00  0.17130245074E+03  0.17130000000E+03 0. -1.
      622    1    1    2    0    0 -0.26740646783E+00 -0.88707423354E-01  0.31019126727E+01  0.39320780073E+01  0.24000000000E+01 0. -1.
</event>
<event>
 5   0  0.6825300E-03  0.9118800E+02  0.7818608E-02  0.1180000E+00
       11   -1    0    0    0    0  0.00000000000E+00  0.00000000000E+00  0.39999999673E+01  0.40000000000E+01  0.51109989000E-03 0.  1.
     -623   -1    0    0    0    0  0.00000000000E+00  0.00000000000E+00  0.12525980253E-10  0.17130000000E+03  0.17130000000E+03 0. -1.
       11    1    1    2    0    0 -0.30788303754E+00 -0.56476228356E+00  0.49743844875E+00  0.81313816369E+00  0.51109989000E-03 0.  1.
     -623    1    1    2    0    0  0.19579205793E+00  0.31757804638E+00  0.14333455564E+01  0.17130640289E+03  0.17130000000E+03 0. -1.
      622    1    1    2    0    0  0.11209097961E+00  0.24718423718E+00  0.20692159622E+01  0.31804589500E+01  0.24000000000E+01 0.  1.
</event>
<event>
 5   0  0.6825300E-03  0.9118800E+02  0.7818608E-02  0.1180000E+00
       11   -1    0    0    0    0  0.00000000000E+00  0.00000000000E+00  0.39999999673E+01  0.40000000000E+01  0.51109989000E-03 0. -1.
     -623   -1    0    0    0    0  0.00000000000E+00  0.00000000000E+00  0.12525980253E-10  0.17130000000E+03  0.17130000000E+03 0.  1.
       11    1    1    2    0    0  0.66103282155E-01  0.13919112953E+00  0.32246960206E-01  0.15742916539E+00  0.51109989000E-03 0. -1.
     -623    1    1    2    0    0  0.21856989077E+00  0.36548350562E-01  0.98943558197E+00  0.17130300082E+03  0.17130000000E+03 0.  1.
      622    1    1    2    0    0 -0.28467317292E+00 -0.17573948009E+00  0.29783174252E+01  0.38395700105E+01  0.24000000000E+01 0. -1.
</event>
<event>
 5   0  0.6825300E-03  0.9118800E+02  0.7818608E-02  0.1180000E+00
       11   -1    0    0    0    0  0.00000000000E+00  0.00000000000E+00  0.39999999673E+01  0.40000000000E+01  0.51109989000E-03 0.  1.
     -623   -1    0    0    0    0  0.00000000000E+00  0.00000000000E+00  0.12525980253E-10  0.17130000000E+03  0.17130000000E+03 0. -1.
       11    1    1    2    0    0 -0.80912374789E-01 -0.15571489949E+00  0.71457396114E-01  0.18947391113E+00  0.51109989000E-03 0.  1.
     -623    1    1    2    0    0 -0.14404979250E+00  0.32839456597E+00  0.98657359630E+00  0.17130321632E+03  0.17130000000E+03 0. -1.
      622    1    1    2    0    0  0.22496216729E+00 -0.17267966647E+00  0.29419689750E+01  0.38073097712E+01  0.24000000000E+01 0.  1.
</event>
<event>
 5   0  0.6825300E-03  0.9118800E+02  0.7818608E-02  0.1180000E+00
       11   -1    0    0    0    0  0.00000000000E+00  0.00000000000E+00  0.39999999673E+01  0.40000000000E+01  0.51109989000E-03 0.  1.
     -623   -1    0    0    0    0  0.00000000000E+00  0.00000000000E+00  0.12525980253E-10  0.17130000000E+03  0.17130000000E+03 0.  1.
       11    1    1    2    0    0 -0.15922335656E-01 -0.42039299858E-01 -0.54837296606E-01  0.70909899343E-01  0.51109989000E-03 0.  1.
     -623    1    1    2    0    0  0.93701231303E-01  0.14722405088E+00  0.95012492815E+00  0.17130272383E+03  0.17130000000E+03 0.  1.
      622    1    1    2    0    0 -0.77778895647E-01 -0.10518475102E+00  0.31047123358E+01  0.39263662688E+01  0.24000000000E+01 0.  1.
</event>
<event>
 5   0  0.6825300E-03  0.9118800E+02  0.7818608E-02  0.1180000E+00
       11   -1    0    0    0    0  0.00000000000E+00  0.00000000000E+00  0.39999999673E+01  0.40000000000E+01  0.51109989000E-03 0.  1.
     -623   -1    0    0    0    0  0.00000000000E+00  0.00000000000E+00  0.12525980253E-10  0.17130000000E+03  0.17130000000E+03 0. -1.
       11    1    1    2    0    0 -0.15014921841E+00  0.12696386056E-01  0.29990684195E+00  0.33563426685E+00  0.51109989000E-03 0.  1.
     -623    1    1    2    0    0  0.56606031298E-01 -0.52119261223E-01  0.93632799263E+00  0.17130257625E+03  0.17130000000E+03 0. -1.
      622    1    1    2    0    0  0.93543187109E-01  0.39422875167E-01  0.27637651328E+01  0.36617894806E+01  0.24000000000E+01 0.  1.
</event>
<event>
 5   0  0.6825300E-03  0.9118800E+02  0.7818608E-02  0.1180000E+00
       11   -1    0    0    0    0  0.00000000000E+00  0.00000000000E+00  0.39999999673E+01  0.40000000000E+01  0.51109989000E-03 0.  1.
     -623   -1    0    0    0    0  0.00000000000E+00  0.00000000000E+00  0.12525980253E-10  0.17130000000E+03  0.17130000000E+03 0. -1.
       11    1    1    2    0    0 -0.16888718993E+00  0.81870059159E-01  0.14045158644E-01  0.18821030050E+00  0.51109989000E-03 0.  1.
     -623    1    1    2    0    0 -0.97927688116E-01 -0.26394137650E+00  0.10466912273E+01  0.17130342909E+03  0.17130000000E+03 0. -1.
      622    1    1    2    0    0  0.26681487805E+00  0.18207131734E+00  0.29392635814E+01  0.38083606112E+01  0.24000000000E+01 0.  1.
</event>
<event>
 5   0  0.6825300E-03  0.9118800E+02  0.7818608E-02  0.1180000E+00
       11   -1    0    0    0    0  0.00000000000E+00  0.00000000000E+00  0.39999999673E+01  0.40000000000E+01  0.51109989000E-03 0.  1.
     -623   -1    0    0    0    0  0.00000000000E+00  0.00000000000E+00  0.12525980253E-10  0.17130000000E+03  0.17130000000E+03 0. -1.
       11    1    1    2    0    0 -0.76159277613E-01  0.72331705945E-01  0.10208580734E+00  0.14647144614E+00  0.51109989000E-03 0.  1.
     -623    1    1    2    0    0  0.18441650195E+00 -0.11959939091E+00  0.88844727627E+00  0.17130244497E+03  0.17130000000E+03 0. -1.
      622    1    1    2    0    0 -0.10825722433E+00  0.47267684964E-01  0.30094668838E+01  0.38510835858E+01  0.24000000000E+01 0.  1.
</event>
<event>
 5   0  0.6825300E-03  0.9118800E+02  0.7818608E-02  0.1180000E+00
       11   -1    0    0    0    0  0.00000000000E+00  0.00000000000E+00  0.39999999673E+01  0.40000000000E+01  0.51109989000E-03 0.  1.
     -623   -1    0    0    0    0  0.00000000000E+00  0.00000000000E+00  0.12525980253E-10  0.17130000000E+03  0.17130000000E+03 0.  1.
       11    1    1    2    0    0 -0.84018292482E-01 -0.32763863663E+00  0.42755000098E-01  0.34093166608E+00  0.51109989000E-03 0.  1.
     -623    1    1    2    0    0 -0.91850176990E+00  0.24073661177E+00  0.13969104985E+01  0.17130832717E+03  0.17130000000E+03 0.  1.
      622    1    1    2    0    0  0.10025200624E+01  0.86902024854E-01  0.25603344688E+01  0.36507411617E+01  0.24000000000E+01 0.  1.
</event>
<event>
 5   0  0.6825300E-03  0.9118800E+02  0.7818608E-02  0.1180000E+00
       11   -1    0    0    0    0  0.00000000000E+00  0.00000000000E+00  0.39999999673E+01  0.40000000000E+01  0.51109989000E-03 0. -1.
     -623   -1    0    0    0    0  0.00000000000E+00  0.00000000000E+00  0.12525980253E-10  0.17130000000E+03  0.17130000000E+03 0. -1.
       11    1    1    2    0    0 -0.17023306269E+00  0.20421674400E+00  0.17503623267E+00  0.31831072576E+00  0.51109989000E-03 0. -1.
     -623    1    1    2    0    0 -0.37572226585E+00 -0.55288892668E+00  0.11159321034E+01  0.17130493909E+03  0.17130000000E+03 0. -1.
      622    1    1    2    0    0  0.54595532854E+00  0.34867218267E+00  0.27090316313E+01  0.36767501807E+01  0.24000000000E+01 0. -1.
</event>
<event>
 5   0  0.6825300E-03  0.9118800E+02  0.7818608E-02  0.1180000E+00
       11   -1    0    0    0    0  0.00000000000E+00  0.00000000000E+00  0.39999999673E+01  0.40000000000E+01  0.51109989000E-03 0. -1.
     -623   -1    0    0    0    0  0.00000000000E+00  0.00000000000E+00  0.12525980253E-10  0.17130000000E+03  0.17130000000E+03 0. -1.
       11    1    1    2    0    0 -0.10074210735E-01 -0.68959180768E-02 -0.16405693349E-01  0.20456084772E-01  0.51109989000E-03 0. -1.
     -623    1    1    2    0    0  0.23192308833E+00 -0.18771461518E+00  0.85879843723E+00  0.17130241259E+03  0.17130000000E+03 0. -1.
      622    1    1    2    0    0 -0.22184887759E+00  0.19461053325E+00  0.31576072235E+01  0.39771313232E+01  0.24000000000E+01 0. -1.
</event>
<event>
 5   0  0.6825300E-03  0.9118800E+02  0.7818608E-02  0.1180000E+00
       11   -1    0    0    0    0  0.00000000000E+00  0.00000000000E+00  0.39999999673E+01  0.40000000000E+01  0.51109989000E-03 0. -1.
     -623   -1    0    0    0    0  0.00000000000E+00  0.00000000000E+00  0.12525980253E-10  0.17130000000E+03  0.17130000000E+03 0. -1.
       11    1    1    2    0    0  0.47922251584E-01 -0.12984732087E-01 -0.70478119724E-01  0.86212365976E-01  0.51109989000E-03 0. -1.
     -623    1    1    2    0    0  0.44515427918E-01  0.18622727392E+00  0.98891951628E+00  0.17130296152E+03  0.17130000000E+03 0. -1.
      622    1    1    2    0    0 -0.92437679502E-01 -0.17324254184E+00  0.30815585708E+01  0.39108261184E+01  0.24000000000E+01 0. -1.
</event>
<event>
 5   0  0.6825300E-03  0.9118800E+02  0.7818608E-02  0.1180000E+00
       11   -1    0    0    0    0  0.00000000000E+00  0.00000000000E+00  0.39999999673E+01  0.40000000000E+01  0.51109989000E-03 0.  1.
     -623   -1    0    0    0    0  0.00000000000E+00  0.00000000000E+00  0.12525980253E-10  0.17130000000E+03  0.17130000000E+03 0.  1.
       11    1    1    2    0    0  0.62906719683E-01 -0.61742160974E-01 -0.43767366952E-01  0.98413380472E-01  0.51109989000E-03 0.  1.
     -623    1    1    2    0    0 -0.58171178592E-01  0.17902027597E+00  0.97355310134E+00  0.17130286991E+03  0.17130000000E+03 0.  1.
      622    1    1    2    0    0 -0.47355410906E-02 -0.11727811500E+00  0.30702142330E+01  0.38987167142E+01  0.24000000000E+01 0.  1.
</event>
<event>
 5   0  0.6825300E-03  0.9118800E+02  0.7818608E-02  0.1180000E+00
       11   -1    0    0    0    0  0.00000000000E+00  0.00000000000E+00  0.39999999673E+01  0.40000000000E+01  0.51109989000E-03 0. -1.
     -623   -1    0    0    0    0  0.00000000000E+00  0.00000000000E+00  0.12525980253E-10  0.17130000000E+03  0.17130000000E+03 0.  1.
       11    1    1    2    0    0 -0.61223776422E-01  0.18956111166E+00 -0.63647602639E-01  0.20912447107E+00  0.51109989000E-03 0. -1.
     -623    1    1    2    0    0  0.62140550454E+00 -0.28969096366E+00  0.11922227010E+01  0.17130552081E+03  0.17130000000E+03 0.  1.
      622    1    1    2    0    0 -0.56018172812E+00  0.10012985200E+00  0.28714248690E+01  0.37853547171E+01  0.24000000000E+01 0. -1.
</event>
<event>
 5   0  0.6825300E-03  0.9118800E+02  0.7818608E-02  0.1180000E+00
       11   -1    0    0    0    0  0.00000000000E+00  0.00000000000E+00  0.39999999673E+01  0.40000000000E+01  0.51109989000E-03 0.  1.
     -623   -1    0    0    0    0  0.00000000000E+00  0.00000000000E+00  0.12525980253E-10  0.17130000000E+03  0.17130000000E+03 0. -1.
       11    1    1    2    0    0 -0.20365842952E+00 -0.16958406998E+00 -0.76074022358E-01  0.27572274264E+00  0.51109989000E-03 0.  1.
     -623    1    1    2    0    0  0.95891014633E-01  0.10574792804E+00  0.12369073351E+01  0.17130452509E+03  0.17130000000E+03 0. -1.
      622    1    1    2    0    0  0.10776741489E+00  0.63836141945E-01  0.28391666546E+01  0.37197521640E+01  0.24000000000E+01 0.  1.
</event>
<event>
 5   0  0.6825300E-03  0.9118800E+02  0.7818608E-02  0.1180000E+00
       11   -1    0    0    0    0  0.00000000000E+00  0.00000000000E+00  0.39999999673E+01  0.40000000000E+01  0.51109989000E-03 0. -1.
     -623   -1    0    0    0    0  0.00000000000E+00  0.00000000000E+00  0.12525980253E-10  0.17130000000E+03  0.17130000000E+03 0.  1.
       11    1    1    2    0    0  0.44922202539E+00  0.10796074107E+00  0.64556010269E+00  0.79385392681E+00  0.51109989000E-03 0. -1.
     -623    1    1    2    0    0 -0.21119077263E+00  0.91471435905E-01  0.12586532516E+01  0.17130477862E+03  0.17130000000E+03 0.  1.
      622    1    1    2    0    0 -0.23803125276E+00 -0.19943217698E+00  0.20957866130E+01  0.32013674575E+01  0.24000000000E+01 0. -1.
</event>
<event>
 5   0  0.6825300E-03  0.9118800E+02  0.7818608E-02  0.1180000E+00
       11   -1    0    0    0    0  0.00000000000E+00  0.00000000000E+00  0.39999999673E+01  0.40000000000E+01  0.51109989000E-03 0. -1.
     -623   -1    0    0    0    0  0.00000000000E+00  0.00000000000E+00  0.12525980253E-10  0.17130000000E+03  0.17130000000E+03 0.  1.
       11    1    1    2    0    0  0.21749723603E-01 -0.13248832283E+00  0.17516893328E+00  0.22070483133E+00  0.51109989000E-03 0. -1.
     -623    1    1    2    0    0  0.24125854534E+00  0.42099893658E+00  0.93586002989E+00  0.17130324363E+03  0.17130000000E+03 0.  1.
      622    1    1    2    0    0 -0.26300826894E+00 -0.28851061375E+00  0.28889710042E+01  0.37760515339E+01  0.24000000000E+01 0. -1.
</event>
<event>
 5   0  0.6825300E-03  0.9118800E+02  0.7818608E-02  0.1180000E+00
       11   -1    0    0    0    0  0.00000000000E+00  0.00000000000E+00  0.39999999673E+01  0.40000000000E+01  0.51109989000E-03 0.  1.
     -623   -1    0    0    0    0  0.00000000000E+00  0.00000000000E+00  0.12525980253E-10  0.17130000000E+03  0.17130000000E+03 0. -1.
       11    1    1    2    0    0  0.13851352255E-01 -0.82543592361E-01  0.14441625449E+00  0.16691800496E+00  0.51109989000E-03 0.  1.
     -623    1    1    2    0    0 -0.37109079797E+00  0.45694505130E-01  0.89203624076E+00  0.17130273064E+03  0.17130000000E+03 0. -1.
      622    1    1    2    0    0  0.35723944572E+00  0.36849087231E-01  0.29635474721E+01  0.38303513542E+01  0.24000000000E+01 0.  1.
</event>
<event>
 5   0  0.6825300E-03  0.9118800E+02  0.7818608E-02  0.1180000E+00
       11   -1    0    0    0    0  0.00000000000E+00  0.00000000000E+00  0.39999999673E+01  0.40000000000E+01  0.51109989000E-03 0.  1.
     -623   -1    0    0    0    0  0.00000000000E+00  0.00000000000E+00  0.12525980253E-10  0.17130000000E+03  0.17130000000E+03 0. -1.
       11    1    1    2    0    0  0.10224045637E+00 -0.45516788735E-01  0.12453254230E+00  0.16743208859E+00  0.51109989000E-03 0.  1.
     -623    1    1    2    0    0 -0.30936787530E+00  0.26911596529E+00  0.90670814593E+00  0.17130289038E+03  0.17130000000E+03 0. -1.
      622    1    1    2    0    0  0.20712741893E+00 -0.22359917655E+00  0.29687592791E+01  0.38296775343E+01  0.24000000000E+01 0.  1.
</event>
<event>
 5   0  0.6825300E-03  0.9118800E+02  0.7818608E-02  0.1180000E+00
       11   -1    0    0    0    0  0.00000000000E+00  0.00000000000E+00  0.39999999673E+01  0.40000000000E+01  0.51109989000E-03 0.  1.
     -623   -1    0    0    0    0  0.00000000000E+00  0.00000000000E+00  0.12525980253E-10  0.17130000000E+03  0.17130000000E+03 0.  1.
       11    1    1    2    0    0  0.15329739349E-01 -0.13857365896E+00  0.36485459969E+00  0.39058520197E+00  0.51109989000E-03 0.  1.
     -623    1    1    2    0    0 -0.41004251818E+00 -0.42461743869E+00  0.10341776867E+01  0.17130413877E+03  0.17130000000E+03 0.  1.
      622    1    1    2    0    0  0.39471277883E+00  0.56319109764E+00  0.26009676810E+01  0.36052760321E+01  0.24000000000E+01 0.  1.
</event>
<event>
 5   0  0.6825300E-03  0.9118800E+02  0.7818608E-02  0.1180000E+00
       11   -1    0    0    0    0  0.00000000000E+00  0.00000000000E+00  0.39999999673E+01  0.40000000000E+01  0.51109989000E-03 0.  1.
     -623   -1    0    0    0    0  0.00000000000E+00  0.00000000000E+00  0.12525980253E-10  0.17130000000E+03  0.17130000000E+03 0. -1.
       11    1    1    2    0    0 -0.18112516723E+00  0.37503217517E+00  0.45576635495E+00  0.61739670403E+00  0.51109989000E-03 0.  1.
     -623    1    1    2    0    0 -0.66205933172E-01 -0.48935744907E+00  0.11830190625E+01  0.17130479675E+03  0.17130000000E+03 0. -1.
      622    1    1    2    0    0  0.24733110040E+00  0.11432527390E+00  0.23612145499E+01  0.33778065504E+01  0.24000000000E+01 0.  1.
</event>
<event>
 5   0  0.6825300E-03  0.9118800E+02  0.7818608E-02  0.1180000E+00
       11   -1    0    0    0    0  0.00000000000E+00  0.00000000000E+00  0.39999999673E+01  0.40000000000E+01  0.51109989000E-03 0. -1.
     -623   -1    0    0    0    0  0.00000000000E+00  0.00000000000E+00  0.12525980253E-10  0.17130000000E+03  0.17130000000E+03 0. -1.
       11    1    1    2    0    0  0.56004967779E+00 -0.28942394657E-01  0.40831658527E+00  0.69369733951E+00  0.51109989000E-03 0. -1.
     -623    1    1    2    0    0 -0.20896707452E+00 -0.10374690019E+00  0.13569093529E+01  0.17130553299E+03  0.17130000000E+03 0. -1.
      622    1    1    2    0    0 -0.35108260328E+00  0.13268929485E+00  0.22347740292E+01  0.33007696686E+01  0.24000000000E+01 0. -1.
</event>
<event>
 5   0  0.6825300E-03  0.9118800E+02  0.7818608E-02  0.1180000E+00
       11   -1    0    0    0    0  0.00000000000E+00  0.00000000000E+00  0.39999999673E+01  0.40000000000E+01  0.51109989000E-03 0.  1.
     -623   -1    0    0    0    0  0.00000000000E+00  0.00000000000E+00  0.12525980253E-10  0.17130000000E+03  0.17130000000E+03 0.  1.
       11    1    1    2    0    0 -0.11261687164E+00  0.51550046466E-01 -0.53364242293E-01  0.13486278452E+00  0.51109989000E-03 0.  1.
     -623    1    1    2    0    0  0.68023522655E-01  0.19747142601E+00  0.10384044737E+01  0.17130327465E+03  0.17130000000E+03 0.  1.
      622    1    1    2    0    0  0.44593348989E-01 -0.24902147247E+00  0.30149597360E+01  0.38618625649E+01  0.24000000000E+01 0.  1.
</event>
<event>
 5   0  0.6825300E-03  0.9118800E+02  0.7818608E-02  0.1180000E+00
       11   -1    0    0    0    0  0.00000000000E+00  0.00000000000E+00  0.39999999673E+01  0.40000000000E+01  0.51109989000E-03 0.  1.
     -623   -1    0    0    0    0  0.00000000000E+00  0.00000000000E+00  0.12525980253E-10  0.17130000000E+03  0.17130000000E+03 0. -1.
       11    1    1    2    0    0 -0.18303518790E-01 -0.94906966288E-01  0.17202361156E+00  0.19731886683E+00  0.51109989000E-03 0.  1.
     -623    1    1    2    0    0  0.24980816121E+00  0.93975529498E-01  0.89069831446E+00  0.17130252356E+03  0.17130000000E+03 0. -1.
      622    1    1    2    0    0 -0.23150464242E+00  0.93143678942E-03  0.29372780413E+01  0.38001575703E+01  0.24000000000E+01 0.  1.
</event>
<event>
 5   0  0.6825300E-03  0.9118800E+02  0.7818608E-02  0.1180000E+00
       11   -1    0    0    0    0  0.00000000000E+00  0.00000000000E+00  0.39999999673E+01  0.40000000000E+01  0.51109989000E-03 0. -1.
     -623   -1    0    0    0    0  0.00000000000E+00  0.00000000000E+00  0.12525980253E-10  0.17130000000E+03  0.17130000000E+03 0. -1.
       11    1    1    2    0    0  0.14045208484E+00  0.21874537555E-02 -0.11998563116E+00  0.18473869653E+00  0.51109989000E-03 0. -1.
     -623    1    1    2    0    0 -0.56958402415E+00 -0.16466257201E-01  0.11920155519E+01  0.17130509507E+03  0.17130000000E+03 0. -1.
      622    1    1    2    0    0  0.42913193931E+00  0.14278803446E-01  0.29279700466E+01  0.38101662299E+01  0.24000000000E+01 0.  0.
</event>
<event>
 5   0  0.6825300E-03  0.9118800E+02  0.7818608E-02  0.1180000E+00
       11   -1    0    0    0    0  0.00000000000E+00  0.00000000000E+00  0.39999999673E+01  0.40000000000E+01  0.51109989000E-03 0. -1.
     -623   -1    0    0    0    0  0.00000000000E+00  0.00000000000E+00  0.12525980253E-10  0.17130000000E+03  0.17130000000E+03 0.  1.
       11    1    1    2    0    0  0.75405194909E-01 -0.22990179626E+00 -0.22791586836E+00  0.33239537243E+00  0.51109989000E-03 0. -1.
     -623    1    1    2    0    0 -0.35511321103E+00  0.15890756623E+00  0.14787273854E+01  0.17130682412E+03  0.17130000000E+03 0.  1.
      622    1    1    2    0    0  0.27970801612E+00  0.70994230035E-01  0.27491884503E+01  0.36607805029E+01  0.24000000000E+01 0. -1.
</event>
<event>
 5   0  0.6825300E-03  0.9118800E+02  0.7818608E-02  0.1180000E+00
       11   -1    0    0    0    0  0.00000000000E+00  0.00000000000E+00  0.39999999673E+01  0.40000000000E+01  0.51109989000E-03 0. -1.
     -623   -1    0    0    0    0  0.00000000000E+00  0.00000000000E+00  0.12525980253E-10  0.17130000000E+03  0.17130000000E+03 0. -1.
       11    1    1    2    0    0 -0.13622396962E+00 -0.29284832253E+00  0.98467675027E-01  0.33765848746E+00  0.51109989000E-03 0. -1.
     -623    1    1    2    0    0 -0.36996887386E+00  0.52872998434E+00  0.11994512157E+01  0.17130541473E+03  0.17130000000E+03 0. -1.
      622    1    1    2    0    0  0.50619284348E+00 -0.23588166181E+00  0.27020810766E+01  0.36569267832E+01  0.24000000000E+01 0. -1.
</event>
<event>
 5   0  0.6825300E-03  0.9118800E+02  0.7818608E-02  0.1180000E+00
       11   -1    0    0    0    0  0.00000000000E+00  0.00000000000E+00  0.39999999673E+01  0.40000000000E+01  0.51109989000E-03 0. -1.
     -623   -1    0    0    0    0  0.00000000000E+00  0.00000000000E+00  0.12525980253E-10  0.17130000000E+03  0.17130000000E+03 0. -1.
       11    1    1    2    0    0  0.11544860493E+00  0.18988618353E+00 -0.67748016372E-01  0.23232562927E+00  0.51109989000E-03 0. -1.
     -623    1    1    2    0    0  0.36466786574E-01 -0.72034782256E+00  0.12240636955E+01  0.17130589179E+03  0.17130000000E+03 0. -1.
      622    1    1    2    0    0 -0.15191539150E+00  0.53046163903E+00  0.28436842882E+01  0.37617825785E+01  0.24000000000E+01 0. -1.
</event>
<event>
 5   0  0.6825300E-03  0.9118800E+02  0.7818608E-02  0.1180000E+00
       11   -1    0    0    0    0  0.00000000000E+00  0.00000000000E+00  0.39999999673E+01  0.40000000000E+01  0.51109989000E-03 0. -1.
     -623   -1    0    0    0    0  0.00000000000E+00  0.00000000000E+00  0.12525980253E-10  0.17130000000E+03  0.17130000000E+03 0. -1.
       11    1    1    2    0    0  0.25555939800E+00 -0.82232914552E-01 -0.10056415565E+00  0.28668147615E+00  0.51109989000E-03 0. -1.
     -623    1    1    2    0    0  0.34811383714E-01 -0.54889145445E+00  0.13620666640E+01  0.17130629796E+03  0.17130000000E+03 0. -1.
      622    1    1    2    0    0 -0.29037078172E+00  0.63112436900E+00  0.27384974591E+01  0.37070205682E+01  0.24000000000E+01 0. -1.
</event>
<event>
 5   0  0.6825300E-03  0.9118800E+02  0.7818608E-02  0.1180000E+00
       11   -1    0    0    0    0  0.00000000000E+00  0.00000000000E+00  0.39999999673E+01  0.40000000000E+01  0.51109989000E-03 0. -1.
     -623   -1    0    0    0    0  0.00000000000E+00  0.00000000000E+00  0.12525980253E-10  0.17130000000E+03  0.17130000000E+03 0.  1.
       11    1    1    2    0    0  0.55043946580E+00  0.22702301311E+00  0.23498869769E+00  0.64011171155E+00  0.51109989000E-03 0. -1.
     -623    1    1    2    0    0 -0.58295596282E+00 -0.42427979921E+00  0.14329589697E+01  0.17130751070E+03  0.17130000000E+03 0.  1.
      622    1    1    2    0    0  0.32516497015E-01  0.19725678610E+00  0.23320523000E+01  0.33523775879E+01  0.24000000000E+01 0. -1.
</event>
<event>
 5   0  0.6825300E-03  0.9118800E+02  0.7818608E-02  0.1180000E+00
       11   -1    0    0    0    0  0.00000000000E+00  0.00000000000E+00  0.39999999673E+01  0.40000000000E+01  0.51109989000E-03 0. -1.
     -623   -1    0    0    0    0  0.00000000000E+00  0.00000000000E+00  0.12525980253E-10  0.17130000000E+03  0.17130000000E+03 0. -1.
       11    1    1    2    0    0 -0.31752444939E+00 -0.20201152691E+00  0.39635276621E+00  0.54655851422E+00  0.51109989000E-03 0. -1.
     -623    1    1    2    0    0 -0.63813343017E+00  0.88385897829E-01  0.13240871149E+01  0.17130632864E+03  0.17130000000E+03 0. -1.
      622    1    1    2    0    0  0.95565787956E+00  0.11362562908E+00  0.22795600862E+01  0.34471128431E+01  0.24000000000E+01 0. -1.
</event>
<event>
 5   0  0.6825300E-03  0.9118800E+02  0.7818608E-02  0.1180000E+00
       11   -1    0    0    0    0  0.00000000000E+00  0.00000000000E+00  0.39999999673E+01  0.40000000000E+01  0.51109989000E-03 0.  1.
     -623   -1    0    0    0    0  0.00000000000E+00  0.00000000000E+00  0.12525980253E-10  0.17130000000E+03  0.17130000000E+03 0. -1.
       11    1    1    2    0    0  0.12560174492E+00 -0.68476126455E-01  0.73581279416E-01  0.16087027109E+00  0.51109989000E-03 0.  1.
     -623    1    1    2    0    0  0.25149318854E-02  0.18497014537E+00  0.93836943715E+00  0.17130267002E+03  0.17130000000E+03 0. -1.
      622    1    1    2    0    0 -0.12811667680E+00 -0.11649401891E+00  0.29880492508E+01  0.38364597045E+01  0.24000000000E+01 0.  1.
</event>
<event>
 5   0  0.6825300E-03  0.9118800E+02  0.7818608E-02  0.1180000E+00
       11   -1    0    0    0    0  0.00000000000E+00  0.00000000000E+00  0.39999999673E+01  0.40000000000E+01  0.51109989000E-03 0.  1.
     -623   -1    0    0    0    0  0.00000000000E+00  0.00000000000E+00  0.12525980253E-10  0.17130000000E+03  0.17130000000E+03 0. -1.
       11    1    1    2    0    0 -0.82718730785E-01  0.10224639193E-01 -0.39366975182E-01  0.92178910969E-01  0.51109989000E-03 0.  1.
     -623    1    1    2    0    0 -0.21868908584E+00  0.16549591632E+00  0.97901246282E+00  0.17130301713E+03  0.17130000000E+03 0. -1.
      622    1    1    2    0    0  0.30140781662E+00 -0.17572055551E+00  0.30603544797E+01  0.39048039550E+01  0.24000000000E+01 0.  1.
</event>
<event>
 5   0  0.6825300E-03  0.9118800E+02  0.7818608E-02  0.1180000E+00
       11   -1    0    0    0    0  0.00000000000E+00  0.00000000000E+00  0.39999999673E+01  0.40000000000E+01  0.51109989000E-03 0. -1.
     -623   -1    0    0    0    0  0.00000000000E+00  0.00000000000E+00  0.12525980253E-10  0.17130000000E+03  0.17130000000E+03 0. -1.
       11    1    1    2    0    0 -0.19985433043E+00  0.25729491996E-01  0.84589569510E-01  0.21853927940E+00  0.51109989000E-03 0. -1.
     -623    1    1    2    0    0  0.60643623463E+00 -0.17584561038E+00  0.10310819874E+01  0.17130426678E+03  0.17130000000E+03 0. -1.
      622    1    1    2    0    0 -0.40658190420E+00  0.15011611838E+00  0.28843284105E+01  0.37771939417E+01  0.24000000000E+01 0. -1.
</event>
<event>
 5   0  0.6825300E-03  0.9118800E+02  0.7818608E-02  0.1180000E+00
       11   -1    0    0    0    0  0.00000000000E+00  0.00000000000E+00  0.39999999673E+01  0.40000000000E+01  0.51109989000E-03 0.  1.
     -623   -1    0    0    0    0  0.00000000000E+00  0.00000000000E+00  0.12525980253E-10  0.17130000000E+03  0.17130000000E+03 0. -1.
       11    1    1    2    0    0 -0.18476429402E+00 -0.15263341811E+00 -0.66433702719E-01  0.24869359209E+00  0.51109989000E-03 0.  1.
     -623    1    1    2    0    0 -0.10754303243E+00  0.92275994170E-01  0.12044371637E+01  0.17130429285E+03  0.17130000000E+03 0. -1.
      622    1    1    2    0    0  0.29230732645E+00  0.60357423941E-01  0.28619965064E+01  0.37470135567E+01  0.24000000000E+01 0.  1.
</event>
<event>
 5   0  0.6825300E-03  0.9118800E+02  0.7818608E-02  0.1180000E+00
       11   -1    0    0    0    0  0.00000000000E+00  0.00000000000E+00  0.39999999673E+01  0.40000000000E+01  0.51109989000E-03 0.  1.
     -623   -1    0    0    0    0  0.00000000000E+00  0.00000000000E+00  0.12525980253E-10  0.17130000000E+03  0.17130000000E+03 0. -1.
       11    1    1    2    0    0  0.30667351407E+00  0.25657809633E+00 -0.82665663955E-01  0.40830728253E+00  0.51109989000E-03 0.  1.
     -623    1    1    2    0    0 -0.37345419794E+00  0.25607663999E-02  0.14326226169E+01  0.17130639767E+03  0.17130000000E+03 0. -1.
      622    1    1    2    0    0  0.66780683871E-01 -0.25913886273E+00  0.26500430144E+01  0.35852950490E+01  0.24000000000E+01 0.  1.
</event>
<event>
 5   0  0.6825300E-03  0.9118800E+02  0.7818608E-02  0.1180000E+00
       11   -1    0    0    0    0  0.00000000000E+00  0.00000000000E+00  0.39999999673E+01  0.40000000000E+01  0.51109989000E-03 0.  1.
     -623   -1    0    0    0    0  0.00000000000E+00  0.00000000000E+00  0.12525980253E-10  0.17130000000E+03  0.17130000000E+03 0. -1.
       11    1    1    2    0    0  0.20712510637E+00  0.90525141164E-01  0.48967515770E-01  0.23128702881E+00  0.51109989000E-03 0.  1.
     -623    1    1    2    0    0 -0.23426535675E+00 -0.33641057021E+00  0.10607794847E+01  0.17130377493E+03  0.17130000000E+03 0. -1.
      622    1    1    2    0    0  0.27140250380E-01  0.24588542905E+00  0.28902529669E+01  0.37649380407E+01  0.24000000000E+01 0.  1.
</event>
<event>
 5   0  0.6825300E-03  0.9118800E+02  0.7818608E-02  0.1180000E+00
       11   -1    0    0    0    0  0.00000000000E+00  0.00000000000E+00  0.39999999673E+01  0.40000000000E+01  0.51109989000E-03 0. -1.
     -623   -1    0    0    0    0  0.00000000000E+00  0.00000000000E+00  0.12525980253E-10  0.17130000000E+03  0.17130000000E+03 0.  1.
       11    1    1    2    0    0 -0.13066954846E+00 -0.19557846032E+00  0.18418251866E+00  0.29874558815E+00  0.51109989000E-03 0. -1.
     -623    1    1    2    0    0 -0.11895820910E+00  0.10647932789E+00  0.10147027391E+01  0.17130307969E+03  0.17130000000E+03 0.  1.
      622    1    1    2    0    0  0.24962775756E+00  0.89099132427E-01  0.28011147096E+01  0.36981747240E+01  0.24000000000E+01 0. -1.
</event>
<event>
 5   0  0.6825300E-03  0.9118800E+02  0.7818608E-02  0.1180000E+00
       11   -1    0    0    0    0  0.00000000000E+00  0.00000000000E+00  0.39999999673E+01  0.40000000000E+01  0.51109989000E-03 0. -1.
     -623   -1    0    0    0    0  0.00000000000E+00  0.00000000000E+00  0.12525980253E-10  0.17130000000E+03  0.17130000000E+03 0. -1.
       11    1    1    2    0    0  0.49125049011E-01  0.11382441845E+00  0.33127569934E-01  0.12832367586E+00  0.51109989000E-03 0. -1.
     -623    1    1    2    0    0 -0.18292551532E+00 -0.92781841364E+00  0.10506658530E+01  0.17130583238E+03  0.17130000000E+03 0. -1.
      622    1    1    2    0    0  0.13380046631E+00  0.81399399519E+00  0.29162065444E+01  0.38658439439E+01  0.24000000000E+01 0. -1.
</event>
<event>
 5   0  0.6825300E-03  0.9118800E+02  0.7818608E-02  0.1180000E+00
       11   -1    0    0    0    0  0.00000000000E+00  0.00000000000E+00  0.39999999673E+01  0.40000000000E+01  0.51109989000E-03 0. -1.
     -623   -1    0    0    0    0  0.00000000000E+00  0.00000000000E+00  0.12525980253E-10  0.17130000000E+03  0.17130000000E+03 0. -1.
       11    1    1    2    0    0 -0.16336703500E+00  0.67330039294E-01  0.87193373123E-01  0.19704077714E+00  0.51109989000E-03 0. -1.
     -623    1    1    2    0    0  0.17947969706E+00  0.33630615823E+00  0.99490887509E+00  0.17130331333E+03  0.17130000000E+03 0. -1.
      622    1    1    2    0    0 -0.16112662059E-01 -0.40363619752E+00  0.29178977191E+01  0.37996458910E+01  0.24000000000E+01 0. -1.
</event>
<event>
 5   0  0.6825300E-03  0.9118800E+02  0.7818608E-02  0.1180000E+00
       11   -1    0    0    0    0  0.00000000000E+00  0.00000000000E+00  0.39999999673E+01  0.40000000000E+01  0.51109989000E-03 0. -1.
     -623   -1    0    0    0    0  0.00000000000E+00  0.00000000000E+00  0.12525980253E-10  0.17130000000E+03  0.17130000000E+03 0. -1.
       11    1    1    2    0    0 -0.42402871102E-01 -0.88921153185E-01 -0.86458790758E-01  0.13107386727E+00  0.51109989000E-03 0. -1.
     -623    1    1    2    0    0 -0.28167915738E+00  0.19560114650E+00  0.10759118318E+01  0.17130372205E+03  0.17130000000E+03 0. -1.
      622    1    1    2    0    0  0.32408202848E+00 -0.10667999332E+00  0.30105469263E+01  0.38652040797E+01  0.24000000000E+01 0. -1.
</event>
<event>
 5   0  0.6825300E-03  0.9118800E+02  0.7818608E-02  0.1180000E+00
       11   -1    0    0    0    0  0.00000000000E+00  0.00000000000E+00  0.39999999673E+01  0.40000000000E+01  0.51109989000E-03 0. -1.
     -623   -1    0    0    0    0  0.00000000000E+00  0.00000000000E+00  0.12525980253E-10  0.17130000000E+03  0.17130000000E+03 0.  1.
       11    1    1    2    0    0  0.30309301101E+00  0.17519086726E+00  0.15820498745E+00  0.38416961433E+00  0.51109989000E-03 0. -1.
     -623    1    1    2    0    0 -0.55663749426E-01 -0.53623913405E+00  0.11796211234E+01  0.17130490990E+03  0.17130000000E+03 0.  1.
      622    1    1    2    0    0 -0.24742926158E+00  0.36104826679E+00  0.26621738565E+01  0.36109204827E+01  0.24000000000E+01 0. -1.
</event>
<event>
 5   0  0.6825300E-03  0.9118800E+02  0.7818608E-02  0.1180000E+00
       11   -1    0    0    0    0  0.00000000000E+00  0.00000000000E+00  0.39999999673E+01  0.40000000000E+01  0.51109989000E-03 0.  1.
     -623   -1    0    0    0    0  0.00000000000E+00  0.00000000000E+00  0.12525980253E-10  0.17130000000E+03  0.17130000000E+03 0. -1.
       11    1    1    2    0    0 -0.94939858607E-01  0.13648787660E+00  0.22230349849E+00  0.27759975482E+00  0.51109989000E-03 0.  1.
     -623    1    1    2    0    0 -0.28969794606E+00 -0.76475589368E+00  0.10362081975E+01  0.17130508604E+03  0.17130000000E+03 0. -1.
      622    1    1    2    0    0  0.38463780467E+00  0.62826801708E+00  0.27414882714E+01  0.37173142030E+01  0.24000000000E+01 0.  1.
</event>
<event>
 5   0  0.6825300E-03  0.9118800E+02  0.7818608E-02  0.1180000E+00
       11   -1    0    0    0    0  0.00000000000E+00  0.00000000000E+00  0.39999999673E+01  0.40000000000E+01  0.51109989000E-03 0. -1.
     -623   -1    0    0    0    0  0.00000000000E+00  0.00000000000E+00  0.12525980253E-10  0.17130000000E+03  0.17130000000E+03 0. -1.
       11    1    1    2    0    0 -0.83750157667E-01  0.43429768432E-01 -0.40560078613E-01  0.10269184435E+00  0.51109989000E-03 0. -1.
     -623    1    1    2    0    0 -0.16502666938E+00 -0.38617524922E+00  0.10036656314E+01  0.17130345504E+03  0.17130000000E+03 0. -1.
      622    1    1    2    0    0  0.24877682705E+00  0.34274548079E+00  0.30368944145E+01  0.38938531122E+01  0.24000000000E+01 0. -1.
</event>
<event>
 5   0  0.6825300E-03  0.9118800E+02  0.7818608E-02  0.1180000E+00
       11   -1    0    0    0    0  0.00000000000E+00  0.00000000000E+00  0.39999999673E+01  0.40000000000E+01  0.51109989000E-03 0.  1.
     -623   -1    0    0    0    0  0.00000000000E+00  0.00000000000E+00  0.12525980253E-10  0.17130000000E+03  0.17130000000E+03 0.  1.
       11    1    1    2    0    0 -0.84554821207E-02  0.15275549356E+00  0.54927628051E+00  0.57018455744E+00  0.51109989000E-03 0.  1.
     -623    1    1    2    0    0 -0.46179093507E+00 -0.26156761059E+00  0.10543132171E+01  0.17130406663E+03  0.17130000000E+03 0.  1.
      622    1    1    2    0    0  0.47024641719E+00  0.10881211703E+00  0.23964104698E+01  0.34257488100E+01  0.24000000000E+01 0.  1.
</event>
<event>
 5   0  0.6825300E-03  0.9118800E+02  0.7818608E-02  0.1180000E+00
       11   -1    0    0    0    0  0.00000000000E+00  0.00000000000E+00  0.39999999673E+01  0.40000000000E+01  0.51109989000E-03 0. -1.
     -623   -1    0    0    0    0  0.00000000000E+00  0.00000000000E+00  0.12525980253E-10  0.17130000000E+03  0.17130000000E+03 0.  1.
       11    1    1    2    0    0 -0.30270388565E+00 -0.33684506004E-01  0.12555707876E+00  0.32943759588E+00  0.51109989000E-03 0. -1.
     -623    1    1    2    0    0  0.27920020785E+00  0.69953483235E-01  0.11025569250E+01  0.17130379003E+03  0.17130000000E+03 0.  1.
      622    1    1    2    0    0  0.23503677797E-01 -0.36268977231E-01  0.27718859636E+01  0.36667723759E+01  0.24000000000E+01 0. -1.
</event>
<event>
 5   0  0.6825300E-03  0.9118800E+02  0.7818608E-02  0.1180000E+00
       11   -1    0    0    0    0  0.00000000000E+00  0.00000000000E+00  0.39999999673E+01  0.40000000000E+01  0.51109989000E-03 0.  1.
     -623   -1    0    0    0    0  0.00000000000E+00  0.00000000000E+00  0.12525980253E-10  0.17130000000E+03  0.17130000000E+03 0.  1.
       11    1    1    2    0    0 -0.95228274160E-01 -0.28930883703E+00  0.10553632435E+01  0.10984351890E+01  0.51109989000E-03 0.  1.
     -623    1    1    2    0    0  0.43707636008E-01  0.34122853598E+00  0.13253777752E+01  0.17130547269E+03  0.17130000000E+03 0.  1.
      622    1    1    2    0    0  0.51520638153E-01 -0.51919698947E-01  0.16192589486E+01  0.28960921211E+01  0.24000000000E+01 0.  1.
</event>
<event>
 5   0  0.6825300E-03  0.9118800E+02  0.7818608E-02  0.1180000E+00
       11   -1    0    0    0    0  0.00000000000E+00  0.00000000000E+00  0.39999999673E+01  0.40000000000E+01  0.51109989000E-03 0.  1.
     -623   -1    0    0    0    0  0.00000000000E+00  0.00000000000E+00  0.12525980253E-10  0.17130000000E+03  0.17130000000E+03 0.  1.
       11    1    1    2    0    0 -0.12270803591E+00 -0.39985471820E-01 -0.24190399431E+00  0.27417859822E+00  0.51109989000E-03 0.  1.
     -623    1    1    2    0    0  0.67997195172E+00 -0.34053559650E+00  0.14840072674E+01  0.17130811599E+03  0.17130000000E+03 0.  1.
      622    1    1    2    0    0 -0.55726391580E+00  0.38052106832E+00  0.27578966943E+01  0.37177054121E+01  0.24000000000E+01 0.  1.
</event>
<event>
 5   0  0.6825300E-03  0.9118800E+02  0.7818608E-02  0.1180000E+00
       11   -1    0    0    0    0  0.00000000000E+00  0.00000000000E+00  0.39999999673E+01  0.40000000000E+01  0.51109989000E-03 0.  1.
     -623   -1    0    0    0    0  0.00000000000E+00  0.00000000000E+00  0.12525980253E-10  0.17130000000E+03  0.17130000000E+03 0.  1.
       11    1    1    2    0    0  0.37864969124E+00 -0.32108543906E-01  0.11984539069E+00  0.39845919008E+00  0.51109989000E-03 0.  1.
     -623    1    1    2    0    0  0.74368485069E-01 -0.64098013069E+00  0.13292804202E+01  0.17130637283E+03  0.17130000000E+03 0.  1.
      622    1    1    2    0    0 -0.45301817630E+00  0.67308867459E+00  0.25508741565E+01  0.35951679786E+01  0.24000000000E+01 0.  1.
</event>
<event>
 5   0  0.6825300E-03  0.9118800E+02  0.7818608E-02  0.1180000E+00
       11   -1    0    0    0    0  0.00000000000E+00  0.00000000000E+00  0.39999999673E+01  0.40000000000E+01  0.51109989000E-03 0. -1.
     -623   -1    0    0    0    0  0.00000000000E+00  0.00000000000E+00  0.12525980253E-10  0.17130000000E+03  0.17130000000E+03 0.  1.
       11    1    1    2    0    0  0.14393671452E-01  0.44112635781E-01 -0.78433056086E-01  0.91132364837E-01  0.51109989000E-03 0. -1.
     -623    1    1    2    0    0 -0.12440518187E+00 -0.38780217123E-01  0.99882730810E+00  0.17130296155E+03  0.17130000000E+03 0.  1.
      622    1    1    2    0    0  0.11001151042E+00 -0.53324186579E-02  0.30796057153E+01  0.39059060830E+01  0.24000000000E+01 0. -1.
</event>
<event>
 5   0  0.6825300E-03  0.9118800E+02  0.7818608E-02  0.1180000E+00
       11   -1    0    0    0    0  0.00000000000E+00  0.00000000000E+00  0.39999999673E+01  0.40000000000E+01  0.51109989000E-03 0.  1.
     -623   -1    0    0    0    0  0.00000000000E+00  0.00000000000E+00  0.12525980253E-10  0.17130000000E+03  0.17130000000E+03 0.  1.
       11    1    1    2    0    0  0.25116325355E-02 -0.20361231687E+00  0.35040617907E-01  0.20662136871E+00  0.51109989000E-03 0.  1.
     -623    1    1    2    0    0  0.24595268510E+00  0.33052292850E+00  0.10453813759E+01  0.17130368519E+03  0.17130000000E+03 0.  1.
      622    1    1    2    0    0 -0.24846431763E+00 -0.12691061162E+00  0.29195779735E+01  0.37896934393E+01  0.24000000000E+01 0.  1.
</event>
<event>
 5   0  0.6825300E-03  0.9118800E+02  0.7818608E-02  0.1180000E+00
       11   -1    0    0    0    0  0.00000000000E+00  0.00000000000E+00  0.39999999673E+01  0.40000000000E+01  0.51109989000E-03 0.  1.
     -623   -1    0    0    0    0  0.00000000000E+00  0.00000000000E+00  0.12525980253E-10  0.17130000000E+03  0.17130000000E+03 0. -1.
       11    1    1    2    0    0  0.57961597448E-02  0.21244484158E+00  0.71960632385E-01  0.22437691507E+00  0.51109989000E-03 0.  1.
     -623    1    1    2    0    0 -0.27440315855E+00 -0.35252827857E+00  0.10339751203E+01  0.17130370305E+03  0.17130000000E+03 0. -1.
      622    1    1    2    0    0  0.26860699880E+00  0.14008343699E+00  0.28940642147E+01  0.37719200373E+01  0.24000000000E+01 0.  1.
</event>
<event>
 5   0  0.6825300E-03  0.9118800E+02  0.7818608E-02  0.1180000E+00
       11   -1    0    0    0    0  0.00000000000E+00  0.00000000000E+00  0.39999999673E+01  0.40000000000E+01  0.51109989000E-03 0. -1.
     -623   -1    0    0    0    0  0.00000000000E+00  0.00000000000E+00  0.12525980253E-10  0.17130000000E+03  0.17130000000E+03 0. -1.
       11    1    1    2    0    0  0.21040207874E+00  0.10531243079E-01  0.22248999883E+00  0.30640170140E+00  0.51109989000E-03 0. -1.
     -623    1    1    2    0    0  0.14796814264E+00 -0.46711700365E+00  0.10357081610E+01  0.17130383179E+03  0.17130000000E+03 0. -1.
      622    1    1    2    0    0 -0.35837022138E+00  0.45658576057E+00  0.27418018075E+01  0.36897665135E+01  0.24000000000E+01 0. -1.
</event>
<event>
 5   0  0.6825300E-03  0.9118800E+02  0.7818608E-02  0.1180000E+00
       11   -1    0    0    0    0  0.00000000000E+00  0.00000000000E+00  0.39999999673E+01  0.40000000000E+01  0.51109989000E-03 0. -1.
     -623   -1    0    0    0    0  0.00000000000E+00  0.00000000000E+00  0.12525980253E-10  0.17130000000E+03  0.17130000000E+03 0.  1.
       11    1    1    2    0    0  0.99631822646E-01  0.74005317045E-01  0.26408238974E-01  0.12688949264E+00  0.51109989000E-03 0. -1.
     -623    1    1    2    0    0  0.12322135908E+00 -0.21642273142E+00  0.94881242297E+00  0.17130280870E+03  0.17130000000E+03 0.  1.
      622    1    1    2    0    0 -0.22285318172E+00  0.14241741437E+00  0.30247793054E+01  0.38703018108E+01  0.24000000000E+01 0. -1.
</event>
<event>
 5   0  0.6825300E-03  0.9118800E+02  0.7818608E-02  0.1180000E+00
       11   -1    0    0    0    0  0.00000000000E+00  0.00000000000E+00  0.39999999673E+01  0.40000000000E+01  0.51109989000E-03 0.  1.
     -623   -1    0    0    0    0  0.00000000000E+00  0.00000000000E+00  0.12525980253E-10  0.17130000000E+03  0.17130000000E+03 0. -1.
       11    1    1    2    0    0 -0.37548618776E-01  0.26773755934E-01  0.19839913467E+00  0.20368900471E+00  0.51109989000E-03 0.  1.
     -623    1    1    2    0    0  0.27909254510E+00 -0.32040368524E+00  0.88853968456E+00  0.17130283142E+03  0.17130000000E+03 0. -1.
      622    1    1    2    0    0 -0.24154392632E+00  0.29362992931E+00  0.29130611481E+01  0.37934795711E+01  0.24000000000E+01 0.  1.
</event>
<event>
 5   0  0.6825300E-03  0.9118800E+02  0.7818608E-02  0.1180000E+00
       11   -1    0    0    0    0  0.00000000000E+00  0.00000000000E+00  0.39999999673E+01  0.40000000000E+01  0.51109989000E-03 0. -1.
     -623   -1    0    0    0    0  0.00000000000E+00  0.00000000000E+00  0.12525980253E-10  0.17130000000E+03  0.17130000000E+03 0.  1.
       11    1    1    2    0    0  0.21073881422E+00 -0.14214793439E+00  0.54910033412E+00  0.60508538341E+00  0.51109989000E-03 0. -1.
     -623    1    1    2    0    0 -0.35051222139E+00 -0.76241907790E-01  0.10690879449E+01  0.17130371164E+03  0.17130000000E+03 0.  1.
      622    1    1    2    0    0  0.13977340716E+00  0.21838984218E+00  0.23818116884E+01  0.33912029794E+01  0.24000000000E+01 0. -1.
</event>
<event>
 5   0  0.6825300E-03  0.9118800E+02  0.7818608E-02  0.1180000E+00
       11   -1    0    0    0    0  0.00000000000E+00  0.00000000000E+00  0.39999999673E+01  0.40000000000E+01  0.51109989000E-03 0. -1.
     -623   -1    0    0    0    0  0.00000000000E+00  0.00000000000E+00  0.12525980253E-10  0.17130000000E+03  0.17130000000E+03 0.  1.
       11    1    1    2    0    0 -0.26093634637E+00 -0.98437561771E-01  0.40788305765E+00  0.49411191077E+00  0.51109989000E-03 0. -1.
     -623    1    1    2    0    0  0.14312722953E+01 -0.11638678071E+01  0.17381957078E+01  0.17131875103E+03  0.17130000000E+03 0.  1.
      622    1    1    2    0    0 -0.11703359490E+01  0.12623053689E+01  0.18539212019E+01  0.34871370636E+01  0.24000000000E+01 0.  0.
</event>
<event>
 5   0  0.6825300E-03  0.9118800E+02  0.7818608E-02  0.1180000E+00
       11   -1    0    0    0    0  0.00000000000E+00  0.00000000000E+00  0.39999999673E+01  0.40000000000E+01  0.51109989000E-03 0. -1.
     -623   -1    0    0    0    0  0.00000000000E+00  0.00000000000E+00  0.12525980253E-10  0.17130000000E+03  0.17130000000E+03 0. -1.
       11    1    1    2    0    0 -0.11548536451E-01 -0.16732981504E+00 -0.25634268310E+00  0.30634044477E+00  0.51109989000E-03 0. -1.
     -623    1    1    2    0    0 -0.18862737560E+00  0.96199558654E+00  0.15848675868E+01  0.17131013636E+03  0.17130000000E+03 0. -1.
      622    1    1    2    0    0  0.20017591205E+00 -0.79466577150E+00  0.26714750637E+01  0.36835231912E+01  0.24000000000E+01 0. -1.
</event>
<event>
 5   0  0.6825300E-03  0.9118800E+02  0.7818608E-02  0.1180000E+00
       11   -1    0    0    0    0  0.00000000000E+00  0.00000000000E+00  0.39999999673E+01  0.40000000000E+01  0.51109989000E-03 0. -1.
     -623   -1    0    0    0    0  0.00000000000E+00  0.00000000000E+00  0.12525980253E-10  0.17130000000E+03  0.17130000000E+03 0.  1.
       11    1    1    2    0    0 -0.34814408675E+00  0.33824206772E+00  0.33902997777E+00  0.59207566119E+00  0.51109989000E-03 0. -1.
     -623    1    1    2    0    0  0.53452073456E+00  0.74377516025E+00  0.15194954026E+01  0.17130918767E+03  0.17130000000E+03 0.  1.
      622    1    1    2    0    0 -0.18637664781E+00 -0.10820172280E+01  0.21414745870E+01  0.33987366687E+01  0.24000000000E+01 0. -1.
</event>
<event>
 5   0  0.6825300E-03  0.9118800E+02  0.7818608E-02  0.1180000E+00
       11   -1    0    0    0    0  0.00000000000E+00  0.00000000000E+00  0.39999999673E+01  0.40000000000E+01  0.51109989000E-03 0. -1.
     -623   -1    0    0    0    0  0.00000000000E+00  0.00000000000E+00  0.12525980253E-10  0.17130000000E+03  0.17130000000E+03 0.  1.
       11    1    1    2    0    0  0.21552068911E+00  0.16096638885E+00 -0.32930198188E+00  0.42520512963E+00  0.51109989000E-03 0. -1.
     -623    1    1    2    0    0 -0.68219156513E+00  0.15089148130E+00  0.17544605012E+01  0.17131040916E+03  0.17130000000E+03 0.  1.
      622    1    1    2    0    0  0.46667087601E+00 -0.31185787015E+00  0.25748414480E+01  0.35643857143E+01  0.24000000000E+01 0.  0.
</event>
<event>
 5   0  0.6825300E-03  0.9118800E+02  0.7818608E-02  0.1180000E+00
       11   -1    0    0    0    0  0.00000000000E+00  0.00000000000E+00  0.39999999673E+01  0.40000000000E+01  0.51109989000E-03 0.  1.
     -623   -1    0    0    0    0  0.00000000000E+00  0.00000000000E+00  0.12525980253E-10  0.17130000000E+03  0.17130000000E+03 0. -1.
       11    1    1    2    0    0  0.10292382172E+00  0.70126672781E-02  0.12416788077E-01  0.10390826930E+00  0.51109989000E-03 0.  1.
     -623    1    1    2    0    0  0.31978607932E-03  0.18841907430E+00  0.92977093211E+00  0.17130262688E+03  0.17130000000E+03 0. -1.
      622    1    1    2    0    0 -0.10324360780E+00 -0.19543174157E+00  0.30578122472E+01  0.38934648511E+01  0.24000000000E+01 0.  1.
</event>
<event>
 5   0  0.6825300E-03  0.9118800E+02  0.7818608E-02  0.1180000E+00
       11   -1    0    0    0    0  0.00000000000E+00  0.00000000000E+00  0.39999999673E+01  0.40000000000E+01  0.51109989000E-03 0.  1.
     -623   -1    0    0    0    0  0.00000000000E+00  0.00000000000E+00  0.12525980253E-10  0.17130000000E+03  0.17130000000E+03 0.  1.
       11    1    1    2    0    0 -0.16310829375E-02  0.42169566623E-01 -0.40528301043E-01  0.58512709631E-01  0.51109989000E-03 0.  1.
     -623    1    1    2    0    0  0.15935876672E+00 -0.16736663838E+00  0.92381345645E+00  0.17130264691E+03  0.17130000000E+03 0.  1.
      622    1    1    2    0    0 -0.15772768378E+00  0.12519707175E+00  0.31167148120E+01  0.39388403811E+01  0.24000000000E+01 0.  1.
</event>
<event>
 5   0  0.6825300E-03  0.9118800E+02  0.7818608E-02  0.1180000E+00
       11   -1    0    0    0    0  0.00000000000E+00  0.00000000000E+00  0.39999999673E+01  0.40000000000E+01  0.51109989000E-03 0. -1.
     -623   -1    0    0    0    0  0.00000000000E+00  0.00000000000E+00  0.12525980253E-10  0.17130000000E+03  0.17130000000E+03 0.  1.
       11    1    1    2    0    0  0.79995727296E-01  0.12257526479E+00 -0.11568893543E+00  0.18656956592E+00  0.51109989000E-03 0. -1.
     -623    1    1    2    0    0 -0.44998941353E+00 -0.13882683615E+00  0.11815623099E+01  0.17130472221E+03  0.17130000000E+03 0.  1.
      622    1    1    2    0    0  0.36999368624E+00  0.16251571356E-01  0.29341265929E+01  0.38087082200E+01  0.24000000000E+01 0. -1.
</event>
<event>
 5   0  0.6825300E-03  0.9118800E+02  0.7818608E-02  0.1180000E+00
       11   -1    0    0    0    0  0.00000000000E+00  0.00000000000E+00  0.39999999673E+01  0.40000000000E+01  0.51109989000E-03 0. -1.
     -623   -1    0    0    0    0  0.00000000000E+00  0.00000000000E+00  0.12525980253E-10  0.17130000000E+03  0.17130000000E+03 0.  1.
       11    1    1    2    0    0 -0.16047628586E+00  0.17626383307E+00 -0.90609383957E-01  0.25501352681E+00  0.51109989000E-03 0. -1.
     -623    1    1    2    0    0  0.91883377129E-01 -0.32656719657E+00  0.12266542548E+01  0.17130472781E+03  0.17130000000E+03 0.  1.
      622    1    1    2    0    0  0.68592908735E-01  0.15030336350E+00  0.28639550965E+01  0.37402586653E+01  0.24000000000E+01 0. -1.
</event>
<event>
 5   0  0.6825300E-03  0.9118800E+02  0.7818608E-02  0.1180000E+00
       11   -1    0    0    0    0  0.00000000000E+00  0.00000000000E+00  0.39999999673E+01  0.40000000000E+01  0.51109989000E-03 0. -1.
     -623   -1    0    0    0    0  0.00000000000E+00  0.00000000000E+00  0.12525980253E-10  0.17130000000E+03  0.17130000000E+03 0.  1.
       11    1    1    2    0    0 -0.52499154843E-01 -0.20865233336E-01  0.37256805278E-01  0.67674588909E-01  0.51109989000E-03 0. -1.
     -623    1    1    2    0    0  0.11104468613E+00  0.50690496033E+00  0.89042342286E+00  0.17130310020E+03  0.17130000000E+03 0.  1.
      622    1    1    2    0    0 -0.58545531284E-01 -0.48603972700E+00  0.30723197392E+01  0.39292252131E+01  0.24000000000E+01 0. -1.
</event>
<event>
 5   0  0.6825300E-03  0.9118800E+02  0.7818608E-02  0.1180000E+00
       11   -1    0    0    0    0  0.00000000000E+00  0.00000000000E+00  0.39999999673E+01  0.40000000000E+01  0.51109989000E-03 0. -1.
     -623   -1    0    0    0    0  0.00000000000E+00  0.00000000000E+00  0.12525980253E-10  0.17130000000E+03  0.17130000000E+03 0.  1.
       11    1    1    2    0    0 -0.44915908230E+00  0.16830788389E+00 -0.20981885752E-01  0.48011657516E+00  0.51109989000E-03 0. -1.
     -623    1    1    2    0    0  0.58656334941E+00 -0.10739829715E+01  0.16324522912E+01  0.17131214900E+03  0.17130000000E+03 0.  1.
      622    1    1    2    0    0 -0.13740426711E+00  0.90567508766E+00  0.23885295619E+01  0.35077344205E+01  0.24000000000E+01 0. -1.
</event>
<event>
 5   0  0.6825300E-03  0.9118800E+02  0.7818608E-02  0.1180000E+00
       11   -1    0    0    0    0  0.00000000000E+00  0.00000000000E+00  0.39999999673E+01  0.40000000000E+01  0.51109989000E-03 0.  1.
     -623   -1    0    0    0    0  0.00000000000E+00  0.00000000000E+00  0.12525980253E-10  0.17130000000E+03  0.17130000000E+03 0. -1.
       11    1    1    2    0    0  0.42252919240E+00  0.24542392170E+00  0.37327782423E+00  0.61489870309E+00  0.51109989000E-03 0.  1.
     -623    1    1    2    0    0 -0.75574525308E+00 -0.18183659025E+00  0.12730202157E+01  0.17130649374E+03  0.17130000000E+03 0. -1.
      622    1    1    2    0    0  0.33321606068E+00 -0.63587331447E-01  0.23537019274E+01  0.33786075616E+01  0.24000000000E+01 0.  1.
</event>
<event>
 5   0  0.6825300E-03  0.9118800E+02  0.7818608E-02  0.1180000E+00
       11   -1    0    0    0    0  0.00000000000E+00  0.00000000000E+00  0.39999999673E+01  0.40000000000E+01  0.51109989000E-03 0. -1.
     -623   -1    0    0    0    0  0.00000000000E+00  0.00000000000E+00  0.12525980253E-10  0.17130000000E+03  0.17130000000E+03 0.  1.
       11    1    1    2    0    0 -0.26773588691E-01 -0.66690405923E-02 -0.76837858853E-01  0.81643241790E-01  0.51109989000E-03 0. -1.
     -623    1    1    2    0    0 -0.30502299707E+00 -0.18045903260E-01  0.10014919647E+01  0.17130320006E+03  0.17130000000E+03 0.  1.
      622    1    1    2    0    0  0.33179658576E+00  0.24714943852E-01  0.30753458615E+01  0.39151566981E+01  0.24000000000E+01 0. -1.
</event>
<event>
 5   0  0.6825300E-03  0.9118800E+02  0.7818608E-02  0.1180000E+00
       11   -1    0    0    0    0  0.00000000000E+00  0.00000000000E+00  0.39999999673E+01  0.40000000000E+01  0.51109989000E-03 0. -1.
     -623   -1    0    0    0    0  0.00000000000E+00  0.00000000000E+00  0.12525980253E-10  0.17130000000E+03  0.17130000000E+03 0.  1.
       11    1    1    2    0    0  0.13274888435E+00  0.83418388879E-01 -0.57135929461E-01  0.16687021770E+00  0.51109989000E-03 0. -1.
     -623    1    1    2    0    0  0.79874257628E-01 -0.27224697673E+00  0.10866461646E+01  0.17130368151E+03  0.17130000000E+03 0.  1.
      622    1    1    2    0    0 -0.21262314198E+00  0.18882858785E+00  0.29704897322E+01  0.38294482743E+01  0.24000000000E+01 0. -1.
</event>
<event>
 5   0  0.6825300E-03  0.9118800E+02  0.7818608E-02  0.1180000E+00
       11   -1    0    0    0    0  0.00000000000E+00  0.00000000000E+00  0.39999999673E+01  0.40000000000E+01  0.51109989000E-03 0. -1.
     -623   -1    0    0    0    0  0.00000000000E+00  0.00000000000E+00  0.12525980253E-10  0.17130000000E+03  0.17130000000E+03 0.  1.
       11    1    1    2    0    0 -0.27473935668E+00  0.31552593734E-02 -0.29124515059E+00  0.40039439149E+00  0.51109989000E-03 0. -1.
     -623    1    1    2    0    0  0.49347298839E+00 -0.20703063373E-01  0.16288775029E+01  0.17130845626E+03  0.17130000000E+03 0.  1.
      622    1    1    2    0    0 -0.21873363170E+00  0.17547804000E-01  0.26623676150E+01  0.35911493487E+01  0.24000000000E+01 0. -1.
</event>
<event>
 5   0  0.6825300E-03  0.9118800E+02  0.7818608E-02  0.1180000E+00
       11   -1    0    0    0    0  0.00000000000E+00  0.00000000000E+00  0.39999999673E+01  0.40000000000E+01  0.51109989000E-03 0. -1.
     -623   -1    0    0    0    0  0.00000000000E+00  0.00000000000E+00  0.12525980253E-10  0.17130000000E+03  0.17130000000E+03 0.  1.
       11    1    1    2    0    0 -0.20989438736E+00 -0.10756624101E+00  0.13782727130E+00  0.27317168225E+00  0.51109989000E-03 0. -1.
     -623    1    1    2    0    0  0.32038758074E+00 -0.19325101937E+00  0.10336979497E+01  0.17130352748E+03  0.17130000000E+03 0.  1.
      622    1    1    2    0    0 -0.11049319339E+00  0.30081726037E+00  0.28284747463E+01  0.37233008421E+01  0.24000000000E+01 0. -1.
</event>
<event>
 5   0  0.6825300E-03  0.9118800E+02  0.7818608E-02  0.1180000E+00
       11   -1    0    0    0    0  0.00000000000E+00  0.00000000000E+00  0.39999999673E+01  0.40000000000E+01  0.51109989000E-03 0. -1.
     -623   -1    0    0    0    0  0.00000000000E+00  0.00000000000E+00  0.12525980253E-10  0.17130000000E+03  0.17130000000E+03 0. -1.
       11    1    1    2    0    0 -0.31178218805E-01  0.10657474862E+00  0.27680702347E+00  0.29824930484E+00  0.51109989000E-03 0. -1.
     -623    1    1    2    0    0  0.37692078924E+00 -0.14170585349E+00  0.93034725740E+00  0.17130299967E+03  0.17130000000E+03 0. -1.
      622    1    1    2    0    0 -0.34574257043E+00  0.35131104867E-01  0.27928456865E+01  0.36987510254E+01  0.24000000000E+01 0.  1.
</event>
<event>
 5   0  0.6825300E-03  0.9118800E+02  0.7818608E-02  0.1180000E+00
       11   -1    0    0    0    0  0.00000000000E+00  0.00000000000E+00  0.39999999673E+01  0.40000000000E+01  0.51109989000E-03 0. -1.
     -623   -1    0    0    0    0  0.00000000000E+00  0.00000000000E+00  0.12525980253E-10  0.17130000000E+03  0.17130000000E+03 0. -1.
       11    1    1    2    0    0  0.24688152357E+00  0.76555132796E-01  0.35568719033E+00  0.43968717700E+00  0.51109989000E-03 0. -1.
     -623    1    1    2    0    0 -0.10622121470E+01 -0.40299774401E+00  0.11767319545E+01  0.17130780893E+03  0.17130000000E+03 0.  1.
      622    1    1    2    0    0  0.81533062343E+00  0.32644261121E+00  0.24675808225E+01  0.35525038944E+01  0.24000000000E+01 0.  0.
</event>
<event>
 5   0  0.6825300E-03  0.9118800E+02  0.7818608E-02  0.1180000E+00
       11   -1    0    0    0    0  0.00000000000E+00  0.00000000000E+00  0.39999999673E+01  0.40000000000E+01  0.51109989000E-03 0.  1.
     -623   -1    0    0    0    0  0.00000000000E+00  0.00000000000E+00  0.12525980253E-10  0.17130000000E+03  0.17130000000E+03 0.  1.
       11    1    1    2    0    0 -0.32513222323E+00 -0.35332891259E+00  0.17813297944E+00  0.51213660545E+00  0.51109989000E-03 0.  1.
     -623    1    1    2    0    0  0.14291852051E+00  0.57265172773E+00  0.13155564352E+01  0.17130606832E+03  0.17130000000E+03 0.  1.
      622    1    1    2    0    0  0.18221370271E+00 -0.21932281514E+00  0.25063105527E+01  0.34817950711E+01  0.24000000000E+01 0.  1.
</event>
<event>
 5   0  0.6825300E-03  0.9118800E+02  0.7818608E-02  0.1180000E+00
       11   -1    0    0    0    0  0.00000000000E+00  0.00000000000E+00  0.39999999673E+01  0.40000000000E+01  0.51109989000E-03 0.  1.
     -623   -1    0    0    0    0  0.00000000000E+00  0.00000000000E+00  0.12525980253E-10  0.17130000000E+03  0.17130000000E+03 0.  1.
       11    1    1    2    0    0 -0.15276411665E+00 -0.60508468044E-02  0.17380461936E+00  0.23147741794E+00  0.51109989000E-03 0.  1.
     -623    1    1    2    0    0  0.64612758220E+00 -0.42801627688E+00  0.10022531298E+01  0.17130468525E+03  0.17130000000E+03 0.  1.
      622    1    1    2    0    0 -0.49336346555E+00  0.43406712368E+00  0.28239422182E+01  0.37638373276E+01  0.24000000000E+01 0.  1.
</event>
<event>
 5   0  0.6825300E-03  0.9118800E+02  0.7818608E-02  0.1180000E+00
       11   -1    0    0    0    0  0.00000000000E+00  0.00000000000E+00  0.39999999673E+01  0.40000000000E+01  0.51109989000E-03 0. -1.
     -623   -1    0    0    0    0  0.00000000000E+00  0.00000000000E+00  0.12525980253E-10  0.17130000000E+03  0.17130000000E+03 0.  1.
       11    1    1    2    0    0  0.69892830935E-01  0.29790630766E+00 -0.80541376537E-02  0.30610179078E+00  0.51109989000E-03 0. -1.
     -623    1    1    2    0    0 -0.61811046084E+00 -0.20751562202E+00  0.12634932619E+01  0.17130590048E+03  0.17130000000E+03 0.  1.
      622    1    1    2    0    0  0.54821762991E+00 -0.90390685645E-01  0.27445608431E+01  0.36879977315E+01  0.24000000000E+01 0. -1.
</event>
<event>
 5   0  0.6825300E-03  0.9118800E+02  0.7818608E-02  0.1180000E+00
       11   -1    0    0    0    0  0.00000000000E+00  0.00000000000E+00  0.39999999673E+01  0.40000000000E+01  0.51109989000E-03 0.  1.
     -623   -1    0    0    0    0  0.00000000000E+00  0.00000000000E+00  0.12525980253E-10  0.17130000000E+03  0.17130000000E+03 0.  1.
       11    1    1    2    0    0 -0.10091342410E+00 -0.19997449468E+00  0.94789356052E-01  0.24322541177E+00  0.51109989000E-03 0.  1.
     -623    1    1    2    0    0 -0.20458134192E+00  0.12376722560E+00  0.10365147043E+01  0.17130330275E+03  0.17130000000E+03 0.  1.
      622    1    1    2    0    0  0.30549476602E+00  0.76207269085E-01  0.28686959070E+01  0.37534718338E+01  0.24000000000E+01 0.  1.
</event>
<event>
 5   0  0.6825300E-03  0.9118800E+02  0.7818608E-02  0.1180000E+00
       11   -1    0    0    0    0  0.00000000000E+00  0.00000000000E+00  0.39999999673E+01  0.40000000000E+01  0.51109989000E-03 0.  1.
     -623   -1    0    0    0    0  0.00000000000E+00  0.00000000000E+00  0.12525980253E-10  0.17130000000E+03  0.17130000000E+03 0. -1.
       11    1    1    2    0    0 -0.64721400472E-02  0.54138915098E-01 -0.23709524923E+00  0.24328446139E+00  0.51109989000E-03 0.  1.
     -623    1    1    2    0    0 -0.36394285182E+00 -0.15456904618E+00  0.13804477709E+01  0.17130601852E+03  0.17130000000E+03 0. -1.
      622    1    1    2    0    0  0.37041499187E+00  0.10043013108E+00  0.28566474457E+01  0.37506970161E+01  0.24000000000E+01 0.  1.
</event>
<event>
 5   0  0.6825300E-03  0.9118800E+02  0.7818608E-02  0.1180000E+00
       11   -1    0    0    0    0  0.00000000000E+00  0.00000000000E+00  0.39999999673E+01  0.40000000000E+01  0.51109989000E-03 0.  1.
     -623   -1    0    0    0    0  0.00000000000E+00  0.00000000000E+00  0.12525980253E-10  0.17130000000E+03  0.17130000000E+03 0. -1.
       11    1    1    2    0    0 -0.10787439103E-02 -0.17006105426E+00 -0.21247588162E+00  0.27215471217E+00  0.51109989000E-03 0.  1.
     -623    1    1    2    0    0 -0.35062113979E+00  0.35100245523E+00  0.13959754418E+01  0.17130640643E+03  0.17130000000E+03 0. -1.
      622    1    1    2    0    0  0.35169988370E+00 -0.18094140097E+00  0.28165004072E+01  0.37214388538E+01  0.24000000000E+01 0.  1.
</event>
<event>
 5   0  0.6825300E-03  0.9118800E+02  0.7818608E-02  0.1180000E+00
       11   -1    0    0    0    0  0.00000000000E+00  0.00000000000E+00  0.39999999673E+01  0.40000000000E+01  0.51109989000E-03 0. -1.
     -623   -1    0    0    0    0  0.00000000000E+00  0.00000000000E+00  0.12525980253E-10  0.17130000000E+03  0.17130000000E+03 0. -1.
       11    1    1    2    0    0 -0.99880548289E-01 -0.74965357070E-01  0.71914232067E-02  0.12509159236E+00  0.51109989000E-03 0. -1.
     -623    1    1    2    0    0  0.82986630050E+00 -0.29391732575E+00  0.10700425895E+01  0.17130560428E+03  0.17130000000E+03 0. -1.
      622    1    1    2    0    0 -0.72998575221E+00  0.36888268282E+00  0.29227659546E+01  0.38693041309E+01  0.24000000000E+01 0.  0.
</event>
<event>
 5   0  0.6825300E-03  0.9118800E+02  0.7818608E-02  0.1180000E+00
       11   -1    0    0    0    0  0.00000000000E+00  0.00000000000E+00  0.39999999673E+01  0.40000000000E+01  0.51109989000E-03 0.  1.
     -623   -1    0    0    0    0  0.00000000000E+00  0.00000000000E+00  0.12525980253E-10  0.17130000000E+03  0.17130000000E+03 0.  1.
       11    1    1    2    0    0 -0.62329377342E-01  0.16991128727E+00  0.23531911367E+00  0.29686721493E+00  0.51109989000E-03 0.  1.
     -623    1    1    2    0    0  0.71351630640E+00  0.20171493349E+00  0.10526286062E+01  0.17130483887E+03  0.17130000000E+03 0.  1.
      622    1    1    2    0    0 -0.65118692906E+00 -0.37162622076E+00  0.27120522475E+01  0.36982939117E+01  0.24000000000E+01 0.  1.
</event>
<event>
 5   0  0.6825300E-03  0.9118800E+02  0.7818608E-02  0.1180000E+00
       11   -1    0    0    0    0  0.00000000000E+00  0.00000000000E+00  0.39999999673E+01  0.40000000000E+01  0.51109989000E-03 0.  1.
     -623   -1    0    0    0    0  0.00000000000E+00  0.00000000000E+00  0.12525980253E-10  0.17130000000E+03  0.17130000000E+03 0.  1.
       11    1    1    2    0    0 -0.16101074454E+00  0.20060342593E+00  0.18563150095E+00  0.31721524194E+00  0.51109989000E-03 0.  1.
     -623    1    1    2    0    0 -0.76168500826E+00 -0.10157283621E+00  0.11878240440E+01  0.17130584172E+03  0.17130000000E+03 0.  1.
      622    1    1    2    0    0  0.92269575280E+00 -0.99030589721E-01  0.26265444224E+01  0.36769430391E+01  0.24000000000E+01 0.  1.
</event>
<event>
 5   0  0.6825300E-03  0.9118800E+02  0.7818608E-02  0.1180000E+00
       11   -1    0    0    0    0  0.00000000000E+00  0.00000000000E+00  0.39999999673E+01  0.40000000000E+01  0.51109989000E-03 0.  1.
     -623   -1    0    0    0    0  0.00000000000E+00  0.00000000000E+00  0.12525980253E-10  0.17130000000E+03  0.17130000000E+03 0.  1.
       11    1    1    2    0    0  0.51931801504E-01 -0.17309078030E+00 -0.28442098459E-01  0.18293863567E+00  0.51109989000E-03 0.  1.
     -623    1    1    2    0    0 -0.26809403977E+00 -0.10589349717E+00  0.10861172151E+01  0.17130368571E+03  0.17130000000E+03 0.  1.
      622    1    1    2    0    0  0.21616223826E+00  0.27898427747E+00  0.29423248507E+01  0.38133756525E+01  0.24000000000E+01 0.  1.
</event>
<event>
 5   0  0.6825300E-03  0.9118800E+02  0.7818608E-02  0.1180000E+00
       11   -1    0    0    0    0  0.00000000000E+00  0.00000000000E+00  0.39999999673E+01  0.40000000000E+01  0.51109989000E-03 0. -1.
     -623   -1    0    0    0    0  0.00000000000E+00  0.00000000000E+00  0.12525980253E-10  0.17130000000E+03  0.17130000000E+03 0.  1.
       11    1    1    2    0    0  0.52529384915E-01 -0.13610788731E-01  0.66816292632E-01  0.86077105153E-01  0.51109989000E-03 0. -1.
     -623    1    1    2    0    0 -0.64526625208E+00 -0.33644874301E+00  0.92431176190E+00  0.17130403941E+03  0.17130000000E+03 0.  1.
      622    1    1    2    0    0  0.59273686717E+00  0.35005953174E+00  0.30088719128E+01  0.39098834838E+01  0.24000000000E+01 0. -1.
</event>
<event>
 5   0  0.6825300E-03  0.9118800E+02  0.7818608E-02  0.1180000E+00
       11   -1    0    0    0    0  0.00000000000E+00  0.00000000000E+00  0.39999999673E+01  0.40000000000E+01  0.51109989000E-03 0.  1.
     -623   -1    0    0    0    0  0.00000000000E+00  0.00000000000E+00  0.12525980253E-10  0.17130000000E+03  0.17130000000E+03 0.  1.
       11    1    1    2    0    0  0.12647219087E+00 -0.22634308724E+00  0.86813436180E-01  0.27342867832E+00  0.51109989000E-03 0.  1.
     -623    1    1    2    0    0  0.13804995860E+01  0.26440284069E+00  0.15127035293E+01  0.17131244543E+03  0.17130000000E+03 0.  1.
      622    1    1    2    0    0 -0.15069717768E+01 -0.38059753453E-01  0.24004830019E+01  0.37141258895E+01  0.24000000000E+01 0.  1.
</event>
<event>
 5   0  0.6825300E-03  0.9118800E+02  0.7818608E-02  0.1180000E+00
       11   -1    0    0    0    0  0.00000000000E+00  0.00000000000E+00  0.39999999673E+01  0.40000000000E+01  0.51109989000E-03 0.  1.
     -623   -1    0    0    0    0  0.00000000000E+00  0.00000000000E+00  0.12525980253E-10  0.17130000000E+03  0.17130000000E+03 0.  1.
       11    1    1    2    0    0 -0.29791390981E-01  0.44971257998E-01  0.18463164715E+00  0.19235136437E+00  0.51109989000E-03 0.  1.
     -623    1    1    2    0    0 -0.10046612620E+00 -0.62903650966E+00  0.92537717991E+00  0.17130368386E+03  0.17130000000E+03 0.  1.
      622    1    1    2    0    0  0.13025751718E+00  0.58406525166E+00  0.28899911403E+01  0.38039647777E+01  0.24000000000E+01 0.  1.
</event>
<event>
 5   0  0.6825300E-03  0.9118800E+02  0.7818608E-02  0.1180000E+00
       11   -1    0    0    0    0  0.00000000000E+00  0.00000000000E+00  0.39999999673E+01  0.40000000000E+01  0.51109989000E-03 0.  1.
     -623   -1    0    0    0    0  0.00000000000E+00  0.00000000000E+00  0.12525980253E-10  0.17130000000E+03  0.17130000000E+03 0. -1.
       11    1    1    2    0    0  0.26123125415E-01 -0.90304182968E-01  0.70242556079E-01  0.11735220940E+00  0.51109989000E-03 0.  1.
     -623    1    1    2    0    0 -0.44248032410E+00  0.51584720594E+00  0.94145168712E+00  0.17130393521E+03  0.17130000000E+03 0. -1.
      622    1    1    2    0    0  0.41635719869E+00 -0.42554302297E+00  0.29883057242E+01  0.38787125805E+01  0.24000000000E+01 0.  1.
</event>
<event>
 5   0  0.6825300E-03  0.9118800E+02  0.7818608E-02  0.1180000E+00
       11   -1    0    0    0    0  0.00000000000E+00  0.00000000000E+00  0.39999999673E+01  0.40000000000E+01  0.51109989000E-03 0.  1.
     -623   -1    0    0    0    0  0.00000000000E+00  0.00000000000E+00  0.12525980253E-10  0.17130000000E+03  0.17130000000E+03 0.  1.
       11    1    1    2    0    0 -0.92098649147E-01 -0.63718588091E-01 -0.18181550464E-01  0.11345946256E+00  0.51109989000E-03 0.  1.
     -623    1    1    2    0    0  0.39931627299E-02 -0.16313670699E+00  0.97452775979E+00  0.17130284975E+03  0.17130000000E+03 0.  1.
      622    1    1    2    0    0  0.88105486417E-01  0.22685529508E+00  0.30436537580E+01  0.38836907833E+01  0.24000000000E+01 0.  1.
</event>
<event>
 5   0  0.6825300E-03  0.9118800E+02  0.7818608E-02  0.1180000E+00
       11   -1    0    0    0    0  0.00000000000E+00  0.00000000000E+00  0.39999999673E+01  0.40000000000E+01  0.51109989000E-03 0.  1.
     -623   -1    0    0    0    0  0.00000000000E+00  0.00000000000E+00  0.12525980253E-10  0.17130000000E+03  0.17130000000E+03 0.  1.
       11    1    1    2    0    0  0.13717439061E+00  0.17223011963E+00  0.10735831337E+00  0.24496141782E+00  0.51109989000E-03 0.  1.
     -623    1    1    2    0    0  0.37466590956E-01 -0.10970187679E+00  0.10146120744E+01  0.17130304398E+03  0.17130000000E+03 0.  1.
      622    1    1    2    0    0 -0.17464098157E+00 -0.62528242835E-01  0.28780295796E+01  0.37519946048E+01  0.24000000000E+01 0.  1.
</event>
<event>
 5   0  0.6825300E-03  0.9118800E+02  0.7818608E-02  0.1180000E+00
       11   -1    0    0    0    0  0.00000000000E+00  0.00000000000E+00  0.39999999673E+01  0.40000000000E+01  0.51109989000E-03 0. -1.
     -623   -1    0    0    0    0  0.00000000000E+00  0.00000000000E+00  0.12525980253E-10  0.17130000000E+03  0.17130000000E+03 0. -1.
       11    1    1    2    0    0  0.89306748919E-01  0.16389004142E+00  0.20441332503E+00  0.27680446122E+00  0.51109989000E-03 0. -1.
     -623    1    1    2    0    0  0.44030793804E+00 -0.43828530707E+00  0.10179061481E+01  0.17130415085E+03  0.17130000000E+03 0. -1.
      622    1    1    2    0    0 -0.52961468696E+00  0.27439526565E+00  0.27776804942E+01  0.37190446900E+01  0.24000000000E+01 0.  0.
</event>
<event>
 5   0  0.6825300E-03  0.9118800E+02  0.7818608E-02  0.1180000E+00
       11   -1    0    0    0    0  0.00000000000E+00  0.00000000000E+00  0.39999999673E+01  0.40000000000E+01  0.51109989000E-03 0. -1.
     -623   -1    0    0    0    0  0.00000000000E+00  0.00000000000E+00  0.12525980253E-10  0.17130000000E+03  0.17130000000E+03 0.  1.
       11    1    1    2    0    0  0.21636735296E+00  0.11453728098E+00 -0.47709772314E-02  0.24486045742E+00  0.51109989000E-03 0. -1.
     -623    1    1    2    0    0  0.55471055508E+00  0.25169625879E+00  0.12534362081E+01  0.17130566878E+03  0.17130000000E+03 0.  1.
      622    1    1    2    0    0 -0.77107790803E+00 -0.36623353978E+00  0.27513347365E+01  0.37494707597E+01  0.24000000000E+01 0. -1.
</event>
<event>
 5   0  0.6825300E-03  0.9118800E+02  0.7818608E-02  0.1180000E+00
       11   -1    0    0    0    0  0.00000000000E+00  0.00000000000E+00  0.39999999673E+01  0.40000000000E+01  0.51109989000E-03 0. -1.
     -623   -1    0    0    0    0  0.00000000000E+00  0.00000000000E+00  0.12525980253E-10  0.17130000000E+03  0.17130000000E+03 0.  1.
       11    1    1    2    0    0  0.18370501888E-01  0.63258190965E-01 -0.48622788306E-01  0.81874970715E-01  0.51109989000E-03 0. -1.
     -623    1    1    2    0    0 -0.33492475191E+00 -0.64488084494E-01  0.97173366605E+00  0.17130309571E+03  0.17130000000E+03 0.  1.
      622    1    1    2    0    0  0.31655425003E+00  0.12298935292E-02  0.30768890896E+01  0.39150293199E+01  0.24000000000E+01 0. -1.
</event>
<event>
 5   0  0.6825300E-03  0.9118800E+02  0.7818608E-02  0.1180000E+00
       11   -1    0    0    0    0  0.00000000000E+00  0.00000000000E+00  0.39999999673E+01  0.40000000000E+01  0.51109989000E-03 0. -1.
     -623   -1    0    0    0    0  0.00000000000E+00  0.00000000000E+00  0.12525980253E-10  0.17130000000E+03  0.17130000000E+03 0. -1.
       11    1    1    2    0    0 -0.26089653986E+00 -0.22978619589E+00  0.22057124872E+00  0.41172883955E+00  0.51109989000E-03 0. -1.
     -623    1    1    2    0    0  0.61231331205E+00  0.73045544926E+00  0.11923917221E+01  0.17130680165E+03  0.17130000000E+03 0. -1.
      622    1    1    2    0    0 -0.35141677219E+00 -0.50066925336E+00  0.25870369966E+01  0.35814695127E+01  0.24000000000E+01 0.  0.
</event>
<event>
 5   0  0.6825300E-03  0.9118800E+02  0.7818608E-02  0.1180000E+00
       11   -1    0    0    0    0  0.00000000000E+00  0.00000000000E+00  0.39999999673E+01  0.40000000000E+01  0.51109989000E-03 0. -1.
     -623   -1    0    0    0    0  0.00000000000E+00  0.00000000000E+00  0.12525980253E-10  0.17130000000E+03  0.17130000000E+03 0.  1.
       11    1    1    2    0    0  0.15910939873E+00 -0.10717033205E+00 -0.82342390747E-01  0.20876257177E+00  0.51109989000E-03 0. -1.
     -623    1    1    2    0    0  0.36781779635E+00  0.45557099662E+00  0.12233627506E+01  0.17130536901E+03  0.17130000000E+03 0.  1.
      622    1    1    2    0    0 -0.52692719508E+00 -0.34840066457E+00  0.28589796075E+01  0.37858684193E+01  0.24000000000E+01 0. -1.
</event>
<event>
 5   0  0.6825300E-03  0.9118800E+02  0.7818608E-02  0.1180000E+00
       11   -1    0    0    0    0  0.00000000000E+00  0.00000000000E+00  0.39999999673E+01  0.40000000000E+01  0.51109989000E-03 0. -1.
     -623   -1    0    0    0    0  0.00000000000E+00  0.00000000000E+00  0.12525980253E-10  0.17130000000E+03  0.17130000000E+03 0.  1.
       11    1    1    2    0    0  0.32405635009E+00 -0.53685682398E+00  0.44522000216E+00  0.76905713639E+00  0.51109989000E-03 0. -1.
     -623    1    1    2    0    0 -0.10961021759E+01  0.52222359051E+00  0.15523825069E+01  0.17131133660E+03  0.17130000000E+03 0.  1.
      622    1    1    2    0    0  0.77204582583E+00  0.14633233474E-01  0.20023974583E+01  0.32196062600E+01  0.24000000000E+01 0. -1.
</event>
<event>
 5   0  0.6825300E-03  0.9118800E+02  0.7818608E-02  0.1180000E+00
       11   -1    0    0    0    0  0.00000000000E+00  0.00000000000E+00  0.39999999673E+01  0.40000000000E+01  0.51109989000E-03 0.  1.
     -623   -1    0    0    0    0  0.00000000000E+00  0.00000000000E+00  0.12525980253E-10  0.17130000000E+03  0.17130000000E+03 0.  1.
       11    1    1    2    0    0 -0.13911207272E+00  0.70642302921E-01  0.31701106481E-01  0.15920968913E+00  0.51109989000E-03 0.  1.
     -623    1    1    2    0    0 -0.21657098857E+00 -0.30621989019E+00  0.10045351850E+01  0.17130335596E+03  0.17130000000E+03 0.  1.
      622    1    1    2    0    0  0.35568306129E+00  0.23557758727E+00  0.29637636759E+01  0.38374343468E+01  0.24000000000E+01 0.  1.
</event>
<event>
 5   0  0.6825300E-03  0.9118800E+02  0.7818608E-02  0.1180000E+00
       11   -1    0    0    0    0  0.00000000000E+00  0.00000000000E+00  0.39999999673E+01  0.40000000000E+01  0.51109989000E-03 0. -1.
     -623   -1    0    0    0    0  0.00000000000E+00  0.00000000000E+00  0.12525980253E-10  0.17130000000E+03  0.17130000000E+03 0. -1.
       11    1    1    2    0    0 -0.26783702331E-01  0.20388537755E+00  0.11192485077E+00  0.23412399991E+00  0.51109989000E-03 0. -1.
     -623    1    1    2    0    0  0.87089067737E-01 -0.13187912385E-01  0.99674031321E+00  0.17130292248E+03  0.17130000000E+03 0. -1.
      622    1    1    2    0    0 -0.60305365406E-01 -0.19069746517E+00  0.28913348034E+01  0.37629535216E+01  0.24000000000E+01 0. -1.
</event>
<event>
 5   0  0.6825300E-03  0.9118800E+02  0.7818608E-02  0.1180000E+00
       11   -1    0    0    0    0  0.00000000000E+00  0.00000000000E+00  0.39999999673E+01  0.40000000000E+01  0.51109989000E-03 0.  1.
     -623   -1    0    0    0    0  0.00000000000E+00  0.00000000000E+00  0.12525980253E-10  0.17130000000E+03  0.17130000000E+03 0. -1.
       11    1    1    2    0    0  0.12852647161E+00  0.90703749070E-01 -0.65257998377E-01  0.17030881238E+00  0.51109989000E-03 0.  1.
     -623    1    1    2    0    0  0.17244708689E+00 -0.24528219846E+00  0.11050621931E+01  0.17130382676E+03  0.17130000000E+03 0. -1.
      622    1    1    2    0    0 -0.30097355850E+00  0.15457844939E+00  0.29601957726E+01  0.38258644242E+01  0.24000000000E+01 0.  1.
</event>
<event>
 5   0  0.6825300E-03  0.9118800E+02  0.7818608E-02  0.1180000E+00
       11   -1    0    0    0    0  0.00000000000E+00  0.00000000000E+00  0.39999999673E+01  0.40000000000E+01  0.51109989000E-03 0.  1.
     -623   -1    0    0    0    0  0.00000000000E+00  0.00000000000E+00  0.12525980253E-10  0.17130000000E+03  0.17130000000E+03 0.  1.
       11    1    1    2    0    0  0.17760488749E+00 -0.44364015777E+00  0.59838838710E+00  0.76578652945E+00  0.51109989000E-03 0.  1.
     -623    1    1    2    0    0 -0.52711397884E+00  0.93466157973E+00  0.13323858013E+01  0.17130854238E+03  0.17130000000E+03 0.  1.
      622    1    1    2    0    0  0.34950909135E+00 -0.49102142196E+00  0.20692257789E+01  0.32256710877E+01  0.24000000000E+01 0.  1.
</event>
<event>
 5   0  0.6825300E-03  0.9118800E+02  0.7818608E-02  0.1180000E+00
       11   -1    0    0    0    0  0.00000000000E+00  0.00000000000E+00  0.39999999673E+01  0.40000000000E+01  0.51109989000E-03 0.  1.
     -623   -1    0    0    0    0  0.00000000000E+00  0.00000000000E+00  0.12525980253E-10  0.17130000000E+03  0.17130000000E+03 0. -1.
       11    1    1    2    0    0  0.15671123585E+00  0.14458066352E+00  0.16839220253E+00  0.27169500327E+00  0.51109989000E-03 0.  1.
     -623    1    1    2    0    0 -0.32087188551E+00 -0.68131411916E-01  0.98839288948E+00  0.17130316553E+03  0.17130000000E+03 0. -1.
      622    1    1    2    0    0  0.16416064966E+00 -0.76449251608E-01  0.28432148754E+01  0.37251394651E+01  0.24000000000E+01 0.  1.
</event>
<event>
 5   0  0.6825300E-03  0.9118800E+02  0.7818608E-02  0.1180000E+00
       11   -1    0    0    0    0  0.00000000000E+00  0.00000000000E+00  0.39999999673E+01  0.40000000000E+01  0.51109989000E-03 0. -1.
     -623   -1    0    0    0    0  0.00000000000E+00  0.00000000000E+00  0.12525980253E-10  0.17130000000E+03  0.17130000000E+03 0. -1.
       11    1    1    2    0    0 -0.16967604920E+00 -0.79217920001E+00 -0.86877071250E+00  0.11878975792E+01  0.51109989000E-03 0. -1.
     -623    1    1    2    0    0  0.64131456153E+00  0.35968178769E+00  0.36383736474E+01  0.17134021250E+03  0.17130000000E+03 0. -1.
      622    1    1    2    0    0 -0.47163851233E+00  0.43249741233E+00  0.12303970324E+01  0.27718899248E+01  0.24000000000E+01 0. -1.
</event>
<event>
 5   0  0.6825300E-03  0.9118800E+02  0.7818608E-02  0.1180000E+00
       11   -1    0    0    0    0  0.00000000000E+00  0.00000000000E+00  0.39999999673E+01  0.40000000000E+01  0.51109989000E-03 0.  1.
     -623   -1    0    0    0    0  0.00000000000E+00  0.00000000000E+00  0.12525980253E-10  0.17130000000E+03  0.17130000000E+03 0.  1.
       11    1    1    2    0    0  0.47210132899E+00  0.21442317469E+00  0.45390523037E+00  0.68912058601E+00  0.51109989000E-03 0.  1.
     -623    1    1    2    0    0 -0.45919107990E+00  0.59204357569E-01  0.12898556557E+01  0.17130548178E+03  0.17130000000E+03 0.  1.
      622    1    1    2    0    0 -0.12910249089E-01 -0.27362753226E+00  0.22562390813E+01  0.33053976301E+01  0.24000000000E+01 0.  1.
</event>
<event>
 5   0  0.6825300E-03  0.9118800E+02  0.7818608E-02  0.1180000E+00
       11   -1    0    0    0    0  0.00000000000E+00  0.00000000000E+00  0.39999999673E+01  0.40000000000E+01  0.51109989000E-03 0. -1.
     -623   -1    0    0    0    0  0.00000000000E+00  0.00000000000E+00  0.12525980253E-10  0.17130000000E+03  0.17130000000E+03 0. -1.
       11    1    1    2    0    0  0.50723839633E-01 -0.29187992730E+00 -0.53621533626E-01  0.30106864659E+00  0.51109989000E-03 0. -1.
     -623    1    1    2    0    0 -0.28537407716E+00 -0.60521522772E-01  0.12776923416E+01  0.17130501335E+03  0.17130000000E+03 0. -1.
      622    1    1    2    0    0  0.23465023753E+00  0.35240145007E+00  0.27759291594E+01  0.36939180031E+01  0.24000000000E+01 0. -1.
</event>
<event>
 5   0  0.6825300E-03  0.9118800E+02  0.7818608E-02  0.1180000E+00
       11   -1    0    0    0    0  0.00000000000E+00  0.00000000000E+00  0.39999999673E+01  0.40000000000E+01  0.51109989000E-03 0. -1.
     -623   -1    0    0    0    0  0.00000000000E+00  0.00000000000E+00  0.12525980253E-10  0.17130000000E+03  0.17130000000E+03 0.  1.
       11    1    1    2    0    0 -0.18680231397E+00 -0.49547875515E-01 -0.15352188090E-01  0.19387121337E+00  0.51109989000E-03 0. -1.
     -623    1    1    2    0    0  0.51625626716E+00 -0.48928264653E+00  0.11364935888E+01  0.17130524667E+03  0.17130000000E+03 0.  1.
      622    1    1    2    0    0 -0.32945395319E+00  0.53883052205E+00  0.28788585667E+01  0.38008821194E+01  0.24000000000E+01 0. -1.
</event>
<event>
 5   0  0.6825300E-03  0.9118800E+02  0.7818608E-02  0.1180000E+00
       11   -1    0    0    0    0  0.00000000000E+00  0.00000000000E+00  0.39999999673E+01  0.40000000000E+01  0.51109989000E-03 0.  1.
     -623   -1    0    0    0    0  0.00000000000E+00  0.00000000000E+00  0.12525980253E-10  0.17130000000E+03  0.17130000000E+03 0.  1.
       11    1    1    2    0    0 -0.20606219284E-01 -0.24244656866E-01 -0.32964646270E-01  0.45818651077E-01  0.51109989000E-03 0.  1.
     -623    1    1    2    0    0 -0.22864837892E+00  0.79143936726E-01  0.90403539191E+00  0.17130255638E+03  0.17130000000E+03 0.  1.
      622    1    1    2    0    0  0.24925459821E+00 -0.54899279861E-01  0.31289292217E+01  0.39516249645E+01  0.24000000000E+01 0.  1.
</event>
<event>
 5   0  0.6825300E-03  0.9118800E+02  0.7818608E-02  0.1180000E+00
       11   -1    0    0    0    0  0.00000000000E+00  0.00000000000E+00  0.39999999673E+01  0.40000000000E+01  0.51109989000E-03 0. -1.
     -623   -1    0    0    0    0  0.00000000000E+00  0.00000000000E+00  0.12525980253E-10  0.17130000000E+03  0.17130000000E+03 0.  1.
       11    1    1    2    0    0  0.78310932652E-01 -0.51493395593E+00  0.75667463229E-01  0.52632253169E+00  0.51109989000E-03 0. -1.
     -623    1    1    2    0    0  0.66413428480E+00  0.61757230120E+00  0.15410727482E+01  0.17130933242E+03  0.17130000000E+03 0.  1.
      622    1    1    2    0    0 -0.74244521745E+00 -0.10263834527E+00  0.23832597559E+01  0.34643450456E+01  0.24000000000E+01 0. -1.
</event>
<event>
 5   0  0.6825300E-03  0.9118800E+02  0.7818608E-02  0.1180000E+00
       11   -1    0    0    0    0  0.00000000000E+00  0.00000000000E+00  0.39999999673E+01  0.40000000000E+01  0.51109989000E-03 0. -1.
     -623   -1    0    0    0    0  0.00000000000E+00  0.00000000000E+00  0.12525980253E-10  0.17130000000E+03  0.17130000000E+03 0. -1.
       11    1    1    2    0    0  0.12620762717E-01 -0.12489185964E+00 -0.44229408181E-01  0.13309305777E+00  0.51109989000E-03 0. -1.
     -623    1    1    2    0    0  0.35036256068E-01  0.73971500477E-02  0.10187633611E+01  0.17130303313E+03  0.17130000000E+03 0. -1.
      622    1    1    2    0    0 -0.47657018785E-01  0.11749470960E+00  0.30254660145E+01  0.38638738078E+01  0.24000000000E+01 0. -1.
</event>
<event>
 5   0  0.6825300E-03  0.9118800E+02  0.7818608E-02  0.1180000E+00
       11   -1    0    0    0    0  0.00000000000E+00  0.00000000000E+00  0.39999999673E+01  0.40000000000E+01  0.51109989000E-03 0. -1.
     -623   -1    0    0    0    0  0.00000000000E+00  0.00000000000E+00  0.12525980253E-10  0.17130000000E+03  0.17130000000E+03 0.  1.
       11    1    1    2    0    0 -0.34630037195E+00 -0.17697414623E+00  0.53491965281E+00  0.66134944790E+00  0.51109989000E-03 0. -1.
     -623    1    1    2    0    0 -0.11477270997E+00 -0.48394418481E+00  0.12972243795E+01  0.17130563378E+03  0.17130000000E+03 0.  1.
      622    1    1    2    0    0  0.46107308192E+00  0.66091833103E+00  0.21678559350E+01  0.33330167690E+01  0.24000000000E+01 0. -1.
</event>
<event>
 5   0  0.6825300E-03  0.9118800E+02  0.7818608E-02  0.1180000E+00
       11   -1    0    0    0    0  0.00000000000E+00  0.00000000000E+00  0.39999999673E+01  0.40000000000E+01  0.51109989000E-03 0.  1.
     -623   -1    0    0    0    0  0.00000000000E+00  0.00000000000E+00  0.12525980253E-10  0.17130000000E+03  0.17130000000E+03 0. -1.
       11    1    1    2    0    0 -0.19053111400E+00 -0.89310323480E-01  0.37462921585E+00  0.42968098617E+00  0.51109989000E-03 0.  1.
     -623    1    1    2    0    0  0.41990721748E+00  0.29172846401E+00  0.10048533762E+01  0.17130371029E+03  0.17130000000E+03 0. -1.
      622    1    1    2    0    0 -0.22937610348E+00 -0.20241814053E+00  0.26205173753E+01  0.35666087275E+01  0.24000000000E+01 0.  1.
</event>
<event>
 5   0  0.6825300E-03  0.9118800E+02  0.7818608E-02  0.1180000E+00
       11   -1    0    0    0    0  0.00000000000E+00  0.00000000000E+00  0.39999999673E+01  0.40000000000E+01  0.51109989000E-03 0.  1.
     -623   -1    0    0    0    0  0.00000000000E+00  0.00000000000E+00  0.12525980253E-10  0.17130000000E+03  0.17130000000E+03 0.  1.
       11    1    1    2    0    0  0.28491961617E+00  0.26703461181E+00  0.31901384924E+00  0.50423880138E+00  0.51109989000E-03 0.  1.
     -623    1    1    2    0    0 -0.85062960887E+00 -0.77116839959E+00  0.12671567778E+01  0.17130853440E+03  0.17130000000E+03 0.  1.
      622    1    1    2    0    0  0.56570999270E+00  0.50413378778E+00  0.24138293403E+01  0.34872268002E+01  0.24000000000E+01 0.  1.
</event>
<event>
 5   0  0.6825300E-03  0.9118800E+02  0.7818608E-02  0.1180000E+00
       11   -1    0    0    0    0  0.00000000000E+00  0.00000000000E+00  0.39999999673E+01  0.40000000000E+01  0.51109989000E-03 0.  1.
     -623   -1    0    0    0    0  0.00000000000E+00  0.00000000000E+00  0.12525980253E-10  0.17130000000E+03  0.17130000000E+03 0. -1.
       11    1    1    2    0    0  0.21640416729E-01  0.19920134558E+00  0.23894877805E+00  0.31184333161E+00  0.51109989000E-03 0.  1.
     -623    1    1    2    0    0  0.10353691675E+00  0.84531042536E-01  0.98162616963E+00  0.17130286470E+03  0.17130000000E+03 0. -1.
      622    1    1    2    0    0 -0.12517733348E+00 -0.28373238811E+00  0.27794250197E+01  0.36852919658E+01  0.24000000000E+01 0.  1.
</event>
<event>
 5   0  0.6825300E-03  0.9118800E+02  0.7818608E-02  0.1180000E+00
       11   -1    0    0    0    0  0.00000000000E+00  0.00000000000E+00  0.39999999673E+01  0.40000000000E+01  0.51109989000E-03 0. -1.
     -623   -1    0    0    0    0  0.00000000000E+00  0.00000000000E+00  0.12525980253E-10  0.17130000000E+03  0.17130000000E+03 0. -1.
       11    1    1    2    0    0  0.80743518004E-01  0.12050726479E+00  0.99183656743E-01  0.17572471526E+00  0.51109989000E-03 0. -1.
     -623    1    1    2    0    0 -0.83519309459E-01 -0.33133872779E+00  0.93458538341E+00  0.17130289026E+03  0.17130000000E+03 0. -1.
      622    1    1    2    0    0  0.27757914558E-02  0.21083146300E+00  0.29662309272E+01  0.38213850270E+01  0.24000000000E+01 0. -1.
</event>
<event>
 5   0  0.6825300E-03  0.9118800E+02  0.7818608E-02  0.1180000E+00
       11   -1    0    0    0    0  0.00000000000E+00  0.00000000000E+00  0.39999999673E+01  0.40000000000E+01  0.51109989000E-03 0. -1.
     -623   -1    0    0    0    0  0.00000000000E+00  0.00000000000E+00  0.12525980253E-10  0.17130000000E+03  0.17130000000E+03 0. -1.
       11    1    1    2    0    0  0.12323624056E+00  0.13414077276E+00  0.24796235068E+00  0.30767922660E+00  0.51109989000E-03 0. -1.
     -623    1    1    2    0    0 -0.48478919422E-01 -0.34457838564E+00  0.95902219123E+00  0.17130303794E+03  0.17130000000E+03 0. -1.
      622    1    1    2    0    0 -0.74757321139E-01  0.21043761288E+00  0.27930154255E+01  0.36892828318E+01  0.24000000000E+01 0. -1.
</event>
<event>
 5   0  0.6825300E-03  0.9118800E+02  0.7818608E-02  0.1180000E+00
       11   -1    0    0    0    0  0.00000000000E+00  0.00000000000E+00  0.39999999673E+01  0.40000000000E+01  0.51109989000E-03 0.  1.
     -623   -1    0    0    0    0  0.00000000000E+00  0.00000000000E+00  0.12525980253E-10  0.17130000000E+03  0.17130000000E+03 0. -1.
       11    1    1    2    0    0  0.14883310364E+00  0.25744975523E-02  0.31493769632E+00  0.34834456299E+00  0.51109989000E-03 0.  1.
     -623    1    1    2    0    0  0.17851049701E+00  0.45876443207E-01  0.95653421766E+00  0.17130276976E+03  0.17130000000E+03 0. -1.
      622    1    1    2    0    0 -0.32734360064E+00 -0.48450940759E-01  0.27285280534E+01  0.36488856744E+01  0.24000000000E+01 0.  1.
</event>
<event>
 5   0  0.6825300E-03  0.9118800E+02  0.7818608E-02  0.1180000E+00
       11   -1    0    0    0    0  0.00000000000E+00  0.00000000000E+00  0.39999999673E+01  0.40000000000E+01  0.51109989000E-03 0. -1.
     -623   -1    0    0    0    0  0.00000000000E+00  0.00000000000E+00  0.12525980253E-10  0.17130000000E+03  0.17130000000E+03 0.  1.
       11    1    1    2    0    0 -0.18916664599E+00 -0.30334622577E-01  0.18927413759E+00  0.26931240162E+00  0.51109989000E-03 0. -1.
     -623    1    1    2    0    0  0.11213820163E+01  0.47998579609E+00  0.11602225924E+01  0.17130827184E+03  0.17130000000E+03 0.  1.
      622    1    1    2    0    0 -0.93221537028E+00 -0.44965117351E+00  0.26505032374E+01  0.37224157594E+01  0.24000000000E+01 0. -1.
</event>
<event>
 5   0  0.6825300E-03  0.9118800E+02  0.7818608E-02  0.1180000E+00
       11   -1    0    0    0    0  0.00000000000E+00  0.00000000000E+00  0.39999999673E+01  0.40000000000E+01  0.51109989000E-03 0.  1.
     -623   -1    0    0    0    0  0.00000000000E+00  0.00000000000E+00  0.12525980253E-10  0.17130000000E+03  0.17130000000E+03 0.  1.
       11    1    1    2    0    0 -0.70427029900E-01  0.88488306307E-01  0.10247976446E+00  0.15261883973E+00  0.51109989000E-03 0.  1.
     -623    1    1    2    0    0  0.11507682616E+00 -0.24351511385E+00  0.89809077379E+00  0.17130256597E+03  0.17130000000E+03 0.  1.
      622    1    1    2    0    0 -0.44649796262E-01  0.15502680754E+00  0.29994294291E+01  0.38448151861E+01  0.24000000000E+01 0.  1.
</event>
<event>
 5   0  0.6825300E-03  0.9118800E+02  0.7818608E-02  0.1180000E+00
       11   -1    0    0    0    0  0.00000000000E+00  0.00000000000E+00  0.39999999673E+01  0.40000000000E+01  0.51109989000E-03 0.  1.
     -623   -1    0    0    0    0  0.00000000000E+00  0.00000000000E+00  0.12525980253E-10  0.17130000000E+03  0.17130000000E+03 0. -1.
       11    1    1    2    0    0 -0.68424655992E-01 -0.27122389570E-01 -0.57911981841E-02  0.73833303889E-01  0.51109989000E-03 0.  1.
     -623    1    1    2    0    0  0.46909020863E-01  0.38039538503E+00  0.92250447481E+00  0.17130291275E+03  0.17130000000E+03 0. -1.
      622    1    1    2    0    0  0.21515635129E-01 -0.35327299546E+00  0.30832866907E+01  0.39232539491E+01  0.24000000000E+01 0.  1.
</event>
<event>
 5   0  0.6825300E-03  0.9118800E+02  0.7818608E-02  0.1180000E+00
       11   -1    0    0    0    0  0.00000000000E+00  0.00000000000E+00  0.39999999673E+01  0.40000000000E+01  0.51109989000E-03 0. -1.
     -623   -1    0    0    0    0  0.00000000000E+00  0.00000000000E+00  0.12525980253E-10  0.17130000000E+03  0.17130000000E+03 0. -1.
       11    1    1    2    0    0 -0.36272841859E+00  0.44361904264E+00  0.18015189498E+00  0.60068687944E+00  0.51109989000E-03 0. -1.
     -623    1    1    2    0    0  0.10775607292E+01 -0.63679252809E+00  0.15463877046E+01  0.17131155232E+03  0.17130000000E+03 0. -1.
      622    1    1    2    0    0 -0.71483231065E+00  0.19317348545E+00  0.22734603678E+01  0.33877608050E+01  0.24000000000E+01 0. -1.
</event>
<event>
 5   0  0.6825300E-03  0.9118800E+02  0.7818608E-02  0.1180000E+00
       11   -1    0    0    0    0  0.00000000000E+00  0.00000000000E+00  0.39999999673E+01  0.40000000000E+01  0.51109989000E-03 0. -1.
     -623   -1    0    0    0    0  0.00000000000E+00  0.00000000000E+00  0.12525980253E-10  0.17130000000E+03  0.17130000000E+03 0. -1.
       11    1    1    2    0    0 -0.14200819179E+00 -0.19552805164E+00  0.98904568819E-01  0.26111285006E+00  0.51109989000E-03 0. -1.
     -623    1    1    2    0    0 -0.73619038418E-01  0.66473476646E+00  0.10873646938E+01  0.17130475666E+03  0.17130000000E+03 0. -1.
      622    1    1    2    0    0  0.21562723021E+00 -0.46920671482E+00  0.28137307047E+01  0.37341304908E+01  0.24000000000E+01 0. -1.
</event>
<event>
 5   0  0.6825300E-03  0.9118800E+02  0.7818608E-02  0.1180000E+00
       11   -1    0    0    0    0  0.00000000000E+00  0.00000000000E+00  0.39999999673E+01  0.40000000000E+01  0.51109989000E-03 0. -1.
     -623   -1    0    0    0    0  0.00000000000E+00  0.00000000000E+00  0.12525980253E-10  0.17130000000E+03  0.17130000000E+03 0. -1.
       11    1    1    2    0    0  0.34564311142E+00  0.17627225261E+00  0.17030375442E+00  0.42372714983E+00  0.51109989000E-03 0. -1.
     -623    1    1    2    0    0 -0.41702729059E-01  0.12061992364E-02  0.12076004722E+01  0.17130426159E+03  0.17130000000E+03 0. -1.
      622    1    1    2    0    0 -0.30394038236E+00 -0.17747845184E+00  0.26220957408E+01  0.35720112585E+01  0.24000000000E+01 0. -1.
</event>
<event>
 5   0  0.6825300E-03  0.9118800E+02  0.7818608E-02  0.1180000E+00
       11   -1    0    0    0    0  0.00000000000E+00  0.00000000000E+00  0.39999999673E+01  0.40000000000E+01  0.51109989000E-03 0. -1.
     -623   -1    0    0    0    0  0.00000000000E+00  0.00000000000E+00  0.12525980253E-10  0.17130000000E+03  0.17130000000E+03 0.  1.
       11    1    1    2    0    0  0.11627472792E+00 -0.67599701231E-01  0.37727058699E-02  0.13455120396E+00  0.51109989000E-03 0. -1.
     -623    1    1    2    0    0 -0.20321781007E+00 -0.69252440958E-01  0.97414825016E+00  0.17130290441E+03  0.17130000000E+03 0.  1.
      622    1    1    2    0    0  0.86943082159E-01  0.13685214219E+00  0.30220790113E+01  0.38625443893E+01  0.24000000000E+01 0. -1.
</event>
<event>
 5   0  0.6825300E-03  0.9118800E+02  0.7818608E-02  0.1180000E+00
       11   -1    0    0    0    0  0.00000000000E+00  0.00000000000E+00  0.39999999673E+01  0.40000000000E+01  0.51109989000E-03 0.  1.
     -623   -1    0    0    0    0  0.00000000000E+00  0.00000000000E+00  0.12525980253E-10  0.17130000000E+03  0.17130000000E+03 0.  1.
       11    1    1    2    0    0 -0.65788535994E-01  0.12787122698E-01 -0.32079427973E-01  0.74303384158E-01  0.51109989000E-03 0.  1.
     -623    1    1    2    0    0  0.43110591653E-02 -0.42874662350E+00  0.95814859170E+00  0.17130321623E+03  0.17130000000E+03 0.  1.
      622    1    1    2    0    0  0.61477476828E-01  0.41595950080E+00  0.30739308036E+01  0.39224803852E+01  0.24000000000E+01 0.  1.
</event>
<event>
 5   0  0.6825300E-03  0.9118800E+02  0.7818608E-02  0.1180000E+00
       11   -1    0    0    0    0  0.00000000000E+00  0.00000000000E+00  0.39999999673E+01  0.40000000000E+01  0.51109989000E-03 0.  1.
     -623   -1    0    0    0    0  0.00000000000E+00  0.00000000000E+00  0.12525980253E-10  0.17130000000E+03  0.17130000000E+03 0.  1.
       11    1    1    2    0    0  0.93373744182E-01  0.45822747251E-01  0.45605026286E-02  0.10411262975E+00  0.51109989000E-03 0.  1.
     -623    1    1    2    0    0 -0.40566336506E+00  0.16880010550E+00  0.95417920975E+00  0.17130322097E+03  0.17130000000E+03 0. -1.
      622    1    1    2    0    0  0.31228962088E+00 -0.21462285275E+00  0.30412602550E+01  0.38926664017E+01  0.24000000000E+01 0.  1.
</event>
<event>
 5   0  0.6825300E-03  0.9118800E+02  0.7818608E-02  0.1180000E+00
       11   -1    0    0    0    0  0.00000000000E+00  0.00000000000E+00  0.39999999673E+01  0.40000000000E+01  0.51109989000E-03 0. -1.
     -623   -1    0    0    0    0  0.00000000000E+00  0.00000000000E+00  0.12525980253E-10  0.17130000000E+03  0.17130000000E+03 0.  1.
       11    1    1    2    0    0  0.19409576849E-01  0.20232004538E+00  0.53701272157E+00  0.57418904273E+00  0.51109989000E-03 0. -1.
     -623    1    1    2    0    0  0.52961755001E+00 -0.30409249718E+00  0.10895480684E+01  0.17130455359E+03  0.17130000000E+03 0.  1.
      622    1    1    2    0    0 -0.54902712686E+00  0.10177245179E+00  0.23734391774E+01  0.34212573634E+01  0.24000000000E+01 0. -1.
</event>
<event>
 5   0  0.6825300E-03  0.9118800E+02  0.7818608E-02  0.1180000E+00
       11   -1    0    0    0    0  0.00000000000E+00  0.00000000000E+00  0.39999999673E+01  0.40000000000E+01  0.51109989000E-03 0. -1.
     -623   -1    0    0    0    0  0.00000000000E+00  0.00000000000E+00  0.12525980253E-10  0.17130000000E+03  0.17130000000E+03 0. -1.
       11    1    1    2    0    0  0.18696000850E-02  0.35708732062E-02 -0.61850790226E-02  0.74002003720E-02  0.51109989000E-03 0. -1.
     -623    1    1    2    0    0  0.87145694107E-01  0.94587756912E-01  0.82071592917E+00  0.17130201434E+03  0.17130000000E+03 0. -1.
      622    1    1    2    0    0 -0.89015294192E-01 -0.98158630118E-01  0.31854691172E+01  0.39905854628E+01  0.24000000000E+01 0. -1.
</event>
<event>
 5   0  0.6825300E-03  0.9118800E+02  0.7818608E-02  0.1180000E+00
       11   -1    0    0    0    0  0.00000000000E+00  0.00000000000E+00  0.39999999673E+01  0.40000000000E+01  0.51109989000E-03 0.  1.
     -623   -1    0    0    0    0  0.00000000000E+00  0.00000000000E+00  0.12525980253E-10  0.17130000000E+03  0.17130000000E+03 0. -1.
       11    1    1    2    0    0 -0.11547422325E+00  0.12371557211E+00  0.16026653151E+00  0.23307823013E+00  0.51109989000E-03 0.  1.
     -623    1    1    2    0    0  0.25345934981E+00  0.35259703414E+00  0.98344512668E+00  0.17130337338E+03  0.17130000000E+03 0. -1.
      622    1    1    2    0    0 -0.13798512655E+00 -0.47631260625E+00  0.28562883092E+01  0.37635483920E+01  0.24000000000E+01 0.  1.
</event>
<event>
 5   0  0.6825300E-03  0.9118800E+02  0.7818608E-02  0.1180000E+00
       11   -1    0    0    0    0  0.00000000000E+00  0.00000000000E+00  0.39999999673E+01  0.40000000000E+01  0.51109989000E-03 0.  1.
     -623   -1    0    0    0    0  0.00000000000E+00  0.00000000000E+00  0.12525980253E-10  0.17130000000E+03  0.17130000000E+03 0. -1.
       11    1    1    2    0    0  0.23478598330E-01 -0.15522893764E+00 -0.87543840227E-01  0.17975386740E+00  0.51109989000E-03 0.  1.
     -623    1    1    2    0    0  0.46358980449E+00  0.64014867840E-02  0.11652429687E+01  0.17130459056E+03  0.17130000000E+03 0. -1.
      622    1    1    2    0    0 -0.48706840282E+00  0.14882745086E+00  0.29223008389E+01  0.38156555705E+01  0.24000000000E+01 0.  1.
</event>
<event>
 5   0  0.6825300E-03  0.9118800E+02  0.7818608E-02  0.1180000E+00
       11   -1    0    0    0    0  0.00000000000E+00  0.00000000000E+00  0.39999999673E+01  0.40000000000E+01  0.51109989000E-03 0. -1.
     -623   -1    0    0    0    0  0.00000000000E+00  0.00000000000E+00  0.12525980253E-10  0.17130000000E+03  0.17130000000E+03 0.  1.
       11    1    1    2    0    0 -0.15305444150E+00  0.15154531583E+00  0.33676325771E-03  0.21538806709E+00  0.51109989000E-03 0. -1.
     -623    1    1    2    0    0  0.24128885832E+00 -0.31378538161E+00  0.10842280473E+01  0.17130388855E+03  0.17130000000E+03 0.  1.
      622    1    1    2    0    0 -0.88234416822E-01  0.16224006577E+00  0.29154351568E+01  0.37807233838E+01  0.24000000000E+01 0. -1.
</event>
<event>
 5   0  0.6825300E-03  0.9118800E+02  0.7818608E-02  0.1180000E+00
       11   -1    0    0    0    0  0.00000000000E+00  0.00000000000E+00  0.39999999673E+01  0.40000000000E+01  0.51109989000E-03 0. -1.
     -623   -1    0    0    0    0  0.00000000000E+00  0.00000000000E+00  0.12525980253E-10  0.17130000000E+03  0.17130000000E+03 0.  1.
       11    1    1    2    0    0 -0.28162509906E+00 -0.14216618226E-01  0.12383435047E-01  0.28225594651E+00  0.51109989000E-03 0. -1.
     -623    1    1    2    0    0  0.11901348765E+00  0.38306990555E+00  0.11831066222E+01  0.17130455525E+03  0.17130000000E+03 0.  1.
      622    1    1    2    0    0  0.16261161142E+00 -0.36885328732E+00  0.28045099101E+01  0.37131888075E+01  0.24000000000E+01 0. -1.
</event>
<event>
 5   0  0.6825300E-03  0.9118800E+02  0.7818608E-02  0.1180000E+00
       11   -1    0    0    0    0  0.00000000000E+00  0.00000000000E+00  0.39999999673E+01  0.40000000000E+01  0.51109989000E-03 0.  1.
     -623   -1    0    0    0    0  0.00000000000E+00  0.00000000000E+00  0.12525980253E-10  0.17130000000E+03  0.17130000000E+03 0.  1.
       11    1    1    2    0    0  0.13269246709E-01  0.83834014328E-01  0.34363815066E-01  0.91571545110E-01  0.51109989000E-03 0.  1.
     -623    1    1    2    0    0 -0.72293094866E-01 -0.75187136382E-01  0.88437560114E+00  0.17130231464E+03  0.17130000000E+03 0.  1.
      622    1    1    2    0    0  0.59023848156E-01 -0.86468779461E-02  0.30812605512E+01  0.39061138190E+01  0.24000000000E+01 0.  1.
</event>
<event>
 5   0  0.6825300E-03  0.9118800E+02  0.7818608E-02  0.1180000E+00
       11   -1    0    0    0    0  0.00000000000E+00  0.00000000000E+00  0.39999999673E+01  0.40000000000E+01  0.51109989000E-03 0. -1.
     -623   -1    0    0    0    0  0.00000000000E+00  0.00000000000E+00  0.12525980253E-10  0.17130000000E+03  0.17130000000E+03 0.  1.
       11    1    1    2    0    0 -0.17752576842E+00  0.91995961980E-01  0.92265998045E-01  0.22020883518E+00  0.51109989000E-03 0. -1.
     -623    1    1    2    0    0  0.34962488423E+00 -0.14871748863E+00  0.99760473876E+00  0.17130332621E+03  0.17130000000E+03 0.  1.
      622    1    1    2    0    0 -0.17209911581E+00  0.56721526649E-01  0.29101292306E+01  0.37764649576E+01  0.24000000000E+01 0. -1.
</event>
<event>
 5   0  0.6825300E-03  0.9118800E+02  0.7818608E-02  0.1180000E+00
       11   -1    0    0    0    0  0.00000000000E+00  0.00000000000E+00  0.39999999673E+01  0.40000000000E+01  0.51109989000E-03 0. -1.
     -623   -1    0    0    0    0  0.00000000000E+00  0.00000000000E+00  0.12525980253E-10  0.17130000000E+03  0.17130000000E+03 0. -1.
       11    1    1    2    0    0  0.46722152473E-01  0.82776213304E-02 -0.32373091342E-01  0.57443509753E-01  0.51109989000E-03 0. -1.
     -623    1    1    2    0    0  0.73276494007E-01 -0.13982493046E-01  0.90985091569E+00  0.17130243254E+03  0.17130000000E+03 0. -1.
      622    1    1    2    0    0 -0.11999864648E+00  0.57048717160E-02  0.31225221430E+01  0.39401239516E+01  0.24000000000E+01 0. -1.
</event>
<event>
 5   0  0.6825300E-03  0.9118800E+02  0.7818608E-02  0.1180000E+00
       11   -1    0    0    0    0  0.00000000000E+00  0.00000000000E+00  0.39999999673E+01  0.40000000000E+01  0.51109989000E-03 0. -1.
     -623   -1    0    0    0    0  0.00000000000E+00  0.00000000000E+00  0.12525980253E-10  0.17130000000E+03  0.17130000000E+03 0.  1.
       11    1    1    2    0    0  0.12192491151E-01  0.15036930811E+00  0.29585799918E+00  0.33210209659E+00  0.51109989000E-03 0. -1.
     -623    1    1    2    0    0 -0.80517953929E+00  0.21972939320E+00  0.10796747751E+01  0.17130543568E+03  0.17130000000E+03 0.  1.
      622    1    1    2    0    0  0.79298704814E+00 -0.37009870131E+00  0.26244671931E+01  0.36624622257E+01  0.24000000000E+01 0. -1.
</event>
<event>
 5   0  0.6825300E-03  0.9118800E+02  0.7818608E-02  0.1180000E+00
       11   -1    0    0    0    0  0.00000000000E+00  0.00000000000E+00  0.39999999673E+01  0.40000000000E+01  0.51109989000E-03 0.  1.
     -623   -1    0    0    0    0  0.00000000000E+00  0.00000000000E+00  0.12525980253E-10  0.17130000000E+03  0.17130000000E+03 0.  1.
       11    1    1    2    0    0  0.96712134339E-01 -0.16514195625E-01  0.47211631965E+00  0.48220331405E+00  0.51109989000E-03 0.  1.
     -623    1    1    2    0    0 -0.50737409367E+00  0.46230681969E+00  0.10347174406E+01  0.17130450022E+03  0.17130000000E+03 0.  1.
      622    1    1    2    0    0  0.41066195933E+00 -0.44579262407E+00  0.24931662071E+01  0.35132964641E+01  0.24000000000E+01 0.  1.
</event>
<event>
 5   0  0.6825300E-03  0.9118800E+02  0.7818608E-02  0.1180000E+00
       11   -1    0    0    0    0  0.00000000000E+00  0.00000000000E+00  0.39999999673E+01  0.40000000000E+01  0.51109989000E-03 0. -1.
     -623   -1    0    0    0    0  0.00000000000E+00  0.00000000000E+00  0.12525980253E-10  0.17130000000E+03  0.17130000000E+03 0.  1.
       11    1    1    2    0    0  0.12820947629E+00 -0.35884352453E-01  0.75806008750E-01  0.15320629474E+00  0.51109989000E-03 0. -1.
     -623    1    1    2    0    0  0.94051050427E-01  0.65450759620E+00  0.99611536311E+00  0.17130417237E+03  0.17130000000E+03 0.  1.
      622    1    1    2    0    0 -0.22226052672E+00 -0.61862324375E+00  0.29280785955E+01  0.38426213346E+01  0.24000000000E+01 0. -1.
</event>
<event>
 5   0  0.6825300E-03  0.9118800E+02  0.7818608E-02  0.1180000E+00
       11   -1    0    0    0    0  0.00000000000E+00  0.00000000000E+00  0.39999999673E+01  0.40000000000E+01  0.51109989000E-03 0. -1.
     -623   -1    0    0    0    0  0.00000000000E+00  0.00000000000E+00  0.12525980253E-10  0.17130000000E+03  0.17130000000E+03 0.  1.
       11    1    1    2    0    0  0.14425876254E+00  0.15397304315E+00  0.10729863709E+00  0.23670983784E+00  0.51109989000E-03 0. -1.
     -623    1    1    2    0    0  0.34623428340E+00 -0.97322703970E-02  0.10441243928E+01  0.17130353227E+03  0.17130000000E+03 0.  1.
      622    1    1    2    0    0 -0.49049304595E+00 -0.14424077275E+00  0.28485769375E+01  0.37597578908E+01  0.24000000000E+01 0. -1.
</event>
<event>
 5   0  0.6825300E-03  0.9118800E+02  0.7818608E-02  0.1180000E+00
       11   -1    0    0    0    0  0.00000000000E+00  0.00000000000E+00  0.39999999673E+01  0.40000000000E+01  0.51109989000E-03 0. -1.
     -623   -1    0    0    0    0  0.00000000000E+00  0.00000000000E+00  0.12525980253E-10  0.17130000000E+03  0.17130000000E+03 0. -1.
       11    1    1    2    0    0 -0.59336311638E-03 -0.33607543974E-01  0.25698739751E+00  0.25917677904E+00  0.51109989000E-03 0. -1.
     -623    1    1    2    0    0 -0.24638208996E+00 -0.35658498646E+00  0.91491457648E+00  0.17130299158E+03  0.17130000000E+03 0. -1.
      622    1    1    2    0    0  0.24697545307E+00  0.39019253043E+00  0.28280979934E+01  0.37378316368E+01  0.24000000000E+01 0. -1.
</event>
<event>
 5   0  0.6825300E-03  0.9118800E+02  0.7818608E-02  0.1180000E+00
       11   -1    0    0    0    0  0.00000000000E+00  0.00000000000E+00  0.39999999673E+01  0.40000000000E+01  0.51109989000E-03 0. -1.
     -623   -1    0    0    0    0  0.00000000000E+00  0.00000000000E+00  0.12525980253E-10  0.17130000000E+03  0.17130000000E+03 0.  1.
       11    1    1    2    0    0  0.49300785111E+00 -0.99853368725E-01  0.65397192524E+00  0.82504968137E+00  0.51109989000E-03 0. -1.
     -623    1    1    2    0    0 -0.35831944283E+00 -0.69150087167E+00  0.14417644157E+01  0.17130783768E+03  0.17130000000E+03 0.  1.
      622    1    1    2    0    0 -0.13468840828E+00  0.79135424040E+00  0.19042636264E+01  0.31671126377E+01  0.24000000000E+01 0. -1.
</event>
<event>
 5   0  0.6825300E-03  0.9118800E+02  0.7818608E-02  0.1180000E+00
       11   -1    0    0    0    0  0.00000000000E+00  0.00000000000E+00  0.39999999673E+01  0.40000000000E+01  0.51109989000E-03 0.  1.
     -623   -1    0    0    0    0  0.00000000000E+00  0.00000000000E+00  0.12525980253E-10  0.17130000000E+03  0.17130000000E+03 0. -1.
       11    1    1    2    0    0 -0.98161899262E-01 -0.38332016492E+00  0.84230237858E-01  0.40455543686E+00  0.51109989000E-03 0.  1.
     -623    1    1    2    0    0  0.16318682395E+01  0.13940199752E+00  0.17630461413E+01  0.17131690156E+03  0.17130000000E+03 0. -1.
      622    1    1    2    0    0 -0.15337063403E+01  0.24391816740E+00  0.21527235882E+01  0.35785430077E+01  0.24000000000E+01 0.  1.
</event>
<event>
 5   0  0.6825300E-03  0.9118800E+02  0.7818608E-02  0.1180000E+00
       11   -1    0    0    0    0  0.00000000000E+00  0.00000000000E+00  0.39999999673E+01  0.40000000000E+01  0.51109989000E-03 0. -1.
     -623   -1    0    0    0    0  0.00000000000E+00  0.00000000000E+00  0.12525980253E-10  0.17130000000E+03  0.17130000000E+03 0.  1.
       11    1    1    2    0    0 -0.95787731698E-01 -0.34008153320E-01 -0.93960505300E-01  0.13842211461E+00  0.51109989000E-03 0. -1.
     -623    1    1    2    0    0  0.30968673013E-01  0.20899621727E+00  0.10790441362E+01  0.17130352879E+03  0.17130000000E+03 0.  1.
      622    1    1    2    0    0  0.64819058685E-01 -0.17498806395E+00  0.30149163365E+01  0.38580490988E+01  0.24000000000E+01 0. -1.
</event>
<event>
 5   0  0.6825300E-03  0.9118800E+02  0.7818608E-02  0.1180000E+00
       11   -1    0    0    0    0  0.00000000000E+00  0.00000000000E+00  0.39999999673E+01  0.40000000000E+01  0.51109989000E-03 0. -1.
     -623   -1    0    0    0    0  0.00000000000E+00  0.00000000000E+00  0.12525980253E-10  0.17130000000E+03  0.17130000000E+03 0.  1.
       11    1    1    2    0    0  0.19893919607E+00  0.18060058479E+00  0.18542765476E+00  0.32646140864E+00  0.51109989000E-03 0. -1.
     -623    1    1    2    0    0 -0.40064564654E+00 -0.47151686432E-01  0.10488309972E+01  0.17130368585E+03  0.17130000000E+03 0.  1.
      622    1    1    2    0    0  0.20170645047E+00 -0.13344889836E+00  0.27657413154E+01  0.36698527388E+01  0.24000000000E+01 0. -1.
</event>
<event>
 5   0  0.6825300E-03  0.9118800E+02  0.7818608E-02  0.1180000E+00
       11   -1    0    0    0    0  0.00000000000E+00  0.00000000000E+00  0.39999999673E+01  0.40000000000E+01  0.51109989000E-03 0.  1.
     -623   -1    0    0    0    0  0.00000000000E+00  0.00000000000E+00  0.12525980253E-10  0.17130000000E+03  0.17130000000E+03 0.  1.
       11    1    1    2    0    0 -0.48944426132E-01  0.65135615422E-01 -0.22489666617E-01  0.84523674623E-01  0.51109989000E-03 0.  1.
     -623    1    1    2    0    0  0.25172416081E+00  0.32515129610E-01  0.94050711116E+00  0.17130276990E+03  0.17130000000E+03 0.  1.
      622    1    1    2    0    0 -0.20277973468E+00 -0.97650745032E-01  0.30819825228E+01  0.39127064239E+01  0.24000000000E+01 0.  1.
</event>
<event>
 5   0  0.6825300E-03  0.9118800E+02  0.7818608E-02  0.1180000E+00
       11   -1    0    0    0    0  0.00000000000E+00  0.00000000000E+00  0.39999999673E+01  0.40000000000E+01  0.51109989000E-03 0. -1.
     -623   -1    0    0    0    0  0.00000000000E+00  0.00000000000E+00  0.12525980253E-10  0.17130000000E+03  0.17130000000E+03 0.  1.
       11    1    1    2    0    0  0.20576746267E+00  0.17330709642E+00 -0.99957733957E+00  0.10351476790E+01  0.51109989000E-03 0. -1.
     -623    1    1    2    0    0  0.60039089288E+00 -0.10276117407E+00  0.35317196250E+01  0.17133748589E+03  0.17130000000E+03 0.  1.
      622    1    1    2    0    0 -0.80615835555E+00 -0.70545922351E-01  0.14678576820E+01  0.29273664266E+01  0.24000000000E+01 0. -1.
</event>
<event>
 5   0  0.6825300E-03  0.9118800E+02  0.7818608E-02  0.1180000E+00
       11   -1    0    0    0    0  0.00000000000E+00  0.00000000000E+00  0.39999999673E+01  0.40000000000E+01  0.51109989000E-03 0.  1.
     -623   -1    0    0    0    0  0.00000000000E+00  0.00000000000E+00  0.12525980253E-10  0.17130000000E+03  0.17130000000E+03 0. -1.
       11    1    1    2    0    0  0.17728432160E-01  0.12662667680E-01 -0.12787627563E+00  0.12971986568E+00  0.51109989000E-03 0.  1.
     -623    1    1    2    0    0  0.31721873048E+00  0.47698255700E+00  0.11564251241E+01  0.17130486117E+03  0.17130000000E+03 0. -1.
      622    1    1    2    0    0 -0.33494716264E+00 -0.48964522468E+00  0.29714511189E+01  0.38654189682E+01  0.24000000000E+01 0.  1.
</event>
<event>
 5   0  0.6825300E-03  0.9118800E+02  0.7818608E-02  0.1180000E+00
       11   -1    0    0    0    0  0.00000000000E+00  0.00000000000E+00  0.39999999673E+01  0.40000000000E+01  0.51109989000E-03 0. -1.
     -623   -1    0    0    0    0  0.00000000000E+00  0.00000000000E+00  0.12525980253E-10  0.17130000000E+03  0.17130000000E+03 0. -1.
       11    1    1    2    0    0  0.13855557573E+00 -0.38326221660E-01  0.13286069838E+00  0.19575181539E+00  0.51109989000E-03 0. -1.
     -623    1    1    2    0    0 -0.25721677921E+00  0.21873838406E+00  0.92706018004E+00  0.17130284133E+03  0.17130000000E+03 0. -1.
      622    1    1    2    0    0  0.11866120348E+00 -0.18041216240E+00  0.29400790889E+01  0.38014068552E+01  0.24000000000E+01 0. -1.
</event>
<event>
 5   0  0.6825300E-03  0.9118800E+02  0.7818608E-02  0.1180000E+00
       11   -1    0    0    0    0  0.00000000000E+00  0.00000000000E+00  0.39999999673E+01  0.40000000000E+01  0.51109989000E-03 0. -1.
     -623   -1    0    0    0    0  0.00000000000E+00  0.00000000000E+00  0.12525980253E-10  0.17130000000E+03  0.17130000000E+03 0.  1.
       11    1    1    2    0    0 -0.92995371182E-01 -0.14545880775E+00  0.69376839963E+00  0.71492744901E+00  0.51109989000E-03 0. -1.
     -623    1    1    2    0    0  0.41497982328E+00  0.24869368779E+00  0.10949177339E+01  0.17130418238E+03  0.17130000000E+03 0.  1.
      622    1    1    2    0    0 -0.32198445210E+00 -0.10323488004E+00  0.22113138338E+01  0.32808901687E+01  0.24000000000E+01 0. -1.
</event>
<event>
 5   0  0.6825300E-03  0.9118800E+02  0.7818608E-02  0.1180000E+00
       11   -1    0    0    0    0  0.00000000000E+00  0.00000000000E+00  0.39999999673E+01  0.40000000000E+01  0.51109989000E-03 0.  1.
     -623   -1    0    0    0    0  0.00000000000E+00  0.00000000000E+00  0.12525980253E-10  0.17130000000E+03  0.17130000000E+03 0.  1.
       11    1    1    2    0    0 -0.93368335725E-01  0.30615125697E+00  0.87036865381E+00  0.92735542971E+00  0.51109989000E-03 0.  1.
     -623    1    1    2    0    0  0.19917695776E-01 -0.54213728945E+00  0.12355811892E+01  0.17130531507E+03  0.17130000000E+03 0.  1.
      622    1    1    2    0    0  0.73450639949E-01  0.23598603248E+00  0.18940501244E+01  0.30673295026E+01  0.24000000000E+01 0.  1.
</event>
<event>
 5   0  0.6825300E-03  0.9118800E+02  0.7818608E-02  0.1180000E+00
       11   -1    0    0    0    0  0.00000000000E+00  0.00000000000E+00  0.39999999673E+01  0.40000000000E+01  0.51109989000E-03 0. -1.
     -623   -1    0    0    0    0  0.00000000000E+00  0.00000000000E+00  0.12525980253E-10  0.17130000000E+03  0.17130000000E+03 0. -1.
       11    1    1    2    0    0  0.51875299306E-02 -0.18749916553E+00 -0.39702232948E-01  0.19172734824E+00  0.51109989000E-03 0. -1.
     -623    1    1    2    0    0 -0.24950293961E+00  0.17468866332E+00  0.10978929812E+01  0.17130378903E+03  0.17130000000E+03 0. -1.
      622    1    1    2    0    0  0.24431540968E+00  0.12810502204E-01  0.29418092191E+01  0.38044836194E+01  0.24000000000E+01 0. -1.
</event>
<event>
 5   0  0.6825300E-03  0.9118800E+02  0.7818608E-02  0.1180000E+00
       11   -1    0    0    0    0  0.00000000000E+00  0.00000000000E+00  0.39999999673E+01  0.40000000000E+01  0.51109989000E-03 0.  1.
     -623   -1    0    0    0    0  0.00000000000E+00  0.00000000000E+00  0.12525980253E-10  0.17130000000E+03  0.17130000000E+03 0.  1.
       11    1    1    2    0    0  0.98794202704E-01 -0.88131277205E-01  0.15999090467E+00  0.20766503632E+00  0.51109989000E-03 0.  1.
     -623    1    1    2    0    0 -0.71590937890E+00 -0.35102101667E+00  0.10095489123E+01  0.17130483044E+03  0.17130000000E+03 0.  1.
      622    1    1    2    0    0  0.61711517620E+00  0.43915229388E+00  0.28304601504E+01  0.37875045268E+01  0.24000000000E+01 0.  1.
</event>
<event>
 5   0  0.6825300E-03  0.9118800E+02  0.7818608E-02  0.1180000E+00
       11   -1    0    0    0    0  0.00000000000E+00  0.00000000000E+00  0.39999999673E+01  0.40000000000E+01  0.51109989000E-03 0.  1.
     -623   -1    0    0    0    0  0.00000000000E+00  0.00000000000E+00  0.12525980253E-10  0.17130000000E+03  0.17130000000E+03 0.  1.
       11    1    1    2    0    0  0.89527039563E-02  0.83932427116E-01 -0.11091696996E+00  0.13938306453E+00  0.51109989000E-03 0.  1.
     -623    1    1    2    0    0 -0.39053610462E-01 -0.52496720727E+00  0.11252538201E+01  0.17130450465E+03  0.17130000000E+03 0.  1.
      622    1    1    2    0    0  0.30100906506E-01  0.44103478016E+00  0.29856631172E+01  0.38561122898E+01  0.24000000000E+01 0.  1.
</event>
<event>
 5   0  0.6825300E-03  0.9118800E+02  0.7818608E-02  0.1180000E+00
       11   -1    0    0    0    0  0.00000000000E+00  0.00000000000E+00  0.39999999673E+01  0.40000000000E+01  0.51109989000E-03 0.  1.
     -623   -1    0    0    0    0  0.00000000000E+00  0.00000000000E+00  0.12525980253E-10  0.17130000000E+03  0.17130000000E+03 0.  1.
       11    1    1    2    0    0 -0.37294442152E-02  0.20945355764E-01 -0.55902031740E-01  0.59815675688E-01  0.51109989000E-03 0.  1.
     -623    1    1    2    0    0  0.23441898256E+00  0.19192804222E+00  0.95048140571E+00  0.17130290483E+03  0.17130000000E+03 0.  1.
      622    1    1    2    0    0 -0.23068953834E+00 -0.21287339798E+00  0.31054205934E+01  0.39372794933E+01  0.24000000000E+01 0.  1.
</event>
<event>
 5   0  0.6825300E-03  0.9118800E+02  0.7818608E-02  0.1180000E+00
       11   -1    0    0    0    0  0.00000000000E+00  0.00000000000E+00  0.39999999673E+01  0.40000000000E+01  0.51109989000E-03 0. -1.
     -623   -1    0    0    0    0  0.00000000000E+00  0.00000000000E+00  0.12525980253E-10  0.17130000000E+03  0.17130000000E+03 0.  1.
       11    1    1    2    0    0  0.39496764005E-01 -0.99066367689E-01  0.22774062507E-01  0.10905530120E+00  0.51109989000E-03 0. -1.
     -623    1    1    2    0    0  0.36045295363E+00  0.13846181164E-01  0.94589630252E+00  0.17130299133E+03  0.17130000000E+03 0.  1.
      622    1    1    2    0    0 -0.39994971763E+00  0.85220186525E-01  0.30313296023E+01  0.38879533710E+01  0.24000000000E+01 0. -1.
</event>
<event>
 5   0  0.6825300E-03  0.9118800E+02  0.7818608E-02  0.1180000E+00
       11   -1    0    0    0    0  0.00000000000E+00  0.00000000000E+00  0.39999999673E+01  0.40000000000E+01  0.51109989000E-03 0. -1.
     -623   -1    0    0    0    0  0.00000000000E+00  0.00000000000E+00  0.12525980253E-10  0.17130000000E+03  0.17130000000E+03 0. -1.
       11    1    1    2    0    0 -0.26978755607E-01 -0.68999915492E-01  0.45741836312E-01  0.87071340877E-01  0.51109989000E-03 0. -1.
     -623    1    1    2    0    0  0.12037422891E+00 -0.10182478678E+00  0.87283931749E+00  0.17130229627E+03  0.17130000000E+03 0. -1.
      622    1    1    2    0    0 -0.93395473304E-01  0.17082470227E+00  0.30814188136E+01  0.39106323910E+01  0.24000000000E+01 0. -1.
</event>
<event>
 5   0  0.6825300E-03  0.9118800E+02  0.7818608E-02  0.1180000E+00
       11   -1    0    0    0    0  0.00000000000E+00  0.00000000000E+00  0.39999999673E+01  0.40000000000E+01  0.51109989000E-03 0.  1.
     -623   -1    0    0    0    0  0.00000000000E+00  0.00000000000E+00  0.12525980253E-10  0.17130000000E+03  0.17130000000E+03 0. -1.
       11    1    1    2    0    0  0.31700388474E-01  0.80039735902E-01  0.87138699992E-01  0.12249362518E+00  0.51109989000E-03 0.  1.
     -623    1    1    2    0    0 -0.23194378616E+00 -0.17904562749E-01  0.87766072516E+00  0.17130240631E+03  0.17130000000E+03 0. -1.
      622    1    1    2    0    0  0.20024339769E+00 -0.62135173153E-01  0.30352005422E+01  0.38751000670E+01  0.24000000000E+01 0.  1.
</event>
<event>
 5   0  0.6825300E-03  0.9118800E+02  0.7818608E-02  0.1180000E+00
       11   -1    0    0    0    0  0.00000000000E+00  0.00000000000E+00  0.39999999673E+01  0.40000000000E+01  0.51109989000E-03 0. -1.
     -623   -1    0    0    0    0  0.00000000000E+00  0.00000000000E+00  0.12525980253E-10  0.17130000000E+03  0.17130000000E+03 0.  1.
       11    1    1    2    0    0  0.56865820976E-01  0.61383403151E-01 -0.11990126885E-01  0.84532053941E-01  0.51109989000E-03 0. -1.
     -623    1    1    2    0    0  0.30715214245E+00 -0.20164421619E+00  0.94684104259E+00  0.17130301080E+03  0.17130000000E+03 0.  1.
      622    1    1    2    0    0 -0.36401796343E+00  0.14026081303E+00  0.30651490517E+01  0.39124571413E+01  0.24000000000E+01 0. -1.
</event>
<event>
 5   0  0.6825300E-03  0.9118800E+02  0.7818608E-02  0.1180000E+00
       11   -1    0    0    0    0  0.00000000000E+00  0.00000000000E+00  0.39999999673E+01  0.40000000000E+01  0.51109989000E-03 0. -1.
     -623   -1    0    0    0    0  0.00000000000E+00  0.00000000000E+00  0.12525980253E-10  0.17130000000E+03  0.17130000000E+03 0. -1.
       11    1    1    2    0    0 -0.46156155135E+00  0.88582347997E-01  0.42244083107E-02  0.47000426052E+00  0.51109989000E-03 0. -1.
     -623    1    1    2    0    0  0.90864211421E-01 -0.18501261627E+00  0.14442396261E+01  0.17130621213E+03  0.17130000000E+03 0. -1.
      622    1    1    2    0    0  0.37069733993E+00  0.96430268276E-01  0.25515359330E+01  0.35237836102E+01  0.24000000000E+01 0. -1.
</event>
<event>
 5   0  0.6825300E-03  0.9118800E+02  0.7818608E-02  0.1180000E+00
       11   -1    0    0    0    0  0.00000000000E+00  0.00000000000E+00  0.39999999673E+01  0.40000000000E+01  0.51109989000E-03 0. -1.
     -623   -1    0    0    0    0  0.00000000000E+00  0.00000000000E+00  0.12525980253E-10  0.17130000000E+03  0.17130000000E+03 0.  1.
       11    1    1    2    0    0 -0.17202652856E+00 -0.25655787922E+00 -0.12340184228E+00  0.33263094837E+00  0.51109989000E-03 0. -1.
     -623    1    1    2    0    0  0.10171388234E+01 -0.35866027455E+00  0.15701057609E+01  0.17131059057E+03  0.17130000000E+03 0.  1.
      622    1    1    2    0    0 -0.84511229487E+00  0.61521815377E+00  0.25532960487E+01  0.36567784839E+01  0.24000000000E+01 0.  0.
</event>
<event>
 5   0  0.6825300E-03  0.9118800E+02  0.7818608E-02  0.1180000E+00
       11   -1    0    0    0    0  0.00000000000E+00  0.00000000000E+00  0.39999999673E+01  0.40000000000E+01  0.51109989000E-03 0.  1.
     -623   -1    0    0    0    0  0.00000000000E+00  0.00000000000E+00  0.12525980253E-10  0.17130000000E+03  0.17130000000E+03 0. -1.
       11    1    1    2    0    0 -0.47387882492E+00 -0.58521814971E-01  0.13480474572E+00  0.49614365281E+00  0.51109989000E-03 0.  1.
     -623    1    1    2    0    0  0.16209172336E+00  0.37721292702E+00  0.13598010388E+01  0.17130588905E+03  0.17130000000E+03 0. -1.
      622    1    1    2    0    0  0.31178710156E+00 -0.31869111205E+00  0.25053941829E+01  0.34979673002E+01  0.24000000000E+01 0.  1.
</event>
<event>
 5   0  0.6825300E-03  0.9118800E+02  0.7818608E-02  0.1180000E+00
       11   -1    0    0    0    0  0.00000000000E+00  0.00000000000E+00  0.39999999673E+01  0.40000000000E+01  0.51109989000E-03 0.  1.
     -623   -1    0    0    0    0  0.00000000000E+00  0.00000000000E+00  0.12525980253E-10  0.17130000000E+03  0.17130000000E+03 0. -1.
       11    1    1    2    0    0  0.25442732986E-01  0.26036324430E-01  0.24538337453E+00  0.24806951560E+00  0.51109989000E-03 0.  1.
     -623    1    1    2    0    0  0.11344033385E-01 -0.46350891438E+00  0.90830711490E+00  0.17130303556E+03  0.17130000000E+03 0. -1.
      622    1    1    2    0    0 -0.36786766371E-01  0.43747258995E+00  0.28463094779E+01  0.37488949275E+01  0.24000000000E+01 0.  1.
</event>
<event>
 5   0  0.6825300E-03  0.9118800E+02  0.7818608E-02  0.1180000E+00
       11   -1    0    0    0    0  0.00000000000E+00  0.00000000000E+00  0.39999999673E+01  0.40000000000E+01  0.51109989000E-03 0. -1.
     -623   -1    0    0    0    0  0.00000000000E+00  0.00000000000E+00  0.12525980253E-10  0.17130000000E+03  0.17130000000E+03 0.  1.
       11    1    1    2    0    0  0.55646873579E-01  0.60057056922E+00  0.29468260662E+00  0.67128211880E+00  0.51109989000E-03 0. -1.
     -623    1    1    2    0    0 -0.87883190003E+00 -0.51724885612E+00  0.15680512737E+01  0.17131021183E+03  0.17130000000E+03 0.  1.
      622    1    1    2    0    0  0.82318502645E+00 -0.83321713106E-01  0.21372660871E+01  0.33185060528E+01  0.24000000000E+01 0. -1.
</event>
<event>
 5   0  0.6825300E-03  0.9118800E+02  0.7818608E-02  0.1180000E+00
       11   -1    0    0    0    0  0.00000000000E+00  0.00000000000E+00  0.39999999673E+01  0.40000000000E+01  0.51109989000E-03 0. -1.
     -623   -1    0    0    0    0  0.00000000000E+00  0.00000000000E+00  0.12525980253E-10  0.17130000000E+03  0.17130000000E+03 0.  1.
       11    1    1    2    0    0 -0.10535641395E+00 -0.24126084807E+00  0.35404782903E+00  0.44119938490E+00  0.51109989000E-03 0. -1.
     -623    1    1    2    0    0  0.52967346914E+00 -0.14702691969E+00  0.10879449265E+01  0.17130433677E+03  0.17130000000E+03 0.  1.
      622    1    1    2    0    0 -0.42431705519E+00  0.38828776776E+00  0.25580072119E+01  0.35544638484E+01  0.24000000000E+01 0. -1.
</event>
<event>
 5   0  0.6825300E-03  0.9118800E+02  0.7818608E-02  0.1180000E+00
       11   -1    0    0    0    0  0.00000000000E+00  0.00000000000E+00  0.39999999673E+01  0.40000000000E+01  0.51109989000E-03 0.  1.
     -623   -1    0    0    0    0  0.00000000000E+00  0.00000000000E+00  0.12525980253E-10  0.17130000000E+03  0.17130000000E+03 0.  1.
       11    1    1    2    0    0 -0.40732272937E-01 -0.17710585940E+00  0.19013023641E+00  0.26301211286E+00  0.51109989000E-03 0.  1.
     -623    1    1    2    0    0  0.38770754207E+00  0.50455722931E+00  0.99078642562E+00  0.17130404710E+03  0.17130000000E+03 0.  1.
      622    1    1    2    0    0 -0.34697526913E+00 -0.32745136991E+00  0.28190833053E+01  0.37329407870E+01  0.24000000000E+01 0.  1.
</event>
<event>
 5   0  0.6825300E-03  0.9118800E+02  0.7818608E-02  0.1180000E+00
       11   -1    0    0    0    0  0.00000000000E+00  0.00000000000E+00  0.39999999673E+01  0.40000000000E+01  0.51109989000E-03 0.  1.
     -623   -1    0    0    0    0  0.00000000000E+00  0.00000000000E+00  0.12525980253E-10  0.17130000000E+03  0.17130000000E+03 0.  1.
       11    1    1    2    0    0  0.87815158971E-02 -0.38640487202E-01 -0.38833900760E-01  0.55484550498E-01  0.51109989000E-03 0.  1.
     -623    1    1    2    0    0 -0.12229863469E+00 -0.16045041510E+00  0.92013982827E+00  0.17130259005E+03  0.17130000000E+03 0.  1.
      622    1    1    2    0    0  0.11351711879E+00  0.19909090230E+00  0.31186940398E+01  0.39419253973E+01  0.24000000000E+01 0.  1.
</event>
<event>
 5   0  0.6825300E-03  0.9118800E+02  0.7818608E-02  0.1180000E+00
       11   -1    0    0    0    0  0.00000000000E+00  0.00000000000E+00  0.39999999673E+01  0.40000000000E+01  0.51109989000E-03 0.  1.
     -623   -1    0    0    0    0  0.00000000000E+00  0.00000000000E+00  0.12525980253E-10  0.17130000000E+03  0.17130000000E+03 0. -1.
       11    1    1    2    0    0 -0.70462142584E-01  0.19247464091E-01  0.16807152047E-01  0.74954119252E-01  0.51109989000E-03 0.  1.
     -623    1    1    2    0    0  0.38492554500E+00  0.32902250695E+00  0.91714202370E+00  0.17130320363E+03  0.17130000000E+03 0. -1.
      622    1    1    2    0    0 -0.31446340241E+00 -0.34826997104E+00  0.30660507916E+01  0.39218422534E+01  0.24000000000E+01 0.  1.
</event>
<event>
 5   0  0.6825300E-03  0.9118800E+02  0.7818608E-02  0.1180000E+00
       11   -1    0    0    0    0  0.00000000000E+00  0.00000000000E+00  0.39999999673E+01  0.40000000000E+01  0.51109989000E-03 0.  1.
     -623   -1    0    0    0    0  0.00000000000E+00  0.00000000000E+00  0.12525980253E-10  0.17130000000E+03  0.17130000000E+03 0.  1.
       11    1    1    2    0    0 -0.20989467651E+00  0.24965099728E+00 -0.36361637259E-01  0.32818261008E+00  0.51109989000E-03 0.  1.
     -623    1    1    2    0    0 -0.25824172578E-02 -0.49985675683E+00  0.12843054096E+01  0.17130554370E+03  0.17130000000E+03 0. -1.
      622    1    1    2    0    0  0.21247709377E+00  0.25020575955E+00  0.27520561950E+01  0.36662736856E+01  0.24000000000E+01 0.  1.
</event>
<event>
 5   0  0.6825300E-03  0.9118800E+02  0.7818608E-02  0.1180000E+00
       11   -1    0    0    0    0  0.00000000000E+00  0.00000000000E+00  0.39999999673E+01  0.40000000000E+01  0.51109989000E-03 0.  1.
     -623   -1    0    0    0    0  0.00000000000E+00  0.00000000000E+00  0.12525980253E-10  0.17130000000E+03  0.17130000000E+03 0.  1.
       11    1    1    2    0    0 -0.32657095683E+00  0.26247007963E+00  0.36500046810E+00  0.55566602873E+00  0.51109989000E-03 0.  1.
     -623    1    1    2    0    0 -0.24671094996E+00 -0.32154547713E+00  0.12397726528E+01  0.17130496576E+03  0.17130000000E+03 0.  1.
      622    1    1    2    0    0  0.57328190679E+00  0.59075397496E-01  0.23952268464E+01  0.34393682113E+01  0.24000000000E+01 0.  1.
</event>
<event>
 5   0  0.6825300E-03  0.9118800E+02  0.7818608E-02  0.1180000E+00
       11   -1    0    0    0    0  0.00000000000E+00  0.00000000000E+00  0.39999999673E+01  0.40000000000E+01  0.51109989000E-03 0. -1.
     -623   -1    0    0    0    0  0.00000000000E+00  0.00000000000E+00  0.12525980253E-10  0.17130000000E+03  0.17130000000E+03 0. -1.
       11    1    1    2    0    0  0.41036697201E+00  0.18398386565E+00 -0.44129226603E+00  0.63007161484E+00  0.51109989000E-03 0. -1.
     -623    1    1    2    0    0 -0.13535872218E+01 -0.11435362871E+01  0.25445394848E+01  0.17132806120E+03  0.17130000000E+03 0. -1.
      622    1    1    2    0    0  0.94322024982E+00  0.95955242148E+00  0.18967527486E+01  0.33418671844E+01  0.24000000000E+01 0. -1.
</event>
<event>
 5   0  0.6825300E-03  0.9118800E+02  0.7818608E-02  0.1180000E+00
       11   -1    0    0    0    0  0.00000000000E+00  0.00000000000E+00  0.39999999673E+01  0.40000000000E+01  0.51109989000E-03 0. -1.
     -623   -1    0    0    0    0  0.00000000000E+00  0.00000000000E+00  0.12525980253E-10  0.17130000000E+03  0.17130000000E+03 0. -1.
       11    1    1    2    0    0 -0.32621490215E-01  0.35948758007E+00  0.57638056287E-01  0.36553780735E+00  0.51109989000E-03 0. -1.
     -623    1    1    2    0    0  0.63440059607E+00  0.28977322968E+00  0.13702953290E+01  0.17130690045E+03  0.17130000000E+03 0. -1.
      622    1    1    2    0    0 -0.60177910585E+00 -0.64926080974E+00  0.25720665820E+01  0.36275617422E+01  0.24000000000E+01 0. -1.
</event>
<event>
 5   0  0.6825300E-03  0.9118800E+02  0.7818608E-02  0.1180000E+00
       11   -1    0    0    0    0  0.00000000000E+00  0.00000000000E+00  0.39999999673E+01  0.40000000000E+01  0.51109989000E-03 0.  1.
     -623   -1    0    0    0    0  0.00000000000E+00  0.00000000000E+00  0.12525980253E-10  0.17130000000E+03  0.17130000000E+03 0. -1.
       11    1    1    2    0    0 -0.34123276207E+00 -0.24169722939E+00  0.17864383910E-01  0.41854121188E+00  0.51109989000E-03 0.  1.
     -623    1    1    2    0    0  0.17478147139E+00  0.11113887183E+00  0.13394633641E+01  0.17130536204E+03  0.17130000000E+03 0. -1.
      622    1    1    2    0    0  0.16645129068E+00  0.13055835756E+00  0.26426722193E+01  0.35760967515E+01  0.24000000000E+01 0.  1.
</event>
<event>
 5   0  0.6825300E-03  0.9118800E+02  0.7818608E-02  0.1180000E+00
       11   -1    0    0    0    0  0.00000000000E+00  0.00000000000E+00  0.39999999673E+01  0.40000000000E+01  0.51109989000E-03 0. -1.
     -623   -1    0    0    0    0  0.00000000000E+00  0.00000000000E+00  0.12525980253E-10  0.17130000000E+03  0.17130000000E+03 0.  1.
       11    1    1    2    0    0  0.89485001196E-01  0.67504835503E-01  0.20503536756E+00  0.23367548316E+00  0.51109989000E-03 0. -1.
     -623    1    1    2    0    0  0.33403081359E+00 -0.66864215987E-01  0.92714463024E+00  0.17130284774E+03  0.17130000000E+03 0.  1.
      622    1    1    2    0    0 -0.42351581478E+00 -0.64061951528E-03  0.28678199696E+01  0.37634767747E+01  0.24000000000E+01 0. -1.
</event>
<event>
 5   0  0.6825300E-03  0.9118800E+02  0.7818608E-02  0.1180000E+00
       11   -1    0    0    0    0  0.00000000000E+00  0.00000000000E+00  0.39999999673E+01  0.40000000000E+01  0.51109989000E-03 0.  1.
     -623   -1    0    0    0    0  0.00000000000E+00  0.00000000000E+00  0.12525980253E-10  0.17130000000E+03  0.17130000000E+03 0.  1.
       11    1    1    2    0    0 -0.17312608665E+00  0.10409621294E-01 -0.44964180077E-01  0.17917321453E+00  0.51109989000E-03 0.  1.
     -623    1    1    2    0    0  0.14399285737E+00  0.13706280156E+00  0.10803021644E+01  0.17130352178E+03  0.17130000000E+03 0.  1.
      622    1    1    2    0    0  0.29133229275E-01 -0.14747242285E+00  0.29646619830E+01  0.38173050093E+01  0.24000000000E+01 0.  1.
</event>
<event>
 5   0  0.6825300E-03  0.9118800E+02  0.7818608E-02  0.1180000E+00
       11   -1    0    0    0    0  0.00000000000E+00  0.00000000000E+00  0.39999999673E+01  0.40000000000E+01  0.51109989000E-03 0.  1.
     -623   -1    0    0    0    0  0.00000000000E+00  0.00000000000E+00  0.12525980253E-10  0.17130000000E+03  0.17130000000E+03 0. -1.
       11    1    1    2    0    0 -0.27071328108E-01  0.15901239369E+00  0.22411353184E-01  0.16285063134E+00  0.51109989000E-03 0.  1.
     -623    1    1    2    0    0  0.17253881508E+00 -0.13364528524E+00  0.99114455792E+00  0.17130300639E+03  0.17130000000E+03 0. -1.
      622    1    1    2    0    0 -0.14546748698E+00 -0.25367108457E-01  0.29864440563E+01  0.38341429787E+01  0.24000000000E+01 0.  1.
</event>
<event>
 5   0  0.6825300E-03  0.9118800E+02  0.7818608E-02  0.1180000E+00
       11   -1    0    0    0    0  0.00000000000E+00  0.00000000000E+00  0.39999999673E+01  0.40000000000E+01  0.51109989000E-03 0.  1.
     -623   -1    0    0    0    0  0.00000000000E+00  0.00000000000E+00  0.12525980253E-10  0.17130000000E+03  0.17130000000E+03 0.  1.
       11    1    1    2    0    0 -0.22303101048E+00 -0.26150038388E-01  0.33288193878E+00  0.40154364960E+00  0.51109989000E-03 0.  1.
     -623    1    1    2    0    0  0.24343643136E+00  0.45133271006E-01  0.99013487675E+00  0.17130304044E+03  0.17130000000E+03 0.  1.
      622    1    1    2    0    0 -0.20405420884E-01 -0.18983232619E-01  0.26769831518E+01  0.35954159063E+01  0.24000000000E+01 0.  1.
</event>
<event>
 5   0  0.6825300E-03  0.9118800E+02  0.7818608E-02  0.1180000E+00
       11   -1    0    0    0    0  0.00000000000E+00  0.00000000000E+00  0.39999999673E+01  0.40000000000E+01  0.51109989000E-03 0. -1.
     -623   -1    0    0    0    0  0.00000000000E+00  0.00000000000E+00  0.12525980253E-10  0.17130000000E+03  0.17130000000E+03 0. -1.
       11    1    1    2    0    0  0.81517123410E-02  0.74896732514E-01  0.68644323532E-01  0.10192288914E+00  0.51109989000E-03 0. -1.
     -623    1    1    2    0    0 -0.29835418892E-01 -0.25215953075E+00  0.86794103612E+00  0.17130238701E+03  0.17130000000E+03 0. -1.
      622    1    1    2    0    0  0.21683706551E-01  0.17726279823E+00  0.30634146077E+01  0.38956900982E+01  0.24000000000E+01 0. -1.
</event>
<event>
 5   0  0.6825300E-03  0.9118800E+02  0.7818608E-02  0.1180000E+00
       11   -1    0    0    0    0  0.00000000000E+00  0.00000000000E+00  0.39999999673E+01  0.40000000000E+01  0.51109989000E-03 0.  1.
     -623   -1    0    0    0    0  0.00000000000E+00  0.00000000000E+00  0.12525980253E-10  0.17130000000E+03  0.17130000000E+03 0. -1.
       11    1    1    2    0    0  0.14818698834E+00  0.50020147163E-01 -0.69526810864E-01  0.17115968359E+00  0.51109989000E-03 0.  1.
     -623    1    1    2    0    0  0.82427042069E-01 -0.70474723284E-01  0.10998247448E+01  0.17130356498E+03  0.17130000000E+03 0. -1.
      622    1    1    2    0    0 -0.23061403041E+00  0.20454576121E-01  0.29697020334E+01  0.38252753349E+01  0.24000000000E+01 0.  1.
</event>
<event>
 5   0  0.6825300E-03  0.9118800E+02  0.7818608E-02  0.1180000E+00
       11   -1    0    0    0    0  0.00000000000E+00  0.00000000000E+00  0.39999999673E+01  0.40000000000E+01  0.51109989000E-03 0.  1.
     -623   -1    0    0    0    0  0.00000000000E+00  0.00000000000E+00  0.12525980253E-10  0.17130000000E+03  0.17130000000E+03 0. -1.
       11    1    1    2    0    0 -0.52625862869E-01 -0.11482288887E+00 -0.11949092422E-01  0.12687324101E+00  0.51109989000E-03 0.  1.
     -623    1    1    2    0    0 -0.10065999131E+00  0.24067131871E+00  0.98235706500E+00  0.17130301539E+03  0.17130000000E+03 0. -1.
      622    1    1    2    0    0  0.15328585417E+00 -0.12584842983E+00  0.30295919948E+01  0.38701113725E+01  0.24000000000E+01 0.  1.
</event>
<event>
 5   0  0.6825300E-03  0.9118800E+02  0.7818608E-02  0.1180000E+00
       11   -1    0    0    0    0  0.00000000000E+00  0.00000000000E+00  0.39999999673E+01  0.40000000000E+01  0.51109989000E-03 0.  1.
     -623   -1    0    0    0    0  0.00000000000E+00  0.00000000000E+00  0.12525980253E-10  0.17130000000E+03  0.17130000000E+03 0.  1.
       11    1    1    2    0    0  0.37901954601E-01  0.30755220301E+00 -0.13490408610E+00  0.33797084106E+00  0.51109989000E-03 0.  1.
     -623    1    1    2    0    0  0.21886692811E+00 -0.11811011456E+00  0.13952443341E+01  0.17130586260E+03  0.17130000000E+03 0.  1.
      622    1    1    2    0    0 -0.25676888271E+00 -0.18944208844E+00  0.27396597194E+01  0.36561665638E+01  0.24000000000E+01 0.  1.
</event>
<event>
 5   0  0.6825300E-03  0.9118800E+02  0.7818608E-02  0.1180000E+00
       11   -1    0    0    0    0  0.00000000000E+00  0.00000000000E+00  0.39999999673E+01  0.40000000000E+01  0.51109989000E-03 0.  1.
     -623   -1    0    0    0    0  0.00000000000E+00  0.00000000000E+00  0.12525980253E-10  0.17130000000E+03  0.17130000000E+03 0. -1.
       11    1    1    2    0    0  0.36434225948E+00 -0.39346244861E+00  0.32722194639E+00  0.62819777453E+00  0.51109989000E-03 0.  1.
     -623    1    1    2    0    0 -0.33738571270E+00  0.12950160184E+01  0.15011287051E+01  0.17131180427E+03  0.17130000000E+03 0. -1.
      622    1    1    2    0    0 -0.26956546776E-01 -0.90155356984E+00  0.21716493159E+01  0.33599979533E+01  0.24000000000E+01 0.  1.
</event>
<event>
 5   0  0.6825300E-03  0.9118800E+02  0.7818608E-02  0.1180000E+00
       11   -1    0    0    0    0  0.00000000000E+00  0.00000000000E+00  0.39999999673E+01  0.40000000000E+01  0.51109989000E-03 0. -1.
     -623   -1    0    0    0    0  0.00000000000E+00  0.00000000000E+00  0.12525980253E-10  0.17130000000E+03  0.17130000000E+03 0. -1.
       11    1    1    2    0    0  0.17756864805E-01  0.42783581907E-01 -0.12611252547E-01  0.48010895038E-01  0.51109989000E-03 0. -1.
     -623    1    1    2    0    0  0.72161422469E-01 -0.12351823006E+00  0.87806813496E+00  0.17130231016E+03  0.17130000000E+03 0. -1.
      622    1    1    2    0    0 -0.89918287274E-01  0.80734648152E-01  0.31345430850E+01  0.39496789405E+01  0.24000000000E+01 0. -1.
</event>
<event>
 5   0  0.6825300E-03  0.9118800E+02  0.7818608E-02  0.1180000E+00
       11   -1    0    0    0    0  0.00000000000E+00  0.00000000000E+00  0.39999999673E+01  0.40000000000E+01  0.51109989000E-03 0. -1.
     -623   -1    0    0    0    0  0.00000000000E+00  0.00000000000E+00  0.12525980253E-10  0.17130000000E+03  0.17130000000E+03 0. -1.
       11    1    1    2    0    0  0.23364077818E-01  0.18502251943E+00  0.33957529256E+00  0.38741560806E+00  0.51109989000E-03 0. -1.
     -623    1    1    2    0    0 -0.97132275354E-01  0.10052173927E+00  0.98029055340E+00  0.17130286194E+03  0.17130000000E+03 0. -1.
      622    1    1    2    0    0  0.73768197536E-01 -0.28554425870E+00  0.26801341214E+01  0.36097224518E+01  0.24000000000E+01 0. -1.
</event>
<event>
 5   0  0.6825300E-03  0.9118800E+02  0.7818608E-02  0.1180000E+00
       11   -1    0    0    0    0  0.00000000000E+00  0.00000000000E+00  0.39999999673E+01  0.40000000000E+01  0.51109989000E-03 0.  1.
     -623   -1    0    0    0    0  0.00000000000E+00  0.00000000000E+00  0.12525980253E-10  0.17130000000E+03  0.17130000000E+03 0.  1.
       11    1    1    2    0    0  0.13010147474E+00  0.16350289124E+00 -0.16038188821E+00  0.26340501221E+00  0.51109989000E-03 0.  1.
     -623    1    1    2    0    0 -0.54170539038E+00 -0.31200256091E+00  0.13384835340E+01  0.17130636978E+03  0.17130000000E+03 0.  1.
      622    1    1    2    0    0  0.41160391564E+00  0.14849966968E+00  0.28218983216E+01  0.37302252040E+01  0.24000000000E+01 0.  1.
</event>
<event>
 5   0  0.6825300E-03  0.9118800E+02  0.7818608E-02  0.1180000E+00
       11   -1    0    0    0    0  0.00000000000E+00  0.00000000000E+00  0.39999999673E+01  0.40000000000E+01  0.51109989000E-03 0.  1.
     -623   -1    0    0    0    0  0.00000000000E+00  0.00000000000E+00  0.12525980253E-10  0.17130000000E+03  0.17130000000E+03 0.  1.
       11    1    1    2    0    0  0.10597634884E+00 -0.66981304669E-01 -0.10331218144E-02  0.12537467947E+00  0.51109989000E-03 0.  1.
     -623    1    1    2    0    0  0.11146500615E+00  0.72237290776E+00  0.10448279059E+01  0.17130474574E+03  0.17130000000E+03 0.  1.
      622    1    1    2    0    0 -0.21744135498E+00 -0.65539160309E+00  0.29562051833E+01  0.38698795824E+01  0.24000000000E+01 0.  1.
</event>
<event>
 5   0  0.6825300E-03  0.9118800E+02  0.7818608E-02  0.1180000E+00
       11   -1    0    0    0    0  0.00000000000E+00  0.00000000000E+00  0.39999999673E+01  0.40000000000E+01  0.51109989000E-03 0.  1.
     -623   -1    0    0    0    0  0.00000000000E+00  0.00000000000E+00  0.12525980253E-10  0.17130000000E+03  0.17130000000E+03 0. -1.
       11    1    1    2    0    0  0.30061494773E+00  0.13192039074E+00  0.75679517286E+00  0.82493122815E+00  0.51109989000E-03 0.  1.
     -623    1    1    2    0    0 -0.56183726788E+00  0.25798153124E+00  0.12268092286E+01  0.17130550860E+03  0.17130000000E+03 0. -1.
      622    1    1    2    0    0  0.26122232015E+00 -0.38990192198E+00  0.20163955659E+01  0.31695601725E+01  0.24000000000E+01 0.  1.
</event>
<event>
 5   0  0.6825300E-03  0.9118800E+02  0.7818608E-02  0.1180000E+00
       11   -1    0    0    0    0  0.00000000000E+00  0.00000000000E+00  0.39999999673E+01  0.40000000000E+01  0.51109989000E-03 0.  1.
     -623   -1    0    0    0    0  0.00000000000E+00  0.00000000000E+00  0.12525980253E-10  0.17130000000E+03  0.17130000000E+03 0.  1.
       11    1    1    2    0    0  0.21158242157E-02  0.83595690240E-01  0.45149699215E+00  0.45917590450E+00  0.51109989000E-03 0.  1.
     -623    1    1    2    0    0 -0.18031925191E+00 -0.38340144528E+00  0.97313480923E+00  0.17130328807E+03  0.17130000000E+03 0.  1.
      622    1    1    2    0    0  0.17820342769E+00  0.29980575504E+00  0.25753681660E+01  0.35375360271E+01  0.24000000000E+01 0.  1.
</event>
<event>
 5   0  0.6825300E-03  0.9118800E+02  0.7818608E-02  0.1180000E+00
       11   -1    0    0    0    0  0.00000000000E+00  0.00000000000E+00  0.39999999673E+01  0.40000000000E+01  0.51109989000E-03 0. -1.
     -623   -1    0    0    0    0  0.00000000000E+00  0.00000000000E+00  0.12525980253E-10  0.17130000000E+03  0.17130000000E+03 0.  1.
       11    1    1    2    0    0  0.17138655588E-01  0.17916346275E-01 -0.51401518555E-01  0.57071063680E-01  0.51109989000E-03 0. -1.
     -623    1    1    2    0    0  0.16871382975E+00 -0.91854216971E-01  0.93277818222E+00  0.17130264731E+03  0.17130000000E+03 0.  1.
      622    1    1    2    0    0 -0.18585248534E+00  0.73937870696E-01  0.31186233037E+01  0.39402816226E+01  0.24000000000E+01 0. -1.
</event>
<event>
 5   0  0.6825300E-03  0.9118800E+02  0.7818608E-02  0.1180000E+00
       11   -1    0    0    0    0  0.00000000000E+00  0.00000000000E+00  0.39999999673E+01  0.40000000000E+01  0.51109989000E-03 0.  1.
     -623   -1    0    0    0    0  0.00000000000E+00  0.00000000000E+00  0.12525980253E-10  0.17130000000E+03  0.17130000000E+03 0.  1.
       11    1    1    2    0    0 -0.32369427325E+00 -0.15908453213E+00  0.31231532785E+00  0.47710271025E+00  0.51109989000E-03 0.  1.
     -623    1    1    2    0    0  0.12330136826E+01 -0.28575319443E+00  0.13303946988E+01  0.17130984189E+03  0.17130000000E+03 0.  1.
      622    1    1    2    0    0 -0.90931940935E+00  0.44483772656E+00  0.23572899407E+01  0.35130554018E+01  0.24000000000E+01 0.  1.
</event>
<event>
 5   0  0.6825300E-03  0.9118800E+02  0.7818608E-02  0.1180000E+00
       11   -1    0    0    0    0  0.00000000000E+00  0.00000000000E+00  0.39999999673E+01  0.40000000000E+01  0.51109989000E-03 0. -1.
     -623   -1    0    0    0    0  0.00000000000E+00  0.00000000000E+00  0.12525980253E-10  0.17130000000E+03  0.17130000000E+03 0. -1.
       11    1    1    2    0    0 -0.72234468378E-01  0.31224249991E-01  0.20388199189E+00  0.21854267328E+00  0.51109989000E-03 0. -1.
     -623    1    1    2    0    0  0.47809870239E-01  0.49768653297E+00  0.92651541527E+00  0.17130323525E+03  0.17130000000E+03 0. -1.
      622    1    1    2    0    0  0.24424598139E-01 -0.52891078296E+00  0.28696025602E+01  0.37782220727E+01  0.24000000000E+01 0. -1.
</event>
<event>
 5   0  0.6825300E-03  0.9118800E+02  0.7818608E-02  0.1180000E+00
       11   -1    0    0    0    0  0.00000000000E+00  0.00000000000E+00  0.39999999673E+01  0.40000000000E+01  0.51109989000E-03 0.  1.
     -623   -1    0    0    0    0  0.00000000000E+00  0.00000000000E+00  0.12525980253E-10  0.17130000000E+03  0.17130000000E+03 0. -1.
       11    1    1    2    0    0  0.70121133104E-01 -0.13738624184E+00  0.83168436727E-01  0.17524041442E+00  0.51109989000E-03 0.  1.
     -623    1    1    2    0    0 -0.13951055943E+00  0.20640135691E+00  0.94396517421E+00  0.17130278204E+03  0.17130000000E+03 0. -1.
      622    1    1    2    0    0  0.69389426326E-01 -0.69015115065E-01  0.29728663564E+01  0.38219775446E+01  0.24000000000E+01 0.  1.
</event>
<event>
 5   0  0.6825300E-03  0.9118800E+02  0.7818608E-02  0.1180000E+00
       11   -1    0    0    0    0  0.00000000000E+00  0.00000000000E+00  0.39999999673E+01  0.40000000000E+01  0.51109989000E-03 0.  1.
     -623   -1    0    0    0    0  0.00000000000E+00  0.00000000000E+00  0.12525980253E-10  0.17130000000E+03  0.17130000000E+03 0.  1.
       11    1    1    2    0    0  0.13894685984E+00 -0.29529269028E-01  0.11619039011E+00  0.18351750752E+00  0.51109989000E-03 0.  1.
     -623    1    1    2    0    0 -0.48534939196E+00  0.29827981619E+00  0.95364955316E+00  0.17130360178E+03  0.17130000000E+03 0.  1.
      622    1    1    2    0    0  0.34640253212E+00 -0.26875054716E+00  0.29301600241E+01  0.38128807138E+01  0.24000000000E+01 0.  1.
</event>
<event>
 5   0  0.6825300E-03  0.9118800E+02  0.7818608E-02  0.1180000E+00
       11   -1    0    0    0    0  0.00000000000E+00  0.00000000000E+00  0.39999999673E+01  0.40000000000E+01  0.51109989000E-03 0.  1.
     -623   -1    0    0    0    0  0.00000000000E+00  0.00000000000E+00  0.12525980253E-10  0.17130000000E+03  0.17130000000E+03 0. -1.
       11    1    1    2    0    0 -0.60471592000E-01  0.12196655890E+00  0.19832065700E-01  0.13757262439E+00  0.51109989000E-03 0.  1.
     -623    1    1    2    0    0  0.21891692969E-03 -0.24067010337E+00  0.96047818660E+00  0.17130286174E+03  0.17130000000E+03 0. -1.
      622    1    1    2    0    0  0.60252675070E-01  0.11870354447E+00  0.30196897151E+01  0.38595656351E+01  0.24000000000E+01 0.  1.
</event>
<event>
 5   0  0.6825300E-03  0.9118800E+02  0.7818608E-02  0.1180000E+00
       11   -1    0    0    0    0  0.00000000000E+00  0.00000000000E+00  0.39999999673E+01  0.40000000000E+01  0.51109989000E-03 0. -1.
     -623   -1    0    0    0    0  0.00000000000E+00  0.00000000000E+00  0.12525980253E-10  0.17130000000E+03  0.17130000000E+03 0.  1.
       11    1    1    2    0    0  0.15141001828E+00  0.28436943195E+00 -0.16662098670E+00  0.36270343518E+00  0.51109989000E-03 0. -1.
     -623    1    1    2    0    0  0.56536757769E-01 -0.84841192275E+00  0.15124361947E+01  0.17130878688E+03  0.17130000000E+03 0.  1.
      622    1    1    2    0    0 -0.20794677605E+00  0.56404249080E+00  0.26541847593E+01  0.36285096844E+01  0.24000000000E+01 0. -1.
</event>
<event>
 5   0  0.6825300E-03  0.9118800E+02  0.7818608E-02  0.1180000E+00
       11   -1    0    0    0    0  0.00000000000E+00  0.00000000000E+00  0.39999999673E+01  0.40000000000E+01  0.51109989000E-03 0. -1.
     -623   -1    0    0    0    0  0.00000000000E+00  0.00000000000E+00  0.12525980253E-10  0.17130000000E+03  0.17130000000E+03 0. -1.
       11    1    1    2    0    0 -0.17491285241E+00 -0.51700290148E-01  0.67466733845E-01  0.19447222768E+00  0.51109989000E-03 0. -1.
     -623    1    1    2    0    0  0.28757059957E+00  0.93800854395E-02  0.98564554320E+00  0.17130307727E+03  0.17130000000E+03 0. -1.
      622    1    1    2    0    0 -0.11265774716E+00  0.42320204708E-01  0.29468876903E+01  0.38024505029E+01  0.24000000000E+01 0. -1.
</event>
<event>
 5   0  0.6825300E-03  0.9118800E+02  0.7818608E-02  0.1180000E+00
       11   -1    0    0    0    0  0.00000000000E+00  0.00000000000E+00  0.39999999673E+01  0.40000000000E+01  0.51109989000E-03 0. -1.
     -623   -1    0    0    0    0  0.00000000000E+00  0.00000000000E+00  0.12525980253E-10  0.17130000000E+03  0.17130000000E+03 0.  1.
       11    1    1    2    0    0  0.18243140259E-01 -0.10089163494E+00  0.35568879926E-04  0.10252900397E+00  0.51109989000E-03 0. -1.
     -623    1    1    2    0    0 -0.99739540878E-01 -0.24275988358E+00  0.95311117010E+00  0.17130285258E+03  0.17130000000E+03 0.  1.
      622    1    1    2    0    0  0.81496400619E-01  0.34365151852E+00  0.30468532284E+01  0.38946184184E+01  0.24000000000E+01 0. -1.
</event>
<event>
 5   0  0.6825300E-03  0.9118800E+02  0.7818608E-02  0.1180000E+00
       11   -1    0    0    0    0  0.00000000000E+00  0.00000000000E+00  0.39999999673E+01  0.40000000000E+01  0.51109989000E-03 0.  1.
     -623   -1    0    0    0    0  0.00000000000E+00  0.00000000000E+00  0.12525980253E-10  0.17130000000E+03  0.17130000000E+03 0.  1.
       11    1    1    2    0    0  0.38713927579E-01 -0.43934413237E-01 -0.15398187469E-01  0.60550526448E-01  0.51109989000E-03 0.  1.
     -623    1    1    2    0    0  0.10921709216E+00 -0.14802909820E+00  0.90397341312E+00  0.17130248395E+03  0.17130000000E+03 0.  1.
      622    1    1    2    0    0 -0.14793101974E+00  0.19196351144E+00  0.31114247417E+01  0.39369655192E+01  0.24000000000E+01 0.  1.
</event>
<event>
 5   0  0.6825300E-03  0.9118800E+02  0.7818608E-02  0.1180000E+00
       11   -1    0    0    0    0  0.00000000000E+00  0.00000000000E+00  0.39999999673E+01  0.40000000000E+01  0.51109989000E-03 0. -1.
     -623   -1    0    0    0    0  0.00000000000E+00  0.00000000000E+00  0.12525980253E-10  0.17130000000E+03  0.17130000000E+03 0.  1.
       11    1    1    2    0    0 -0.11082937295E+00  0.14567583825E+00  0.65058255098E-01  0.19426126103E+00  0.51109989000E-03 0. -1.
     -623    1    1    2    0    0  0.36551111151E+00 -0.79155385795E+00  0.10715063746E+01  0.17130556991E+03  0.17130000000E+03 0.  1.
      622    1    1    2    0    0 -0.25468173856E+00  0.64587801970E+00  0.28634353377E+01  0.38001688301E+01  0.24000000000E+01 0. -1.
</event>
<event>
 5   0  0.6825300E-03  0.9118800E+02  0.7818608E-02  0.1180000E+00
       11   -1    0    0    0    0  0.00000000000E+00  0.00000000000E+00  0.39999999673E+01  0.40000000000E+01  0.51109989000E-03 0.  1.
     -623   -1    0    0    0    0  0.00000000000E+00  0.00000000000E+00  0.12525980253E-10  0.17130000000E+03  0.17130000000E+03 0. -1.
       11    1    1    2    0    0 -0.23275331454E+00 -0.72995300009E-01  0.31778622772E+00  0.40061298906E+00  0.51109989000E-03 0.  1.
     -623    1    1    2    0    0  0.44238255362E+00 -0.14544724966E+00  0.10218676582E+01  0.17130368084E+03  0.17130000000E+03 0. -1.
      622    1    1    2    0    0 -0.20962923907E+00  0.21844254967E+00  0.26603460814E+01  0.35957061668E+01  0.24000000000E+01 0.  1.
</event>
<event>
 5   0  0.6825300E-03  0.9118800E+02  0.7818608E-02  0.1180000E+00
       11   -1    0    0    0    0  0.00000000000E+00  0.00000000000E+00  0.39999999673E+01  0.40000000000E+01  0.51109989000E-03 0.  1.
     -623   -1    0    0    0    0  0.00000000000E+00  0.00000000000E+00  0.12525980253E-10  0.17130000000E+03  0.17130000000E+03 0.  1.
       11    1    1    2    0    0  0.55453975335E-01 -0.27123276690E-01  0.48768722087E+00  0.49157898871E+00  0.51109989000E-03 0.  1.
     -623    1    1    2    0    0 -0.99154443080E+00 -0.41650180899E+00  0.11834433956E+01  0.17130746385E+03  0.17130000000E+03 0.  1.
      622    1    1    2    0    0  0.93609045546E+00  0.44362508568E+00  0.23288693509E+01  0.35009571564E+01  0.24000000000E+01 0.  0.
</event>
<event>
 5   0  0.6825300E-03  0.9118800E+02  0.7818608E-02  0.1180000E+00
       11   -1    0    0    0    0  0.00000000000E+00  0.00000000000E+00  0.39999999673E+01  0.40000000000E+01  0.51109989000E-03 0. -1.
     -623   -1    0    0    0    0  0.00000000000E+00  0.00000000000E+00  0.12525980253E-10  0.17130000000E+03  0.17130000000E+03 0.  1.
       11    1    1    2    0    0 -0.87798815154E-01  0.30918428498E+00  0.24774257629E-01  0.32236249640E+00  0.51109989000E-03 0. -1.
     -623    1    1    2    0    0  0.36337763074E+00 -0.31918484432E+00  0.12088920998E+01  0.17130494839E+03  0.17130000000E+03 0.  1.
      622    1    1    2    0    0 -0.27557881559E+00  0.10000559342E-01  0.27663336100E+01  0.36726891151E+01  0.24000000000E+01 0. -1.
</event>
<event>
 5   0  0.6825300E-03  0.9118800E+02  0.7818608E-02  0.1180000E+00
       11   -1    0    0    0    0  0.00000000000E+00  0.00000000000E+00  0.39999999673E+01  0.40000000000E+01  0.51109989000E-03 0. -1.
     -623   -1    0    0    0    0  0.00000000000E+00  0.00000000000E+00  0.12525980253E-10  0.17130000000E+03  0.17130000000E+03 0. -1.
       11    1    1    2    0    0 -0.20731113606E-01 -0.16494268441E+00  0.73390210865E-02  0.16640309691E+00  0.51109989000E-03 0. -1.
     -623    1    1    2    0    0  0.26790949575E+00  0.60522874123E+00  0.10520893173E+01  0.17130450948E+03  0.17130000000E+03 0. -1.
      622    1    1    2    0    0 -0.24717838215E+00 -0.44028605682E+00  0.29405716290E+01  0.38290874200E+01  0.24000000000E+01 0. -1.
</event>
<event>
 5   0  0.6825300E-03  0.9118800E+02  0.7818608E-02  0.1180000E+00
       11   -1    0    0    0    0  0.00000000000E+00  0.00000000000E+00  0.39999999673E+01  0.40000000000E+01  0.51109989000E-03 0. -1.
     -623   -1    0    0    0    0  0.00000000000E+00  0.00000000000E+00  0.12525980253E-10  0.17130000000E+03  0.17130000000E+03 0. -1.
       11    1    1    2    0    0 -0.73824450795E-01  0.38495322357E-02  0.70294711605E-03  0.73929857239E-01  0.51109989000E-03 0. -1.
     -623    1    1    2    0    0 -0.29440784599E-01  0.30098306569E-01  0.89708310472E+00  0.17130235413E+03  0.17130000000E+03 0. -1.
      622    1    1    2    0    0  0.10326523539E+00 -0.33947838805E-01  0.31022139155E+01  0.39237160119E+01  0.24000000000E+01 0. -1.
</event>
<event>
 5   0  0.6825300E-03  0.9118800E+02  0.7818608E-02  0.1180000E+00
       11   -1    0    0    0    0  0.00000000000E+00  0.00000000000E+00  0.39999999673E+01  0.40000000000E+01  0.51109989000E-03 0.  1.
     -623   -1    0    0    0    0  0.00000000000E+00  0.00000000000E+00  0.12525980253E-10  0.17130000000E+03  0.17130000000E+03 0.  1.
       11    1    1    2    0    0  0.41801526864E-01 -0.30928314855E-01  0.14963281699E+00  0.15841139306E+00  0.51109989000E-03 0.  1.
     -623    1    1    2    0    0 -0.47284706277E-01  0.89912961137E-01  0.85408476272E+00  0.17130215930E+03  0.17130000000E+03 0.  1.
      622    1    1    2    0    0  0.54831794135E-02 -0.58984646283E-01  0.29962823876E+01  0.38394293066E+01  0.24000000000E+01 0.  1.
</event>
<event>
 5   0  0.6825300E-03  0.9118800E+02  0.7818608E-02  0.1180000E+00
       11   -1    0    0    0    0  0.00000000000E+00  0.00000000000E+00  0.39999999673E+01  0.40000000000E+01  0.51109989000E-03 0.  1.
     -623   -1    0    0    0    0  0.00000000000E+00  0.00000000000E+00  0.12525980253E-10  0.17130000000E+03  0.17130000000E+03 0.  1.
       11    1    1    2    0    0 -0.13242529137E+00 -0.15316298667E+00  0.37933349991E+00  0.42998781804E+00  0.51109989000E-03 0.  1.
     -623    1    1    2    0    0  0.17270001053E+00 -0.92636514692E-01  0.99358019542E+00  0.17130299358E+03  0.17130000000E+03 0.  1.
      622    1    1    2    0    0 -0.40274719158E-01  0.24579950136E+00  0.26270862720E+01  0.35670186050E+01  0.24000000000E+01 0.  1.
</event>
<event>
 5   0  0.6825300E-03  0.9118800E+02  0.7818608E-02  0.1180000E+00
       11   -1    0    0    0    0  0.00000000000E+00  0.00000000000E+00  0.39999999673E+01  0.40000000000E+01  0.51109989000E-03 0.  1.
     -623   -1    0    0    0    0  0.00000000000E+00  0.00000000000E+00  0.12525980253E-10  0.17130000000E+03  0.17130000000E+03 0. -1.
       11    1    1    2    0    0 -0.13000881932E+00 -0.10352987833E+00 -0.37332080427E-01  0.17033694332E+00  0.51109989000E-03 0.  1.
     -623    1    1    2    0    0  0.20972939638E+00 -0.41079632745E-02  0.10603758100E+01  0.17130341036E+03  0.17130000000E+03 0. -1.
      622    1    1    2    0    0 -0.79720577066E-01  0.10763784161E+00  0.29769562378E+01  0.38262526991E+01  0.24000000000E+01 0.  1.
</event>
<event>
 5   0  0.6825300E-03  0.9118800E+02  0.7818608E-02  0.1180000E+00
       11   -1    0    0    0    0  0.00000000000E+00  0.00000000000E+00  0.39999999673E+01  0.40000000000E+01  0.51109989000E-03 0.  1.
     -623   -1    0    0    0    0  0.00000000000E+00  0.00000000000E+00  0.12525980253E-10  0.17130000000E+03  0.17130000000E+03 0.  1.
       11    1    1    2    0    0 -0.27842721623E-01 -0.37649370057E-01  0.99601797330E-01  0.11006121690E+00  0.51109989000E-03 0.  1.
     -623    1    1    2    0    0  0.15477762197E+00  0.53404022166E-01  0.84450818378E+00  0.17130215995E+03  0.17130000000E+03 0.  1.
      622    1    1    2    0    0 -0.12693490034E+00 -0.15754652110E-01  0.30558899862E+01  0.38877788371E+01  0.24000000000E+01 0.  1.
</event>
<event>
 5   0  0.6825300E-03  0.9118800E+02  0.7818608E-02  0.1180000E+00
       11   -1    0    0    0    0  0.00000000000E+00  0.00000000000E+00  0.39999999673E+01  0.40000000000E+01  0.51109989000E-03 0. -1.
     -623   -1    0    0    0    0  0.00000000000E+00  0.00000000000E+00  0.12525980253E-10  0.17130000000E+03  0.17130000000E+03 0.  1.
       11    1    1    2    0    0  0.16246314139E+00  0.17093768788E-01  0.21876476840E+00  0.27302885261E+00  0.51109989000E-03 0. -1.
     -623    1    1    2    0    0 -0.86928288720E-01  0.23718413759E+00  0.94590381154E+00  0.17130279784E+03  0.17130000000E+03 0.  1.
      622    1    1    2    0    0 -0.75534852669E-01 -0.25427790638E+00  0.28353313874E+01  0.37241733102E+01  0.24000000000E+01 0. -1.
</event>
<event>
 5   0  0.6825300E-03  0.9118800E+02  0.7818608E-02  0.1180000E+00
       11   -1    0    0    0    0  0.00000000000E+00  0.00000000000E+00  0.39999999673E+01  0.40000000000E+01  0.51109989000E-03 0. -1.
     -623   -1    0    0    0    0  0.00000000000E+00  0.00000000000E+00  0.12525980253E-10  0.17130000000E+03  0.17130000000E+03 0.  1.
       11    1    1    2    0    0  0.39200511969E-01  0.17424790824E+00  0.34622707825E-01  0.18192857605E+00  0.51109989000E-03 0. -1.
     -623    1    1    2    0    0 -0.17783396937E+00 -0.27947541609E+00  0.10052388276E+01  0.17130326978E+03  0.17130000000E+03 0.  1.
      622    1    1    2    0    0  0.13863345740E+00  0.10522750785E+00  0.29601384320E+01  0.38148016463E+01  0.24000000000E+01 0. -1.
</event>
<event>
 5   0  0.6825300E-03  0.9118800E+02  0.7818608E-02  0.1180000E+00
       11   -1    0    0    0    0  0.00000000000E+00  0.00000000000E+00  0.39999999673E+01  0.40000000000E+01  0.51109989000E-03 0.  1.
     -623   -1    0    0    0    0  0.00000000000E+00  0.00000000000E+00  0.12525980253E-10  0.17130000000E+03  0.17130000000E+03 0. -1.
       11    1    1    2    0    0 -0.21687490671E+00 -0.13164131050E+00  0.15673746017E+00  0.29821309903E+00  0.51109989000E-03 0.  1.
     -623    1    1    2    0    0  0.14260030296E+00  0.20045367665E-01  0.10322499207E+01  0.17130317066E+03  0.17130000000E+03 0. -1.
      622    1    1    2    0    0  0.74274603752E-01  0.11159594284E+00  0.28110125865E+01  0.36986162457E+01  0.24000000000E+01 0.  1.
</event>
<event>
 5   0  0.6825300E-03  0.9118800E+02  0.7818608E-02  0.1180000E+00
       11   -1    0    0    0    0  0.00000000000E+00  0.00000000000E+00  0.39999999673E+01  0.40000000000E+01  0.51109989000E-03 0. -1.
     -623   -1    0    0    0    0  0.00000000000E+00  0.00000000000E+00  0.12525980253E-10  0.17130000000E+03  0.17130000000E+03 0. -1.
       11    1    1    2    0    0 -0.51498536632E+00 -0.24237109884E+00  0.34523199944E+00  0.66568691720E+00  0.51109989000E-03 0. -1.
     -623    1    1    2    0    0  0.70307115555E+00  0.58071610667E+00  0.13844459480E+01  0.17130802150E+03  0.17130000000E+03 0. -1.
      622    1    1    2    0    0 -0.18808578923E+00 -0.33834500783E+00  0.22703220199E+01  0.33262915811E+01  0.24000000000E+01 0. -1.
</event>
<event>
 5   0  0.6825300E-03  0.9118800E+02  0.7818608E-02  0.1180000E+00
       11   -1    0    0    0    0  0.00000000000E+00  0.00000000000E+00  0.39999999673E+01  0.40000000000E+01  0.51109989000E-03 0. -1.
     -623   -1    0    0    0    0  0.00000000000E+00  0.00000000000E+00  0.12525980253E-10  0.17130000000E+03  0.17130000000E+03 0. -1.
       11    1    1    2    0    0 -0.26797197690E+00  0.13856579917E+00  0.31040966043E+00  0.43285549507E+00  0.51109989000E-03 0. -1.
     -623    1    1    2    0    0  0.51326727436E-01 -0.31606786285E+00  0.10704117199E+01  0.17130364361E+03  0.17130000000E+03 0. -1.
      622    1    1    2    0    0  0.21664524946E+00  0.17750206369E+00  0.26191785870E+01  0.35635008934E+01  0.24000000000E+01 0. -1.
</event>
<event>
 5   0  0.6825300E-03  0.9118800E+02  0.7818608E-02  0.1180000E+00
       11   -1    0    0    0    0  0.00000000000E+00  0.00000000000E+00  0.39999999673E+01  0.40000000000E+01  0.51109989000E-03 0.  1.
     -623   -1    0    0    0    0  0.00000000000E+00  0.00000000000E+00  0.12525980253E-10  0.17130000000E+03  0.17130000000E+03 0. -1.
       11    1    1    2    0    0  0.35201955411E+00 -0.13042377263E+00 -0.11173837432E+00  0.39168080431E+00  0.51109989000E-03 0.  1.
     -623    1    1    2    0    0  0.45838048070E-01 -0.19395440653E+00  0.14754904263E+01  0.17130647037E+03  0.17130000000E+03 0. -1.
      622    1    1    2    0    0 -0.39785760218E+00  0.32437817915E+00  0.26362479154E+01  0.36018488233E+01  0.24000000000E+01 0.  1.
</event>
<event>
 5   0  0.6825300E-03  0.9118800E+02  0.7818608E-02  0.1180000E+00
       11   -1    0    0    0    0  0.00000000000E+00  0.00000000000E+00  0.39999999673E+01  0.40000000000E+01  0.51109989000E-03 0. -1.
     -623   -1    0    0    0    0  0.00000000000E+00  0.00000000000E+00  0.12525980253E-10  0.17130000000E+03  0.17130000000E+03 0. -1.
       11    1    1    2    0    0 -0.16551623346E+00 -0.23295776627E+00  0.82002579481E+00  0.86839363757E+00  0.51109989000E-03 0. -1.
     -623    1    1    2    0    0 -0.15189232577E+00  0.61990419317E+00  0.12406626931E+01  0.17130568174E+03  0.17130000000E+03 0. -1.
      622    1    1    2    0    0  0.31740855924E+00 -0.38694642690E+00  0.19393114795E+01  0.31259246224E+01  0.24000000000E+01 0. -1.
</event>
<event>
 5   0  0.6825300E-03  0.9118800E+02  0.7818608E-02  0.1180000E+00
       11   -1    0    0    0    0  0.00000000000E+00  0.00000000000E+00  0.39999999673E+01  0.40000000000E+01  0.51109989000E-03 0. -1.
     -623   -1    0    0    0    0  0.00000000000E+00  0.00000000000E+00  0.12525980253E-10  0.17130000000E+03  0.17130000000E+03 0. -1.
       11    1    1    2    0    0  0.94265546217E-02 -0.24334046083E+00  0.30430998376E+00  0.38975411126E+00  0.51109989000E-03 0. -1.
     -623    1    1    2    0    0 -0.27507638639E+00  0.45780591632E+00  0.10256444006E+01  0.17130390305E+03  0.17130000000E+03 0. -1.
      622    1    1    2    0    0  0.26564983177E+00 -0.21446545549E+00  0.26700455830E+01  0.36063428401E+01  0.24000000000E+01 0. -1.
</event>
<event>
 5   0  0.6825300E-03  0.9118800E+02  0.7818608E-02  0.1180000E+00
       11   -1    0    0    0    0  0.00000000000E+00  0.00000000000E+00  0.39999999673E+01  0.40000000000E+01  0.51109989000E-03 0.  1.
     -623   -1    0    0    0    0  0.00000000000E+00  0.00000000000E+00  0.12525980253E-10  0.17130000000E+03  0.17130000000E+03 0. -1.
       11    1    1    2    0    0  0.21798232590E+00  0.50910708639E+00  0.34124207474E+00  0.65050190977E+00  0.51109989000E-03 0.  1.
     -623    1    1    2    0    0 -0.64754670777E+00  0.12733183061E-01  0.14330012252E+01  0.17130721809E+03  0.17130000000E+03 0. -1.
      622    1    1    2    0    0  0.42956438187E+00 -0.52184026945E+00  0.22257566675E+01  0.33422799954E+01  0.24000000000E+01 0.  1.
</event>
<event>
 5   0  0.6825300E-03  0.9118800E+02  0.7818608E-02  0.1180000E+00
       11   -1    0    0    0    0  0.00000000000E+00  0.00000000000E+00  0.39999999673E+01  0.40000000000E+01  0.51109989000E-03 0.  1.
     -623   -1    0    0    0    0  0.00000000000E+00  0.00000000000E+00  0.12525980253E-10  0.17130000000E+03  0.17130000000E+03 0.  1.
       11    1    1    2    0    0  0.43872382309E+00 -0.22867898646E+00  0.22144795119E-01  0.49524067378E+00  0.51109989000E-03 0.  1.
     -623    1    1    2    0    0  0.18892214126E-01  0.63659269922E+00  0.15095206752E+01  0.17130783479E+03  0.17130000000E+03 0.  1.
      622    1    1    2    0    0 -0.45761603721E+00 -0.40791371276E+00  0.24683344971E+01  0.34969245379E+01  0.24000000000E+01 0.  1.
</event>
<event>
 5   0  0.6825300E-03  0.9118800E+02  0.7818608E-02  0.1180000E+00
       11   -1    0    0    0    0  0.00000000000E+00  0.00000000000E+00  0.39999999673E+01  0.40000000000E+01  0.51109989000E-03 0. -1.
     -623   -1    0    0    0    0  0.00000000000E+00  0.00000000000E+00  0.12525980253E-10  0.17130000000E+03  0.17130000000E+03 0. -1.
       11    1    1    2    0    0  0.26155988183E+00  0.34673636580E+00  0.37375025827E-01  0.43593214257E+00  0.51109989000E-03 0. -1.
     -623    1    1    2    0    0 -0.41549902855E+00  0.10705774531E+00  0.13800809867E+01  0.17130609658E+03  0.17130000000E+03 0. -1.
      622    1    1    2    0    0  0.15393914672E+00 -0.45379411111E+00  0.25825439548E+01  0.35579712808E+01  0.24000000000E+01 0. -1.
</event>
<event>
 5   0  0.6825300E-03  0.9118800E+02  0.7818608E-02  0.1180000E+00
       11   -1    0    0    0    0  0.00000000000E+00  0.00000000000E+00  0.39999999673E+01  0.40000000000E+01  0.51109989000E-03 0. -1.
     -623   -1    0    0    0    0  0.00000000000E+00  0.00000000000E+00  0.12525980253E-10  0.17130000000E+03  0.17130000000E+03 0. -1.
       11    1    1    2    0    0  0.11094535464E+00  0.11789509921E+00  0.91151960367E-01  0.18578769398E+00  0.51109989000E-03 0. -1.
     -623    1    1    2    0    0 -0.54768862185E-01 -0.46685121737E+00  0.96989657768E+00  0.17130339065E+03  0.17130000000E+03 0. -1.
      622    1    1    2    0    0 -0.56176492453E-01  0.34895611815E+00  0.29389514293E+01  0.38108216535E+01  0.24000000000E+01 0. -1.
</event>
<event>
 5   0  0.6825300E-03  0.9118800E+02  0.7818608E-02  0.1180000E+00
       11   -1    0    0    0    0  0.00000000000E+00  0.00000000000E+00  0.39999999673E+01  0.40000000000E+01  0.51109989000E-03 0. -1.
     -623   -1    0    0    0    0  0.00000000000E+00  0.00000000000E+00  0.12525980253E-10  0.17130000000E+03  0.17130000000E+03 0.  1.
       11    1    1    2    0    0 -0.38353006107E-01  0.18240956154E+00  0.21276284637E-01  0.18760901558E+00  0.51109989000E-03 0. -1.
     -623    1    1    2    0    0 -0.59237868383E-01  0.11466885227E+00  0.10372546046E+01  0.17130318898E+03  0.17130000000E+03 0.  1.
      622    1    1    2    0    0  0.97590874490E-01 -0.29707841380E+00  0.29414690781E+01  0.38092020031E+01  0.24000000000E+01 0. -1.
</event>
<event>
 5   0  0.6825300E-03  0.9118800E+02  0.7818608E-02  0.1180000E+00
       11   -1    0    0    0    0  0.00000000000E+00  0.00000000000E+00  0.39999999673E+01  0.40000000000E+01  0.51109989000E-03 0. -1.
     -623   -1    0    0    0    0  0.00000000000E+00  0.00000000000E+00  0.12525980253E-10  0.17130000000E+03  0.17130000000E+03 0.  1.
       11    1    1    2    0    0  0.17454486584E-01 -0.98370894575E-01  0.16444313815E-01  0.10125299344E+00  0.51109989000E-03 0. -1.
     -623    1    1    2    0    0 -0.45837958555E+00 -0.97679792485E-01  0.95342360148E+00  0.17130329439E+03  0.17130000000E+03 0.  1.
      622    1    1    2    0    0  0.44092509896E+00  0.19605068706E+00  0.30301320521E+01  0.38954526140E+01  0.24000000000E+01 0. -1.
</event>
<event>
 5   0  0.6825300E-03  0.9118800E+02  0.7818608E-02  0.1180000E+00
       11   -1    0    0    0    0  0.00000000000E+00  0.00000000000E+00  0.39999999673E+01  0.40000000000E+01  0.51109989000E-03 0.  1.
     -623   -1    0    0    0    0  0.00000000000E+00  0.00000000000E+00  0.12525980253E-10  0.17130000000E+03  0.17130000000E+03 0.  1.
       11    1    1    2    0    0  0.30408211605E-01 -0.49971160557E-02  0.20016797291E-01  0.36750019031E-01  0.51109989000E-03 0.  1.
     -623    1    1    2    0    0  0.90421562824E-01  0.10037702351E+00  0.83241204176E+00  0.17130207577E+03  0.17130000000E+03 0.  1.
      622    1    1    2    0    0 -0.12082977443E+00 -0.95379907452E-01  0.31475711283E+01  0.39611742159E+01  0.24000000000E+01 0.  1.
</event>
<event>
 5   0  0.6825300E-03  0.9118800E+02  0.7818608E-02  0.1180000E+00
       11   -1    0    0    0    0  0.00000000000E+00  0.00000000000E+00  0.39999999673E+01  0.40000000000E+01  0.51109989000E-03 0. -1.
     -623   -1    0    0    0    0  0.00000000000E+00  0.00000000000E+00  0.12525980253E-10  0.17130000000E+03  0.17130000000E+03 0. -1.
       11    1    1    2    0    0  0.30068790292E+00  0.19761383886E-01  0.86767419068E+00  0.91851101771E+00  0.51109989000E-03 0. -1.
     -623    1    1    2    0    0 -0.68698852395E+00 -0.53815401779E+00  0.13233292854E+01  0.17130733424E+03  0.17130000000E+03 0. -1.
      622    1    1    2    0    0  0.38630062102E+00  0.51839263390E+00  0.18089964913E+01  0.30741547453E+01  0.24000000000E+01 0.  0.
</event>
<event>
 5   0  0.6825300E-03  0.9118800E+02  0.7818608E-02  0.1180000E+00
       11   -1    0    0    0    0  0.00000000000E+00  0.00000000000E+00  0.39999999673E+01  0.40000000000E+01  0.51109989000E-03 0.  1.
     -623   -1    0    0    0    0  0.00000000000E+00  0.00000000000E+00  0.12525980253E-10  0.17130000000E+03  0.17130000000E+03 0. -1.
       11    1    1    2    0    0  0.39085067558E+00 -0.14897761041E+00  0.16134518110E-01  0.41859188108E+00  0.51109989000E-03 0.  1.
     -623    1    1    2    0    0 -0.16569322195E+00  0.27660550329E+00  0.13457805320E+01  0.17130558978E+03  0.17130000000E+03 0. -1.
      622    1    1    2    0    0 -0.22515745363E+00 -0.12762789288E+00  0.26380849172E+01  0.35758183383E+01  0.24000000000E+01 0.  1.
</event>
<event>
 5   0  0.6825300E-03  0.9118800E+02  0.7818608E-02  0.1180000E+00
       11   -1    0    0    0    0  0.00000000000E+00  0.00000000000E+00  0.39999999673E+01  0.40000000000E+01  0.51109989000E-03 0. -1.
     -623   -1    0    0    0    0  0.00000000000E+00  0.00000000000E+00  0.12525980253E-10  0.17130000000E+03  0.17130000000E+03 0. -1.
       11    1    1    2    0    0  0.99016660549E-01  0.25446613317E+00 -0.14147680643E+00  0.30752765726E+00  0.51109989000E-03 0. -1.
     -623    1    1    2    0    0 -0.12526264456E+01 -0.58821227906E+00  0.16247029038E+01  0.17131329407E+03  0.17130000000E+03 0. -1.
      622    1    1    2    0    0  0.11536097850E+01  0.33374614589E+00  0.25167738700E+01  0.36791782695E+01  0.24000000000E+01 0. -1.
</event>
<event>
 5   0  0.6825300E-03  0.9118800E+02  0.7818608E-02  0.1180000E+00
       11   -1    0    0    0    0  0.00000000000E+00  0.00000000000E+00  0.39999999673E+01  0.40000000000E+01  0.51109989000E-03 0.  1.
     -623   -1    0    0    0    0  0.00000000000E+00  0.00000000000E+00  0.12525980253E-10  0.17130000000E+03  0.17130000000E+03 0. -1.
       11    1    1    2    0    0  0.18894862505E+00  0.11356804356E+00 -0.34146736725E-02  0.22047948804E+00  0.51109989000E-03 0.  1.
     -623    1    1    2    0    0 -0.20315081184E+00 -0.17861955230E+00  0.10892140574E+01  0.17130367644E+03  0.17130000000E+03 0. -1.
      622    1    1    2    0    0  0.14202186788E-01  0.65051508748E-01  0.29142005836E+01  0.37758440702E+01  0.24000000000E+01 0.  1.
</event>
<event>
 5   0  0.6825300E-03  0.9118800E+02  0.7818608E-02  0.1180000E+00
       11   -1    0    0    0    0  0.00000000000E+00  0.00000000000E+00  0.39999999673E+01  0.40000000000E+01  0.51109989000E-03 0. -1.
     -623   -1    0    0    0    0  0.00000000000E+00  0.00000000000E+00  0.12525980253E-10  0.17130000000E+03  0.17130000000E+03 0. -1.
       11    1    1    2    0    0  0.86100091705E-01 -0.16383053578E-01 -0.11343220598E-02  0.87653740056E-01  0.51109989000E-03 0. -1.
     -623    1    1    2    0    0 -0.57915444264E+00 -0.63194634289E+00  0.10275588993E+01  0.17130522658E+03  0.17130000000E+03 0. -1.
      622    1    1    2    0    0  0.49305435094E+00  0.64832939647E+00  0.29735753901E+01  0.39071196808E+01  0.24000000000E+01 0. -1.
</event>
<event>
 5   0  0.6825300E-03  0.9118800E+02  0.7818608E-02  0.1180000E+00
       11   -1    0    0    0    0  0.00000000000E+00  0.00000000000E+00  0.39999999673E+01  0.40000000000E+01  0.51109989000E-03 0.  1.
     -623   -1    0    0    0    0  0.00000000000E+00  0.00000000000E+00  0.12525980253E-10  0.17130000000E+03  0.17130000000E+03 0.  1.
       11    1    1    2    0    0  0.59226707177E-01 -0.42663069839E+00  0.18570277025E+00  0.46904939586E+00  0.51109989000E-03 0.  1.
     -623    1    1    2    0    0 -0.59082733743E+00 -0.17628028459E+00  0.13616453165E+01  0.17130652127E+03  0.17130000000E+03 0.  1.
      622    1    1    2    0    0  0.53160063025E+00  0.60291098299E+00  0.24526518806E+01  0.35244293341E+01  0.24000000000E+01 0.  1.
</event>
<event>
 5   0  0.6825300E-03  0.9118800E+02  0.7818608E-02  0.1180000E+00
       11   -1    0    0    0    0  0.00000000000E+00  0.00000000000E+00  0.39999999673E+01  0.40000000000E+01  0.51109989000E-03 0.  1.
     -623   -1    0    0    0    0  0.00000000000E+00  0.00000000000E+00  0.12525980253E-10  0.17130000000E+03  0.17130000000E+03 0.  1.
       11    1    1    2    0    0  0.29776188835E-01 -0.61517648984E-01  0.24893895833E-01  0.72739327952E-01  0.51109989000E-03 0.  1.
     -623    1    1    2    0    0 -0.14120116769E+00 -0.21301720931E+00  0.88379684803E+00  0.17130247053E+03  0.17130000000E+03 0.  1.
      622    1    1    2    0    0  0.11142497886E+00  0.27453485829E+00  0.30913092235E+01  0.39247901383E+01  0.24000000000E+01 0.  1.
</event>
<event>
 5   0  0.6825300E-03  0.9118800E+02  0.7818608E-02  0.1180000E+00
       11   -1    0    0    0    0  0.00000000000E+00  0.00000000000E+00  0.39999999673E+01  0.40000000000E+01  0.51109989000E-03 0. -1.
     -623   -1    0    0    0    0  0.00000000000E+00  0.00000000000E+00  0.12525980253E-10  0.17130000000E+03  0.17130000000E+03 0.  1.
       11    1    1    2    0    0  0.26545944901E+00  0.30871698362E-01  0.30722192473E+00  0.40719449049E+00  0.51109989000E-03 0. -1.
     -623    1    1    2    0    0 -0.25360534693E-02  0.10651870790E+00  0.10399805566E+01  0.17130319002E+03  0.17130000000E+03 0.  1.
      622    1    1    2    0    0 -0.26292339554E+00 -0.13739040626E+00  0.26527974860E+01  0.35896154860E+01  0.24000000000E+01 0. -1.
</event>
<event>
 5   0  0.6825300E-03  0.9118800E+02  0.7818608E-02  0.1180000E+00
       11   -1    0    0    0    0  0.00000000000E+00  0.00000000000E+00  0.39999999673E+01  0.40000000000E+01  0.51109989000E-03 0.  1.
     -623   -1    0    0    0    0  0.00000000000E+00  0.00000000000E+00  0.12525980253E-10  0.17130000000E+03  0.17130000000E+03 0.  1.
       11    1    1    2    0    0 -0.81079354557E-01 -0.71058458189E-01 -0.15707233649E-01  0.10895019333E+00  0.51109989000E-03 0.  1.
     -623    1    1    2    0    0 -0.27260912856E+00 -0.19391511109E+00  0.98912384849E+00  0.17130318235E+03  0.17130000000E+03 0.  1.
      622    1    1    2    0    0  0.35368848311E+00  0.26497356928E+00  0.30265833525E+01  0.38878674521E+01  0.24000000000E+01 0.  1.
</event>
<event>
 5   0  0.6825300E-03  0.9118800E+02  0.7818608E-02  0.1180000E+00
       11   -1    0    0    0    0  0.00000000000E+00  0.00000000000E+00  0.39999999673E+01  0.40000000000E+01  0.51109989000E-03 0.  1.
     -623   -1    0    0    0    0  0.00000000000E+00  0.00000000000E+00  0.12525980253E-10  0.17130000000E+03  0.17130000000E+03 0. -1.
       11    1    1    2    0    0 -0.33235188973E+00  0.67586478525E+00  0.70617818744E+00  0.10324431608E+01  0.51109989000E-03 0.  1.
     -623    1    1    2    0    0  0.46675628343E+00  0.43509880283E+00  0.19826778164E+01  0.17131266206E+03  0.17130000000E+03 0. -1.
      622    1    1    2    0    0 -0.13440439371E+00 -0.11109635881E+01  0.13111439635E+01  0.29548947745E+01  0.24000000000E+01 0. -1.
</event>
<event>
 5   0  0.6825300E-03  0.9118800E+02  0.7818608E-02  0.1180000E+00
       11   -1    0    0    0    0  0.00000000000E+00  0.00000000000E+00  0.39999999673E+01  0.40000000000E+01  0.51109989000E-03 0. -1.
     -623   -1    0    0    0    0  0.00000000000E+00  0.00000000000E+00  0.12525980253E-10  0.17130000000E+03  0.17130000000E+03 0.  1.
       11    1    1    2    0    0  0.27071323619E+00  0.83149021225E-01  0.33142086037E+00  0.43593516019E+00  0.51109989000E-03 0. -1.
     -623    1    1    2    0    0 -0.26761691034E+00 -0.10775837492E+00  0.10384102901E+01  0.17130339030E+03  0.17130000000E+03 0.  1.
      622    1    1    2    0    0 -0.30963258523E-02  0.24609353692E-01  0.26301688169E+01  0.35606745447E+01  0.24000000000E+01 0. -1.
</event>
<event>
 5   0  0.6825300E-03  0.9118800E+02  0.7818608E-02  0.1180000E+00
       11   -1    0    0    0    0  0.00000000000E+00  0.00000000000E+00  0.39999999673E+01  0.40000000000E+01  0.51109989000E-03 0. -1.
     -623   -1    0    0    0    0  0.00000000000E+00  0.00000000000E+00  0.12525980253E-10  0.17130000000E+03  0.17130000000E+03 0. -1.
       11    1    1    2    0    0  0.16607612380E+00  0.32715928459E-01  0.21913254339E+00  0.27689518534E+00  0.51109989000E-03 0. -1.
     -623    1    1    2    0    0 -0.61831345564E+00 -0.10873423772E+00  0.97695634368E+00  0.17130393626E+03  0.17130000000E+03 0. -1.
      622    1    1    2    0    0  0.45223733184E+00  0.76018309264E-01  0.28039110803E+01  0.37191685541E+01  0.24000000000E+01 0. -1.
</event>
<event>
 5   0  0.6825300E-03  0.9118800E+02  0.7818608E-02  0.1180000E+00
       11   -1    0    0    0    0  0.00000000000E+00  0.00000000000E+00  0.39999999673E+01  0.40000000000E+01  0.51109989000E-03 0. -1.
     -623   -1    0    0    0    0  0.00000000000E+00  0.00000000000E+00  0.12525980253E-10  0.17130000000E+03  0.17130000000E+03 0. -1.
       11    1    1    2    0    0  0.18217249788E+00 -0.12704008706E-01  0.23664882636E+00  0.29891660888E+00  0.51109989000E-03 0. -1.
     -623    1    1    2    0    0 -0.19583748736E+00 -0.37203058514E+00  0.97670585980E+00  0.17130330036E+03  0.17130000000E+03 0. -1.
      622    1    1    2    0    0  0.13664989478E-01  0.38473459385E+00  0.27866452812E+01  0.36977830335E+01  0.24000000000E+01 0. -1.
</event>
<event>
 5   0  0.6825300E-03  0.9118800E+02  0.7818608E-02  0.1180000E+00
       11   -1    0    0    0    0  0.00000000000E+00  0.00000000000E+00  0.39999999673E+01  0.40000000000E+01  0.51109989000E-03 0.  1.
     -623   -1    0    0    0    0  0.00000000000E+00  0.00000000000E+00  0.12525980253E-10  0.17130000000E+03  0.17130000000E+03 0.  1.
       11    1    1    2    0    0 -0.18133222445E+00 -0.25506894452E+00  0.19230382249E+00  0.36731806850E+00  0.51109989000E-03 0.  1.
     -623    1    1    2    0    0  0.12809235228E+00  0.12132791059E+00  0.10892686686E+01  0.17130355406E+03  0.17130000000E+03 0.  1.
      622    1    1    2    0    0  0.53239872171E-01  0.13374103393E+00  0.27184274762E+01  0.36291278693E+01  0.24000000000E+01 0.  1.
</event>
<event>
 5   0  0.6825300E-03  0.9118800E+02  0.7818608E-02  0.1180000E+00
       11   -1    0    0    0    0  0.00000000000E+00  0.00000000000E+00  0.39999999673E+01  0.40000000000E+01  0.51109989000E-03 0.  1.
     -623   -1    0    0    0    0  0.00000000000E+00  0.00000000000E+00  0.12525980253E-10  0.17130000000E+03  0.17130000000E+03 0.  1.
       11    1    1    2    0    0 -0.98833135737E-01 -0.70466933517E-01 -0.18820396210E-01  0.12283340740E+00  0.51109989000E-03 0.  1.
     -623    1    1    2    0    0 -0.17474915454E+00  0.52868247860E-01  0.98990318376E+00  0.17130295748E+03  0.17130000000E+03 0.  1.
      622    1    1    2    0    0  0.27358229028E+00  0.17598685658E-01  0.30289171798E+01  0.38742091148E+01  0.24000000000E+01 0.  1.
</event>
<event>
 5   0  0.6825300E-03  0.9118800E+02  0.7818608E-02  0.1180000E+00
       11   -1    0    0    0    0  0.00000000000E+00  0.00000000000E+00  0.39999999673E+01  0.40000000000E+01  0.51109989000E-03 0. -1.
     -623   -1    0    0    0    0  0.00000000000E+00  0.00000000000E+00  0.12525980253E-10  0.17130000000E+03  0.17130000000E+03 0. -1.
       11    1    1    2    0    0 -0.27409145248E+00 -0.14923998500E+00  0.32512579682E+00  0.45067254457E+00  0.51109989000E-03 0. -1.
     -623    1    1    2    0    0  0.73090771595E-01 -0.18821804309E+00  0.10946049976E+01  0.17130361622E+03  0.17130000000E+03 0. -1.
      622    1    1    2    0    0  0.20100068089E+00  0.33745802809E+00  0.25802691729E+01  0.35457112403E+01  0.24000000000E+01 0. -1.
</event>
<event>
 5   0  0.6825300E-03  0.9118800E+02  0.7818608E-02  0.1180000E+00
       11   -1    0    0    0    0  0.00000000000E+00  0.00000000000E+00  0.39999999673E+01  0.40000000000E+01  0.51109989000E-03 0. -1.
     -623   -1    0    0    0    0  0.00000000000E+00  0.00000000000E+00  0.12525980253E-10  0.17130000000E+03  0.17130000000E+03 0.  1.
       11    1    1    2    0    0 -0.28045061636E+00 -0.10894229930E+00 -0.15701389119E+00  0.33937382934E+00  0.51109989000E-03 0. -1.
     -623    1    1    2    0    0  0.98630819407E+00 -0.24688763454E+00  0.15218962313E+01  0.17130977767E+03  0.17130000000E+03 0.  1.
      622    1    1    2    0    0 -0.70585757771E+00  0.35582993384E+00  0.26351176273E+01  0.36508485002E+01  0.24000000000E+01 0. -1.
</event>
<event>
 5   0  0.6825300E-03  0.9118800E+02  0.7818608E-02  0.1180000E+00
       11   -1    0    0    0    0  0.00000000000E+00  0.00000000000E+00  0.39999999673E+01  0.40000000000E+01  0.51109989000E-03 0. -1.
     -623   -1    0    0    0    0  0.00000000000E+00  0.00000000000E+00  0.12525980253E-10  0.17130000000E+03  0.17130000000E+03 0.  1.
       11    1    1    2    0    0  0.16480531831E+00  0.16572261198E+00  0.36358625608E+00  0.43222679683E+00  0.51109989000E-03 0. -1.
     -623    1    1    2    0    0  0.57889040470E+00 -0.14631079661E+01  0.14833905874E+01  0.17131364875E+03  0.17130000000E+03 0.  1.
      622    1    1    2    0    0 -0.74369572301E+00  0.12973853541E+01  0.21530231238E+01  0.35541244572E+01  0.24000000000E+01 0.  0.
</event>
<event>
 5   0  0.6825300E-03  0.9118800E+02  0.7818608E-02  0.1180000E+00
       11   -1    0    0    0    0  0.00000000000E+00  0.00000000000E+00  0.39999999673E+01  0.40000000000E+01  0.51109989000E-03 0.  1.
     -623   -1    0    0    0    0  0.00000000000E+00  0.00000000000E+00  0.12525980253E-10  0.17130000000E+03  0.17130000000E+03 0.  1.
       11    1    1    2    0    0  0.25470263637E+00 -0.12473006635E+00  0.15712058019E+00  0.32421930906E+00  0.51109989000E-03 0.  1.
     -623    1    1    2    0    0 -0.75867681871E-01 -0.15818809589E+00  0.10836232872E+01  0.17130351724E+03  0.17130000000E+03 0.  1.
      622    1    1    2    0    0 -0.17883495450E+00  0.28291816223E+00  0.27592561000E+01  0.36722634509E+01  0.24000000000E+01 0.  1.
</event>
<event>
 5   0  0.6825300E-03  0.9118800E+02  0.7818608E-02  0.1180000E+00
       11   -1    0    0    0    0  0.00000000000E+00  0.00000000000E+00  0.39999999673E+01  0.40000000000E+01  0.51109989000E-03 0. -1.
     -623   -1    0    0    0    0  0.00000000000E+00  0.00000000000E+00  0.12525980253E-10  0.17130000000E+03  0.17130000000E+03 0. -1.
       11    1    1    2    0    0 -0.12064400050E+00 -0.57437259725E-02  0.20845834348E+00  0.24092137189E+00  0.51109989000E-03 0. -1.
     -623    1    1    2    0    0  0.10492102091E+00  0.23218425337E+00  0.91065047306E+00  0.17130261003E+03  0.17130000000E+03 0. -1.
      622    1    1    2    0    0  0.15722979588E-01 -0.22644052740E+00  0.28808911508E+01  0.37564686006E+01  0.24000000000E+01 0. -1.
</event>
<event>
 5   0  0.6825300E-03  0.9118800E+02  0.7818608E-02  0.1180000E+00
       11   -1    0    0    0    0  0.00000000000E+00  0.00000000000E+00  0.39999999673E+01  0.40000000000E+01  0.51109989000E-03 0. -1.
     -623   -1    0    0    0    0  0.00000000000E+00  0.00000000000E+00  0.12525980253E-10  0.17130000000E+03  0.17130000000E+03 0.  1.
       11    1    1    2    0    0  0.10629888504E+00 -0.30303004945E-01  0.35734297475E+00  0.37404810906E+00  0.51109989000E-03 0. -1.
     -623    1    1    2    0    0 -0.29406508652E+00  0.15722764045E+00  0.93799578643E+00  0.17130289265E+03  0.17130000000E+03 0.  1.
      622    1    1    2    0    0  0.18776620148E+00 -0.12692463550E+00  0.27046612062E+01  0.36230592391E+01  0.24000000000E+01 0. -1.
</event>
<event>
 5   0  0.6825300E-03  0.9118800E+02  0.7818608E-02  0.1180000E+00
       11   -1    0    0    0    0  0.00000000000E+00  0.00000000000E+00  0.39999999673E+01  0.40000000000E+01  0.51109989000E-03 0.  1.
     -623   -1    0    0    0    0  0.00000000000E+00  0.00000000000E+00  0.12525980253E-10  0.17130000000E+03  0.17130000000E+03 0. -1.
       11    1    1    2    0    0  0.95293020587E-02 -0.98663903823E-01  0.21396681107E+00  0.23581227910E+00  0.51109989000E-03 0.  1.
     -623    1    1    2    0    0 -0.16855461711E+00 -0.17652512106E-01  0.89604658150E+00  0.17130242737E+03  0.17130000000E+03 0. -1.
      622    1    1    2    0    0  0.15902531505E+00  0.11631641593E+00  0.28899865748E+01  0.37617603541E+01  0.24000000000E+01 0.  1.
</event>
<event>
 5   0  0.6825300E-03  0.9118800E+02  0.7818608E-02  0.1180000E+00
       11   -1    0    0    0    0  0.00000000000E+00  0.00000000000E+00  0.39999999673E+01  0.40000000000E+01  0.51109989000E-03 0. -1.
     -623   -1    0    0    0    0  0.00000000000E+00  0.00000000000E+00  0.12525980253E-10  0.17130000000E+03  0.17130000000E+03 0.  1.
       11    1    1    2    0    0  0.11737119677E-01  0.92761247136E-01 -0.48496393173E-01  0.10533076627E+00  0.51109989000E-03 0. -1.
     -623    1    1    2    0    0  0.63239361909E+00 -0.51772045483E+00  0.10869196262E+01  0.17130539790E+03  0.17130000000E+03 0.  1.
      622    1    1    2    0    0 -0.64413073876E+00  0.42495920770E+00  0.29615767343E+01  0.38892713315E+01  0.24000000000E+01 0.  0.
</event>
<event>
 5   0  0.6825300E-03  0.9118800E+02  0.7818608E-02  0.1180000E+00
       11   -1    0    0    0    0  0.00000000000E+00  0.00000000000E+00  0.39999999673E+01  0.40000000000E+01  0.51109989000E-03 0.  1.
     -623   -1    0    0    0    0  0.00000000000E+00  0.00000000000E+00  0.12525980253E-10  0.17130000000E+03  0.17130000000E+03 0. -1.
       11    1    1    2    0    0  0.77078213597E-01 -0.36235876246E-01 -0.23583565323E-01  0.88377234133E-01  0.51109989000E-03 0.  1.
     -623    1    1    2    0    0  0.29036136016E-01 -0.30922487882E+00  0.95976874720E+00  0.17130297026E+03  0.17130000000E+03 0. -1.
      622    1    1    2    0    0 -0.10611434961E+00  0.34546075507E+00  0.30638147855E+01  0.39086525080E+01  0.24000000000E+01 0.  1.
</event>
<event>
 5   0  0.6825300E-03  0.9118800E+02  0.7818608E-02  0.1180000E+00
       11   -1    0    0    0    0  0.00000000000E+00  0.00000000000E+00  0.39999999673E+01  0.40000000000E+01  0.51109989000E-03 0. -1.
     -623   -1    0    0    0    0  0.00000000000E+00  0.00000000000E+00  0.12525980253E-10  0.17130000000E+03  0.17130000000E+03 0. -1.
       11    1    1    2    0    0  0.44578777181E-01 -0.58752450162E-01 -0.58430422908E-01  0.94093003562E-01  0.51109989000E-03 0. -1.
     -623    1    1    2    0    0  0.57126601929E+00 -0.56730264766E+00  0.11119137338E+01  0.17130550058E+03  0.17130000000E+03 0. -1.
      622    1    1    2    0    0 -0.61584479647E+00  0.62605509782E+00  0.29465166564E+01  0.39004064154E+01  0.24000000000E+01 0. -1.
</event>
<event>
 5   0  0.6825300E-03  0.9118800E+02  0.7818608E-02  0.1180000E+00
       11   -1    0    0    0    0  0.00000000000E+00  0.00000000000E+00  0.39999999673E+01  0.40000000000E+01  0.51109989000E-03 0.  1.
     -623   -1    0    0    0    0  0.00000000000E+00  0.00000000000E+00  0.12525980253E-10  0.17130000000E+03  0.17130000000E+03 0. -1.
       11    1    1    2    0    0 -0.10519492428E+00  0.16291453551E+00  0.52365982820E-01  0.20087203726E+00  0.51109989000E-03 0.  1.
     -623    1    1    2    0    0 -0.49230850054E+00  0.75712770616E-01  0.10791664224E+01  0.17130412342E+03  0.17130000000E+03 0. -1.
      622    1    1    2    0    0  0.59750342482E+00 -0.23862730613E+00  0.28684675622E+01  0.37950045440E+01  0.24000000000E+01 0.  1.
</event>
<event>
 5   0  0.6825300E-03  0.9118800E+02  0.7818608E-02  0.1180000E+00
       11   -1    0    0    0    0  0.00000000000E+00  0.00000000000E+00  0.39999999673E+01  0.40000000000E+01  0.51109989000E-03 0.  1.
     -623   -1    0    0    0    0  0.00000000000E+00  0.00000000000E+00  0.12525980253E-10  0.17130000000E+03  0.17130000000E+03 0.  1.
       11    1    1    2    0    0 -0.15536447672E+00  0.68447714122E-01  0.23104292128E+00  0.28671292767E+00  0.51109989000E-03 0.  1.
     -623    1    1    2    0    0  0.68549444225E-01 -0.37024876229E+00  0.95702488716E+00  0.17130308719E+03  0.17130000000E+03 0.  1.
      622    1    1    2    0    0  0.86815032496E-01  0.30180104817E+00  0.28119321589E+01  0.37101998853E+01  0.24000000000E+01 0.  1.
</event>
<event>
 5   0  0.6825300E-03  0.9118800E+02  0.7818608E-02  0.1180000E+00
       11   -1    0    0    0    0  0.00000000000E+00  0.00000000000E+00  0.39999999673E+01  0.40000000000E+01  0.51109989000E-03 0.  1.
     -623   -1    0    0    0    0  0.00000000000E+00  0.00000000000E+00  0.12525980253E-10  0.17130000000E+03  0.17130000000E+03 0. -1.
       11    1    1    2    0    0  0.16541921695E+00 -0.14946225687E+00  0.21724161671E+00  0.31128229120E+00  0.51109989000E-03 0.  1.
     -623    1    1    2    0    0 -0.11629847122E+00  0.30443127272E+00  0.99048190994E+00  0.17130317352E+03  0.17130000000E+03 0. -1.
      622    1    1    2    0    0 -0.49120745727E-01 -0.15496901585E+00  0.27922764407E+01  0.36855441884E+01  0.24000000000E+01 0.  1.
</event>
<event>
 5   0  0.6825300E-03  0.9118800E+02  0.7818608E-02  0.1180000E+00
       11   -1    0    0    0    0  0.00000000000E+00  0.00000000000E+00  0.39999999673E+01  0.40000000000E+01  0.51109989000E-03 0. -1.
     -623   -1    0    0    0    0  0.00000000000E+00  0.00000000000E+00  0.12525980253E-10  0.17130000000E+03  0.17130000000E+03 0. -1.
       11    1    1    2    0    0  0.37596005604E-01  0.17945965807E+00  0.62091376274E+00  0.64742056694E+00  0.51109989000E-03 0. -1.
     -623    1    1    2    0    0  0.13823355142E+01 -0.73166376903E+00  0.16300864308E+01  0.17131489534E+03  0.17130000000E+03 0. -1.
      622    1    1    2    0    0 -0.14199315198E+01  0.55220411095E+00  0.17489997738E+01  0.33376840938E+01  0.24000000000E+01 0.  0.
</event>
<event>
 5   0  0.6825300E-03  0.9118800E+02  0.7818608E-02  0.1180000E+00
       11   -1    0    0    0    0  0.00000000000E+00  0.00000000000E+00  0.39999999673E+01  0.40000000000E+01  0.51109989000E-03 0. -1.
     -623   -1    0    0    0    0  0.00000000000E+00  0.00000000000E+00  0.12525980253E-10  0.17130000000E+03  0.17130000000E+03 0. -1.
       11    1    1    2    0    0  0.22947701259E+00  0.50878388600E-01 -0.16685647230E+00  0.28825275940E+00  0.51109989000E-03 0. -1.
     -623    1    1    2    0    0 -0.20122151853E+00  0.46150062276E+00  0.13908211545E+01  0.17130638592E+03  0.17130000000E+03 0. -1.
      622    1    1    2    0    0 -0.28255494055E-01 -0.51237901136E+00  0.27760352851E+01  0.37053613222E+01  0.24000000000E+01 0. -1.
</event>
<event>
 5   0  0.6825300E-03  0.9118800E+02  0.7818608E-02  0.1180000E+00
       11   -1    0    0    0    0  0.00000000000E+00  0.00000000000E+00  0.39999999673E+01  0.40000000000E+01  0.51109989000E-03 0. -1.
     -623   -1    0    0    0    0  0.00000000000E+00  0.00000000000E+00  0.12525980253E-10  0.17130000000E+03  0.17130000000E+03 0.  1.
       11    1    1    2    0    0 -0.62089160294E-01  0.21321368223E+00  0.77446608866E-01  0.23518796007E+00  0.51109989000E-03 0. -1.
     -623    1    1    2    0    0 -0.15657185399E+00 -0.79716414950E+00  0.10969421943E+01  0.17130543852E+03  0.17130000000E+03 0.  1.
      622    1    1    2    0    0  0.21866101429E+00  0.58395046727E+00  0.28256111642E+01  0.37593735168E+01  0.24000000000E+01 0. -1.
</event>
<event>
 5   0  0.6825300E-03  0.9118800E+02  0.7818608E-02  0.1180000E+00
       11   -1    0    0    0    0  0.00000000000E+00  0.00000000000E+00  0.39999999673E+01  0.40000000000E+01  0.51109989000E-03 0.  1.
     -623   -1    0    0    0    0  0.00000000000E+00  0.00000000000E+00  0.12525980253E-10  0.17130000000E+03  0.17130000000E+03 0. -1.
       11    1    1    2    0    0 -0.22455179297E+00  0.15094327789E+00  0.29501283208E+00  0.40030015386E+00  0.51109989000E-03 0.  1.
     -623    1    1    2    0    0  0.43395251354E+00  0.42484435786E+00  0.10993521982E+01  0.17130460409E+03  0.17130000000E+03 0. -1.
      622    1    1    2    0    0 -0.20940072057E+00 -0.57578763575E+00  0.26056349371E+01  0.35950957552E+01  0.24000000000E+01 0.  1.
</event>
<event>
 5   0  0.6825300E-03  0.9118800E+02  0.7818608E-02  0.1180000E+00
       11   -1    0    0    0    0  0.00000000000E+00  0.00000000000E+00  0.39999999673E+01  0.40000000000E+01  0.51109989000E-03 0. -1.
     -623   -1    0    0    0    0  0.00000000000E+00  0.00000000000E+00  0.12525980253E-10  0.17130000000E+03  0.17130000000E+03 0.  1.
       11    1    1    2    0    0 -0.21350442424E+00 -0.40632488497E-01  0.31282654118E+00  0.38091448434E+00  0.51109989000E-03 0. -1.
     -623    1    1    2    0    0  0.86049474703E+00 -0.24782771508E+00  0.10805668028E+01  0.17130574857E+03  0.17130000000E+03 0.  1.
      622    1    1    2    0    0 -0.64699032278E+00  0.28846020357E+00  0.26066066234E+01  0.36133369419E+01  0.24000000000E+01 0. -1.
</event>
<event>
 5   0  0.6825300E-03  0.9118800E+02  0.7818608E-02  0.1180000E+00
       11   -1    0    0    0    0  0.00000000000E+00  0.00000000000E+00  0.39999999673E+01  0.40000000000E+01  0.51109989000E-03 0. -1.
     -623   -1    0    0    0    0  0.00000000000E+00  0.00000000000E+00  0.12525980253E-10  0.17130000000E+03  0.17130000000E+03 0. -1.
       11    1    1    2    0    0 -0.31454708959E-01 -0.26774281242E-01  0.13635806034E-01  0.43502382475E-01  0.51109989000E-03 0. -1.
     -623    1    1    2    0    0  0.20834109564E-01  0.87659517157E-01  0.84416566304E+00  0.17130210371E+03  0.17130000000E+03 0. -1.
      622    1    1    2    0    0  0.10620599395E-01 -0.60885235915E-01  0.31421984983E+01  0.39543939121E+01  0.24000000000E+01 0. -1.
</event>
<event>
 5   0  0.6825300E-03  0.9118800E+02  0.7818608E-02  0.1180000E+00
       11   -1    0    0    0    0  0.00000000000E+00  0.00000000000E+00  0.39999999673E+01  0.40000000000E+01  0.51109989000E-03 0. -1.
     -623   -1    0    0    0    0  0.00000000000E+00  0.00000000000E+00  0.12525980253E-10  0.17130000000E+03  0.17130000000E+03 0. -1.
       11    1    1    2    0    0 -0.54908709333E+00 -0.22773825487E+00  0.62577294958E+00  0.86310682678E+00  0.51109989000E-03 0. -1.
     -623    1    1    2    0    0  0.90799881686E+00  0.48748753476E+00  0.14177931249E+01  0.17130896720E+03  0.17130000000E+03 0. -1.
      622    1    1    2    0    0 -0.35891172353E+00 -0.25974927989E+00  0.19564338929E+01  0.31279259727E+01  0.24000000000E+01 0. -1.
</event>
<event>
 5   0  0.6825300E-03  0.9118800E+02  0.7818608E-02  0.1180000E+00
       11   -1    0    0    0    0  0.00000000000E+00  0.00000000000E+00  0.39999999673E+01  0.40000000000E+01  0.51109989000E-03 0.  1.
     -623   -1    0    0    0    0  0.00000000000E+00  0.00000000000E+00  0.12525980253E-10  0.17130000000E+03  0.17130000000E+03 0.  1.
       11    1    1    2    0    0  0.68638302121E-01 -0.13189098487E+00  0.21354497470E+00  0.26020792811E+00  0.51109989000E-03 0.  1.
     -623    1    1    2    0    0 -0.59908673165E-01 -0.57548691511E-01  0.92793466399E+00  0.17130253344E+03  0.17130000000E+03 0.  1.
      622    1    1    2    0    0 -0.87296289565E-02  0.18943967638E+00  0.28585203287E+01  0.37372586299E+01  0.24000000000E+01 0.  1.
</event>
<event>
 5   0  0.6825300E-03  0.9118800E+02  0.7818608E-02  0.1180000E+00
       11   -1    0    0    0    0  0.00000000000E+00  0.00000000000E+00  0.39999999673E+01  0.40000000000E+01  0.51109989000E-03 0. -1.
     -623   -1    0    0    0    0  0.00000000000E+00  0.00000000000E+00  0.12525980253E-10  0.17130000000E+03  0.17130000000E+03 0.  1.
       11    1    1    2    0    0  0.36917401161E+00 -0.63988243471E-01  0.74169973786E+00  0.83096492616E+00  0.51109989000E-03 0. -1.
     -623    1    1    2    0    0 -0.47279791495E+00 -0.10311619160E+00  0.12057608733E+01  0.17130492705E+03  0.17130000000E+03 0.  1.
      622    1    1    2    0    0  0.10362390335E+00  0.16710443507E+00  0.20525393562E+01  0.31641080282E+01  0.24000000000E+01 0. -1.
</event>
<event>
 5   0  0.6825300E-03  0.9118800E+02  0.7818608E-02  0.1180000E+00
       11   -1    0    0    0    0  0.00000000000E+00  0.00000000000E+00  0.39999999673E+01  0.40000000000E+01  0.51109989000E-03 0. -1.
     -623   -1    0    0    0    0  0.00000000000E+00  0.00000000000E+00  0.12525980253E-10  0.17130000000E+03  0.17130000000E+03 0.  1.
       11    1    1    2    0    0  0.58531502706E-02  0.28718853542E+00  0.40865227339E-01  0.29014090072E+00  0.51109989000E-03 0. -1.
     -623    1    1    2    0    0 -0.11811258586E+00 -0.19689412963E+00  0.11390147957E+01  0.17130394062E+03  0.17130000000E+03 0.  1.
      622    1    1    2    0    0  0.11225943559E+00 -0.90294405783E-01  0.28201199444E+01  0.37059184774E+01  0.24000000000E+01 0. -1.
</event>
<event>
 5   0  0.6825300E-03  0.9118800E+02  0.7818608E-02  0.1180000E+00
       11   -1    0    0    0    0  0.00000000000E+00  0.00000000000E+00  0.39999999673E+01  0.40000000000E+01  0.51109989000E-03 0. -1.
     -623   -1    0    0    0    0  0.00000000000E+00  0.00000000000E+00  0.12525980253E-10  0.17130000000E+03  0.17130000000E+03 0.  1.
       11    1    1    2    0    0 -0.26913634252E-01 -0.10590965346E+00 -0.34719028535E-01  0.11465980363E+00  0.51109989000E-03 0. -1.
     -623    1    1    2    0    0  0.71743569870E+00 -0.28764409246E-01  0.10676689079E+01  0.17130483198E+03  0.17130000000E+03 0.  1.
      622    1    1    2    0    0 -0.69052206445E+00  0.13467406270E+00  0.29670500880E+01  0.38805082205E+01  0.24000000000E+01 0. -1.
</event>
<event>
 5   0  0.6825300E-03  0.9118800E+02  0.7818608E-02  0.1180000E+00
       11   -1    0    0    0    0  0.00000000000E+00  0.00000000000E+00  0.39999999673E+01  0.40000000000E+01  0.51109989000E-03 0.  1.
     -623   -1    0    0    0    0  0.00000000000E+00  0.00000000000E+00  0.12525980253E-10  0.17130000000E+03  0.17130000000E+03 0. -1.
       11    1    1    2    0    0  0.65659184024E+00  0.13658668860E+00  0.47133452931E+00  0.81971047810E+00  0.51109989000E-03 0.  1.
     -623    1    1    2    0    0 -0.30758000262E+00  0.41521108685E+00  0.15594245888E+01  0.17130787726E+03  0.17130000000E+03 0. -1.
      622    1    1    2    0    0 -0.34901183762E+00 -0.55179777544E+00  0.19692408492E+01  0.31724122636E+01  0.24000000000E+01 0.  1.
</event>
<event>
 5   0  0.6825300E-03  0.9118800E+02  0.7818608E-02  0.1180000E+00
       11   -1    0    0    0    0  0.00000000000E+00  0.00000000000E+00  0.39999999673E+01  0.40000000000E+01  0.51109989000E-03 0.  1.
     -623   -1    0    0    0    0  0.00000000000E+00  0.00000000000E+00  0.12525980253E-10  0.17130000000E+03  0.17130000000E+03 0.  1.
       11    1    1    2    0    0  0.22803876219E-01 -0.48305099264E-01  0.48043860294E-01  0.71846176779E-01  0.51109989000E-03 0.  1.
     -623    1    1    2    0    0 -0.40962269814E-03  0.54168983444E+00  0.88572815964E+00  0.17130314633E+03  0.17130000000E+03 0.  1.
      622    1    1    2    0    0 -0.22394253521E-01 -0.49338473517E+00  0.30662279474E+01  0.39250074936E+01  0.24000000000E+01 0.  1.
</event>
<event>
 5   0  0.6825300E-03  0.9118800E+02  0.7818608E-02  0.1180000E+00
       11   -1    0    0    0    0  0.00000000000E+00  0.00000000000E+00  0.39999999673E+01  0.40000000000E+01  0.51109989000E-03 0.  1.
     -623   -1    0    0    0    0  0.00000000000E+00  0.00000000000E+00  0.12525980253E-10  0.17130000000E+03  0.17130000000E+03 0.  1.
       11    1    1    2    0    0  0.89191321578E-01  0.97687673739E-02 -0.55907667719E-01  0.10571872679E+00  0.51109989000E-03 0.  1.
     -623    1    1    2    0    0 -0.37969534452E+00 -0.17568312664E+00  0.10118537586E+01  0.17130349933E+03  0.17130000000E+03 0.  1.
      622    1    1    2    0    0  0.29050402294E+00  0.16591435926E+00  0.30440538765E+01  0.38907819478E+01  0.24000000000E+01 0.  1.
</event>
<event>
 5   0  0.6825300E-03  0.9118800E+02  0.7818608E-02  0.1180000E+00
       11   -1    0    0    0    0  0.00000000000E+00  0.00000000000E+00  0.39999999673E+01  0.40000000000E+01  0.51109989000E-03 0.  1.
     -623   -1    0    0    0    0  0.00000000000E+00  0.00000000000E+00  0.12525980253E-10  0.17130000000E+03  0.17130000000E+03 0. -1.
       11    1    1    2    0    0  0.14485715518E+00 -0.25149760193E+00 -0.36627498664E-01  0.29253456901E+00  0.51109989000E-03 0.  1.
     -623    1    1    2    0    0 -0.65939100658E+00  0.41786549961E+00  0.12717174185E+01  0.17130649921E+03  0.17130000000E+03 0. -1.
      622    1    1    2    0    0  0.51453385140E+00 -0.16636789769E+00  0.27649100475E+01  0.37009662161E+01  0.24000000000E+01 0.  1.
</event>
<event>
 5   0  0.6825300E-03  0.9118800E+02  0.7818608E-02  0.1180000E+00
       11   -1    0    0    0    0  0.00000000000E+00  0.00000000000E+00  0.39999999673E+01  0.40000000000E+01  0.51109989000E-03 0.  1.
     -623   -1    0    0    0    0  0.00000000000E+00  0.00000000000E+00  0.12525980253E-10  0.17130000000E+03  0.17130000000E+03 0.  1.
       11    1    1    2    0    0  0.10457391690E+00 -0.22020567375E-03 -0.11948557407E+00  0.15878544083E+00  0.51109989000E-03 0.  1.
     -623    1    1    2    0    0  0.70974806821E+00  0.31488295708E+00  0.12587532888E+01  0.17130638445E+03  0.17130000000E+03 0.  1.
      622    1    1    2    0    0 -0.81432198512E+00 -0.31466275141E+00  0.28607322526E+01  0.38348301089E+01  0.24000000000E+01 0.  1.
</event>
<event>
 5   0  0.6825300E-03  0.9118800E+02  0.7818608E-02  0.1180000E+00
       11   -1    0    0    0    0  0.00000000000E+00  0.00000000000E+00  0.39999999673E+01  0.40000000000E+01  0.51109989000E-03 0.  1.
     -623   -1    0    0    0    0  0.00000000000E+00  0.00000000000E+00  0.12525980253E-10  0.17130000000E+03  0.17130000000E+03 0.  1.
       11    1    1    2    0    0  0.44557150340E-01 -0.11262806204E+00  0.47991729284E-01  0.13028387202E+00  0.51109989000E-03 0.  1.
     -623    1    1    2    0    0 -0.43150969512E-01  0.31151991557E+00  0.92652912772E+00  0.17130279438E+03  0.17130000000E+03 0.  1.
      622    1    1    2    0    0 -0.14061808275E-02 -0.19889185352E+00  0.30254791104E+01  0.38669217465E+01  0.24000000000E+01 0.  1.
</event>
<event>
 5   0  0.6825300E-03  0.9118800E+02  0.7818608E-02  0.1180000E+00
       11   -1    0    0    0    0  0.00000000000E+00  0.00000000000E+00  0.39999999673E+01  0.40000000000E+01  0.51109989000E-03 0. -1.
     -623   -1    0    0    0    0  0.00000000000E+00  0.00000000000E+00  0.12525980253E-10  0.17130000000E+03  0.17130000000E+03 0. -1.
       11    1    1    2    0    0  0.15599659204E+00  0.14169801615E-01  0.73292804934E-01  0.17293876513E+00  0.51109989000E-03 0. -1.
     -623    1    1    2    0    0  0.13359773515E+00 -0.22470858375E+00  0.97109898004E+00  0.17130295203E+03  0.17130000000E+03 0. -1.
      622    1    1    2    0    0 -0.28959432719E+00  0.21053878213E+00  0.29556081824E+01  0.38241092010E+01  0.24000000000E+01 0. -1.
</event>
<event>
 5   0  0.6825300E-03  0.9118800E+02  0.7818608E-02  0.1180000E+00
       11   -1    0    0    0    0  0.00000000000E+00  0.00000000000E+00  0.39999999673E+01  0.40000000000E+01  0.51109989000E-03 0. -1.
     -623   -1    0    0    0    0  0.00000000000E+00  0.00000000000E+00  0.12525980253E-10  0.17130000000E+03  0.17130000000E+03 0. -1.
       11    1    1    2    0    0  0.19101937481E+00  0.16482934554E+00 -0.41003268861E-01  0.25561424840E+00  0.51109989000E-03 0. -1.
     -623    1    1    2    0    0 -0.11256067816E+00  0.13783266169E-03  0.11780573754E+01  0.17130408778E+03  0.17130000000E+03 0. -1.
      622    1    1    2    0    0 -0.78458696655E-01 -0.16496717820E+00  0.28629458608E+01  0.37402979746E+01  0.24000000000E+01 0. -1.
</event>
<event>
 5   0  0.6825300E-03  0.9118800E+02  0.7818608E-02  0.1180000E+00
       11   -1    0    0    0    0  0.00000000000E+00  0.00000000000E+00  0.39999999673E+01  0.40000000000E+01  0.51109989000E-03 0. -1.
     -623   -1    0    0    0    0  0.00000000000E+00  0.00000000000E+00  0.12525980253E-10  0.17130000000E+03  0.17130000000E+03 0.  1.
       11    1    1    2    0    0 -0.16848737449E-01 -0.51385906756E-01  0.21597044649E-01  0.58233022651E-01  0.51109989000E-03 0. -1.
     -623    1    1    2    0    0 -0.23185033590E+00  0.37377996002E+00  0.88172655851E+00  0.17130283392E+03  0.17130000000E+03 0.  1.
      622    1    1    2    0    0  0.24869907335E+00 -0.32239405327E+00  0.30966763642E+01  0.39389330610E+01  0.24000000000E+01 0. -1.
</event>
<event>
 5   0  0.6825300E-03  0.9118800E+02  0.7818608E-02  0.1180000E+00
       11   -1    0    0    0    0  0.00000000000E+00  0.00000000000E+00  0.39999999673E+01  0.40000000000E+01  0.51109989000E-03 0. -1.
     -623   -1    0    0    0    0  0.00000000000E+00  0.00000000000E+00  0.12525980253E-10  0.17130000000E+03  0.17130000000E+03 0.  1.
       11    1    1    2    0    0 -0.78222993571E-01  0.71056120433E-01 -0.25864475117E-01  0.10879816759E+00  0.51109989000E-03 0. -1.
     -623    1    1    2    0    0 -0.21055995701E+00  0.83255743802E-01  0.98430560423E+00  0.17130297757E+03  0.17130000000E+03 0.  1.
      622    1    1    2    0    0  0.28878295058E+00 -0.15431186423E+00  0.30415588383E+01  0.38882242619E+01  0.24000000000E+01 0. -1.
</event>
<event>
 5   0  0.6825300E-03  0.9118800E+02  0.7818608E-02  0.1180000E+00
       11   -1    0    0    0    0  0.00000000000E+00  0.00000000000E+00  0.39999999673E+01  0.40000000000E+01  0.51109989000E-03 0.  1.
     -623   -1    0    0    0    0  0.00000000000E+00  0.00000000000E+00  0.12525980253E-10  0.17130000000E+03  0.17130000000E+03 0. -1.
       11    1    1    2    0    0 -0.30257650027E-01 -0.19680018533E-01 -0.59173185281E-01  0.69314901664E-01  0.51109989000E-03 0.  1.
     -623    1    1    2    0    0 -0.19879462747E+00 -0.27867956941E+00  0.97301070916E+00  0.17130310543E+03  0.17130000000E+03 0. -1.
      622    1    1    2    0    0  0.22905227749E+00  0.29835958794E+00  0.30861624435E+01  0.39275796640E+01  0.24000000000E+01 0.  1.
</event>
<event>
 5   0  0.6825300E-03  0.9118800E+02  0.7818608E-02  0.1180000E+00
       11   -1    0    0    0    0  0.00000000000E+00  0.00000000000E+00  0.39999999673E+01  0.40000000000E+01  0.51109989000E-03 0.  1.
     -623   -1    0    0    0    0  0.00000000000E+00  0.00000000000E+00  0.12525980253E-10  0.17130000000E+03  0.17130000000E+03 0.  1.
       11    1    1    2    0    0  0.75101190934E-01 -0.32999378430E+00  0.98660300474E-01  0.35251979047E+00  0.51109989000E-03 0.  1.
     -623    1    1    2    0    0  0.75677503521E+00  0.72062663986E-01  0.13057664208E+01  0.17130666341E+03  0.17130000000E+03 0.  1.
      622    1    1    2    0    0 -0.83187622614E+00  0.25793112032E+00  0.25955732461E+01  0.36408168032E+01  0.24000000000E+01 0.  1.
</event>
<event>
 5   0  0.6825300E-03  0.9118800E+02  0.7818608E-02  0.1180000E+00
       11   -1    0    0    0    0  0.00000000000E+00  0.00000000000E+00  0.39999999673E+01  0.40000000000E+01  0.51109989000E-03 0. -1.
     -623   -1    0    0    0    0  0.00000000000E+00  0.00000000000E+00  0.12525980253E-10  0.17130000000E+03  0.17130000000E+03 0. -1.
       11    1    1    2    0    0  0.15783328793E+00  0.15091506838E+00  0.38738065832E+00  0.44469173627E+00  0.51109989000E-03 0. -1.
     -623    1    1    2    0    0 -0.40056168965E+00 -0.10371728954E+00  0.10059880018E+01  0.17130345361E+03  0.17130000000E+03 0. -1.
      622    1    1    2    0    0  0.24272840172E+00 -0.47197778842E-01  0.26066313073E+01  0.35518546535E+01  0.24000000000E+01 0. -1.
</event>
<event>
 5   0  0.6825300E-03  0.9118800E+02  0.7818608E-02  0.1180000E+00
       11   -1    0    0    0    0  0.00000000000E+00  0.00000000000E+00  0.39999999673E+01  0.40000000000E+01  0.51109989000E-03 0.  1.
     -623   -1    0    0    0    0  0.00000000000E+00  0.00000000000E+00  0.12525980253E-10  0.17130000000E+03  0.17130000000E+03 0.  1.
       11    1    1    2    0    0 -0.93257920163E-01 -0.15484437009E+00  0.85178068239E-01  0.19982337990E+00  0.51109989000E-03 0.  1.
     -623    1    1    2    0    0  0.51362204370E+00  0.37215219620E+00  0.10121021443E+01  0.17130416415E+03  0.17130000000E+03 0.  1.
      622    1    1    2    0    0 -0.42036412354E+00 -0.21730782611E+00  0.29027197548E+01  0.37960124687E+01  0.24000000000E+01 0.  1.
</event>
<event>
 5   0  0.6825300E-03  0.9118800E+02  0.7818608E-02  0.1180000E+00
       11   -1    0    0    0    0  0.00000000000E+00  0.00000000000E+00  0.39999999673E+01  0.40000000000E+01  0.51109989000E-03 0. -1.
     -623   -1    0    0    0    0  0.00000000000E+00  0.00000000000E+00  0.12525980253E-10  0.17130000000E+03  0.17130000000E+03 0. -1.
       11    1    1    2    0    0  0.76789042559E-01  0.49494816362E-01  0.54223008692E+00  0.54987273281E+00  0.51109989000E-03 0. -1.
     -623    1    1    2    0    0 -0.17731364842E+00  0.10646985935E+01  0.12585552926E+01  0.17130802370E+03  0.17130000000E+03 0. -1.
      622    1    1    2    0    0  0.10052460586E+00 -0.11141934099E+01  0.21992145878E+01  0.34421035653E+01  0.24000000000E+01 0.  0.
</event>
<event>
 5   0  0.6825300E-03  0.9118800E+02  0.7818608E-02  0.1180000E+00
       11   -1    0    0    0    0  0.00000000000E+00  0.00000000000E+00  0.39999999673E+01  0.40000000000E+01  0.51109989000E-03 0.  1.
     -623   -1    0    0    0    0  0.00000000000E+00  0.00000000000E+00  0.12525980253E-10  0.17130000000E+03  0.17130000000E+03 0.  1.
       11    1    1    2    0    0  0.15517863532E-01 -0.10926444154E+00  0.29629453136E+00  0.31618069645E+00  0.51109989000E-03 0.  1.
     -623    1    1    2    0    0 -0.14150803594E+00  0.35586476841E-01  0.91610373781E+00  0.17130251176E+03  0.17130000000E+03 0.  1.
      622    1    1    2    0    0  0.12599017241E+00  0.73677964694E-01  0.27876016982E+01  0.36813075386E+01  0.24000000000E+01 0.  1.
</event>
<event>
 5   0  0.6825300E-03  0.9118800E+02  0.7818608E-02  0.1180000E+00
       11   -1    0    0    0    0  0.00000000000E+00  0.00000000000E+00  0.39999999673E+01  0.40000000000E+01  0.51109989000E-03 0. -1.
     -623   -1    0    0    0    0  0.00000000000E+00  0.00000000000E+00  0.12525980253E-10  0.17130000000E+03  0.17130000000E+03 0. -1.
       11    1    1    2    0    0  0.59855036845E-02  0.64249333692E-01  0.17614759581E+00  0.18759541536E+00  0.51109989000E-03 0. -1.
     -623    1    1    2    0    0 -0.40839571403E+00 -0.20387273936E+00  0.89631206281E+00  0.17130295306E+03  0.17130000000E+03 0. -1.
      622    1    1    2    0    0  0.40241021035E+00  0.13962340567E+00  0.29275403087E+01  0.38094515264E+01  0.24000000000E+01 0. -1.
</event>
<event>
 5   0  0.6825300E-03  0.9118800E+02  0.7818608E-02  0.1180000E+00
       11   -1    0    0    0    0  0.00000000000E+00  0.00000000000E+00  0.39999999673E+01  0.40000000000E+01  0.51109989000E-03 0. -1.
     -623   -1    0    0    0    0  0.00000000000E+00  0.00000000000E+00  0.12525980253E-10  0.17130000000E+03  0.17130000000E+03 0.  1.
       11    1    1    2    0    0  0.36928582756E-01 -0.66202098476E-01 -0.62563224919E-01  0.98289655623E-01  0.51109989000E-03 0. -1.
     -623    1    1    2    0    0  0.37350368865E+00  0.31008317234E+00  0.10284294697E+01  0.17130377498E+03  0.17130000000E+03 0.  1.
      622    1    1    2    0    0 -0.41043227141E+00 -0.24388107386E+00  0.30341337226E+01  0.38979353604E+01  0.24000000000E+01 0. -1.
</event>
<event>
 5   0  0.6825300E-03  0.9118800E+02  0.7818608E-02  0.1180000E+00
       11   -1    0    0    0    0  0.00000000000E+00  0.00000000000E+00  0.39999999673E+01  0.40000000000E+01  0.51109989000E-03 0.  1.
     -623   -1    0    0    0    0  0.00000000000E+00  0.00000000000E+00  0.12525980253E-10  0.17130000000E+03  0.17130000000E+03 0.  1.
       11    1    1    2    0    0  0.52965948733E+00  0.27654387759E+00  0.24072704636E+00  0.64417812818E+00  0.51109989000E-03 0.  1.
     -623    1    1    2    0    0  0.26073554312E+00  0.29034235270E+00  0.16379563923E+01  0.17130827529E+03  0.17130000000E+03 0.  1.
      622    1    1    2    0    0 -0.79039503045E+00 -0.56688623030E+00  0.21213165287E+01  0.33475465818E+01  0.24000000000E+01 0.  1.
</event>
<event>
 5   0  0.6825300E-03  0.9118800E+02  0.7818608E-02  0.1180000E+00
       11   -1    0    0    0    0  0.00000000000E+00  0.00000000000E+00  0.39999999673E+01  0.40000000000E+01  0.51109989000E-03 0.  1.
     -623   -1    0    0    0    0  0.00000000000E+00  0.00000000000E+00  0.12525980253E-10  0.17130000000E+03  0.17130000000E+03 0.  1.
       11    1    1    2    0    0  0.16954951311E+00 -0.10486065405E+00 -0.22290369262E-01  0.20059889319E+00  0.51109989000E-03 0.  1.
     -623    1    1    2    0    0 -0.41322555585E+00 -0.14223326547E+00  0.11027311982E+01  0.17130410679E+03  0.17130000000E+03 0.  1.
      622    1    1    2    0    0  0.24367604274E+00  0.24709391952E+00  0.29195591384E+01  0.37952943208E+01  0.24000000000E+01 0.  1.
</event>
<event>
 5   0  0.6825300E-03  0.9118800E+02  0.7818608E-02  0.1180000E+00
       11   -1    0    0    0    0  0.00000000000E+00  0.00000000000E+00  0.39999999673E+01  0.40000000000E+01  0.51109989000E-03 0.  1.
     -623   -1    0    0    0    0  0.00000000000E+00  0.00000000000E+00  0.12525980253E-10  0.17130000000E+03  0.17130000000E+03 0.  1.
       11    1    1    2    0    0 -0.74975089822E-01 -0.16601096370E+00 -0.81686546707E-01  0.19963430892E+00  0.51109989000E-03 0.  1.
     -623    1    1    2    0    0 -0.36862667772E-02 -0.20440089915E-01  0.11469551446E+01  0.17130384099E+03  0.17130000000E+03 0.  1.
      622    1    1    2    0    0  0.78661356599E-01  0.18645105362E+00  0.29347313695E+01  0.37965247024E+01  0.24000000000E+01 0.  1.
</event>
<event>
 5   0  0.6825300E-03  0.9118800E+02  0.7818608E-02  0.1180000E+00
       11   -1    0    0    0    0  0.00000000000E+00  0.00000000000E+00  0.39999999673E+01  0.40000000000E+01  0.51109989000E-03 0.  1.
     -623   -1    0    0    0    0  0.00000000000E+00  0.00000000000E+00  0.12525980253E-10  0.17130000000E+03  0.17130000000E+03 0.  1.
       11    1    1    2    0    0  0.33919373321E-01  0.19948364500E+00  0.13159140612E+00  0.24137275715E+00  0.51109989000E-03 0.  1.
     -623    1    1    2    0    0 -0.21409106387E+00 -0.64620378161E-01  0.98846023310E+00  0.17130299783E+03  0.17130000000E+03 0.  1.
      622    1    1    2    0    0  0.18017169055E+00 -0.13486326683E+00  0.28799483281E+01  0.37556294162E+01  0.24000000000E+01 0.  1.
</event>
<event>
 5   0  0.6825300E-03  0.9118800E+02  0.7818608E-02  0.1180000E+00
       11   -1    0    0    0    0  0.00000000000E+00  0.00000000000E+00  0.39999999673E+01  0.40000000000E+01  0.51109989000E-03 0.  1.
     -623   -1    0    0    0    0  0.00000000000E+00  0.00000000000E+00  0.12525980253E-10  0.17130000000E+03  0.17130000000E+03 0. -1.
       11    1    1    2    0    0 -0.32993721289E-01  0.20496751669E+00  0.10752763448E+00  0.23380060295E+00  0.51109989000E-03 0.  1.
     -623    1    1    2    0    0  0.68031470672E+00  0.26301965186E+00  0.11090374404E+01  0.17130514286E+03  0.17130000000E+03 0. -1.
      622    1    1    2    0    0 -0.64732098543E+00 -0.46798716855E+00  0.27834348924E+01  0.37610565336E+01  0.24000000000E+01 0. -1.
</event>
<event>
 5   0  0.6825300E-03  0.9118800E+02  0.7818608E-02  0.1180000E+00
       11   -1    0    0    0    0  0.00000000000E+00  0.00000000000E+00  0.39999999673E+01  0.40000000000E+01  0.51109989000E-03 0. -1.
     -623   -1    0    0    0    0  0.00000000000E+00  0.00000000000E+00  0.12525980253E-10  0.17130000000E+03  0.17130000000E+03 0. -1.
       11    1    1    2    0    0 -0.14556035954E+00 -0.39863313701E-01 -0.28244403256E-01  0.15354123090E+00  0.51109989000E-03 0. -1.
     -623    1    1    2    0    0  0.23773431313E+00 -0.81538172446E-01  0.10304517718E+01  0.17130328367E+03  0.17130000000E+03 0. -1.
      622    1    1    2    0    0 -0.92173953589E-01  0.12140148615E+00  0.29977925988E+01  0.38431750967E+01  0.24000000000E+01 0. -1.
</event>
<event>
 5   0  0.6825300E-03  0.9118800E+02  0.7818608E-02  0.1180000E+00
       11   -1    0    0    0    0  0.00000000000E+00  0.00000000000E+00  0.39999999673E+01  0.40000000000E+01  0.51109989000E-03 0. -1.
     -623   -1    0    0    0    0  0.00000000000E+00  0.00000000000E+00  0.12525980253E-10  0.17130000000E+03  0.17130000000E+03 0. -1.
       11    1    1    2    0    0  0.63286239211E-01  0.43179422110E-02 -0.59707857515E-01  0.87115338311E-01  0.51109989000E-03 0. -1.
     -623    1    1    2    0    0 -0.74839671093E-02  0.34425729117E+00  0.99363581268E+00  0.17130322788E+03  0.17130000000E+03 0. -1.
      622    1    1    2    0    0 -0.55802272102E-01 -0.34857523338E+00  0.30660720122E+01  0.39096567843E+01  0.24000000000E+01 0. -1.
</event>
<event>
 5   0  0.6825300E-03  0.9118800E+02  0.7818608E-02  0.1180000E+00
       11   -1    0    0    0    0  0.00000000000E+00  0.00000000000E+00  0.39999999673E+01  0.40000000000E+01  0.51109989000E-03 0. -1.
     -623   -1    0    0    0    0  0.00000000000E+00  0.00000000000E+00  0.12525980253E-10  0.17130000000E+03  0.17130000000E+03 0. -1.
       11    1    1    2    0    0  0.27875499442E-01  0.97920000379E-01  0.30286286290E-01  0.10622095039E+00  0.51109989000E-03 0. -1.
     -623    1    1    2    0    0 -0.69401764873E+00 -0.12268736514E+01  0.12120367378E+01  0.17131008701E+03  0.17130000000E+03 0. -1.
      622    1    1    2    0    0  0.66614214929E+00  0.11289536510E+01  0.27576769433E+01  0.38836920363E+01  0.24000000000E+01 0. -1.
</event>
<event>
 5   0  0.6825300E-03  0.9118800E+02  0.7818608E-02  0.1180000E+00
       11   -1    0    0    0    0  0.00000000000E+00  0.00000000000E+00  0.39999999673E+01  0.40000000000E+01  0.51109989000E-03 0.  1.
     -623   -1    0    0    0    0  0.00000000000E+00  0.00000000000E+00  0.12525980253E-10  0.17130000000E+03  0.17130000000E+03 0.  1.
       11    1    1    2    0    0  0.25614398890E+00  0.23964459262E+00  0.17314629785E+00  0.39117665511E+00  0.51109989000E-03 0.  1.
     -623    1    1    2    0    0 -0.67399602297E+00 -0.21431308156E+00  0.11718724589E+01  0.17130546835E+03  0.17130000000E+03 0.  1.
      622    1    1    2    0    0  0.41785203407E+00 -0.25331511057E-01  0.26549812106E+01  0.36033549973E+01  0.24000000000E+01 0.  1.
</event>
<event>
 5   0  0.6825300E-03  0.9118800E+02  0.7818608E-02  0.1180000E+00
       11   -1    0    0    0    0  0.00000000000E+00  0.00000000000E+00  0.39999999673E+01  0.40000000000E+01  0.51109989000E-03 0. -1.
     -623   -1    0    0    0    0  0.00000000000E+00  0.00000000000E+00  0.12525980253E-10  0.17130000000E+03  0.17130000000E+03 0. -1.
       11    1    1    2    0    0  0.90750133639E-02 -0.13991091632E+00  0.70336583285E-01  0.15685954400E+00  0.51109989000E-03 0. -1.
     -623    1    1    2    0    0  0.15165658935E+00 -0.50913754471E+00  0.10084483589E+01  0.17130379210E+03  0.17130000000E+03 0. -1.
      622    1    1    2    0    0 -0.16073160272E+00  0.64904846102E+00  0.29212150252E+01  0.38393483530E+01  0.24000000000E+01 0. -1.
</event>
<event>
 5   0  0.6825300E-03  0.9118800E+02  0.7818608E-02  0.1180000E+00
       11   -1    0    0    0    0  0.00000000000E+00  0.00000000000E+00  0.39999999673E+01  0.40000000000E+01  0.51109989000E-03 0.  1.
     -623   -1    0    0    0    0  0.00000000000E+00  0.00000000000E+00  0.12525980253E-10  0.17130000000E+03  0.17130000000E+03 0. -1.
       11    1    1    2    0    0 -0.16309135754E+00  0.80774623143E-02  0.55320420819E-01  0.17240837127E+00  0.51109989000E-03 0.  1.
     -623    1    1    2    0    0 -0.13678204809E+00 -0.78823880246E-01  0.98268648866E+00  0.17130289138E+03  0.17130000000E+03 0. -1.
      622    1    1    2    0    0  0.29987340563E+00  0.70746417932E-01  0.29619930579E+01  0.38247002484E+01  0.24000000000E+01 0.  1.
</event>
<event>
 5   0  0.6825300E-03  0.9118800E+02  0.7818608E-02  0.1180000E+00
       11   -1    0    0    0    0  0.00000000000E+00  0.00000000000E+00  0.39999999673E+01  0.40000000000E+01  0.51109989000E-03 0. -1.
     -623   -1    0    0    0    0  0.00000000000E+00  0.00000000000E+00  0.12525980253E-10  0.17130000000E+03  0.17130000000E+03 0. -1.
       11    1    1    2    0    0  0.80021892032E-01  0.26450578986E+00 -0.91752052688E-01  0.29117952618E+00  0.51109989000E-03 0. -1.
     -623    1    1    2    0    0  0.54351217847E-01  0.17038324355E+00  0.13077856393E+01  0.17130508541E+03  0.17130000000E+03 0. -1.
      622    1    1    2    0    0 -0.13437310988E+00 -0.43488903341E+00  0.27839663807E+01  0.37037350625E+01  0.24000000000E+01 0. -1.
</event>
<event>
 5   0  0.6825300E-03  0.9118800E+02  0.7818608E-02  0.1180000E+00
       11   -1    0    0    0    0  0.00000000000E+00  0.00000000000E+00  0.39999999673E+01  0.40000000000E+01  0.51109989000E-03 0. -1.
     -623   -1    0    0    0    0  0.00000000000E+00  0.00000000000E+00  0.12525980253E-10  0.17130000000E+03  0.17130000000E+03 0. -1.
       11    1    1    2    0    0  0.50717317245E+00  0.33293980909E+00  0.41381266773E+00  0.73438050663E+00  0.51109989000E-03 0. -1.
     -623    1    1    2    0    0  0.11731414073E+00 -0.33064512481E+00  0.14717878917E+01  0.17130668186E+03  0.17130000000E+03 0. -1.
      622    1    1    2    0    0 -0.62448731318E+00 -0.22946842784E-02  0.21143994080E+01  0.32589376377E+01  0.24000000000E+01 0. -1.
</event>
<event>
 5   0  0.6825300E-03  0.9118800E+02  0.7818608E-02  0.1180000E+00
       11   -1    0    0    0    0  0.00000000000E+00  0.00000000000E+00  0.39999999673E+01  0.40000000000E+01  0.51109989000E-03 0. -1.
     -623   -1    0    0    0    0  0.00000000000E+00  0.00000000000E+00  0.12525980253E-10  0.17130000000E+03  0.17130000000E+03 0.  1.
       11    1    1    2    0    0 -0.21701534334E-01 -0.53638302919E-01  0.61446364598E-02  0.58189706235E-01  0.51109989000E-03 0. -1.
     -623    1    1    2    0    0  0.20310474174E+00  0.13128495991E+00  0.87617557349E+00  0.17130241146E+03  0.17130000000E+03 0.  1.
      622    1    1    2    0    0 -0.18140320741E+00 -0.77646656994E-01  0.31176797574E+01  0.39393988370E+01  0.24000000000E+01 0. -1.
</event>
<event>
 5   0  0.6825300E-03  0.9118800E+02  0.7818608E-02  0.1180000E+00
       11   -1    0    0    0    0  0.00000000000E+00  0.00000000000E+00  0.39999999673E+01  0.40000000000E+01  0.51109989000E-03 0.  1.
     -623   -1    0    0    0    0  0.00000000000E+00  0.00000000000E+00  0.12525980253E-10  0.17130000000E+03  0.17130000000E+03 0. -1.
       11    1    1    2    0    0  0.71933095831E-01  0.24906330449E-02  0.44702021269E-01  0.84729602007E-01  0.51109989000E-03 0.  1.
     -623    1    1    2    0    0 -0.31261326420E+00  0.58787609858E+00  0.93323596368E+00  0.17130383608E+03  0.17130000000E+03 0. -1.
      622    1    1    2    0    0  0.24068016837E+00 -0.59036673162E+00  0.30220619824E+01  0.39114343209E+01  0.24000000000E+01 0.  1.
</event>
<event>
 5   0  0.6825300E-03  0.9118800E+02  0.7818608E-02  0.1180000E+00
       11   -1    0    0    0    0  0.00000000000E+00  0.00000000000E+00  0.39999999673E+01  0.40000000000E+01  0.51109989000E-03 0.  1.
     -623   -1    0    0    0    0  0.00000000000E+00  0.00000000000E+00  0.12525980253E-10  0.17130000000E+03  0.17130000000E+03 0. -1.
       11    1    1    2    0    0  0.77622643105E-02 -0.26272938275E-02  0.65663451870E-02  0.10513492868E-01  0.51109989000E-03 0.  1.
     -623    1    1    2    0    0  0.13607442487E-01 -0.23614447224E+00  0.81827353816E+00  0.17130211768E+03  0.17130000000E+03 0. -1.
      622    1    1    2    0    0 -0.21369706798E-01  0.23877176606E+00  0.31751600840E+01  0.39873688292E+01  0.24000000000E+01 0.  1.
</event>
<event>
 5   0  0.6825300E-03  0.9118800E+02  0.7818608E-02  0.1180000E+00
       11   -1    0    0    0    0  0.00000000000E+00  0.00000000000E+00  0.39999999673E+01  0.40000000000E+01  0.51109989000E-03 0.  1.
     -623   -1    0    0    0    0  0.00000000000E+00  0.00000000000E+00  0.12525980253E-10  0.17130000000E+03  0.17130000000E+03 0.  1.
       11    1    1    2    0    0  0.34123584363E+00 -0.12139651393E+00 -0.59465094702E-01  0.36703592914E+00  0.51109989000E-03 0.  1.
     -623    1    1    2    0    0 -0.68316809228E-01 -0.44277731238E+00  0.14138953804E+01  0.17130642083E+03  0.17130000000E+03 0.  1.
      622    1    1    2    0    0 -0.27291903440E+00  0.56417382631E+00  0.26455696817E+01  0.36265432365E+01  0.24000000000E+01 0.  1.
</event>
<event>
 5   0  0.6825300E-03  0.9118800E+02  0.7818608E-02  0.1180000E+00
       11   -1    0    0    0    0  0.00000000000E+00  0.00000000000E+00  0.39999999673E+01  0.40000000000E+01  0.51109989000E-03 0.  1.
     -623   -1    0    0    0    0  0.00000000000E+00  0.00000000000E+00  0.12525980253E-10  0.17130000000E+03  0.17130000000E+03 0.  1.
       11    1    1    2    0    0 -0.14271208614E+00 -0.50362547967E-01  0.21869539777E+00  0.26595312368E+00  0.51109989000E-03 0.  1.
     -623    1    1    2    0    0  0.60579255397E+00  0.69046566089E+00  0.10395874695E+01  0.17130561716E+03  0.17130000000E+03 0.  1.
      622    1    1    2    0    0 -0.46308046783E+00 -0.64010311292E+00  0.27417171001E+01  0.37284297193E+01  0.24000000000E+01 0.  1.
</event>
<event>
 5   0  0.6825300E-03  0.9118800E+02  0.7818608E-02  0.1180000E+00
       11   -1    0    0    0    0  0.00000000000E+00  0.00000000000E+00  0.39999999673E+01  0.40000000000E+01  0.51109989000E-03 0.  1.
     -623   -1    0    0    0    0  0.00000000000E+00  0.00000000000E+00  0.12525980253E-10  0.17130000000E+03  0.17130000000E+03 0. -1.
       11    1    1    2    0    0  0.15932615204E-01  0.17600301068E+00  0.13840181188E+00  0.22446877455E+00  0.51109989000E-03 0.  1.
     -623    1    1    2    0    0 -0.33476410028E+00 -0.15467628858E+00  0.96870028582E+00  0.17130313591E+03  0.17130000000E+03 0. -1.
      622    1    1    2    0    0  0.31883148508E+00 -0.21326722101E-01  0.28928978697E+01  0.37723953172E+01  0.24000000000E+01 0.  1.
</event>
<event>
 5   0  0.6825300E-03  0.9118800E+02  0.7818608E-02  0.1180000E+00
       11   -1    0    0    0    0  0.00000000000E+00  0.00000000000E+00  0.39999999673E+01  0.40000000000E+01  0.51109989000E-03 0. -1.
     -623   -1    0    0    0    0  0.00000000000E+00  0.00000000000E+00  0.12525980253E-10  0.17130000000E+03  0.17130000000E+03 0.  1.
       11    1    1    2    0    0 -0.53220310758E-01  0.82676483305E-01  0.17055962266E-01  0.99794636332E-01  0.51109989000E-03 0. -1.
     -623    1    1    2    0    0  0.15055332560E+00 -0.34378643004E+00  0.92495904840E+00  0.17130290834E+03  0.17130000000E+03 0.  1.
      622    1    1    2    0    0 -0.97333014840E-01  0.26110994674E+00  0.30579849567E+01  0.38972970268E+01  0.24000000000E+01 0. -1.
</event>
<event>
 5   0  0.6825300E-03  0.9118800E+02  0.7818608E-02  0.1180000E+00
       11   -1    0    0    0    0  0.00000000000E+00  0.00000000000E+00  0.39999999673E+01  0.40000000000E+01  0.51109989000E-03 0.  1.
     -623   -1    0    0    0    0  0.00000000000E+00  0.00000000000E+00  0.12525980253E-10  0.17130000000E+03  0.17130000000E+03 0.  1.
       11    1    1    2    0    0  0.48862658177E+00 -0.49368408382E-03  0.29567646655E+00  0.57112259125E+00  0.51109989000E-03 0.  1.
     -623    1    1    2    0    0 -0.11227858694E+00 -0.10656947949E+00  0.12939016320E+01  0.17130495657E+03  0.17130000000E+03 0.  1.
      622    1    1    2    0    0 -0.37634799483E+00  0.10706316357E+00  0.24104218688E+01  0.34239208402E+01  0.24000000000E+01 0.  1.
</event>
<event>
 5   0  0.6825300E-03  0.9118800E+02  0.7818608E-02  0.1180000E+00
       11   -1    0    0    0    0  0.00000000000E+00  0.00000000000E+00  0.39999999673E+01  0.40000000000E+01  0.51109989000E-03 0.  1.
     -623   -1    0    0    0    0  0.00000000000E+00  0.00000000000E+00  0.12525980253E-10  0.17130000000E+03  0.17130000000E+03 0.  1.
       11    1    1    2    0    0  0.29429046500E-01 -0.42343289663E+00  0.45270255334E+00  0.62056534688E+00  0.51109989000E-03 0.  1.
     -623    1    1    2    0    0  0.31209997170E+00  0.18337082713E+00  0.12117511712E+01  0.17130466827E+03  0.17130000000E+03 0.  1.
      622    1    1    2    0    0 -0.34152901820E+00  0.24006206950E+00  0.23355462428E+01  0.33747663800E+01  0.24000000000E+01 0.  1.
</event>
<event>
 5   0  0.6825300E-03  0.9118800E+02  0.7818608E-02  0.1180000E+00
       11   -1    0    0    0    0  0.00000000000E+00  0.00000000000E+00  0.39999999673E+01  0.40000000000E+01  0.51109989000E-03 0.  1.
     -623   -1    0    0    0    0  0.00000000000E+00  0.00000000000E+00  0.12525980253E-10  0.17130000000E+03  0.17130000000E+03 0. -1.
       11    1    1    2    0    0  0.10396878705E+00 -0.35300769809E-01  0.79192821489E-01  0.13537879165E+00  0.51109989000E-03 0.  1.
     -623    1    1    2    0    0  0.79686882315E-01 -0.11648061678E+00  0.90424619582E+00  0.17130244475E+03  0.17130000000E+03 0. -1.
      622    1    1    2    0    0 -0.18365566937E+00  0.15178138659E+00  0.30165609501E+01  0.38621764537E+01  0.24000000000E+01 0.  1.
</event>
<event>
 5   0  0.6825300E-03  0.9118800E+02  0.7818608E-02  0.1180000E+00
       11   -1    0    0    0    0  0.00000000000E+00  0.00000000000E+00  0.39999999673E+01  0.40000000000E+01  0.51109989000E-03 0. -1.
     -623   -1    0    0    0    0  0.00000000000E+00  0.00000000000E+00  0.12525980253E-10  0.17130000000E+03  0.17130000000E+03 0. -1.
       11    1    1    2    0    0 -0.22407479640E+00 -0.61286269088E-01  0.46739188600E+00  0.52193961095E+00  0.51109989000E-03 0. -1.
     -623    1    1    2    0    0  0.78504705794E+00 -0.11269788781E+00  0.10923262832E+01  0.17130531859E+03  0.17130000000E+03 0. -1.
      622    1    1    2    0    0 -0.56097226154E+00  0.17398415689E+00  0.24402817981E+01  0.34727418014E+01  0.24000000000E+01 0. -1.
</event>
<event>
 5   0  0.6825300E-03  0.9118800E+02  0.7818608E-02  0.1180000E+00
       11   -1    0    0    0    0  0.00000000000E+00  0.00000000000E+00  0.39999999673E+01  0.40000000000E+01  0.51109989000E-03 0.  1.
     -623   -1    0    0    0    0  0.00000000000E+00  0.00000000000E+00  0.12525980253E-10  0.17130000000E+03  0.17130000000E+03 0.  1.
       11    1    1    2    0    0 -0.25932223591E+00 -0.34415404450E+00  0.28653326597E+00  0.51748584726E+00  0.51109989000E-03 0.  1.
     -623    1    1    2    0    0  0.27267277997E+00  0.67967765079E+00  0.12206790502E+01  0.17130591458E+03  0.17130000000E+03 0.  1.
      622    1    1    2    0    0 -0.13350544056E-01 -0.33552360629E+00  0.24927876512E+01  0.34765995745E+01  0.24000000000E+01 0.  1.
</event>
<event>
 5   0  0.6825300E-03  0.9118800E+02  0.7818608E-02  0.1180000E+00
       11   -1    0    0    0    0  0.00000000000E+00  0.00000000000E+00  0.39999999673E+01  0.40000000000E+01  0.51109989000E-03 0.  1.
     -623   -1    0    0    0    0  0.00000000000E+00  0.00000000000E+00  0.12525980253E-10  0.17130000000E+03  0.17130000000E+03 0.  1.
       11    1    1    2    0    0 -0.81245883731E-01  0.11388532154E+00 -0.19247868513E-01  0.14121438223E+00  0.51109989000E-03 0.  1.
     -623    1    1    2    0    0 -0.39754357200E+00 -0.66958842261E-01  0.10408704271E+01  0.17130363667E+03  0.17130000000E+03 0.  1.
      622    1    1    2    0    0  0.47878945573E+00 -0.46926479274E-01  0.29783774087E+01  0.38551489499E+01  0.24000000000E+01 0.  1.
</event>
<event>
 5   0  0.6825300E-03  0.9118800E+02  0.7818608E-02  0.1180000E+00
       11   -1    0    0    0    0  0.00000000000E+00  0.00000000000E+00  0.39999999673E+01  0.40000000000E+01  0.51109989000E-03 0.  1.
     -623   -1    0    0    0    0  0.00000000000E+00  0.00000000000E+00  0.12525980253E-10  0.17130000000E+03  0.17130000000E+03 0. -1.
       11    1    1    2    0    0 -0.12796380718E+00  0.57813172761E+00 -0.31582532660E-01  0.59296605974E+00  0.51109989000E-03 0.  1.
     -623    1    1    2    0    0  0.34844148553E+00 -0.96373293941E+00  0.16705839478E+01  0.17131121108E+03  0.17130000000E+03 0. -1.
      622    1    1    2    0    0 -0.22047767835E+00  0.38560121181E+00  0.23609985523E+01  0.33958228554E+01  0.24000000000E+01 0.  1.
</event>
<event>
 5   0  0.6825300E-03  0.9118800E+02  0.7818608E-02  0.1180000E+00
       11   -1    0    0    0    0  0.00000000000E+00  0.00000000000E+00  0.39999999673E+01  0.40000000000E+01  0.51109989000E-03 0. -1.
     -623   -1    0    0    0    0  0.00000000000E+00  0.00000000000E+00  0.12525980253E-10  0.17130000000E+03  0.17130000000E+03 0.  1.
       11    1    1    2    0    0  0.15842512405E+00  0.18933970055E+00  0.57798824602E-01  0.25355277061E+00  0.51109989000E-03 0. -1.
     -623    1    1    2    0    0  0.96013059249E-01 -0.14347471689E+00  0.10816421818E+01  0.17130350187E+03  0.17130000000E+03 0.  1.
      622    1    1    2    0    0 -0.25443818330E+00 -0.45864983662E-01  0.28605589610E+01  0.37429453583E+01  0.24000000000E+01 0. -1.
</event>
<event>
 5   0  0.6825300E-03  0.9118800E+02  0.7818608E-02  0.1180000E+00
       11   -1    0    0    0    0  0.00000000000E+00  0.00000000000E+00  0.39999999673E+01  0.40000000000E+01  0.51109989000E-03 0. -1.
     -623   -1    0    0    0    0  0.00000000000E+00  0.00000000000E+00  0.12525980253E-10  0.17130000000E+03  0.17130000000E+03 0.  1.
       11    1    1    2    0    0  0.30942356337E+00 -0.37667983662E+00  0.59453458384E+00  0.76883175890E+00  0.51109989000E-03 0. -1.
     -623    1    1    2    0    0 -0.14753247086E-01  0.73313094744E+00  0.13020196114E+01  0.17130651755E+03  0.17130000000E+03 0.  1.
      622    1    1    2    0    0 -0.29467031629E+00 -0.35645111082E+00  0.21034457721E+01  0.32246506952E+01  0.24000000000E+01 0. -1.
</event>
<event>
 5   0  0.6825300E-03  0.9118800E+02  0.7818608E-02  0.1180000E+00
       11   -1    0    0    0    0  0.00000000000E+00  0.00000000000E+00  0.39999999673E+01  0.40000000000E+01  0.51109989000E-03 0.  1.
     -623   -1    0    0    0    0  0.00000000000E+00  0.00000000000E+00  0.12525980253E-10  0.17130000000E+03  0.17130000000E+03 0.  1.
       11    1    1    2    0    0 -0.38343636981E-01  0.45624073824E-01  0.19080826653E-01  0.62578988311E-01  0.51109989000E-03 0.  1.
     -623    1    1    2    0    0 -0.30722846426E+00 -0.12800249745E-01  0.88209108201E+00  0.17130254709E+03  0.17130000000E+03 0.  1.
      622    1    1    2    0    0  0.34557210124E+00 -0.32823824078E-01  0.30988280587E+01  0.39348739266E+01  0.24000000000E+01 0.  1.
</event>
<event>
 5   0  0.6825300E-03  0.9118800E+02  0.7818608E-02  0.1180000E+00
       11   -1    0    0    0    0  0.00000000000E+00  0.00000000000E+00  0.39999999673E+01  0.40000000000E+01  0.51109989000E-03 0. -1.
     -623   -1    0    0    0    0  0.00000000000E+00  0.00000000000E+00  0.12525980253E-10  0.17130000000E+03  0.17130000000E+03 0. -1.
       11    1    1    2    0    0 -0.13880297108E-01 -0.15200788789E+00 -0.73182384726E-02  0.15281648624E+00  0.51109989000E-03 0. -1.
     -623    1    1    2    0    0  0.43196983842E+00  0.33377921098E+00  0.10405033887E+01  0.17130402988E+03  0.17130000000E+03 0. -1.
      622    1    1    2    0    0 -0.41808954131E+00 -0.18177132309E+00  0.29668148171E+01  0.38431536318E+01  0.24000000000E+01 0. -1.
</event>
<event>
 5   0  0.6825300E-03  0.9118800E+02  0.7818608E-02  0.1180000E+00
       11   -1    0    0    0    0  0.00000000000E+00  0.00000000000E+00  0.39999999673E+01  0.40000000000E+01  0.51109989000E-03 0.  1.
     -623   -1    0    0    0    0  0.00000000000E+00  0.00000000000E+00  0.12525980253E-10  0.17130000000E+03  0.17130000000E+03 0. -1.
       11    1    1    2    0    0  0.18300846980E+00 -0.10686187837E+00  0.31292316062E-01  0.21422192076E+00  0.51109989000E-03 0.  1.
     -623    1    1    2    0    0  0.58696958305E-01 -0.97148758615E-01  0.10623597929E+01  0.17130333182E+03  0.17130000000E+03 0. -1.
      622    1    1    2    0    0 -0.24170542811E+00  0.20401063699E+00  0.29063478584E+01  0.37824462624E+01  0.24000000000E+01 0.  1.
</event>
<event>
 5   0  0.6825300E-03  0.9118800E+02  0.7818608E-02  0.1180000E+00
       11   -1    0    0    0    0  0.00000000000E+00  0.00000000000E+00  0.39999999673E+01  0.40000000000E+01  0.51109989000E-03 0. -1.
     -623   -1    0    0    0    0  0.00000000000E+00  0.00000000000E+00  0.12525980253E-10  0.17130000000E+03  0.17130000000E+03 0. -1.
       11    1    1    2    0    0  0.28832375333E+00 -0.24594569192E+00 -0.10023836487E-01  0.37910501003E+00  0.51109989000E-03 0. -1.
     -623    1    1    2    0    0  0.11234029450E+00 -0.90361646374E-01  0.13571185720E+01  0.17130543645E+03  0.17130000000E+03 0. -1.
      622    1    1    2    0    0 -0.40066404783E+00  0.33630733829E+00  0.26529052318E+01  0.36154585427E+01  0.24000000000E+01 0. -1.
</event>
<event>
 5   0  0.6825300E-03  0.9118800E+02  0.7818608E-02  0.1180000E+00
       11   -1    0    0    0    0  0.00000000000E+00  0.00000000000E+00  0.39999999673E+01  0.40000000000E+01  0.51109989000E-03 0. -1.
     -623   -1    0    0    0    0  0.00000000000E+00  0.00000000000E+00  0.12525980253E-10  0.17130000000E+03  0.17130000000E+03 0.  1.
       11    1    1    2    0    0  0.18478960733E+00 -0.65491109845E+00  0.75866201188E+00  0.10191290671E+01  0.51109989000E-03 0. -1.
     -623    1    1    2    0    0 -0.23936928228E+00  0.20518397813E+00  0.15451252453E+01  0.17130725849E+03  0.17130000000E+03 0.  1.
      622    1    1    2    0    0  0.54579674944E-01  0.44972712032E+00  0.16962127102E+01  0.29736124465E+01  0.24000000000E+01 0. -1.
</event>
<event>
 5   0  0.6825300E-03  0.9118800E+02  0.7818608E-02  0.1180000E+00
       11   -1    0    0    0    0  0.00000000000E+00  0.00000000000E+00  0.39999999673E+01  0.40000000000E+01  0.51109989000E-03 0. -1.
     -623   -1    0    0    0    0  0.00000000000E+00  0.00000000000E+00  0.12525980253E-10  0.17130000000E+03  0.17130000000E+03 0. -1.
       11    1    1    2    0    0 -0.26011464502E-01 -0.73359031501E-02 -0.14590923947E-01  0.30717552723E-01  0.51109989000E-03 0. -1.
     -623    1    1    2    0    0  0.92761314203E-01  0.18007338803E+00  0.86137484137E+00  0.17130228544E+03  0.17130000000E+03 0. -1.
      622    1    1    2    0    0 -0.66749849701E-01 -0.17273748488E+00  0.31532160499E+01  0.39669970051E+01  0.24000000000E+01 0. -1.
</event>
<event>
 5   0  0.6825300E-03  0.9118800E+02  0.7818608E-02  0.1180000E+00
       11   -1    0    0    0    0  0.00000000000E+00  0.00000000000E+00  0.39999999673E+01  0.40000000000E+01  0.51109989000E-03 0.  1.
     -623   -1    0    0    0    0  0.00000000000E+00  0.00000000000E+00  0.12525980253E-10  0.17130000000E+03  0.17130000000E+03 0.  1.
       11    1    1    2    0    0  0.33808885318E+00  0.42698684104E+00  0.36423983633E+00  0.65520436099E+00  0.51109989000E-03 0.  1.
     -623    1    1    2    0    0 -0.12532753113E+00 -0.86249144911E+00  0.13682951600E+01  0.17130768176E+03  0.17130000000E+03 0.  1.
      622    1    1    2    0    0 -0.21276132205E+00  0.43550460807E+00  0.22674649710E+01  0.33371138786E+01  0.24000000000E+01 0.  1.
</event>
<event>
 5   0  0.6825300E-03  0.9118800E+02  0.7818608E-02  0.1180000E+00
       11   -1    0    0    0    0  0.00000000000E+00  0.00000000000E+00  0.39999999673E+01  0.40000000000E+01  0.51109989000E-03 0. -1.
     -623   -1    0    0    0    0  0.00000000000E+00  0.00000000000E+00  0.12525980253E-10  0.17130000000E+03  0.17130000000E+03 0. -1.
       11    1    1    2    0    0 -0.55427157188E-01 -0.37641787964E-01  0.11743078605E+00  0.13520105285E+00  0.51109989000E-03 0. -1.
     -623    1    1    2    0    0 -0.19772610113E-01  0.17866265381E+00  0.86036726603E+00  0.17130225493E+03  0.17130000000E+03 0. -1.
      622    1    1    2    0    0  0.75199767301E-01 -0.14102086585E+00  0.30222019153E+01  0.38625440200E+01  0.24000000000E+01 0. -1.
</event>
<event>
 5   0  0.6825300E-03  0.9118800E+02  0.7818608E-02  0.1180000E+00
       11   -1    0    0    0    0  0.00000000000E+00  0.00000000000E+00  0.39999999673E+01  0.40000000000E+01  0.51109989000E-03 0.  1.
     -623   -1    0    0    0    0  0.00000000000E+00  0.00000000000E+00  0.12525980253E-10  0.17130000000E+03  0.17130000000E+03 0.  1.
       11    1    1    2    0    0 -0.15936421864E+00 -0.31674598866E+00  0.19318787892E+00  0.40379053146E+00  0.51109989000E-03 0.  1.
     -623    1    1    2    0    0  0.45823104314E+00 -0.38293865901E+00  0.12467820605E+01  0.17130557809E+03  0.17130000000E+03 0.  1.
      622    1    1    2    0    0 -0.29886682450E+00  0.69968464767E+00  0.25600300279E+01  0.35906313830E+01  0.24000000000E+01 0.  1.
</event>
<event>
 5   0  0.6825300E-03  0.9118800E+02  0.7818608E-02  0.1180000E+00
       11   -1    0    0    0    0  0.00000000000E+00  0.00000000000E+00  0.39999999673E+01  0.40000000000E+01  0.51109989000E-03 0.  1.
     -623   -1    0    0    0    0  0.00000000000E+00  0.00000000000E+00  0.12525980253E-10  0.17130000000E+03  0.17130000000E+03 0. -1.
       11    1    1    2    0    0 -0.12083207906E+00  0.26322591253E-01 -0.24142716803E-01  0.12600159578E+00  0.51109989000E-03 0.  1.
     -623    1    1    2    0    0 -0.22409111373E-01 -0.40569080463E+00  0.10147545849E+01  0.17130348745E+03  0.17130000000E+03 0. -1.
      622    1    1    2    0    0  0.14324119043E+00  0.37936821338E+00  0.30093880993E+01  0.38705109498E+01  0.24000000000E+01 0.  1.
</event>
<event>
 5   0  0.6825300E-03  0.9118800E+02  0.7818608E-02  0.1180000E+00
       11   -1    0    0    0    0  0.00000000000E+00  0.00000000000E+00  0.39999999673E+01  0.40000000000E+01  0.51109989000E-03 0.  1.
     -623   -1    0    0    0    0  0.00000000000E+00  0.00000000000E+00  0.12525980253E-10  0.17130000000E+03  0.17130000000E+03 0. -1.
       11    1    1    2    0    0  0.42505841823E-01 -0.34962654029E-01 -0.23747729962E-01  0.59944554921E-01  0.51109989000E-03 0.  1.
     -623    1    1    2    0    0  0.20630052422E+00  0.65994483795E-01  0.91232479474E+00  0.17130256639E+03  0.17130000000E+03 0. -1.
      622    1    1    2    0    0 -0.24880636604E+00 -0.31031829766E-01  0.31114229026E+01  0.39374890553E+01  0.24000000000E+01 0.  1.
</event>
<event>
 5   0  0.6825300E-03  0.9118800E+02  0.7818608E-02  0.1180000E+00
       11   -1    0    0    0    0  0.00000000000E+00  0.00000000000E+00  0.39999999673E+01  0.40000000000E+01  0.51109989000E-03 0.  1.
     -623   -1    0    0    0    0  0.00000000000E+00  0.00000000000E+00  0.12525980253E-10  0.17130000000E+03  0.17130000000E+03 0.  1.
       11    1    1    2    0    0 -0.43635093666E+00 -0.16851061091E+00  0.13982645682E+00  0.48821067703E+00  0.51109989000E-03 0.  1.
     -623    1    1    2    0    0  0.38637762892E-02  0.17907522763E+00  0.13406433460E+01  0.17130533969E+03  0.17130000000E+03 0.  1.
      622    1    1    2    0    0  0.43248716037E+00 -0.10564616712E-01  0.25195301646E+01  0.35064496296E+01  0.24000000000E+01 0.  1.
</event>
<event>
 5   0  0.6825300E-03  0.9118800E+02  0.7818608E-02  0.1180000E+00
       11   -1    0    0    0    0  0.00000000000E+00  0.00000000000E+00  0.39999999673E+01  0.40000000000E+01  0.51109989000E-03 0. -1.
     -623   -1    0    0    0    0  0.00000000000E+00  0.00000000000E+00  0.12525980253E-10  0.17130000000E+03  0.17130000000E+03 0.  1.
       11    1    1    2    0    0 -0.26265770631E+00 -0.27790322532E-01  0.46311781405E+00  0.53314139177E+00  0.51109989000E-03 0. -1.
     -623    1    1    2    0    0  0.47634900193E+00 -0.13467209726E+00  0.10550320493E+01  0.17130396416E+03  0.17130000000E+03 0.  1.
      622    1    1    2    0    0 -0.21369129561E+00  0.16246241979E+00  0.24818501040E+01  0.34628944464E+01  0.24000000000E+01 0. -1.
</event>
<event>
 5   0  0.6825300E-03  0.9118800E+02  0.7818608E-02  0.1180000E+00
       11   -1    0    0    0    0  0.00000000000E+00  0.00000000000E+00  0.39999999673E+01  0.40000000000E+01  0.51109989000E-03 0.  1.
     -623   -1    0    0    0    0  0.00000000000E+00  0.00000000000E+00  0.12525980253E-10  0.17130000000E+03  0.17130000000E+03 0.  1.
       11    1    1    2    0    0 -0.15785546352E+00 -0.11204625754E+00  0.10460455117E-01  0.19386178978E+00  0.51109989000E-03 0.  1.
     -623    1    1    2    0    0  0.18432558165E+00  0.20768821109E+00  0.10414829231E+01  0.17130339108E+03  0.17130000000E+03 0.  1.
      622    1    1    2    0    0 -0.26470118126E-01 -0.95641953547E-01  0.29480565892E+01  0.38027471259E+01  0.24000000000E+01 0.  1.
</event>
<event>
 5   0  0.6825300E-03  0.9118800E+02  0.7818608E-02  0.1180000E+00
       11   -1    0    0    0    0  0.00000000000E+00  0.00000000000E+00  0.39999999673E+01  0.40000000000E+01  0.51109989000E-03 0.  1.
     -623   -1    0    0    0    0  0.00000000000E+00  0.00000000000E+00  0.12525980253E-10  0.17130000000E+03  0.17130000000E+03 0.  1.
       11    1    1    2    0    0 -0.82890812233E-01  0.24115575263E+00  0.58119164490E-01  0.26154365273E+00  0.51109989000E-03 0.  1.
     -623    1    1    2    0    0 -0.90475026993E-01 -0.26215299857E+00  0.10856292564E+01  0.17130366459E+03  0.17130000000E+03 0.  1.
      622    1    1    2    0    0  0.17336583923E+00  0.20997245937E-01  0.28562515465E+01  0.37347917606E+01  0.24000000000E+01 0.  1.
</event>
<event>
 5   0  0.6825300E-03  0.9118800E+02  0.7818608E-02  0.1180000E+00
       11   -1    0    0    0    0  0.00000000000E+00  0.00000000000E+00  0.39999999673E+01  0.40000000000E+01  0.51109989000E-03 0. -1.
     -623   -1    0    0    0    0  0.00000000000E+00  0.00000000000E+00  0.12525980253E-10  0.17130000000E+03  0.17130000000E+03 0.  1.
       11    1    1    2    0    0  0.55872784459E-01  0.34122376028E-01  0.44528934266E-01  0.79178228062E-01  0.51109989000E-03 0. -1.
     -623    1    1    2    0    0  0.16548772905E+00  0.16430297473E-01  0.86621780903E+00  0.17130227082E+03  0.17130000000E+03 0.  1.
      622    1    1    2    0    0 -0.22136051351E+00 -0.50552673501E-01  0.30892532241E+01  0.39185509480E+01  0.24000000000E+01 0. -1.
</event>
<event>
 5   0  0.6825300E-03  0.9118800E+02  0.7818608E-02  0.1180000E+00
       11   -1    0    0    0    0  0.00000000000E+00  0.00000000000E+00  0.39999999673E+01  0.40000000000E+01  0.51109989000E-03 0.  1.
     -623   -1    0    0    0    0  0.00000000000E+00  0.00000000000E+00  0.12525980253E-10  0.17130000000E+03  0.17130000000E+03 0.  1.
       11    1    1    2    0    0 -0.98801438082E-01  0.32996295552E+00  0.35323611119E+00  0.49336932176E+00  0.51109989000E-03 0.  1.
     -623    1    1    2    0    0 -0.49353477388E+00  0.22729841024E+00  0.12305596719E+01  0.17130528164E+03  0.17130000000E+03 0.  1.
      622    1    1    2    0    0  0.59233621196E+00 -0.55726136576E+00  0.24162041842E+01  0.35013490368E+01  0.24000000000E+01 0.  1.
</event>
<event>
 5   0  0.6825300E-03  0.9118800E+02  0.7818608E-02  0.1180000E+00
       11   -1    0    0    0    0  0.00000000000E+00  0.00000000000E+00  0.39999999673E+01  0.40000000000E+01  0.51109989000E-03 0.  1.
     -623   -1    0    0    0    0  0.00000000000E+00  0.00000000000E+00  0.12525980253E-10  0.17130000000E+03  0.17130000000E+03 0.  1.
       11    1    1    2    0    0  0.54896962413E-01 -0.69132257995E-01  0.34119550858E-01  0.94643280540E-01  0.51109989000E-03 0.  1.
     -623    1    1    2    0    0  0.87619278216E-01  0.98930109303E-01  0.89145326457E+00  0.17130237054E+03  0.17130000000E+03 0.  1.
      622    1    1    2    0    0 -0.14251624063E+00 -0.29797851309E-01  0.30744271519E+01  0.39029861777E+01  0.24000000000E+01 0.  1.
</event>
<event>
 5   0  0.6825300E-03  0.9118800E+02  0.7818608E-02  0.1180000E+00
       11   -1    0    0    0    0  0.00000000000E+00  0.00000000000E+00  0.39999999673E+01  0.40000000000E+01  0.51109989000E-03 0. -1.
     -623   -1    0    0    0    0  0.00000000000E+00  0.00000000000E+00  0.12525980253E-10  0.17130000000E+03  0.17130000000E+03 0. -1.
       11    1    1    2    0    0 -0.41979294943E+00 -0.52969453369E+00  0.11114784107E+00  0.68495001512E+00  0.51109989000E-03 0. -1.
     -623    1    1    2    0    0  0.29858993542E+00  0.80522652063E+00  0.16365318974E+01  0.17130996989E+03  0.17130000000E+03 0. -1.
      622    1    1    2    0    0  0.12120301401E+00 -0.27553198694E+00  0.22523202289E+01  0.33050800989E+01  0.24000000000E+01 0. -1.
</event>
<event>
 5   0  0.6825300E-03  0.9118800E+02  0.7818608E-02  0.1180000E+00
       11   -1    0    0    0    0  0.00000000000E+00  0.00000000000E+00  0.39999999673E+01  0.40000000000E+01  0.51109989000E-03 0. -1.
     -623   -1    0    0    0    0  0.00000000000E+00  0.00000000000E+00  0.12525980253E-10  0.17130000000E+03  0.17130000000E+03 0.  1.
       11    1    1    2    0    0  0.96764963557E-01 -0.22030760859E-01 -0.16499954170E-01  0.10060478272E+00  0.51109989000E-03 0. -1.
     -623    1    1    2    0    0  0.15106003155E+00 -0.49566648371E+00  0.10020513212E+01  0.17130371453E+03  0.17130000000E+03 0.  1.
      622    1    1    2    0    0 -0.24782499511E+00  0.51769724457E+00  0.30144486003E+01  0.38956806888E+01  0.24000000000E+01 0. -1.
</event>
<event>
 5   0  0.6825300E-03  0.9118800E+02  0.7818608E-02  0.1180000E+00
       11   -1    0    0    0    0  0.00000000000E+00  0.00000000000E+00  0.39999999673E+01  0.40000000000E+01  0.51109989000E-03 0. -1.
     -623   -1    0    0    0    0  0.00000000000E+00  0.00000000000E+00  0.12525980253E-10  0.17130000000E+03  0.17130000000E+03 0.  1.
       11    1    1    2    0    0 -0.62682488453E+00 -0.10048812496E+00  0.71339544860E+00  0.95495582434E+00  0.51109989000E-03 0. -1.
     -623    1    1    2    0    0  0.92253735828E+00 -0.12221757460E+00  0.14640145017E+01  0.17130878364E+03  0.17130000000E+03 0.  1.
      622    1    1    2    0    0 -0.29571247375E+00  0.22270569956E+00  0.18225900170E+01  0.30362605399E+01  0.24000000000E+01 0. -1.
</event>
<event>
 5   0  0.6825300E-03  0.9118800E+02  0.7818608E-02  0.1180000E+00
       11   -1    0    0    0    0  0.00000000000E+00  0.00000000000E+00  0.39999999673E+01  0.40000000000E+01  0.51109989000E-03 0.  1.
     -623   -1    0    0    0    0  0.00000000000E+00  0.00000000000E+00  0.12525980253E-10  0.17130000000E+03  0.17130000000E+03 0. -1.
       11    1    1    2    0    0  0.20602255782E+00 -0.57174716796E+00  0.21568000001E+00  0.64487071730E+00  0.51109989000E-03 0.  1.
     -623    1    1    2    0    0 -0.33989106515E+00  0.97206476100E-01  0.15023965906E+01  0.17130695307E+03  0.17130000000E+03 0. -1.
      622    1    1    2    0    0  0.13386850734E+00  0.47454069186E+00  0.22819233768E+01  0.33481762115E+01  0.24000000000E+01 0.  1.
</event>
<event>
 5   0  0.6825300E-03  0.9118800E+02  0.7818608E-02  0.1180000E+00
       11   -1    0    0    0    0  0.00000000000E+00  0.00000000000E+00  0.39999999673E+01  0.40000000000E+01  0.51109989000E-03 0.  1.
     -623   -1    0    0    0    0  0.00000000000E+00  0.00000000000E+00  0.12525980253E-10  0.17130000000E+03  0.17130000000E+03 0.  1.
       11    1    1    2    0    0  0.21879359152E+00 -0.35042041413E-01  0.17920553517E+00  0.28497976317E+00  0.51109989000E-03 0.  1.
     -623    1    1    2    0    0 -0.35696604455E+00  0.10242470305E+01  0.11772661651E+01  0.17130747929E+03  0.17130000000E+03 0.  1.
      622    1    1    2    0    0  0.13817245303E+00 -0.98920498912E+00  0.26435282671E+01  0.37075409420E+01  0.24000000000E+01 0.  0.
</event>
<event>
 5   0  0.6825300E-03  0.9118800E+02  0.7818608E-02  0.1180000E+00
       11   -1    0    0    0    0  0.00000000000E+00  0.00000000000E+00  0.39999999673E+01  0.40000000000E+01  0.51109989000E-03 0.  1.
     -623   -1    0    0    0    0  0.00000000000E+00  0.00000000000E+00  0.12525980253E-10  0.17130000000E+03  0.17130000000E+03 0.  1.
       11    1    1    2    0    0  0.29352899947E+00 -0.52741019023E-01  0.45119539298E+00  0.54084973189E+00  0.51109989000E-03 0.  1.
     -623    1    1    2    0    0 -0.45787591719E+00  0.50413541473E+00  0.11114561612E+01  0.17130495947E+03  0.17130000000E+03 0.  1.
      622    1    1    2    0    0  0.16434691772E+00 -0.45139439571E+00  0.24373484132E+01  0.34541908020E+01  0.24000000000E+01 0.  1.
</event>
<event>
 5   0  0.6825300E-03  0.9118800E+02  0.7818608E-02  0.1180000E+00
       11   -1    0    0    0    0  0.00000000000E+00  0.00000000000E+00  0.39999999673E+01  0.40000000000E+01  0.51109989000E-03 0. -1.
     -623   -1    0    0    0    0  0.00000000000E+00  0.00000000000E+00  0.12525980253E-10  0.17130000000E+03  0.17130000000E+03 0.  1.
       11    1    1    2    0    0 -0.20170419704E-01  0.62603397195E-01 -0.29110319629E-03  0.65775201514E-01  0.51109989000E-03 0. -1.
     -623    1    1    2    0    0  0.38921639628E+00  0.27152422472E+00  0.92695540118E+00  0.17130316536E+03  0.17130000000E+03 0.  1.
      622    1    1    2    0    0 -0.36904597657E+00 -0.33412762191E+00  0.30733356694E+01  0.39310594421E+01  0.24000000000E+01 0. -1.
</event>
<event>
 5   0  0.6825300E-03  0.9118800E+02  0.7818608E-02  0.1180000E+00
       11   -1    0    0    0    0  0.00000000000E+00  0.00000000000E+00  0.39999999673E+01  0.40000000000E+01  0.51109989000E-03 0.  1.
     -623   -1    0    0    0    0  0.00000000000E+00  0.00000000000E+00  0.12525980253E-10  0.17130000000E+03  0.17130000000E+03 0. -1.
       11    1    1    2    0    0 -0.13028619879E+00  0.64357404209E-01 -0.12825142656E+00  0.19381707537E+00  0.51109989000E-03 0.  1.
     -623    1    1    2    0    0 -0.22893420088E-01 -0.31044805274E+00  0.11941095510E+01  0.17130444478E+03  0.17130000000E+03 0. -1.
      622    1    1    2    0    0  0.15317961888E+00  0.24609064853E+00  0.29341418429E+01  0.38017381495E+01  0.24000000000E+01 0.  1.
</event>
<event>
 5   0  0.6825300E-03  0.9118800E+02  0.7818608E-02  0.1180000E+00
       11   -1    0    0    0    0  0.00000000000E+00  0.00000000000E+00  0.39999999673E+01  0.40000000000E+01  0.51109989000E-03 0.  1.
     -623   -1    0    0    0    0  0.00000000000E+00  0.00000000000E+00  0.12525980253E-10  0.17130000000E+03  0.17130000000E+03 0. -1.
       11    1    1    2    0    0  0.12701644211E+00  0.22542906207E+00  0.36985674332E+00  0.45138200051E+00  0.51109989000E-03 0.  1.
     -623    1    1    2    0    0 -0.34694560833E+00 -0.74323856686E+00  0.10849711276E+01  0.17130539961E+03  0.17130000000E+03 0. -1.
      622    1    1    2    0    0  0.21992916622E+00  0.51780950479E+00  0.25451720964E+01  0.35432183847E+01  0.24000000000E+01 0.  1.
</event>
<event>
 5   0  0.6825300E-03  0.9118800E+02  0.7818608E-02  0.1180000E+00
       11   -1    0    0    0    0  0.00000000000E+00  0.00000000000E+00  0.39999999673E+01  0.40000000000E+01  0.51109989000E-03 0. -1.
     -623   -1    0    0    0    0  0.00000000000E+00  0.00000000000E+00  0.12525980253E-10  0.17130000000E+03  0.17130000000E+03 0. -1.
       11    1    1    2    0    0  0.19455660926E-01  0.98463048025E-01  0.11626856196E+00  0.15359731212E+00  0.51109989000E-03 0. -1.
     -623    1    1    2    0    0  0.94322475708E-01 -0.51665538709E+00  0.91353588028E+00  0.17130324100E+03  0.17130000000E+03 0. -1.
      622    1    1    2    0    0 -0.11377813663E+00  0.41819233907E+00  0.29701955251E+01  0.38431616872E+01  0.24000000000E+01 0.  0.
</event>
<event>
 5   0  0.6825300E-03  0.9118800E+02  0.7818608E-02  0.1180000E+00
       11   -1    0    0    0    0  0.00000000000E+00  0.00000000000E+00  0.39999999673E+01  0.40000000000E+01  0.51109989000E-03 0.  1.
     -623   -1    0    0    0    0  0.00000000000E+00  0.00000000000E+00  0.12525980253E-10  0.17130000000E+03  0.17130000000E+03 0. -1.
       11    1    1    2    0    0  0.69436698573E-01  0.88653103284E-01  0.65189321657E+00  0.66154807449E+00  0.51109989000E-03 0.  1.
     -623    1    1    2    0    0 -0.10505100883E+01 -0.36740976997E+00  0.12770684312E+01  0.17130837535E+03  0.17130000000E+03 0.  1.
      622    1    1    2    0    0  0.98107338977E+00  0.27875666669E+00  0.20710383196E+01  0.33300765752E+01  0.24000000000E+01 0.  1.
</event>
</LesHouchesEvents>
